<event>
 7    1  0.5646756E-010  0.4778727E+02  0.7816164E-02  0.1312668E+00
        -11   -1    0    0    0    0  0.00000000000E+00  0.00000000000E+00  0.45593999997E+02  0.45594000000E+02  0.51100000000E-03 0. -1.
         11   -1    0    0    0    0 -0.00000000000E+00 -0.00000000000E+00 -0.45593999997E+02  0.45594000000E+02  0.51100000000E-03 0.  1.
    9900012    2    1    2    0    0  0.11889755011E+02 -0.18283148458E+02 -0.37523102162E+02  0.47787274342E+02  0.20000015034E+02 0.  0.
         12    1    1    2    0    0 -0.11889755011E+02  0.18283148458E+02  0.37523102162E+02  0.43400725658E+02  0.00000000000E+00 0. -1.
         11    1    3    3    0    0 -0.46177962937E+00 -0.94718553860E+01 -0.34679353871E+01  0.10097319495E+02  0.51100000000E-03 0. -1.
        -11    1    3    3    0    0  0.54742416401E+01 -0.23834744482E+01 -0.19167156403E+02  0.20075561184E+02  0.51100000000E-03 0.  1.
         12    1    3    3    0    0  0.68772930005E+01 -0.64278186241E+01 -0.14888010372E+02  0.17614393663E+02  0.00000000000E+00 0. -1.
</event>
<event>
 7    1  0.5646756E-010  0.4778727E+02  0.7816164E-02  0.1312668E+00
        -11   -1    0    0    0    0  0.00000000000E+00  0.00000000000E+00  0.45593999997E+02  0.45594000000E+02  0.51100000000E-03 0.  1.
         11   -1    0    0    0    0 -0.00000000000E+00 -0.00000000000E+00 -0.45593999997E+02  0.45594000000E+02  0.51100000000E-03 0. -1.
    9900012    2    1    2    0    0 -0.25651296959E+02  0.27106037281E+02  0.22156196452E+02  0.47787270352E+02  0.19999996842E+02 0.  0.
         12    1    1    2    0    0  0.25651296959E+02 -0.27106037281E+02 -0.22156196452E+02  0.43400729648E+02  0.00000000000E+00 0. -1.
         11    1    3    3    0    0 -0.48148640974E+01  0.93044743878E+01  0.88450808894E+00  0.10513729820E+02  0.51100000000E-03 0. -1.
        -11    1    3    3    0    0 -0.21494022619E+02  0.17523224828E+02  0.22594006532E+02  0.35770735918E+02  0.51100000000E-03 0.  1.
        -12    1    3    3    0    0  0.65758975743E+00  0.27833806575E+00 -0.13223181683E+01  0.15028046135E+01  0.00000000000E+00 0.  1.
</event>
<event>
 7    1  0.5646756E-010  0.4778727E+02  0.7816164E-02  0.1312668E+00
        -11   -1    0    0    0    0  0.00000000000E+00  0.00000000000E+00  0.45593999997E+02  0.45594000000E+02  0.51100000000E-03 0.  1.
         11   -1    0    0    0    0 -0.00000000000E+00 -0.00000000000E+00 -0.45593999997E+02  0.45594000000E+02  0.51100000000E-03 0. -1.
    9900012    2    1    2    0    0 -0.26056728306E+02  0.13611137865E+02  0.31928154463E+02  0.47787271764E+02  0.20000003280E+02 0.  0.
         12    1    1    2    0    0  0.26056728306E+02 -0.13611137865E+02 -0.31928154463E+02  0.43400728236E+02  0.00000000000E+00 0. -1.
         11    1    3    3    0    0 -0.62805264876E+01 -0.11089870811E+01 -0.25092607155E+00  0.63826193261E+01  0.51100000000E-03 0. -1.
        -11    1    3    3    0    0 -0.14167864843E+02  0.14262723940E+02  0.22210867405E+02  0.29957909132E+02  0.51100000000E-03 0.  1.
        -12    1    3    3    0    0 -0.56083369755E+01  0.45740100607E+00  0.99682131298E+01  0.11446743306E+02  0.00000000000E+00 0.  1.
</event>
<event>
 7    1  0.5646756E-010  0.4778727E+02  0.7816164E-02  0.1312668E+00
        -11   -1    0    0    0    0  0.00000000000E+00  0.00000000000E+00  0.45593999997E+02  0.45594000000E+02  0.51100000000E-03 0.  1.
         11   -1    0    0    0    0 -0.00000000000E+00 -0.00000000000E+00 -0.45593999997E+02  0.45594000000E+02  0.51100000000E-03 0. -1.
    9900012    2    1    2    0    0  0.11281473692E+02 -0.20798862513E+02  0.36383495295E+02  0.47787273504E+02  0.20000011214E+02 0.  0.
         12    1    1    2    0    0 -0.11281473692E+02  0.20798862513E+02 -0.36383495295E+02  0.43400726496E+02  0.00000000000E+00 0. -1.
         11    1    3    3    0    0  0.11817134876E+02 -0.85337022369E+01  0.16939049732E+02  0.22347262844E+02  0.51100000000E-03 0. -1.
        -11    1    3    3    0    0 -0.29027466584E+00 -0.14325303340E+02  0.16867333869E+02  0.22131550494E+02  0.51100000000E-03 0.  1.
        -12    1    3    3    0    0 -0.24538651841E+00  0.20601430635E+01  0.25771116941E+01  0.33084601659E+01  0.00000000000E+00 0.  1.
</event>
<event>
 7    1  0.5646756E-010  0.4778728E+02  0.7816164E-02  0.1312668E+00
        -11   -1    0    0    0    0  0.00000000000E+00  0.00000000000E+00  0.45593999997E+02  0.45594000000E+02  0.51100000000E-03 0.  1.
         11   -1    0    0    0    0 -0.00000000000E+00 -0.00000000000E+00 -0.45593999997E+02  0.45594000000E+02  0.51100000000E-03 0. -1.
    9900012    2    1    2    0    0  0.28476103904E+02  0.27006929410E+02  0.18529975830E+02  0.47787277264E+02  0.20000028357E+02 0.  0.
         12    1    1    2    0    0 -0.28476103904E+02 -0.27006929410E+02 -0.18529975830E+02  0.43400722736E+02  0.00000000000E+00 0. -1.
         11    1    3    3    0    0  0.19596395467E+02  0.73864092203E+01  0.56919267762E+01  0.21701976572E+02  0.51100000000E-03 0. -1.
        -11    1    3    3    0    0  0.18011783699E+01  0.74704745695E+01  0.82962138409E+01  0.11308377345E+02  0.51100000000E-03 0.  1.
         12    1    3    3    0    0  0.70785300677E+01  0.12150045621E+02  0.45418352129E+01  0.14776923347E+02  0.00000000000E+00 0. -1.
</event>
<event>
 7    1  0.5646756E-010  0.4778728E+02  0.7816164E-02  0.1312668E+00
        -11   -1    0    0    0    0  0.00000000000E+00  0.00000000000E+00  0.45593999997E+02  0.45594000000E+02  0.51100000000E-03 0. -1.
         11   -1    0    0    0    0 -0.00000000000E+00 -0.00000000000E+00 -0.45593999997E+02  0.45594000000E+02  0.51100000000E-03 0.  1.
    9900012    2    1    2    0    0  0.43301874581E+02  0.10942636795E+01  0.27153419267E+01  0.47787276077E+02  0.20000022945E+02 0.  0.
         12    1    1    2    0    0 -0.43301874581E+02 -0.10942636795E+01 -0.27153419267E+01  0.43400723923E+02  0.00000000000E+00 0. -1.
         11    1    3    3    0    0  0.93592638842E+01 -0.22526585957E+01 -0.64039376617E+01  0.11562037409E+02  0.51100000000E-03 0. -1.
        -11    1    3    3    0    0  0.32351423078E+02  0.43002973410E+01  0.69441610506E+01  0.33366577669E+02  0.51100000000E-03 0.  1.
         12    1    3    3    0    0  0.15911876197E+01 -0.95337506581E+00  0.21751185378E+01  0.28586609996E+01  0.00000000000E+00 0. -1.
</event>
<event>
 7    1  0.5646756E-010  0.4778727E+02  0.7816164E-02  0.1312668E+00
        -11   -1    0    0    0    0  0.00000000000E+00  0.00000000000E+00  0.45593999997E+02  0.45594000000E+02  0.51100000000E-03 0.  1.
         11   -1    0    0    0    0 -0.00000000000E+00 -0.00000000000E+00 -0.45593999997E+02  0.45594000000E+02  0.51100000000E-03 0. -1.
    9900012    2    1    2    0    0 -0.40264157355E+02  0.55079416073E+00  0.16190039407E+02  0.47787272843E+02  0.20000008201E+02 0.  0.
         12    1    1    2    0    0  0.40264157355E+02 -0.55079416073E+00 -0.16190039407E+02  0.43400727157E+02  0.00000000000E+00 0. -1.
         11    1    3    3    0    0 -0.21459605359E+02 -0.39561384751E+01  0.84465345484E+01  0.23398923906E+02  0.51100000000E-03 0.  1.
        -11    1    3    3    0    0 -0.87878762817E+01  0.86035531909E+01  0.38398559466E+01  0.12883803437E+02  0.51100000000E-03 0. -1.
         12    1    3    3    0    0 -0.10016675714E+02 -0.40966205551E+01  0.39036489125E+01  0.11504545500E+02  0.00000000000E+00 0. -1.
</event>
<event>
 7    1  0.5646756E-010  0.4778727E+02  0.7816164E-02  0.1312668E+00
        -11   -1    0    0    0    0  0.00000000000E+00  0.00000000000E+00  0.45593999997E+02  0.45594000000E+02  0.51100000000E-03 0.  1.
         11   -1    0    0    0    0 -0.00000000000E+00 -0.00000000000E+00 -0.45593999997E+02  0.45594000000E+02  0.51100000000E-03 0. -1.
    9900012    2    1    2    0    0  0.20172267384E+02 -0.31696248328E+02  0.21726740796E+02  0.47787265039E+02  0.19999972620E+02 0.  0.
         12    1    1    2    0    0 -0.20172267384E+02  0.31696248328E+02 -0.21726740796E+02  0.43400734961E+02  0.00000000000E+00 0. -1.
         11    1    3    3    0    0  0.92826638996E+01 -0.13278611329E+02  0.66706469858E+00  0.16215250336E+02  0.51100000000E-03 0. -1.
        -11    1    3    3    0    0  0.50496582831E+01 -0.14633298511E+02  0.97555655047E+01  0.18297637352E+02  0.51100000000E-03 0.  1.
         12    1    3    3    0    0  0.58399452015E+01 -0.37843384881E+01  0.11304110593E+02  0.13274377351E+02  0.00000000000E+00 0. -1.
</event>
<event>
 7    1  0.5646756E-010  0.4778727E+02  0.7816164E-02  0.1312668E+00
        -11   -1    0    0    0    0  0.00000000000E+00  0.00000000000E+00  0.45593999997E+02  0.45594000000E+02  0.51100000000E-03 0.  1.
         11   -1    0    0    0    0 -0.00000000000E+00 -0.00000000000E+00 -0.45593999997E+02  0.45594000000E+02  0.51100000000E-03 0. -1.
    9900012    2    1    2    0    0  0.19569767677E+02  0.87829492276E+00  0.38728233464E+02  0.47787271019E+02  0.19999999882E+02 0.  0.
         12    1    1    2    0    0 -0.19569767677E+02 -0.87829492276E+00 -0.38728233464E+02  0.43400728981E+02  0.00000000000E+00 0. -1.
         11    1    3    3    0    0  0.58258641122E+01  0.25749579357E+00  0.37955391164E+01  0.69579533042E+01  0.51100000000E-03 0. -1.
        -11    1    3    3    0    0 -0.15108156761E+01  0.48967950852E+01  0.64595781032E+01  0.82454421134E+01  0.51100000000E-03 0.  1.
        -12    1    3    3    0    0  0.15254719241E+02 -0.42759959560E+01  0.28473116244E+02  0.32583875601E+02  0.00000000000E+00 0.  1.
</event>
<event>
 7    1  0.5646756E-010  0.4778727E+02  0.7816164E-02  0.1312668E+00
        -11   -1    0    0    0    0  0.00000000000E+00  0.00000000000E+00  0.45593999997E+02  0.45594000000E+02  0.51100000000E-03 0.  1.
         11   -1    0    0    0    0 -0.00000000000E+00 -0.00000000000E+00 -0.45593999997E+02  0.45594000000E+02  0.51100000000E-03 0. -1.
    9900012    2    1    2    0    0  0.77586239138E+01 -0.33675564207E+02  0.26256110147E+02  0.47787272014E+02  0.20000004419E+02 0.  0.
         12    1    1    2    0    0 -0.77586239138E+01  0.33675564207E+02 -0.26256110147E+02  0.43400727986E+02  0.00000000000E+00 0. -1.
         11    1    3    3    0    0  0.33929750804E+00 -0.47080926387E+01  0.19730464203E+00  0.47244246715E+01  0.51100000000E-03 0. -1.
        -11    1    3    3    0    0  0.10257040945E+02 -0.90081291000E+01  0.70933881995E+01  0.15384064328E+02  0.51100000000E-03 0.  1.
        -12    1    3    3    0    0 -0.28377145395E+01 -0.19959342469E+02  0.18965417305E+02  0.27678783014E+02  0.00000000000E+00 0.  1.
</event>
<event>
 7    1  0.5646756E-010  0.4778727E+02  0.7816164E-02  0.1312668E+00
        -11   -1    0    0    0    0  0.00000000000E+00  0.00000000000E+00  0.45593999997E+02  0.45594000000E+02  0.51100000000E-03 0. -1.
         11   -1    0    0    0    0 -0.00000000000E+00 -0.00000000000E+00 -0.45593999997E+02  0.45594000000E+02  0.51100000000E-03 0.  1.
    9900012    2    1    2    0    0 -0.14856728904E+02  0.40446434067E+02  0.51949106506E+01  0.47787268220E+02  0.19999987120E+02 0.  0.
         12    1    1    2    0    0  0.14856728904E+02 -0.40446434067E+02 -0.51949106506E+01  0.43400731780E+02  0.00000000000E+00 0. -1.
         11    1    3    3    0    0  0.13954012049E+00  0.78023050238E+01  0.64525299211E+01  0.10125738382E+02  0.51100000000E-03 0. -1.
        -11    1    3    3    0    0 -0.52267570468E+01  0.11989547737E+02  0.49501537463E+01  0.13984715461E+02  0.51100000000E-03 0.  1.
         12    1    3    3    0    0 -0.97695119772E+01  0.20654581306E+02 -0.62077730168E+01  0.23676814377E+02  0.00000000000E+00 0. -1.
</event>
<event>
 7    1  0.5646756E-010  0.4778726E+02  0.7816164E-02  0.1312668E+00
        -11   -1    0    0    0    0  0.00000000000E+00  0.00000000000E+00  0.45593999997E+02  0.45594000000E+02  0.51100000000E-03 0. -1.
         11   -1    0    0    0    0 -0.00000000000E+00 -0.00000000000E+00 -0.45593999997E+02  0.45594000000E+02  0.51100000000E-03 0.  1.
    9900012    2    1    2    0    0 -0.40774656819E+02  0.87894510048E+01 -0.11991534535E+02  0.47787262815E+02  0.19999962478E+02 0.  0.
         12    1    1    2    0    0  0.40774656819E+02 -0.87894510048E+01  0.11991534535E+02  0.43400737185E+02  0.00000000000E+00 0. -1.
         11    1    3    3    0    0 -0.32842428057E+02  0.32934534201E+01 -0.20905867509E+01  0.33073289364E+02  0.51100000000E-03 0. -1.
        -11    1    3    3    0    0 -0.61967842583E+01  0.13097173572E+01 -0.53392725875E+01  0.82839197681E+01  0.51100000000E-03 0.  1.
         12    1    3    3    0    0 -0.17354445041E+01  0.41862802275E+01 -0.45616751964E+01  0.64300536831E+01  0.00000000000E+00 0. -1.
</event>
<event>
 7    1  0.5646756E-010  0.4778727E+02  0.7816164E-02  0.1312668E+00
        -11   -1    0    0    0    0  0.00000000000E+00  0.00000000000E+00  0.45593999997E+02  0.45594000000E+02  0.51100000000E-03 0.  1.
         11   -1    0    0    0    0 -0.00000000000E+00 -0.00000000000E+00 -0.45593999997E+02  0.45594000000E+02  0.51100000000E-03 0. -1.
    9900012    2    1    2    0    0 -0.34097660917E+02  0.23838138542E+02 -0.12357829032E+02  0.47787271117E+02  0.20000000332E+02 0.  0.
         12    1    1    2    0    0  0.34097660917E+02 -0.23838138542E+02  0.12357829032E+02  0.43400728883E+02  0.00000000000E+00 0. -1.
         11    1    3    3    0    0 -0.10903951525E+02  0.11613519480E+02 -0.75339938526E+01  0.17621891420E+02  0.51100000000E-03 0. -1.
        -11    1    3    3    0    0 -0.13633288166E+01  0.76214778152E+00  0.37485910282E+01  0.40609690544E+01  0.51100000000E-03 0.  1.
        -12    1    3    3    0    0 -0.21830380576E+02  0.11462471280E+02 -0.85724262079E+01  0.26104410643E+02  0.00000000000E+00 0.  1.
</event>
<event>
 7    1  0.5646756E-010  0.4778727E+02  0.7816164E-02  0.1312668E+00
        -11   -1    0    0    0    0  0.00000000000E+00  0.00000000000E+00  0.45593999997E+02  0.45594000000E+02  0.51100000000E-03 0. -1.
         11   -1    0    0    0    0 -0.00000000000E+00 -0.00000000000E+00 -0.45593999997E+02  0.45594000000E+02  0.51100000000E-03 0.  1.
    9900012    2    1    2    0    0 -0.18263421418E+02  0.34394282152E+02 -0.19159956735E+02  0.47787272486E+02  0.20000006575E+02 0.  0.
         12    1    1    2    0    0  0.18263421418E+02 -0.34394282152E+02  0.19159956735E+02  0.43400727514E+02  0.00000000000E+00 0. -1.
         11    1    3    3    0    0 -0.87365337110E+01  0.15000115843E+02 -0.17528492821E+01  0.17447148118E+02  0.51100000000E-03 0. -1.
        -11    1    3    3    0    0 -0.71378938994E+01  0.20560267725E+02 -0.17071497450E+02  0.27660624789E+02  0.51100000000E-03 0.  1.
        -12    1    3    3    0    0 -0.23889938076E+01 -0.11661014158E+01 -0.33561000194E+00  0.26794995798E+01  0.00000000000E+00 0.  1.
</event>
<event>
 7    1  0.5646756E-010  0.4778727E+02  0.7816164E-02  0.1312668E+00
        -11   -1    0    0    0    0  0.00000000000E+00  0.00000000000E+00  0.45593999997E+02  0.45594000000E+02  0.51100000000E-03 0. -1.
         11   -1    0    0    0    0 -0.00000000000E+00 -0.00000000000E+00 -0.45593999997E+02  0.45594000000E+02  0.51100000000E-03 0.  1.
    9900012    2    1    2    0    0  0.16040337939E+02  0.31451024621E+02 -0.25242098876E+02  0.47787274815E+02  0.20000017191E+02 0.  0.
         12    1    1    2    0    0 -0.16040337939E+02 -0.31451024621E+02  0.25242098876E+02  0.43400725185E+02  0.00000000000E+00 0. -1.
         11    1    3    3    0    0  0.24136498186E+01 -0.15155480686E+01 -0.55557032390E+01  0.62440715992E+01  0.51100000000E-03 0.  1.
        -11    1    3    3    0    0  0.57650515564E+01  0.22007181371E+02 -0.15066116869E+02  0.27286255315E+02  0.51100000000E-03 0. -1.
         12    1    3    3    0    0  0.78616365642E+01  0.10959391319E+02 -0.46202787675E+01  0.14256947901E+02  0.00000000000E+00 0. -1.
</event>
<event>
 7    1  0.5646756E-010  0.4778727E+02  0.7816164E-02  0.1312668E+00
        -11   -1    0    0    0    0  0.00000000000E+00  0.00000000000E+00  0.45593999997E+02  0.45594000000E+02  0.51100000000E-03 0.  1.
         11   -1    0    0    0    0 -0.00000000000E+00 -0.00000000000E+00 -0.45593999997E+02  0.45594000000E+02  0.51100000000E-03 0. -1.
    9900012    2    1    2    0    0 -0.43031205613E+02 -0.28515138306E+01  0.48792615360E+01  0.47787274421E+02  0.20000015394E+02 0.  0.
         12    1    1    2    0    0  0.43031205613E+02  0.28515138306E+01 -0.48792615360E+01  0.43400725579E+02  0.00000000000E+00 0. -1.
         11    1    3    3    0    0 -0.13434134899E+02 -0.59384867191E+00 -0.52022271353E+01  0.14418453598E+02  0.51100000000E-03 0. -1.
        -11    1    3    3    0    0 -0.52636093349E+01 -0.29350950554E+01  0.63273088103E+01  0.87381464429E+01  0.51100000000E-03 0.  1.
        -12    1    3    3    0    0 -0.24333461379E+02  0.67742989675E+00  0.37541798610E+01  0.24630674380E+02  0.00000000000E+00 0.  1.
</event>
<event>
 7    1  0.5646756E-010  0.4778728E+02  0.7816164E-02  0.1312668E+00
        -11   -1    0    0    0    0  0.00000000000E+00  0.00000000000E+00  0.45593999997E+02  0.45594000000E+02  0.51100000000E-03 0. -1.
         11   -1    0    0    0    0 -0.00000000000E+00 -0.00000000000E+00 -0.45593999997E+02  0.45594000000E+02  0.51100000000E-03 0.  1.
    9900012    2    1    2    0    0 -0.39587324340E+02 -0.16313977318E+02 -0.70937113006E+01  0.47787275993E+02  0.20000022562E+02 0.  0.
         12    1    1    2    0    0  0.39587324340E+02  0.16313977318E+02  0.70937113006E+01  0.43400724007E+02  0.00000000000E+00 0. -1.
         11    1    3    3    0    0 -0.19958563378E+00 -0.36588169783E+01  0.34058169283E+01  0.50026358369E+01  0.51100000000E-03 0. -1.
        -11    1    3    3    0    0 -0.31487475910E+02 -0.11170786741E+02 -0.78425382517E+01  0.34318406462E+02  0.51100000000E-03 0.  1.
         12    1    3    3    0    0 -0.79002627961E+01 -0.14843735992E+01 -0.26569899771E+01  0.84662336944E+01  0.00000000000E+00 0. -1.
</event>
<event>
 7    1  0.5646756E-010  0.4778727E+02  0.7816164E-02  0.1312668E+00
        -11   -1    0    0    0    0  0.00000000000E+00  0.00000000000E+00  0.45593999997E+02  0.45594000000E+02  0.51100000000E-03 0. -1.
         11   -1    0    0    0    0 -0.00000000000E+00 -0.00000000000E+00 -0.45593999997E+02  0.45594000000E+02  0.51100000000E-03 0.  1.
    9900012    2    1    2    0    0 -0.75526763586E+01  0.38121845686E+02 -0.19321113826E+02  0.47787268690E+02  0.19999989267E+02 0.  0.
         12    1    1    2    0    0  0.75526763586E+01 -0.38121845686E+02  0.19321113826E+02  0.43400731310E+02  0.00000000000E+00 0. -1.
         11    1    3    3    0    0 -0.10118153709E+02  0.28502143411E+02 -0.13926496703E+02  0.33297094831E+02  0.51100000000E-03 0. -1.
        -11    1    3    3    0    0  0.20191669857E+01  0.88830729033E+01 -0.77514279178E+01  0.11961214593E+02  0.51100000000E-03 0.  1.
         12    1    3    3    0    0  0.54631036476E+00  0.73662937203E+00  0.23568107949E+01  0.25289592660E+01  0.00000000000E+00 0. -1.
</event>
<event>
 7    1  0.5646756E-010  0.4778732E+02  0.7816164E-02  0.1312668E+00
        -11   -1    0    0    0    0  0.00000000000E+00  0.00000000000E+00  0.45593999997E+02  0.45594000000E+02  0.51100000000E-03 0.  1.
         11   -1    0    0    0    0 -0.00000000000E+00 -0.00000000000E+00 -0.45593999997E+02  0.45594000000E+02  0.51100000000E-03 0. -1.
    9900012    2    1    2    0    0 -0.15937784825E+01 -0.34977754153E+02  0.25644404437E+02  0.47787321498E+02  0.20000230038E+02 0.  0.
         12    1    1    2    0    0  0.15937784825E+01  0.34977754153E+02 -0.25644404437E+02  0.43400678502E+02  0.00000000000E+00 0. -1.
         11    1    3    3    0    0  0.13978077613E+01  0.64568758109E+00 -0.12927525156E+01  0.20104696758E+01  0.51100000000E-03 0. -1.
        -11    1    3    3    0    0 -0.82077911010E+00 -0.24664422531E+02  0.12930663321E+02  0.27860536092E+02  0.51100000000E-03 0.  1.
         12    1    3    3    0    0 -0.21708071337E+01 -0.10959019203E+02  0.14006493631E+02  0.17916315731E+02  0.00000000000E+00 0. -1.
</event>
<event>
 7    1  0.5646756E-010  0.4778727E+02  0.7816164E-02  0.1312668E+00
        -11   -1    0    0    0    0  0.00000000000E+00  0.00000000000E+00  0.45593999997E+02  0.45594000000E+02  0.51100000000E-03 0.  1.
         11   -1    0    0    0    0 -0.00000000000E+00 -0.00000000000E+00 -0.45593999997E+02  0.45594000000E+02  0.51100000000E-03 0. -1.
    9900012    2    1    2    0    0 -0.11966047662E+02 -0.29104676811E+02  0.29889037458E+02  0.47787273403E+02  0.20000010755E+02 0.  0.
         12    1    1    2    0    0  0.11966047662E+02  0.29104676811E+02 -0.29889037458E+02  0.43400726597E+02  0.00000000000E+00 0. -1.
         11    1    3    3    0    0 -0.96246552647E+01 -0.25695940026E+02  0.17274159434E+02  0.32423940341E+02  0.51100000000E-03 0. -1.
        -11    1    3    3    0    0 -0.37036971103E+01 -0.21028156060E+01  0.12778058422E+02  0.13469149307E+02  0.51100000000E-03 0.  1.
         12    1    3    3    0    0  0.13623047132E+01 -0.13059211791E+01 -0.16318039798E+00  0.18941837556E+01  0.00000000000E+00 0. -1.
</event>
<event>
 7    1  0.5646756E-010  0.4778727E+02  0.7816164E-02  0.1312668E+00
        -11   -1    0    0    0    0  0.00000000000E+00  0.00000000000E+00  0.45593999997E+02  0.45594000000E+02  0.51100000000E-03 0.  1.
         11   -1    0    0    0    0 -0.00000000000E+00 -0.00000000000E+00 -0.45593999997E+02  0.45594000000E+02  0.51100000000E-03 0. -1.
    9900012    2    1    2    0    0 -0.33900930749E+02  0.13935182862E+01  0.27063043256E+02  0.47787270638E+02  0.19999998148E+02 0.  0.
         12    1    1    2    0    0  0.33900930749E+02 -0.13935182862E+01 -0.27063043256E+02  0.43400729362E+02  0.00000000000E+00 0. -1.
         11    1    3    3    0    0 -0.39654631956E+01  0.53655540934E+01  0.56759927282E+01  0.87596211560E+01  0.51100000000E-03 0. -1.
        -11    1    3    3    0    0 -0.28410734349E+02 -0.63932934312E+01  0.21445609253E+02  0.36165704523E+02  0.51100000000E-03 0.  1.
        -12    1    3    3    0    0 -0.15247332037E+01  0.24212576241E+01 -0.58558725145E-01  0.28619449591E+01  0.00000000000E+00 0.  1.
</event>
<event>
 7    1  0.5646756E-010  0.4778728E+02  0.7816164E-02  0.1312668E+00
        -11   -1    0    0    0    0  0.00000000000E+00  0.00000000000E+00  0.45593999997E+02  0.45594000000E+02  0.51100000000E-03 0. -1.
         11   -1    0    0    0    0 -0.00000000000E+00 -0.00000000000E+00 -0.45593999997E+02  0.45594000000E+02  0.51100000000E-03 0.  1.
    9900012    2    1    2    0    0  0.31461064228E+02 -0.26655677790E+02 -0.13538774434E+02  0.47787284177E+02  0.20000059876E+02 0.  0.
         12    1    1    2    0    0 -0.31461064228E+02  0.26655677790E+02  0.13538774434E+02  0.43400715823E+02  0.00000000000E+00 0. -1.
         11    1    3    3    0    0  0.33652544202E+01 -0.53025055944E+01 -0.81503380480E+00  0.63329126992E+01  0.51100000000E-03 0. -1.
        -11    1    3    3    0    0  0.76778297416E+01 -0.24769864524E+01 -0.10936925663E+02  0.13590469994E+02  0.51100000000E-03 0.  1.
        -12    1    3    3    0    0  0.20417980066E+02 -0.18876185743E+02 -0.17868149664E+01  0.27863901484E+02  0.00000000000E+00 0.  1.
</event>
<event>
 7    1  0.5646756E-010  0.4778725E+02  0.7816164E-02  0.1312668E+00
        -11   -1    0    0    0    0  0.00000000000E+00  0.00000000000E+00  0.45593999997E+02  0.45594000000E+02  0.51100000000E-03 0.  1.
         11   -1    0    0    0    0 -0.00000000000E+00 -0.00000000000E+00 -0.45593999997E+02  0.45594000000E+02  0.51100000000E-03 0. -1.
    9900012    2    1    2    0    0  0.21965662707E+02 -0.37431680933E+02 -0.65470042472E-01  0.47787246989E+02  0.19999890319E+02 0.  0.
         12    1    1    2    0    0 -0.21965662707E+02  0.37431680933E+02  0.65470042472E-01  0.43400753011E+02  0.00000000000E+00 0. -1.
         11    1    3    3    0    0  0.10579609023E+02 -0.39734949621E+01  0.25940110824E+00  0.11304161998E+02  0.51100000000E-03 0. -1.
        -11    1    3    3    0    0  0.82641140574E+01 -0.27235713852E+02 -0.37787847956E+01  0.28711651032E+02  0.51100000000E-03 0.  1.
        -12    1    3    3    0    0  0.31219396273E+01 -0.62224721188E+01  0.34539136448E+01  0.77714339585E+01  0.00000000000E+00 0.  1.
</event>
<event>
 7    1  0.5646756E-010  0.4778727E+02  0.7816164E-02  0.1312668E+00
        -11   -1    0    0    0    0  0.00000000000E+00  0.00000000000E+00  0.45593999997E+02  0.45594000000E+02  0.51100000000E-03 0. -1.
         11   -1    0    0    0    0 -0.00000000000E+00 -0.00000000000E+00 -0.45593999997E+02  0.45594000000E+02  0.51100000000E-03 0.  1.
    9900012    2    1    2    0    0 -0.23607634495E+02 -0.35960292928E+02 -0.57585052753E+01  0.47787268936E+02  0.19999990386E+02 0.  0.
         12    1    1    2    0    0  0.23607634495E+02  0.35960292928E+02  0.57585052753E+01  0.43400731064E+02  0.00000000000E+00 0. -1.
         11    1    3    3    0    0 -0.57827081670E+01 -0.77581139161E+01  0.36309763842E+01  0.10334990810E+02  0.51100000000E-03 0. -1.
        -11    1    3    3    0    0 -0.18465559708E+02 -0.28837635428E+02 -0.70724971286E+01  0.34965787969E+02  0.51100000000E-03 0.  1.
        -12    1    3    3    0    0  0.64063338019E+00  0.63545641595E+00 -0.23169845310E+01  0.24864901570E+01  0.00000000000E+00 0.  1.
</event>
<event>
 7    1  0.5646756E-010  0.4778727E+02  0.7816164E-02  0.1312668E+00
        -11   -1    0    0    0    0  0.00000000000E+00  0.00000000000E+00  0.45593999997E+02  0.45594000000E+02  0.51100000000E-03 0. -1.
         11   -1    0    0    0    0 -0.00000000000E+00 -0.00000000000E+00 -0.45593999997E+02  0.45594000000E+02  0.51100000000E-03 0.  1.
    9900012    2    1    2    0    0  0.16205498207E+02 -0.38861987140E+02 -0.10523834932E+02  0.47787270533E+02  0.19999997669E+02 0.  0.
         12    1    1    2    0    0 -0.16205498207E+02  0.38861987140E+02  0.10523834932E+02  0.43400729467E+02  0.00000000000E+00 0. -1.
         11    1    3    3    0    0  0.15166193992E+02 -0.26500208632E+02 -0.92621821021E+01  0.31907091928E+02  0.51100000000E-03 0. -1.
        -11    1    3    3    0    0  0.17212759091E+01 -0.11914579129E+02 -0.42623959882E+01  0.12770591467E+02  0.51100000000E-03 0.  1.
         12    1    3    3    0    0 -0.68197169399E+00 -0.44719937842E+00  0.30007431580E+01  0.31095871391E+01  0.00000000000E+00 0. -1.
</event>
<event>
 7    1  0.5646756E-010  0.4778727E+02  0.7816164E-02  0.1312668E+00
        -11   -1    0    0    0    0  0.00000000000E+00  0.00000000000E+00  0.45593999997E+02  0.45594000000E+02  0.51100000000E-03 0.  1.
         11   -1    0    0    0    0 -0.00000000000E+00 -0.00000000000E+00 -0.45593999997E+02  0.45594000000E+02  0.51100000000E-03 0. -1.
    9900012    2    1    2    0    0  0.39113688038E+02  0.96497636823E+01  0.16143884175E+02  0.47787268125E+02  0.19999986688E+02 0.  0.
         12    1    1    2    0    0 -0.39113688038E+02 -0.96497636823E+01 -0.16143884175E+02  0.43400731875E+02  0.00000000000E+00 0. -1.
         11    1    3    3    0    0  0.13332520915E+02  0.41556106022E+01  0.14144772629E+02  0.19877117659E+02  0.51100000000E-03 0. -1.
        -11    1    3    3    0    0  0.19803168496E+02  0.20848995418E+01  0.47954249960E+01  0.20481903957E+02  0.51100000000E-03 0.  1.
         12    1    3    3    0    0  0.59779986272E+01  0.34092535382E+01 -0.27963134505E+01  0.74282465083E+01  0.00000000000E+00 0. -1.
</event>
<event>
 7    1  0.5646756E-010  0.4778728E+02  0.7816164E-02  0.1312668E+00
        -11   -1    0    0    0    0  0.00000000000E+00  0.00000000000E+00  0.45593999997E+02  0.45594000000E+02  0.51100000000E-03 0.  1.
         11   -1    0    0    0    0 -0.00000000000E+00 -0.00000000000E+00 -0.45593999997E+02  0.45594000000E+02  0.51100000000E-03 0. -1.
    9900012    2    1    2    0    0  0.36777515580E+02 -0.23022927965E+02  0.99067447941E+00  0.47787282261E+02  0.20000051141E+02 0.  0.
         12    1    1    2    0    0 -0.36777515580E+02  0.23022927965E+02 -0.99067447941E+00  0.43400717739E+02  0.00000000000E+00 0. -1.
         11    1    3    3    0    0  0.59758077946E+01 -0.74555073573E+01 -0.62124334377E+01  0.11396894236E+02  0.51100000000E-03 0. -1.
        -11    1    3    3    0    0  0.13855255289E+02 -0.11045722427E+02  0.63758673570E+01  0.18831563076E+02  0.51100000000E-03 0.  1.
         12    1    3    3    0    0  0.16946452496E+02 -0.45216981814E+01  0.82724056016E+00  0.17558824949E+02  0.00000000000E+00 0. -1.
</event>
<event>
 7    1  0.5646756E-010  0.4778727E+02  0.7816164E-02  0.1312668E+00
        -11   -1    0    0    0    0  0.00000000000E+00  0.00000000000E+00  0.45593999997E+02  0.45594000000E+02  0.51100000000E-03 0.  1.
         11   -1    0    0    0    0 -0.00000000000E+00 -0.00000000000E+00 -0.45593999997E+02  0.45594000000E+02  0.51100000000E-03 0. -1.
    9900012    2    1    2    0    0 -0.81012570531E+01  0.13935520988E+01  0.42615147911E+02  0.47787272071E+02  0.20000004681E+02 0.  0.
         12    1    1    2    0    0  0.81012570531E+01 -0.13935520988E+01 -0.42615147911E+02  0.43400727929E+02  0.00000000000E+00 0. -1.
         11    1    3    3    0    0 -0.11051360687E+02  0.15402038691E+01  0.25360085603E+02  0.27706294285E+02  0.51100000000E-03 0. -1.
        -11    1    3    3    0    0 -0.27190581448E+01  0.20408869736E+01  0.10293470768E+02  0.10840389179E+02  0.51100000000E-03 0.  1.
         12    1    3    3    0    0  0.56691617789E+01 -0.21875387439E+01  0.69615915404E+01  0.92405886072E+01  0.00000000000E+00 0. -1.
</event>
<event>
 7    1  0.5646756E-010  0.4778726E+02  0.7816164E-02  0.1312668E+00
        -11   -1    0    0    0    0  0.00000000000E+00  0.00000000000E+00  0.45593999997E+02  0.45594000000E+02  0.51100000000E-03 0.  1.
         11   -1    0    0    0    0 -0.00000000000E+00 -0.00000000000E+00 -0.45593999997E+02  0.45594000000E+02  0.51100000000E-03 0. -1.
    9900012    2    1    2    0    0  0.27521834395E+02 -0.30351734697E+02  0.14315894740E+02  0.47787262566E+02  0.19999961346E+02 0.  0.
         12    1    1    2    0    0 -0.27521834395E+02  0.30351734697E+02 -0.14315894740E+02  0.43400737434E+02  0.00000000000E+00 0. -1.
         11    1    3    3    0    0  0.91543273931E+00  0.93303461948E+00  0.84520347415E+00  0.15565795435E+01  0.51100000000E-03 0. -1.
        -11    1    3    3    0    0  0.74182149296E+01 -0.14691278427E+02 -0.19034885796E+01  0.16567644479E+02  0.51100000000E-03 0.  1.
        -12    1    3    3    0    0  0.19188186726E+02 -0.16593490889E+02  0.15374179846E+02  0.29663038544E+02  0.00000000000E+00 0.  1.
</event>
<event>
 7    1  0.5646756E-010  0.4778727E+02  0.7816164E-02  0.1312668E+00
        -11   -1    0    0    0    0  0.00000000000E+00  0.00000000000E+00  0.45593999997E+02  0.45594000000E+02  0.51100000000E-03 0.  1.
         11   -1    0    0    0    0 -0.00000000000E+00 -0.00000000000E+00 -0.45593999997E+02  0.45594000000E+02  0.51100000000E-03 0. -1.
    9900012    2    1    2    0    0 -0.26352261671E+02 -0.72446965207E+01  0.33714918938E+02  0.47787273257E+02  0.20000010086E+02 0.  0.
         12    1    1    2    0    0  0.26352261671E+02  0.72446965207E+01 -0.33714918938E+02  0.43400726743E+02  0.00000000000E+00 0. -1.
         11    1    3    3    0    0 -0.95341438287E+00 -0.34220097331E+01  0.67359324530E+01  0.76152436515E+01  0.51100000000E-03 0. -1.
        -11    1    3    3    0    0 -0.76043607757E+01  0.53644275907E+01  0.55197718537E+01  0.10819947678E+02  0.51100000000E-03 0.  1.
        -12    1    3    3    0    0 -0.17794486512E+02 -0.91871143783E+01  0.21459214632E+02  0.29352081927E+02  0.00000000000E+00 0.  1.
</event>
<event>
 7    1  0.5646756E-010  0.4778727E+02  0.7816164E-02  0.1312668E+00
        -11   -1    0    0    0    0  0.00000000000E+00  0.00000000000E+00  0.45593999997E+02  0.45594000000E+02  0.51100000000E-03 0.  1.
         11   -1    0    0    0    0 -0.00000000000E+00 -0.00000000000E+00 -0.45593999997E+02  0.45594000000E+02  0.51100000000E-03 0. -1.
    9900012    2    1    2    0    0  0.33724607467E+02 -0.26321666236E+02  0.73105228221E+01  0.47787274129E+02  0.20000014063E+02 0.  0.
         12    1    1    2    0    0 -0.33724607467E+02  0.26321666236E+02 -0.73105228221E+01  0.43400725871E+02  0.00000000000E+00 0. -1.
         11    1    3    3    0    0  0.36577954089E+01 -0.43248692193E+01 -0.33258224893E+01  0.65684896673E+01  0.51100000000E-03 0. -1.
        -11    1    3    3    0    0  0.17943493280E+02 -0.14279535479E+02  0.13434919514E+02  0.26577643748E+02  0.51100000000E-03 0.  1.
        -12    1    3    3    0    0  0.12123318778E+02 -0.77172615375E+01 -0.27985742026E+01  0.14641140714E+02  0.00000000000E+00 0.  1.
</event>
<event>
 7    1  0.5646756E-010  0.4778727E+02  0.7816164E-02  0.1312668E+00
        -11   -1    0    0    0    0  0.00000000000E+00  0.00000000000E+00  0.45593999997E+02  0.45594000000E+02  0.51100000000E-03 0. -1.
         11   -1    0    0    0    0 -0.00000000000E+00 -0.00000000000E+00 -0.45593999997E+02  0.45594000000E+02  0.51100000000E-03 0.  1.
    9900012    2    1    2    0    0 -0.29650331285E+02 -0.30331121042E+02 -0.91926245575E+01  0.47787269646E+02  0.19999993625E+02 0.  0.
         12    1    1    2    0    0  0.29650331285E+02  0.30331121042E+02  0.91926245575E+01  0.43400730354E+02  0.00000000000E+00 0. -1.
         11    1    3    3    0    0 -0.54872892970E+01 -0.16780187325E+02 -0.80562039693E-01  0.17654787481E+02  0.51100000000E-03 0. -1.
        -11    1    3    3    0    0 -0.20611601084E+02 -0.12801151423E+02 -0.52352283662E+01  0.24821667819E+02  0.51100000000E-03 0.  1.
         12    1    3    3    0    0 -0.35514409039E+01 -0.74978229399E+00 -0.38768341516E+01  0.53108143463E+01  0.00000000000E+00 0. -1.
</event>
<event>
 7    1  0.5646756E-010  0.4778727E+02  0.7816164E-02  0.1312668E+00
        -11   -1    0    0    0    0  0.00000000000E+00  0.00000000000E+00  0.45593999997E+02  0.45594000000E+02  0.51100000000E-03 0. -1.
         11   -1    0    0    0    0 -0.00000000000E+00 -0.00000000000E+00 -0.45593999997E+02  0.45594000000E+02  0.51100000000E-03 0.  1.
    9900012    2    1    2    0    0  0.27813028243E+02 -0.13228976343E+02 -0.30578629940E+02  0.47787274613E+02  0.20000016270E+02 0.  0.
         12    1    1    2    0    0 -0.27813028243E+02  0.13228976343E+02  0.30578629940E+02  0.43400725387E+02  0.00000000000E+00 0. -1.
         11    1    3    3    0    0  0.11294006261E+02  0.29183035768E+01 -0.11358291544E+02  0.16281334720E+02  0.51100000000E-03 0. -1.
        -11    1    3    3    0    0  0.42463958019E+01 -0.10357316073E+02 -0.67210776329E+01  0.13056751447E+02  0.51100000000E-03 0.  1.
        -12    1    3    3    0    0  0.12272626180E+02 -0.57899638464E+01 -0.12499260764E+02  0.18449188446E+02  0.00000000000E+00 0.  1.
</event>
<event>
 7    1  0.5646756E-010  0.4778728E+02  0.7816164E-02  0.1312668E+00
        -11   -1    0    0    0    0  0.00000000000E+00  0.00000000000E+00  0.45593999997E+02  0.45594000000E+02  0.51100000000E-03 0.  1.
         11   -1    0    0    0    0 -0.00000000000E+00 -0.00000000000E+00 -0.45593999997E+02  0.45594000000E+02  0.51100000000E-03 0. -1.
    9900012    2    1    2    0    0  0.28296732975E+02  0.14089178015E+01 -0.32877542079E+02  0.47787275126E+02  0.20000018607E+02 0.  0.
         12    1    1    2    0    0 -0.28296732975E+02 -0.14089178015E+01  0.32877542079E+02  0.43400724874E+02  0.00000000000E+00 0. -1.
         11    1    3    3    0    0  0.23998478218E+01 -0.43880540902E+01 -0.12307729267E+02  0.13285122816E+02  0.51100000000E-03 0. -1.
        -11    1    3    3    0    0  0.12853189437E+02  0.61497548348E+01 -0.13652295995E+02  0.19733452547E+02  0.51100000000E-03 0.  1.
         12    1    3    3    0    0  0.13043695717E+02 -0.35278294302E+00 -0.69175168174E+01  0.14768699763E+02  0.00000000000E+00 0. -1.
</event>
<event>
 7    1  0.5646756E-010  0.4778727E+02  0.7816164E-02  0.1312668E+00
        -11   -1    0    0    0    0  0.00000000000E+00  0.00000000000E+00  0.45593999997E+02  0.45594000000E+02  0.51100000000E-03 0.  1.
         11   -1    0    0    0    0 -0.00000000000E+00 -0.00000000000E+00 -0.45593999997E+02  0.45594000000E+02  0.51100000000E-03 0. -1.
    9900012    2    1    2    0    0  0.24037845400E+02 -0.83729504161E+01  0.35152511564E+02  0.47787269829E+02  0.19999994458E+02 0.  0.
         12    1    1    2    0    0 -0.24037845400E+02  0.83729504161E+01 -0.35152511564E+02  0.43400730171E+02  0.00000000000E+00 0. -1.
         11    1    3    3    0    0  0.27461807673E+01  0.41916285843E+01  0.71762581295E+01  0.87527104372E+01  0.51100000000E-03 0. -1.
        -11    1    3    3    0    0  0.77017261341E+01  0.40813593515E+00  0.43701638896E+01  0.88646203004E+01  0.51100000000E-03 0.  1.
         12    1    3    3    0    0  0.13589938499E+02 -0.12972714936E+02  0.23606089544E+02  0.30169939091E+02  0.00000000000E+00 0. -1.
</event>
<event>
 7    1  0.5646756E-010  0.4778727E+02  0.7816164E-02  0.1312668E+00
        -11   -1    0    0    0    0  0.00000000000E+00  0.00000000000E+00  0.45593999997E+02  0.45594000000E+02  0.51100000000E-03 0. -1.
         11   -1    0    0    0    0 -0.00000000000E+00 -0.00000000000E+00 -0.45593999997E+02  0.45594000000E+02  0.51100000000E-03 0.  1.
    9900012    2    1    2    0    0 -0.28859870942E+02  0.29732053843E+02  0.12912624139E+02  0.47787273754E+02  0.20000012353E+02 0.  0.
         12    1    1    2    0    0  0.28859870942E+02 -0.29732053843E+02 -0.12912624139E+02  0.43400726246E+02  0.00000000000E+00 0. -1.
         11    1    3    3    0    0 -0.21071869974E+02  0.12245266304E+02  0.11293254512E+02  0.26860898138E+02  0.51100000000E-03 0. -1.
        -11    1    3    3    0    0 -0.52764006406E+01  0.14962853152E+02 -0.18272791145E+01  0.15970796079E+02  0.51100000000E-03 0.  1.
        -12    1    3    3    0    0 -0.25116003277E+01  0.25239343870E+01  0.34466487418E+01  0.49555795368E+01  0.00000000000E+00 0.  1.
</event>
<event>
 7    1  0.5646756E-010  0.4778727E+02  0.7816164E-02  0.1312668E+00
        -11   -1    0    0    0    0  0.00000000000E+00  0.00000000000E+00  0.45593999997E+02  0.45594000000E+02  0.51100000000E-03 0.  1.
         11   -1    0    0    0    0 -0.00000000000E+00 -0.00000000000E+00 -0.45593999997E+02  0.45594000000E+02  0.51100000000E-03 0. -1.
    9900012    2    1    2    0    0 -0.16795508322E+02 -0.76657810007E+01  0.39278117222E+02  0.47787265091E+02  0.19999972855E+02 0.  0.
         12    1    1    2    0    0  0.16795508322E+02  0.76657810007E+01 -0.39278117222E+02  0.43400734909E+02  0.00000000000E+00 0. -1.
         11    1    3    3    0    0 -0.10366646230E+02 -0.34991064049E+01  0.66431992453E+01  0.12800124850E+02  0.51100000000E-03 0. -1.
        -11    1    3    3    0    0 -0.29727967239E+00 -0.90492990970E+00  0.23463298255E+02  0.23482624185E+02  0.51100000000E-03 0.  1.
        -12    1    3    3    0    0 -0.61315824196E+01 -0.32617446860E+01  0.91716197223E+01  0.11504516057E+02  0.00000000000E+00 0.  1.
</event>
<event>
 7    1  0.5646756E-010  0.4778727E+02  0.7816164E-02  0.1312668E+00
        -11   -1    0    0    0    0  0.00000000000E+00  0.00000000000E+00  0.45593999997E+02  0.45594000000E+02  0.51100000000E-03 0. -1.
         11   -1    0    0    0    0 -0.00000000000E+00 -0.00000000000E+00 -0.45593999997E+02  0.45594000000E+02  0.51100000000E-03 0.  1.
    9900012    2    1    2    0    0 -0.22988321531E+02  0.36751198118E+02 -0.21236016815E+01  0.47787272195E+02  0.20000005244E+02 0.  0.
         12    1    1    2    0    0  0.22988321531E+02 -0.36751198118E+02  0.21236016815E+01  0.43400727805E+02  0.00000000000E+00 0. -1.
         11    1    3    3    0    0  0.17694858559E+01 -0.40531071559E+00  0.10761791923E+01  0.21103362019E+01  0.51100000000E-03 0. -1.
        -11    1    3    3    0    0 -0.25223291094E+02  0.35701853413E+02 -0.20427156627E+01  0.43760820814E+02  0.51100000000E-03 0.  1.
        -12    1    3    3    0    0  0.46548370793E+00  0.14546554212E+01 -0.11570652111E+01  0.19161151791E+01  0.00000000000E+00 0.  1.
</event>
<event>
 7    1  0.5646756E-010  0.4778727E+02  0.7816164E-02  0.1312668E+00
        -11   -1    0    0    0    0  0.00000000000E+00  0.00000000000E+00  0.45593999997E+02  0.45594000000E+02  0.51100000000E-03 0.  1.
         11   -1    0    0    0    0 -0.00000000000E+00 -0.00000000000E+00 -0.45593999997E+02  0.45594000000E+02  0.51100000000E-03 0. -1.
    9900012    2    1    2    0    0  0.13256384875E+02 -0.10280938328E+02  0.40027415283E+02  0.47787269509E+02  0.19999993002E+02 0.  0.
         12    1    1    2    0    0 -0.13256384875E+02  0.10280938328E+02 -0.40027415283E+02  0.43400730491E+02  0.00000000000E+00 0. -1.
         11    1    3    3    0    0  0.14515013628E+02 -0.53789576409E+01  0.20039920310E+02  0.25322267122E+02  0.51100000000E-03 0. -1.
        -11    1    3    3    0    0  0.11106352467E+01 -0.70002717154E+01  0.13569536697E+02  0.15309135873E+02  0.51100000000E-03 0.  1.
         12    1    3    3    0    0 -0.23692639992E+01  0.20982910284E+01  0.64179582761E+01  0.71558665144E+01  0.00000000000E+00 0. -1.
</event>
<event>
 7    1  0.5646756E-010  0.4778728E+02  0.7816164E-02  0.1312668E+00
        -11   -1    0    0    0    0  0.00000000000E+00  0.00000000000E+00  0.45593999997E+02  0.45594000000E+02  0.51100000000E-03 0.  1.
         11   -1    0    0    0    0 -0.00000000000E+00 -0.00000000000E+00 -0.45593999997E+02  0.45594000000E+02  0.51100000000E-03 0. -1.
    9900012    2    1    2    0    0  0.31245190141E+02  0.13672943370E+02  0.26840480659E+02  0.47787277778E+02  0.20000030701E+02 0.  0.
         12    1    1    2    0    0 -0.31245190141E+02 -0.13672943370E+02 -0.26840480659E+02  0.43400722222E+02  0.00000000000E+00 0. -1.
         11    1    3    3    0    0  0.22071403620E+02  0.10863524037E+02  0.10804857432E+02  0.26868344881E+02  0.51100000000E-03 0. -1.
        -11    1    3    3    0    0  0.95675759944E+01  0.35920320535E+01  0.16860299186E+02  0.19715752422E+02  0.51100000000E-03 0.  1.
         12    1    3    3    0    0 -0.39378947289E+00 -0.78261272050E+00 -0.82467595838E+00  0.12031804751E+01  0.00000000000E+00 0. -1.
</event>
<event>
 7    1  0.5646756E-010  0.4778725E+02  0.7816164E-02  0.1312668E+00
        -11   -1    0    0    0    0  0.00000000000E+00  0.00000000000E+00  0.45593999997E+02  0.45594000000E+02  0.51100000000E-03 0.  1.
         11   -1    0    0    0    0 -0.00000000000E+00 -0.00000000000E+00 -0.45593999997E+02  0.45594000000E+02  0.51100000000E-03 0. -1.
    9900012    2    1    2    0    0 -0.13622986388E+02 -0.37896818691E+02  0.16182408723E+02  0.47787251423E+02  0.19999910536E+02 0.  0.
         12    1    1    2    0    0  0.13622986388E+02  0.37896818691E+02 -0.16182408723E+02  0.43400748577E+02  0.00000000000E+00 0. -1.
         11    1    3    3    0    0 -0.47351580312E-02 -0.87999659363E+01  0.58068490388E+01  0.10543193014E+02  0.51100000000E-03 0. -1.
        -11    1    3    3    0    0 -0.16278742937E+02 -0.18980000013E+02  0.50655952739E+01  0.25512705224E+02  0.51100000000E-03 0.  1.
        -12    1    3    3    0    0  0.26604917069E+01 -0.10116852741E+02  0.53099644102E+01  0.11731353185E+02  0.00000000000E+00 0.  1.
</event>
<event>
 7    1  0.5646756E-010  0.4778727E+02  0.7816164E-02  0.1312668E+00
        -11   -1    0    0    0    0  0.00000000000E+00  0.00000000000E+00  0.45593999997E+02  0.45594000000E+02  0.51100000000E-03 0.  1.
         11   -1    0    0    0    0 -0.00000000000E+00 -0.00000000000E+00 -0.45593999997E+02  0.45594000000E+02  0.51100000000E-03 0. -1.
    9900012    2    1    2    0    0 -0.31643818452E+02  0.26727208670E+02  0.12959491839E+02  0.47787270073E+02  0.19999995570E+02 0.  0.
         12    1    1    2    0    0  0.31643818452E+02 -0.26727208670E+02 -0.12959491839E+02  0.43400729927E+02  0.00000000000E+00 0. -1.
         11    1    3    3    0    0 -0.10989582387E+02  0.14585852928E+02  0.22338082012E+01  0.18398584892E+02  0.51100000000E-03 0. -1.
        -11    1    3    3    0    0 -0.14095334363E+02  0.86514310822E+01  0.13610232483E+02  0.21418780056E+02  0.51100000000E-03 0.  1.
        -12    1    3    3    0    0 -0.65589017011E+01  0.34899246595E+01 -0.28845488451E+01  0.79699051245E+01  0.00000000000E+00 0.  1.
</event>
<event>
 7    1  0.5646756E-010  0.4778727E+02  0.7816164E-02  0.1312668E+00
        -11   -1    0    0    0    0  0.00000000000E+00  0.00000000000E+00  0.45593999997E+02  0.45594000000E+02  0.51100000000E-03 0.  1.
         11   -1    0    0    0    0 -0.00000000000E+00 -0.00000000000E+00 -0.45593999997E+02  0.45594000000E+02  0.51100000000E-03 0. -1.
    9900012    2    1    2    0    0  0.34002408352E+01 -0.54343325247E+01  0.42924695489E+02  0.47787273157E+02  0.20000009631E+02 0.  0.
         12    1    1    2    0    0 -0.34002408352E+01  0.54343325247E+01 -0.42924695489E+02  0.43400726843E+02  0.00000000000E+00 0. -1.
         11    1    3    3    0    0  0.44923806527E+01 -0.10860279826E+02  0.21531780929E+02  0.24530486176E+02  0.51100000000E-03 0. -1.
        -11    1    3    3    0    0 -0.29536318708E+01  0.68115973131E-01  0.11294286533E+02  0.11674308954E+02  0.51100000000E-03 0.  1.
         12    1    3    3    0    0  0.18614920534E+01  0.53578313278E+01  0.10098628027E+02  0.11582478026E+02  0.00000000000E+00 0. -1.
</event>
<event>
 7    1  0.5646756E-010  0.4778728E+02  0.7816164E-02  0.1312668E+00
        -11   -1    0    0    0    0  0.00000000000E+00  0.00000000000E+00  0.45593999997E+02  0.45594000000E+02  0.51100000000E-03 0. -1.
         11   -1    0    0    0    0 -0.00000000000E+00 -0.00000000000E+00 -0.45593999997E+02  0.45594000000E+02  0.51100000000E-03 0.  1.
    9900012    2    1    2    0    0 -0.10883830166E+02  0.34679931569E+02 -0.23716385408E+02  0.47787281693E+02  0.20000048552E+02 0.  0.
         12    1    1    2    0    0  0.10883830166E+02 -0.34679931569E+02  0.23716385408E+02  0.43400718307E+02  0.00000000000E+00 0. -1.
         11    1    3    3    0    0 -0.94032702613E+00  0.13293052732E+02 -0.10077673655E+02  0.16707751866E+02  0.51100000000E-03 0. -1.
        -11    1    3    3    0    0 -0.43655669739E+01  0.93121022967E+01 -0.14470118871E+02  0.17752683307E+02  0.51100000000E-03 0.  1.
         12    1    3    3    0    0 -0.55779361658E+01  0.12074776540E+02  0.83140711904E+00  0.13326846520E+02  0.00000000000E+00 0. -1.
</event>
<event>
 7    1  0.5646756E-010  0.4778727E+02  0.7816164E-02  0.1312668E+00
        -11   -1    0    0    0    0  0.00000000000E+00  0.00000000000E+00  0.45593999997E+02  0.45594000000E+02  0.51100000000E-03 0.  1.
         11   -1    0    0    0    0 -0.00000000000E+00 -0.00000000000E+00 -0.45593999997E+02  0.45594000000E+02  0.51100000000E-03 0. -1.
    9900012    2    1    2    0    0 -0.10289589254E+02  0.18142616966E+02  0.38060384962E+02  0.47787273037E+02  0.20000009087E+02 0.  0.
         12    1    1    2    0    0  0.10289589254E+02 -0.18142616966E+02 -0.38060384962E+02  0.43400726963E+02  0.00000000000E+00 0. -1.
         11    1    3    3    0    0 -0.19953618583E+01 -0.10754503166E+01  0.16933328267E+02  0.17084369137E+02  0.51100000000E-03 0. -1.
        -11    1    3    3    0    0 -0.38446813945E+01  0.74123681405E+01  0.13753380075E+02  0.16089755754E+02  0.51100000000E-03 0.  1.
         12    1    3    3    0    0 -0.44495460011E+01  0.11805699142E+02  0.73736766199E+01  0.14613148146E+02  0.00000000000E+00 0. -1.
</event>
<event>
 7    1  0.6120011E-010  0.4778726E+02  0.7816164E-02  0.1312668E+00
        -11   -1    0    0    0    0  0.00000000000E+00  0.00000000000E+00  0.45593999997E+02  0.45594000000E+02  0.51100000000E-03 0. -1.
         11   -1    0    0    0    0 -0.00000000000E+00 -0.00000000000E+00 -0.45593999997E+02  0.45594000000E+02  0.51100000000E-03 0.  1.
    9900012    2    1    2    0    0  0.39825450739E+02 -0.10068480554E+02  0.14006560920E+02  0.47787256043E+02  0.19999931601E+02 0.  0.
         12    1    1    2    0    0 -0.39825450739E+02  0.10068480554E+02 -0.14006560920E+02  0.43400743957E+02  0.00000000000E+00 0. -1.
         11    1    3    3    0    0  0.19183336610E+01  0.15865441295E+01 -0.10356719187E+00  0.24915562876E+01  0.51100000000E-03 0. -1.
        -11    1    3    3    0    0  0.32704311019E+01 -0.36339495258E+01 -0.31073127490E+01  0.57928146466E+01  0.51100000000E-03 0.  1.
        -12    1    3    3    0    0  0.34636685976E+02 -0.80210751578E+01  0.17217440861E+02  0.39502885109E+02  0.00000000000E+00 0.  1.
</event>
<event>
 7    1  0.5646756E-010  0.4778726E+02  0.7816164E-02  0.1312668E+00
        -11   -1    0    0    0    0  0.00000000000E+00  0.00000000000E+00  0.45593999997E+02  0.45594000000E+02  0.51100000000E-03 0.  1.
         11   -1    0    0    0    0 -0.00000000000E+00 -0.00000000000E+00 -0.45593999997E+02  0.45594000000E+02  0.51100000000E-03 0. -1.
    9900012    2    1    2    0    0  0.27311671299E+02 -0.24661992094E+02  0.23010491914E+02  0.47787262894E+02  0.19999962841E+02 0.  0.
         12    1    1    2    0    0 -0.27311671299E+02  0.24661992094E+02 -0.23010491914E+02  0.43400737106E+02  0.00000000000E+00 0. -1.
         11    1    3    3    0    0  0.10962066599E+01 -0.21700165308E-01 -0.13864665149E+01  0.17676056111E+01  0.51100000000E-03 0. -1.
        -11    1    3    3    0    0  0.15136421906E+02 -0.21119209348E+02  0.10821048217E+02  0.28146533648E+02  0.51100000000E-03 0.  1.
        -12    1    3    3    0    0  0.11079042733E+02 -0.35210825807E+01  0.13575910212E+02  0.17873123636E+02  0.00000000000E+00 0.  1.
</event>
<event>
 7    1  0.5646756E-010  0.4778727E+02  0.7816164E-02  0.1312668E+00
        -11   -1    0    0    0    0  0.00000000000E+00  0.00000000000E+00  0.45593999997E+02  0.45594000000E+02  0.51100000000E-03 0.  1.
         11   -1    0    0    0    0 -0.00000000000E+00 -0.00000000000E+00 -0.45593999997E+02  0.45594000000E+02  0.51100000000E-03 0. -1.
    9900012    2    1    2    0    0  0.36640495378E+02  0.28016990752E+01  0.23092157745E+02  0.47787272257E+02  0.20000005530E+02 0.  0.
         12    1    1    2    0    0 -0.36640495378E+02 -0.28016990752E+01 -0.23092157745E+02  0.43400727743E+02  0.00000000000E+00 0. -1.
         11    1    3    3    0    0  0.12831786509E+01 -0.35941577579E+01 -0.11848767395E+01  0.39960543775E+01  0.51100000000E-03 0. -1.
        -11    1    3    3    0    0  0.20895926429E+02  0.65560779630E+01  0.16058091370E+02  0.27156660293E+02  0.51100000000E-03 0.  1.
        -12    1    3    3    0    0  0.14461390298E+02 -0.16022112990E+00  0.82189431150E+01  0.16634557587E+02  0.00000000000E+00 0.  1.
</event>
<event>
 7    1  0.5646756E-010  0.4778728E+02  0.7816164E-02  0.1312668E+00
        -11   -1    0    0    0    0  0.00000000000E+00  0.00000000000E+00  0.45593999997E+02  0.45594000000E+02  0.51100000000E-03 0. -1.
         11   -1    0    0    0    0 -0.00000000000E+00 -0.00000000000E+00 -0.45593999997E+02  0.45594000000E+02  0.51100000000E-03 0.  1.
    9900012    2    1    2    0    0  0.39865104614E+02 -0.12136984353E+01 -0.17114984060E+02  0.47787282159E+02  0.20000050673E+02 0.  0.
         12    1    1    2    0    0 -0.39865104614E+02  0.12136984353E+01  0.17114984060E+02  0.43400717841E+02  0.00000000000E+00 0. -1.
         11    1    3    3    0    0  0.15112127282E+01  0.19994808816E+01 -0.11692624865E+00  0.25090555424E+01  0.51100000000E-03 0. -1.
        -11    1    3    3    0    0  0.64279345732E+01 -0.62065141591E+01  0.10567912088E+00  0.89359011421E+01  0.51100000000E-03 0.  1.
        -12    1    3    3    0    0  0.31925957313E+02  0.29933348422E+01 -0.17103736932E+02  0.36342325474E+02  0.00000000000E+00 0.  1.
</event>
<event>
 7    1  0.5646756E-010  0.4778727E+02  0.7816164E-02  0.1312668E+00
        -11   -1    0    0    0    0  0.00000000000E+00  0.00000000000E+00  0.45593999997E+02  0.45594000000E+02  0.51100000000E-03 0.  1.
         11   -1    0    0    0    0 -0.00000000000E+00 -0.00000000000E+00 -0.45593999997E+02  0.45594000000E+02  0.51100000000E-03 0. -1.
    9900012    2    1    2    0    0 -0.37046243097E+02  0.40959850469E+01  0.22235604662E+02  0.47787270331E+02  0.19999996748E+02 0.  0.
         12    1    1    2    0    0  0.37046243097E+02 -0.40959850469E+01 -0.22235604662E+02  0.43400729669E+02  0.00000000000E+00 0. -1.
         11    1    3    3    0    0 -0.30850825785E+00  0.59378892328E+00 -0.80468208581E+00  0.10465544185E+01  0.51100000000E-03 0. -1.
        -11    1    3    3    0    0 -0.92176588551E+01  0.60194925470E+01  0.13688493506E+02  0.17566285322E+02  0.51100000000E-03 0.  1.
        -12    1    3    3    0    0 -0.27520075984E+02 -0.25172964235E+01  0.93517932422E+01  0.29174430591E+02  0.00000000000E+00 0.  1.
</event>
<event>
 7    1  0.5646756E-010  0.4778728E+02  0.7816164E-02  0.1312668E+00
        -11   -1    0    0    0    0  0.00000000000E+00  0.00000000000E+00  0.45593999997E+02  0.45594000000E+02  0.51100000000E-03 0. -1.
         11   -1    0    0    0    0 -0.00000000000E+00 -0.00000000000E+00 -0.45593999997E+02  0.45594000000E+02  0.51100000000E-03 0.  1.
    9900012    2    1    2    0    0 -0.14840330220E+02  0.40606960392E+02 -0.38029234356E+01  0.47787275813E+02  0.20000021741E+02 0.  0.
         12    1    1    2    0    0  0.14840330220E+02 -0.40606960392E+02  0.38029234356E+01  0.43400724187E+02  0.00000000000E+00 0. -1.
         11    1    3    3    0    0 -0.14048578893E+01  0.10207359328E+02 -0.77710096927E+01  0.12905518279E+02  0.51100000000E-03 0. -1.
        -11    1    3    3    0    0 -0.11733597082E+02  0.17301374419E+02 -0.57824907924E+00  0.20912896250E+02  0.51100000000E-03 0.  1.
         12    1    3    3    0    0 -0.17018752480E+01  0.13098226645E+02  0.45463353363E+01  0.13968861284E+02  0.00000000000E+00 0. -1.
</event>
<event>
 7    1  0.5646756E-010  0.4778727E+02  0.7816164E-02  0.1312668E+00
        -11   -1    0    0    0    0  0.00000000000E+00  0.00000000000E+00  0.45593999997E+02  0.45594000000E+02  0.51100000000E-03 0.  1.
         11   -1    0    0    0    0 -0.00000000000E+00 -0.00000000000E+00 -0.45593999997E+02  0.45594000000E+02  0.51100000000E-03 0. -1.
    9900012    2    1    2    0    0  0.43314882026E+02  0.17452853850E+01  0.20972991476E+01  0.47787266254E+02  0.19999978159E+02 0.  0.
         12    1    1    2    0    0 -0.43314882026E+02 -0.17452853850E+01 -0.20972991476E+01  0.43400733746E+02  0.00000000000E+00 0. -1.
         11    1    3    3    0    0  0.98450442660E+01 -0.24381752354E+01 -0.63829395210E+01  0.11983802079E+02  0.51100000000E-03 0. -1.
        -11    1    3    3    0    0  0.32543154650E+02  0.55276904605E+01  0.73498245191E+01  0.33817631454E+02  0.51100000000E-03 0.  1.
         12    1    3    3    0    0  0.92668310941E+00 -0.13442298401E+01  0.11304141494E+01  0.19858327214E+01  0.00000000000E+00 0. -1.
</event>
<event>
 7    1  0.5646756E-010  0.4778727E+02  0.7816164E-02  0.1312668E+00
        -11   -1    0    0    0    0  0.00000000000E+00  0.00000000000E+00  0.45593999997E+02  0.45594000000E+02  0.51100000000E-03 0.  1.
         11   -1    0    0    0    0 -0.00000000000E+00 -0.00000000000E+00 -0.45593999997E+02  0.45594000000E+02  0.51100000000E-03 0. -1.
    9900012    2    1    2    0    0 -0.27643159260E+02 -0.24989986175E+01  0.33365163483E+02  0.47787269796E+02  0.19999994308E+02 0.  0.
         12    1    1    2    0    0  0.27643159260E+02  0.24989986175E+01 -0.33365163483E+02  0.43400730204E+02  0.00000000000E+00 0. -1.
         11    1    3    3    0    0 -0.61201941878E+01  0.59950159056E+01  0.16800135707E+02  0.18858461035E+02  0.51100000000E-03 0. -1.
        -11    1    3    3    0    0 -0.14698557841E+02 -0.33552548300E+01  0.11812091333E+02  0.19152828499E+02  0.51100000000E-03 0.  1.
         12    1    3    3    0    0 -0.68244072309E+01 -0.51387596932E+01  0.47529364435E+01  0.97759802615E+01  0.00000000000E+00 0. -1.
</event>
<event>
 7    1  0.5646756E-010  0.4778727E+02  0.7816164E-02  0.1312668E+00
        -11   -1    0    0    0    0  0.00000000000E+00  0.00000000000E+00  0.45593999997E+02  0.45594000000E+02  0.51100000000E-03 0.  1.
         11   -1    0    0    0    0 -0.00000000000E+00 -0.00000000000E+00 -0.45593999997E+02  0.45594000000E+02  0.51100000000E-03 0. -1.
    9900012    2    1    2    0    0 -0.59830773781E+01  0.22655260419E+02  0.36531702921E+02  0.47787270077E+02  0.19999995590E+02 0.  0.
         12    1    1    2    0    0  0.59830773781E+01 -0.22655260419E+02 -0.36531702921E+02  0.43400729923E+02  0.00000000000E+00 0. -1.
         11    1    3    3    0    0 -0.91972219188E+01  0.64325670394E+01  0.88575758326E+01  0.14297673224E+02  0.51100000000E-03 0. -1.
        -11    1    3    3    0    0 -0.30459318989E+01  0.75817342371E+01  0.12748309679E+02  0.15141987819E+02  0.51100000000E-03 0.  1.
         12    1    3    3    0    0  0.62600764396E+01  0.86409591426E+01  0.14925817409E+02  0.18347609034E+02  0.00000000000E+00 0. -1.
</event>
<event>
 7    1  0.5646756E-010  0.4778727E+02  0.7816164E-02  0.1312668E+00
        -11   -1    0    0    0    0  0.00000000000E+00  0.00000000000E+00  0.45593999997E+02  0.45594000000E+02  0.51100000000E-03 0.  1.
         11   -1    0    0    0    0 -0.00000000000E+00 -0.00000000000E+00 -0.45593999997E+02  0.45594000000E+02  0.51100000000E-03 0. -1.
    9900012    2    1    2    0    0  0.48092285669E+01  0.37165115022E+02  0.21891753873E+02  0.47787270264E+02  0.19999996442E+02 0.  0.
         12    1    1    2    0    0 -0.48092285669E+01 -0.37165115022E+02 -0.21891753873E+02  0.43400729736E+02  0.00000000000E+00 0. -1.
         11    1    3    3    0    0  0.44942441873E+01  0.17489678574E+02  0.55558037444E+01  0.18893227436E+02  0.51100000000E-03 0. -1.
        -11    1    3    3    0    0  0.51692232642E+01  0.17586439236E+02  0.14228773305E+02  0.23204777615E+02  0.51100000000E-03 0.  1.
         12    1    3    3    0    0 -0.48542388845E+01  0.20889972122E+01  0.21071768231E+01  0.56892652131E+01  0.00000000000E+00 0. -1.
</event>
<event>
 7    1  0.7188671E-010  0.4778724E+02  0.7816164E-02  0.1312668E+00
        -11   -1    0    0    0    0  0.00000000000E+00  0.00000000000E+00  0.45593999997E+02  0.45594000000E+02  0.51100000000E-03 0.  1.
         11   -1    0    0    0    0 -0.00000000000E+00 -0.00000000000E+00 -0.45593999997E+02  0.45594000000E+02  0.51100000000E-03 0. -1.
    9900012    2    1    2    0    0  0.12069081017E+02 -0.39460610161E+02  0.13447048748E+02  0.47787244351E+02  0.19999878295E+02 0.  0.
         12    1    1    2    0    0 -0.12069081017E+02  0.39460610161E+02 -0.13447048748E+02  0.43400755649E+02  0.00000000000E+00 0. -1.
         11    1    3    3    0    0  0.13969834712E+01  0.18359939027E+01  0.24381471558E+01  0.33566349585E+01  0.51100000000E-03 0. -1.
        -11    1    3    3    0    0  0.35745991978E+01 -0.24220770548E+02  0.75223391301E+01  0.25612674043E+02  0.51100000000E-03 0.  1.
        -12    1    3    3    0    0  0.70974983478E+01 -0.17075833515E+02  0.34865624620E+01  0.18817935350E+02  0.00000000000E+00 0.  1.
</event>
<event>
 7    1  0.5646756E-010  0.4778727E+02  0.7816164E-02  0.1312668E+00
        -11   -1    0    0    0    0  0.00000000000E+00  0.00000000000E+00  0.45593999997E+02  0.45594000000E+02  0.51100000000E-03 0. -1.
         11   -1    0    0    0    0 -0.00000000000E+00 -0.00000000000E+00 -0.45593999997E+02  0.45594000000E+02  0.51100000000E-03 0.  1.
    9900012    2    1    2    0    0  0.12289996873E+02  0.32368084006E+02  0.26170331390E+02  0.47787272697E+02  0.20000007536E+02 0.  0.
         12    1    1    2    0    0 -0.12289996873E+02 -0.32368084006E+02 -0.26170331390E+02  0.43400727303E+02  0.00000000000E+00 0. -1.
         11    1    3    3    0    0  0.61195405866E+01 -0.10483624863E+00  0.58709651806E+01  0.84810376749E+01  0.51100000000E-03 0. -1.
        -11    1    3    3    0    0 -0.98805312471E+00  0.11121630433E+01  0.10200524510E+01  0.18037912507E+01  0.51100000000E-03 0.  1.
         12    1    3    3    0    0  0.71585094109E+01  0.31360757211E+02  0.19279313759E+02  0.37502443772E+02  0.00000000000E+00 0. -1.
</event>
<event>
 7    1  0.5646756E-010  0.4778727E+02  0.7816164E-02  0.1312668E+00
        -11   -1    0    0    0    0  0.00000000000E+00  0.00000000000E+00  0.45593999997E+02  0.45594000000E+02  0.51100000000E-03 0. -1.
         11   -1    0    0    0    0 -0.00000000000E+00 -0.00000000000E+00 -0.45593999997E+02  0.45594000000E+02  0.51100000000E-03 0.  1.
    9900012    2    1    2    0    0 -0.36179440019E+02  0.23787315023E+02  0.29723271973E+01  0.47787274602E+02  0.20000016221E+02 0.  0.
         12    1    1    2    0    0  0.36179440019E+02 -0.23787315023E+02 -0.29723271973E+01  0.43400725398E+02  0.00000000000E+00 0. -1.
         11    1    3    3    0    0 -0.99445320635E+01  0.13047298948E+02 -0.31187558815E+01  0.16698873205E+02  0.51100000000E-03 0. -1.
        -11    1    3    3    0    0 -0.26864612851E+02  0.10749052000E+02  0.43797327108E+01  0.29264852663E+02  0.51100000000E-03 0.  1.
        -12    1    3    3    0    0  0.62970489520E+00 -0.90359252078E-02  0.17113503680E+01  0.18235487339E+01  0.00000000000E+00 0.  1.
</event>
<event>
 7    1  0.5646756E-010  0.4778727E+02  0.7816164E-02  0.1312668E+00
        -11   -1    0    0    0    0  0.00000000000E+00  0.00000000000E+00  0.45593999997E+02  0.45594000000E+02  0.51100000000E-03 0. -1.
         11   -1    0    0    0    0 -0.00000000000E+00 -0.00000000000E+00 -0.45593999997E+02  0.45594000000E+02  0.51100000000E-03 0.  1.
    9900012    2    1    2    0    0 -0.86615910615E+01  0.33017297566E+02 -0.26804068710E+02  0.47787271922E+02  0.20000004002E+02 0.  0.
         12    1    1    2    0    0  0.86615910615E+01 -0.33017297566E+02  0.26804068710E+02  0.43400728078E+02  0.00000000000E+00 0. -1.
         11    1    3    3    0    0 -0.61386178524E+01  0.14584106689E+01 -0.60854781562E-01  0.63097776809E+01  0.51100000000E-03 0. -1.
        -11    1    3    3    0    0 -0.26395241637E+01  0.23979938920E+02 -0.20337802392E+02  0.31553617302E+02  0.51100000000E-03 0.  1.
         12    1    3    3    0    0  0.11655095459E+00  0.75789479764E+01 -0.64054115369E+01  0.99238769395E+01  0.00000000000E+00 0. -1.
</event>
<event>
 7    1  0.5646756E-010  0.4778727E+02  0.7816164E-02  0.1312668E+00
        -11   -1    0    0    0    0  0.00000000000E+00  0.00000000000E+00  0.45593999997E+02  0.45594000000E+02  0.51100000000E-03 0. -1.
         11   -1    0    0    0    0 -0.00000000000E+00 -0.00000000000E+00 -0.45593999997E+02  0.45594000000E+02  0.51100000000E-03 0.  1.
    9900012    2    1    2    0    0 -0.32228612937E+02 -0.29029896195E+02 -0.14849454547E+01  0.47787269270E+02  0.19999991908E+02 0.  0.
         12    1    1    2    0    0  0.32228612937E+02  0.29029896195E+02  0.14849454547E+01  0.43400730730E+02  0.00000000000E+00 0. -1.
         11    1    3    3    0    0  0.16941546306E+01 -0.50314075020E+01 -0.94805257683E+00  0.53929607187E+01  0.51100000000E-03 0. -1.
        -11    1    3    3    0    0 -0.42506184588E+01 -0.59790708455E+01 -0.21414615437E+01  0.76421792221E+01  0.51100000000E-03 0.  1.
         12    1    3    3    0    0 -0.29672149108E+02 -0.18019417848E+02  0.16045686658E+01  0.34752129329E+02  0.00000000000E+00 0. -1.
</event>
<event>
 7    1  0.5646756E-010  0.4778727E+02  0.7816164E-02  0.1312668E+00
        -11   -1    0    0    0    0  0.00000000000E+00  0.00000000000E+00  0.45593999997E+02  0.45594000000E+02  0.51100000000E-03 0. -1.
         11   -1    0    0    0    0 -0.00000000000E+00 -0.00000000000E+00 -0.45593999997E+02  0.45594000000E+02  0.51100000000E-03 0.  1.
    9900012    2    1    2    0    0 -0.31007430557E+02 -0.28546259299E+02  0.10357296192E+02  0.47787271272E+02  0.20000001036E+02 0.  0.
         12    1    1    2    0    0  0.31007430557E+02  0.28546259299E+02 -0.10357296192E+02  0.43400728728E+02  0.00000000000E+00 0. -1.
         11    1    3    3    0    0 -0.62575766054E+00 -0.90618689718E+01  0.74264155052E+00  0.91137565605E+01  0.51100000000E-03 0. -1.
        -11    1    3    3    0    0 -0.26700186115E+02 -0.18635452186E+02  0.53858907419E+01  0.33002845879E+02  0.51100000000E-03 0.  1.
        -12    1    3    3    0    0 -0.36814867815E+01 -0.84893814176E+00  0.42287638991E+01  0.56706688323E+01  0.00000000000E+00 0.  1.
</event>
<event>
 7    1  0.5646756E-010  0.4778727E+02  0.7816164E-02  0.1312668E+00
        -11   -1    0    0    0    0  0.00000000000E+00  0.00000000000E+00  0.45593999997E+02  0.45594000000E+02  0.51100000000E-03 0.  1.
         11   -1    0    0    0    0 -0.00000000000E+00 -0.00000000000E+00 -0.45593999997E+02  0.45594000000E+02  0.51100000000E-03 0. -1.
    9900012    2    1    2    0    0 -0.14180066875E+02 -0.40903666006E+02  0.30722543812E+01  0.47787274934E+02  0.20000017734E+02 0.  0.
         12    1    1    2    0    0  0.14180066875E+02  0.40903666006E+02 -0.30722543812E+01  0.43400725066E+02  0.00000000000E+00 0. -1.
         11    1    3    3    0    0  0.32202081616E+01 -0.14789419389E+00 -0.75980893511E-02  0.32236115288E+01  0.51100000000E-03 0. -1.
        -11    1    3    3    0    0 -0.11223738937E+02 -0.27823655216E+02  0.52764188251E+00  0.30006774427E+02  0.51100000000E-03 0.  1.
         12    1    3    3    0    0 -0.61765360989E+01 -0.12932116596E+02  0.25522105881E+01  0.14556888978E+02  0.00000000000E+00 0. -1.
</event>
<event>
 7    1  0.5646756E-010  0.4778721E+02  0.7816164E-02  0.1312668E+00
        -11   -1    0    0    0    0  0.00000000000E+00  0.00000000000E+00  0.45593999997E+02  0.45594000000E+02  0.51100000000E-03 0.  1.
         11   -1    0    0    0    0 -0.00000000000E+00 -0.00000000000E+00 -0.45593999997E+02  0.45594000000E+02  0.51100000000E-03 0. -1.
    9900012    2    1    2    0    0  0.84441102305E+01 -0.28098228020E+02  0.31981483155E+02  0.47787208760E+02  0.19999716019E+02 0.  0.
         12    1    1    2    0    0 -0.84441102305E+01  0.28098228020E+02 -0.31981483155E+02  0.43400791240E+02  0.00000000000E+00 0. -1.
         11    1    3    3    0    0 -0.27777244101E+01 -0.81923890022E+01  0.10460757121E+02  0.13574182490E+02  0.51100000000E-03 0. -1.
        -11    1    3    3    0    0  0.13998930691E+02 -0.16866844537E+02  0.20406713742E+02  0.29948196459E+02  0.51100000000E-03 0.  1.
        -12    1    3    3    0    0 -0.27770960509E+01 -0.30389944812E+01  0.11140122920E+01  0.42648298113E+01  0.00000000000E+00 0.  1.
</event>
<event>
 7    1  0.5646756E-010  0.4778727E+02  0.7816164E-02  0.1312668E+00
        -11   -1    0    0    0    0  0.00000000000E+00  0.00000000000E+00  0.45593999997E+02  0.45594000000E+02  0.51100000000E-03 0.  1.
         11   -1    0    0    0    0 -0.00000000000E+00 -0.00000000000E+00 -0.45593999997E+02  0.45594000000E+02  0.51100000000E-03 0. -1.
    9900012    2    1    2    0    0  0.61068817699E+00  0.18039936262E+02  0.39469121338E+02  0.47787265218E+02  0.19999973435E+02 0.  0.
         12    1    1    2    0    0 -0.61068817699E+00 -0.18039936262E+02 -0.39469121338E+02  0.43400734782E+02  0.00000000000E+00 0. -1.
         11    1    3    3    0    0  0.44582563806E+01  0.14174825914E+02  0.11228066956E+02  0.18624479253E+02  0.51100000000E-03 0. -1.
        -11    1    3    3    0    0  0.76971605746E+00  0.91702856794E+00  0.18110420057E+01  0.21710084318E+01  0.51100000000E-03 0.  1.
         12    1    3    3    0    0 -0.46172842611E+01  0.29480817808E+01  0.26430012377E+02  0.26991777533E+02  0.00000000000E+00 0. -1.
</event>
<event>
 7    1  0.5646756E-010  0.4778727E+02  0.7816164E-02  0.1312668E+00
        -11   -1    0    0    0    0  0.00000000000E+00  0.00000000000E+00  0.45593999997E+02  0.45594000000E+02  0.51100000000E-03 0.  1.
         11   -1    0    0    0    0 -0.00000000000E+00 -0.00000000000E+00 -0.45593999997E+02  0.45594000000E+02  0.51100000000E-03 0. -1.
    9900012    2    1    2    0    0  0.27088987580E+02  0.51896090553E+00  0.33904877175E+02  0.47787271149E+02  0.20000000477E+02 0.  0.
         12    1    1    2    0    0 -0.27088987580E+02 -0.51896090553E+00 -0.33904877175E+02  0.43400728851E+02  0.00000000000E+00 0. -1.
         11    1    3    3    0    0  0.86536647343E+01 -0.61653649908E+01  0.43038275163E+01  0.11463881121E+02  0.51100000000E-03 0. -1.
        -11    1    3    3    0    0  0.17313420595E+02  0.36510501008E+01  0.23481360840E+02  0.29401683739E+02  0.51100000000E-03 0.  1.
         12    1    3    3    0    0  0.11219022503E+01  0.30332757955E+01  0.61196888192E+01  0.69217062892E+01  0.00000000000E+00 0. -1.
</event>
<event>
 7    1  0.5646756E-010  0.4778727E+02  0.7816164E-02  0.1312668E+00
        -11   -1    0    0    0    0  0.00000000000E+00  0.00000000000E+00  0.45593999997E+02  0.45594000000E+02  0.51100000000E-03 0.  1.
         11   -1    0    0    0    0 -0.00000000000E+00 -0.00000000000E+00 -0.45593999997E+02  0.45594000000E+02  0.51100000000E-03 0. -1.
    9900012    2    1    2    0    0 -0.20022796862E+02  0.21557636622E+02  0.31905786293E+02  0.47787270860E+02  0.19999999161E+02 0.  0.
         12    1    1    2    0    0  0.20022796862E+02 -0.21557636622E+02 -0.31905786293E+02  0.43400729140E+02  0.00000000000E+00 0. -1.
         11    1    3    3    0    0 -0.20176232574E+02  0.98249201471E+01  0.17707563233E+02  0.28586136722E+02  0.51100000000E-03 0. -1.
        -11    1    3    3    0    0  0.13448726342E+01  0.42134769870E+01  0.88612500763E+01  0.99037277778E+01  0.51100000000E-03 0.  1.
         12    1    3    3    0    0 -0.11914369228E+01  0.75192394876E+01  0.53369729831E+01  0.92974063607E+01  0.00000000000E+00 0. -1.
</event>
<event>
 7    1  0.5646756E-010  0.4778727E+02  0.7816164E-02  0.1312668E+00
        -11   -1    0    0    0    0  0.00000000000E+00  0.00000000000E+00  0.45593999997E+02  0.45594000000E+02  0.51100000000E-03 0.  1.
         11   -1    0    0    0    0 -0.00000000000E+00 -0.00000000000E+00 -0.45593999997E+02  0.45594000000E+02  0.51100000000E-03 0. -1.
    9900012    2    1    2    0    0  0.19723653629E+01 -0.32445278091E+02  0.28758251918E+02  0.47787270180E+02  0.19999996061E+02 0.  0.
         12    1    1    2    0    0 -0.19723653629E+01  0.32445278091E+02 -0.28758251918E+02  0.43400729820E+02  0.00000000000E+00 0. -1.
         11    1    3    3    0    0 -0.42809069547E+00 -0.10145356587E+02  0.38631835434E+00  0.10161730367E+02  0.51100000000E-03 0. -1.
        -11    1    3    3    0    0  0.66937121093E+00 -0.22876615502E+02  0.26387988918E+02  0.34930123876E+02  0.51100000000E-03 0.  1.
        -12    1    3    3    0    0  0.17310848474E+01  0.57669399814E+00  0.19839446455E+01  0.26954159369E+01  0.00000000000E+00 0.  1.
</event>
<event>
 7    1  0.5646756E-010  0.4778727E+02  0.7816164E-02  0.1312668E+00
        -11   -1    0    0    0    0  0.00000000000E+00  0.00000000000E+00  0.45593999997E+02  0.45594000000E+02  0.51100000000E-03 0. -1.
         11   -1    0    0    0    0 -0.00000000000E+00 -0.00000000000E+00 -0.45593999997E+02  0.45594000000E+02  0.51100000000E-03 0.  1.
    9900012    2    1    2    0    0 -0.13421506221E+02  0.33340854251E+01 -0.41138425829E+02  0.47787273802E+02  0.20000012573E+02 0.  0.
         12    1    1    2    0    0  0.13421506221E+02 -0.33340854251E+01  0.41138425829E+02  0.43400726198E+02  0.00000000000E+00 0. -1.
         11    1    3    3    0    0 -0.75167273951E+01 -0.99200163318E+00 -0.30791379201E+01  0.81832969251E+01  0.51100000000E-03 0. -1.
        -11    1    3    3    0    0  0.16687938832E+00 -0.14224969005E+01 -0.15132122509E+02  0.15199752565E+02  0.51100000000E-03 0.  1.
        -12    1    3    3    0    0 -0.60716582139E+01  0.57485839587E+01 -0.22927165400E+02  0.24404224312E+02  0.00000000000E+00 0.  1.
</event>
<event>
 7    1  0.5646756E-010  0.4778727E+02  0.7816164E-02  0.1312668E+00
        -11   -1    0    0    0    0  0.00000000000E+00  0.00000000000E+00  0.45593999997E+02  0.45594000000E+02  0.51100000000E-03 0.  1.
         11   -1    0    0    0    0 -0.00000000000E+00 -0.00000000000E+00 -0.45593999997E+02  0.45594000000E+02  0.51100000000E-03 0. -1.
    9900012    2    1    2    0    0 -0.22331425769E+02 -0.23022515546E+02  0.29238583173E+02  0.47787267922E+02  0.19999985765E+02 0.  0.
         12    1    1    2    0    0  0.22331425769E+02  0.23022515546E+02 -0.29238583173E+02  0.43400732078E+02  0.00000000000E+00 0. -1.
         11    1    3    3    0    0 -0.52433444357E+01 -0.98926644469E+01  0.20916992784E+01  0.11390025323E+02  0.51100000000E-03 0. -1.
        -11    1    3    3    0    0 -0.12496537712E+02 -0.10462102544E+02  0.26412947644E+02  0.31036476087E+02  0.51100000000E-03 0.  1.
        -12    1    3    3    0    0 -0.45915436209E+01 -0.26677485548E+01  0.73393625076E+00  0.53607665118E+01  0.00000000000E+00 0.  1.
</event>
<event>
 7    1  0.5646756E-010  0.4778727E+02  0.7816164E-02  0.1312668E+00
        -11   -1    0    0    0    0  0.00000000000E+00  0.00000000000E+00  0.45593999997E+02  0.45594000000E+02  0.51100000000E-03 0.  1.
         11   -1    0    0    0    0 -0.00000000000E+00 -0.00000000000E+00 -0.45593999997E+02  0.45594000000E+02  0.51100000000E-03 0. -1.
    9900012    2    1    2    0    0  0.26653945501E+02  0.16420323811E+02  0.30059338894E+02  0.47787266141E+02  0.19999977642E+02 0.  0.
         12    1    1    2    0    0 -0.26653945501E+02 -0.16420323811E+02 -0.30059338894E+02  0.43400733859E+02  0.00000000000E+00 0. -1.
         11    1    3    3    0    0  0.18071266702E+02  0.77356259079E+01  0.15334049101E+02  0.24930777174E+02  0.51100000000E-03 0.  1.
        -11    1    3    3    0    0  0.32378809247E+01  0.85581977258E+01  0.14924810275E+02  0.17506472609E+02  0.51100000000E-03 0. -1.
         12    1    3    3    0    0  0.53447978739E+01  0.12650017696E+00 -0.19952048230E+00  0.53500163580E+01  0.00000000000E+00 0. -1.
</event>
<event>
 7    1  0.5646756E-010  0.4778727E+02  0.7816164E-02  0.1312668E+00
        -11   -1    0    0    0    0  0.00000000000E+00  0.00000000000E+00  0.45593999997E+02  0.45594000000E+02  0.51100000000E-03 0.  1.
         11   -1    0    0    0    0 -0.00000000000E+00 -0.00000000000E+00 -0.45593999997E+02  0.45594000000E+02  0.51100000000E-03 0. -1.
    9900012    2    1    2    0    0 -0.26040860733E+02  0.33165777033E+02  0.10272704294E+02  0.47787266742E+02  0.19999980381E+02 0.  0.
         12    1    1    2    0    0  0.26040860733E+02 -0.33165777033E+02 -0.10272704294E+02  0.43400733258E+02  0.00000000000E+00 0. -1.
         11    1    3    3    0    0  0.18771069274E+01  0.39565377416E+00  0.22568489405E+01  0.29619992788E+01  0.51100000000E-03 0. -1.
        -11    1    3    3    0    0 -0.27551240402E+02  0.32006679560E+02  0.60216112620E+01  0.42658623824E+02  0.51100000000E-03 0.  1.
        -12    1    3    3    0    0 -0.36672725841E+00  0.76344369887E+00  0.19942440911E+01  0.21666436389E+01  0.00000000000E+00 0.  1.
</event>
<event>
 7    1  0.5646756E-010  0.4778728E+02  0.7816164E-02  0.1312668E+00
        -11   -1    0    0    0    0  0.00000000000E+00  0.00000000000E+00  0.45593999997E+02  0.45594000000E+02  0.51100000000E-03 0. -1.
         11   -1    0    0    0    0 -0.00000000000E+00 -0.00000000000E+00 -0.45593999997E+02  0.45594000000E+02  0.51100000000E-03 0.  1.
    9900012    2    1    2    0    0 -0.42665578739E+02  0.45797519226E-01 -0.79541894807E+01  0.47787276079E+02  0.20000022954E+02 0.  0.
         12    1    1    2    0    0  0.42665578739E+02 -0.45797519226E-01  0.79541894807E+01  0.43400723921E+02  0.00000000000E+00 0. -1.
         11    1    3    3    0    0 -0.15132310069E+00  0.11112425863E+01  0.17167603598E+00  0.11345623336E+01  0.51100000000E-03 0. -1.
        -11    1    3    3    0    0 -0.21962051107E+02  0.43710296736E+01  0.31088981263E+01  0.22607583618E+02  0.51100000000E-03 0.  1.
        -12    1    3    3    0    0 -0.20552204532E+02 -0.54364747406E+01 -0.11234763643E+02  0.24045130127E+02  0.00000000000E+00 0.  1.
</event>
<event>
 7    1  0.5646756E-010  0.4778727E+02  0.7816164E-02  0.1312668E+00
        -11   -1    0    0    0    0  0.00000000000E+00  0.00000000000E+00  0.45593999997E+02  0.45594000000E+02  0.51100000000E-03 0.  1.
         11   -1    0    0    0    0 -0.00000000000E+00 -0.00000000000E+00 -0.45593999997E+02  0.45594000000E+02  0.51100000000E-03 0. -1.
    9900012    2    1    2    0    0  0.14721543300E+02  0.11995721325E+02  0.39025655913E+02  0.47787274353E+02  0.20000015084E+02 0.  0.
         12    1    1    2    0    0 -0.14721543300E+02 -0.11995721325E+02 -0.39025655913E+02  0.43400725647E+02  0.00000000000E+00 0. -1.
         11    1    3    3    0    0 -0.34119436702E+01  0.43532955945E+00  0.71884374263E+01  0.79689713468E+01  0.51100000000E-03 0. -1.
        -11    1    3    3    0    0  0.16673398102E+02  0.54475045748E+01  0.24894196628E+02  0.30453218818E+02  0.51100000000E-03 0.  1.
        -12    1    3    3    0    0  0.14600888681E+01  0.61128871912E+01  0.69430218591E+01  0.93650841881E+01  0.00000000000E+00 0.  1.
</event>
<event>
 7    1  0.5646756E-010  0.4778727E+02  0.7816164E-02  0.1312668E+00
        -11   -1    0    0    0    0  0.00000000000E+00  0.00000000000E+00  0.45593999997E+02  0.45594000000E+02  0.51100000000E-03 0.  1.
         11   -1    0    0    0    0 -0.00000000000E+00 -0.00000000000E+00 -0.45593999997E+02  0.45594000000E+02  0.51100000000E-03 0. -1.
    9900012    2    1    2    0    0  0.29472009754E+02 -0.27838919733E+02  0.15492526637E+02  0.47787271982E+02  0.20000004276E+02 0.  0.
         12    1    1    2    0    0 -0.29472009754E+02  0.27838919733E+02 -0.15492526637E+02  0.43400728018E+02  0.00000000000E+00 0. -1.
         11    1    3    3    0    0  0.18223902266E+01 -0.40315081720E+01  0.60647677004E+01  0.75070348207E+01  0.51100000000E-03 0. -1.
        -11    1    3    3    0    0  0.10136335897E+02 -0.98162554444E+01  0.10879299582E+02  0.17817500835E+02  0.51100000000E-03 0.  1.
        -12    1    3    3    0    0  0.17513283631E+02 -0.13991156117E+02 -0.14515406453E+01  0.22462736326E+02  0.00000000000E+00 0.  1.
</event>
<event>
 7    1  0.5646756E-010  0.4778727E+02  0.7816164E-02  0.1312668E+00
        -11   -1    0    0    0    0  0.00000000000E+00  0.00000000000E+00  0.45593999997E+02  0.45594000000E+02  0.51100000000E-03 0.  1.
         11   -1    0    0    0    0 -0.00000000000E+00 -0.00000000000E+00 -0.45593999997E+02  0.45594000000E+02  0.51100000000E-03 0. -1.
    9900012    2    1    2    0    0 -0.32590937114E+01 -0.10388970556E+02  0.42012748720E+02  0.47787268946E+02  0.19999990433E+02 0.  0.
         12    1    1    2    0    0  0.32590937114E+01  0.10388970556E+02 -0.42012748720E+02  0.43400731054E+02  0.00000000000E+00 0. -1.
         11    1    3    3    0    0 -0.96292816323E+01 -0.51416297385E+01  0.13337948021E+02  0.17235436716E+02  0.51100000000E-03 0. -1.
        -11    1    3    3    0    0 -0.12845892991E+01 -0.19634352559E+00  0.49032078725E+01  0.50724913159E+01  0.51100000000E-03 0.  1.
         12    1    3    3    0    0  0.76547772200E+01 -0.50509972917E+01  0.23771592826E+02  0.25479340914E+02  0.00000000000E+00 0. -1.
</event>
<event>
 7    1  0.5646756E-010  0.4778727E+02  0.7816164E-02  0.1312668E+00
        -11   -1    0    0    0    0  0.00000000000E+00  0.00000000000E+00  0.45593999997E+02  0.45594000000E+02  0.51100000000E-03 0.  1.
         11   -1    0    0    0    0 -0.00000000000E+00 -0.00000000000E+00 -0.45593999997E+02  0.45594000000E+02  0.51100000000E-03 0. -1.
    9900012    2    1    2    0    0  0.29127313997E+02  0.18498756547E+02  0.26325249891E+02  0.47787271938E+02  0.20000004076E+02 0.  0.
         12    1    1    2    0    0 -0.29127313997E+02 -0.18498756547E+02 -0.26325249891E+02  0.43400728062E+02  0.00000000000E+00 0. -1.
         11    1    3    3    0    0  0.30596620211E+01  0.18815657270E+01 -0.25601695293E+01  0.44109284225E+01  0.51100000000E-03 0. -1.
        -11    1    3    3    0    0  0.52852393124E+01  0.48629207751E+01  0.12507246956E+02  0.14422655086E+02  0.51100000000E-03 0.  1.
         12    1    3    3    0    0  0.20782412664E+02  0.11754270045E+02  0.16378172464E+02  0.28953688429E+02  0.00000000000E+00 0. -1.
</event>
<event>
 7    1  0.5646756E-010  0.4778727E+02  0.7816164E-02  0.1312668E+00
        -11   -1    0    0    0    0  0.00000000000E+00  0.00000000000E+00  0.45593999997E+02  0.45594000000E+02  0.51100000000E-03 0. -1.
         11   -1    0    0    0    0 -0.00000000000E+00 -0.00000000000E+00 -0.45593999997E+02  0.45594000000E+02  0.51100000000E-03 0.  1.
    9900012    2    1    2    0    0 -0.17431810140E+02 -0.34163895583E+02 -0.20312146858E+02  0.47787273322E+02  0.20000010386E+02 0.  0.
         12    1    1    2    0    0  0.17431810140E+02  0.34163895583E+02  0.20312146858E+02  0.43400726678E+02  0.00000000000E+00 0. -1.
         11    1    3    3    0    0 -0.10238158693E+01  0.18722489123E+01  0.83886373627E+00  0.22928601250E+01  0.51100000000E-03 0. -1.
        -11    1    3    3    0    0 -0.14110960225E+02 -0.30835155510E+02 -0.14885797808E+02  0.37033943760E+02  0.51100000000E-03 0.  1.
        -12    1    3    3    0    0 -0.22970340454E+01 -0.52009889857E+01 -0.62652127868E+01  0.84604694372E+01  0.00000000000E+00 0.  1.
</event>
<event>
 7    1  0.5646756E-010  0.4778728E+02  0.7816164E-02  0.1312668E+00
        -11   -1    0    0    0    0  0.00000000000E+00  0.00000000000E+00  0.45593999997E+02  0.45594000000E+02  0.51100000000E-03 0.  1.
         11   -1    0    0    0    0 -0.00000000000E+00 -0.00000000000E+00 -0.45593999997E+02  0.45594000000E+02  0.51100000000E-03 0. -1.
    9900012    2    1    2    0    0 -0.32396330531E+02  0.78599588798E+00  0.28870094464E+02  0.47787281391E+02  0.20000047174E+02 0.  0.
         12    1    1    2    0    0  0.32396330531E+02 -0.78599588798E+00 -0.28870094464E+02  0.43400718609E+02  0.00000000000E+00 0. -1.
         11    1    3    3    0    0 -0.23776646743E+02  0.51315311908E+01  0.11791349459E+02  0.27031416261E+02  0.51100000000E-03 0. -1.
        -11    1    3    3    0    0 -0.53691219253E+00 -0.75177333916E-01  0.74834404915E+01  0.75030532575E+01  0.51100000000E-03 0.  1.
         12    1    3    3    0    0 -0.80827715951E+01 -0.42703579689E+01  0.95953045130E+01  0.13252811873E+02  0.00000000000E+00 0. -1.
</event>
<event>
 7    1  0.5646756E-010  0.4778727E+02  0.7816164E-02  0.1312668E+00
        -11   -1    0    0    0    0  0.00000000000E+00  0.00000000000E+00  0.45593999997E+02  0.45594000000E+02  0.51100000000E-03 0.  1.
         11   -1    0    0    0    0 -0.00000000000E+00 -0.00000000000E+00 -0.45593999997E+02  0.45594000000E+02  0.51100000000E-03 0. -1.
    9900012    2    1    2    0    0 -0.42210165789E+02  0.10089265888E+02 -0.36324690282E+00  0.47787270393E+02  0.19999997030E+02 0.  0.
         12    1    1    2    0    0  0.42210165789E+02 -0.10089265888E+02  0.36324690282E+00  0.43400729607E+02  0.00000000000E+00 0. -1.
         11    1    3    3    0    0 -0.17449769613E+02  0.86212317772E+01  0.67625459354E+01  0.20604662693E+02  0.51100000000E-03 0.  1.
        -11    1    3    3    0    0 -0.11616658940E+02  0.42452818615E+01 -0.97180750428E+00  0.12406191725E+02  0.51100000000E-03 0. -1.
         12    1    3    3    0    0 -0.13143737236E+02 -0.27772477504E+01 -0.61539853339E+01  0.14776415976E+02  0.00000000000E+00 0. -1.
</event>
<event>
 7    1  0.5646756E-010  0.4778727E+02  0.7816164E-02  0.1312668E+00
        -11   -1    0    0    0    0  0.00000000000E+00  0.00000000000E+00  0.45593999997E+02  0.45594000000E+02  0.51100000000E-03 0. -1.
         11   -1    0    0    0    0 -0.00000000000E+00 -0.00000000000E+00 -0.45593999997E+02  0.45594000000E+02  0.51100000000E-03 0.  1.
    9900012    2    1    2    0    0  0.37091594995E+02 -0.19192841687E+02  0.11809814005E+02  0.47787270765E+02  0.19999998724E+02 0.  0.
         12    1    1    2    0    0 -0.37091594995E+02  0.19192841687E+02 -0.11809814005E+02  0.43400729235E+02  0.00000000000E+00 0. -1.
         11    1    3    3    0    0 -0.15183402115E+01 -0.27399001531E+01  0.61541659413E+00  0.31923577011E+01  0.51100000000E-03 0. -1.
        -11    1    3    3    0    0  0.29092941285E+02 -0.14512790325E+02  0.45541256576E+01  0.32829260978E+02  0.51100000000E-03 0.  1.
        -12    1    3    3    0    0  0.95169939222E+01 -0.19401512091E+01  0.66402717536E+01  0.11765652085E+02  0.00000000000E+00 0.  1.
</event>
<event>
 7    1  0.5646756E-010  0.4778726E+02  0.7816164E-02  0.1312668E+00
        -11   -1    0    0    0    0  0.00000000000E+00  0.00000000000E+00  0.45593999997E+02  0.45594000000E+02  0.51100000000E-03 0.  1.
         11   -1    0    0    0    0 -0.00000000000E+00 -0.00000000000E+00 -0.45593999997E+02  0.45594000000E+02  0.51100000000E-03 0. -1.
    9900012    2    1    2    0    0 -0.12871345689E+02  0.29113167897E+02  0.29502133376E+02  0.47787263156E+02  0.19999964034E+02 0.  0.
         12    1    1    2    0    0  0.12871345689E+02 -0.29113167897E+02 -0.29502133376E+02  0.43400736844E+02  0.00000000000E+00 0. -1.
         11    1    3    3    0    0  0.38586154188E+01  0.24919082844E+01  0.40987946645E+00  0.46115638656E+01  0.51100000000E-03 0. -1.
        -11    1    3    3    0    0 -0.83800259768E+01  0.10888926010E+02  0.15880575971E+02  0.20999672341E+02  0.51100000000E-03 0.  1.
         12    1    3    3    0    0 -0.83499351314E+01  0.15732333603E+02  0.13211677938E+02  0.22176026949E+02  0.00000000000E+00 0. -1.
</event>
<event>
 7    1  0.5646756E-010  0.4778727E+02  0.7816164E-02  0.1312668E+00
        -11   -1    0    0    0    0  0.00000000000E+00  0.00000000000E+00  0.45593999997E+02  0.45594000000E+02  0.51100000000E-03 0.  1.
         11   -1    0    0    0    0 -0.00000000000E+00 -0.00000000000E+00 -0.45593999997E+02  0.45594000000E+02  0.51100000000E-03 0. -1.
    9900012    2    1    2    0    0 -0.29558768967E+02 -0.14276993307E+02  0.28391370151E+02  0.47787271207E+02  0.20000000741E+02 0.  0.
         12    1    1    2    0    0  0.29558768967E+02  0.14276993307E+02 -0.28391370151E+02  0.43400728793E+02  0.00000000000E+00 0. -1.
         11    1    3    3    0    0 -0.34275799273E+01 -0.10274762328E+02  0.11897651529E+02  0.16089535644E+02  0.51100000000E-03 0. -1.
        -11    1    3    3    0    0 -0.24974734107E+02 -0.29898374398E+01  0.16631907623E+02  0.30154548962E+02  0.51100000000E-03 0.  1.
        -12    1    3    3    0    0 -0.11564549322E+01 -0.10123935388E+01 -0.13818900078E+00  0.15431866017E+01  0.00000000000E+00 0.  1.
</event>
<event>
 7    1  0.5646756E-010  0.4778727E+02  0.7816164E-02  0.1312668E+00
        -11   -1    0    0    0    0  0.00000000000E+00  0.00000000000E+00  0.45593999997E+02  0.45594000000E+02  0.51100000000E-03 0.  1.
         11   -1    0    0    0    0 -0.00000000000E+00 -0.00000000000E+00 -0.45593999997E+02  0.45594000000E+02  0.51100000000E-03 0. -1.
    9900012    2    1    2    0    0 -0.33466707077E+02 -0.75804739333E+01  0.26573275793E+02  0.47787273578E+02  0.20000011550E+02 0.  0.
         12    1    1    2    0    0  0.33466707077E+02  0.75804739333E+01 -0.26573275793E+02  0.43400726422E+02  0.00000000000E+00 0. -1.
         11    1    3    3    0    0 -0.28745515162E+02 -0.77479346439E+01  0.24006882061E+02  0.38244810363E+02  0.51100000000E-03 0. -1.
        -11    1    3    3    0    0 -0.38704692649E+01 -0.29803593044E+01  0.36591496808E+01  0.61034785624E+01  0.51100000000E-03 0.  1.
         12    1    3    3    0    0 -0.85072265055E+00  0.31478200150E+01 -0.10927559488E+01  0.34389846523E+01  0.00000000000E+00 0. -1.
</event>
<event>
 7    1  0.5646756E-010  0.4778727E+02  0.7816164E-02  0.1312668E+00
        -11   -1    0    0    0    0  0.00000000000E+00  0.00000000000E+00  0.45593999997E+02  0.45594000000E+02  0.51100000000E-03 0.  1.
         11   -1    0    0    0    0 -0.00000000000E+00 -0.00000000000E+00 -0.45593999997E+02  0.45594000000E+02  0.51100000000E-03 0. -1.
    9900012    2    1    2    0    0 -0.41387223153E+01 -0.43187760372E+02  0.11451442380E+01  0.47787273927E+02  0.20000013141E+02 0.  0.
         12    1    1    2    0    0  0.41387223153E+01  0.43187760372E+02 -0.11451442380E+01  0.43400726073E+02  0.00000000000E+00 0. -1.
         11    1    3    3    0    0 -0.39635877132E+01 -0.25615805742E+02  0.77296319904E+01  0.27048599637E+02  0.51100000000E-03 0.  1.
        -11    1    3    3    0    0 -0.44237153086E+01 -0.91682913132E+01 -0.25502901613E+01  0.10494322413E+02  0.51100000000E-03 0. -1.
         12    1    3    3    0    0  0.42485807066E+01 -0.84036633172E+01 -0.40341975912E+01  0.10244351877E+02  0.00000000000E+00 0. -1.
</event>
<event>
 7    1  0.5646756E-010  0.4778727E+02  0.7816164E-02  0.1312668E+00
        -11   -1    0    0    0    0  0.00000000000E+00  0.00000000000E+00  0.45593999997E+02  0.45594000000E+02  0.51100000000E-03 0. -1.
         11   -1    0    0    0    0 -0.00000000000E+00 -0.00000000000E+00 -0.45593999997E+02  0.45594000000E+02  0.51100000000E-03 0.  1.
    9900012    2    1    2    0    0  0.58574794968E+01 -0.40205790393E+02 -0.15258027674E+02  0.47787273558E+02  0.20000011460E+02 0.  0.
         12    1    1    2    0    0 -0.58574794968E+01  0.40205790393E+02  0.15258027674E+02  0.43400726442E+02  0.00000000000E+00 0. -1.
         11    1    3    3    0    0 -0.48273154973E+00 -0.61218238228E+01 -0.84027846765E+01  0.10407523589E+02  0.51100000000E-03 0. -1.
        -11    1    3    3    0    0  0.31421819740E+01 -0.18642864533E+02 -0.98672575232E+01  0.21325864035E+02  0.51100000000E-03 0.  1.
         12    1    3    3    0    0  0.31980290725E+01 -0.15441102038E+02  0.30120145257E+01  0.16053885934E+02  0.00000000000E+00 0. -1.
</event>
<event>
 7    1  0.5646756E-010  0.4778727E+02  0.7816164E-02  0.1312668E+00
        -11   -1    0    0    0    0  0.00000000000E+00  0.00000000000E+00  0.45593999997E+02  0.45594000000E+02  0.51100000000E-03 0. -1.
         11   -1    0    0    0    0 -0.00000000000E+00 -0.00000000000E+00 -0.45593999997E+02  0.45594000000E+02  0.51100000000E-03 0.  1.
    9900012    2    1    2    0    0  0.41362055253E+02 -0.13141967385E+02 -0.30367765351E+00  0.47787272568E+02  0.20000006948E+02 0.  0.
         12    1    1    2    0    0 -0.41362055253E+02  0.13141967385E+02  0.30367765351E+00  0.43400727432E+02  0.00000000000E+00 0. -1.
         11    1    3    3    0    0  0.44235472499E+01 -0.50438216556E+01  0.35786451622E+01  0.76035918238E+01  0.51100000000E-03 0. -1.
        -11    1    3    3    0    0  0.32611815806E+02 -0.31188446391E+01 -0.58954433377E+01  0.33286843864E+02  0.51100000000E-03 0.  1.
        -12    1    3    3    0    0  0.43266921970E+01 -0.49793010908E+01  0.20131205220E+01  0.68968368805E+01  0.00000000000E+00 0.  1.
</event>
<event>
 7    1  0.5646756E-010  0.4778728E+02  0.7816164E-02  0.1312668E+00
        -11   -1    0    0    0    0  0.00000000000E+00  0.00000000000E+00  0.45593999997E+02  0.45594000000E+02  0.51100000000E-03 0.  1.
         11   -1    0    0    0    0 -0.00000000000E+00 -0.00000000000E+00 -0.45593999997E+02  0.45594000000E+02  0.51100000000E-03 0. -1.
    9900012    2    1    2    0    0 -0.38839442145E+02  0.13439006300E+02  0.13946812130E+02  0.47787277367E+02  0.20000028827E+02 0.  0.
         12    1    1    2    0    0  0.38839442145E+02 -0.13439006300E+02 -0.13946812130E+02  0.43400722633E+02  0.00000000000E+00 0. -1.
         11    1    3    3    0    0 -0.23906966238E+01  0.57338650904E+01 -0.19477959043E-01  0.62123279754E+01  0.51100000000E-03 0. -1.
        -11    1    3    3    0    0 -0.16571506428E+02 -0.24030233585E+01  0.75664842247E+01  0.18375011030E+02  0.51100000000E-03 0.  1.
         12    1    3    3    0    0 -0.19877239093E+02  0.10108164568E+02  0.63998058646E+01  0.23199938362E+02  0.00000000000E+00 0. -1.
</event>
<event>
 7    1  0.5646756E-010  0.4778726E+02  0.7816164E-02  0.1312668E+00
        -11   -1    0    0    0    0  0.00000000000E+00  0.00000000000E+00  0.45593999997E+02  0.45594000000E+02  0.51100000000E-03 0. -1.
         11   -1    0    0    0    0 -0.00000000000E+00 -0.00000000000E+00 -0.45593999997E+02  0.45594000000E+02  0.51100000000E-03 0.  1.
    9900012    2    1    2    0    0  0.62623442687E+01  0.86681079484E+01 -0.42062701313E+02  0.47787263913E+02  0.19999967484E+02 0.  0.
         12    1    1    2    0    0 -0.62623442687E+01 -0.86681079484E+01  0.42062701313E+02  0.43400736087E+02  0.00000000000E+00 0. -1.
         11    1    3    3    0    0  0.15968667940E+01  0.32186453990E+01 -0.47706955430E+01  0.59723695454E+01  0.51100000000E-03 0. -1.
        -11    1    3    3    0    0 -0.48628063793E+00  0.74237430748E+01 -0.47907802397E+01  0.88487290424E+01  0.51100000000E-03 0.  1.
        -12    1    3    3    0    0  0.51517581127E+01 -0.19742805253E+01 -0.32501225531E+02  0.32966165325E+02  0.00000000000E+00 0.  1.
</event>
<event>
 7    1  0.5646756E-010  0.4778727E+02  0.7816164E-02  0.1312668E+00
        -11   -1    0    0    0    0  0.00000000000E+00  0.00000000000E+00  0.45593999997E+02  0.45594000000E+02  0.51100000000E-03 0. -1.
         11   -1    0    0    0    0 -0.00000000000E+00 -0.00000000000E+00 -0.45593999997E+02  0.45594000000E+02  0.51100000000E-03 0.  1.
    9900012    2    1    2    0    0  0.18674571762E+02  0.87762784854E+01 -0.38181942125E+02  0.47787269604E+02  0.19999993430E+02 0.  0.
         12    1    1    2    0    0 -0.18674571762E+02 -0.87762784854E+01  0.38181942125E+02  0.43400730396E+02  0.00000000000E+00 0. -1.
         11    1    3    3    0    0  0.76235936541E+01 -0.13981899798E+01 -0.20157596149E+02  0.21596360763E+02  0.51100000000E-03 0.  1.
        -11    1    3    3    0    0  0.10790219767E+02  0.93058796173E+01 -0.84340326950E+01  0.16557812230E+02  0.51100000000E-03 0. -1.
         12    1    3    3    0    0  0.26075834068E+00  0.86858884790E+00 -0.95903132804E+01  0.96330966109E+01  0.00000000000E+00 0. -1.
</event>
<event>
 7    1  0.5646756E-010  0.4778727E+02  0.7816164E-02  0.1312668E+00
        -11   -1    0    0    0    0  0.00000000000E+00  0.00000000000E+00  0.45593999997E+02  0.45594000000E+02  0.51100000000E-03 0.  1.
         11   -1    0    0    0    0 -0.00000000000E+00 -0.00000000000E+00 -0.45593999997E+02  0.45594000000E+02  0.51100000000E-03 0. -1.
    9900012    2    1    2    0    0  0.29702795404E+02 -0.14362547226E+02  0.28197239385E+02  0.47787272742E+02  0.20000007738E+02 0.  0.
         12    1    1    2    0    0 -0.29702795404E+02  0.14362547226E+02 -0.28197239385E+02  0.43400727258E+02  0.00000000000E+00 0. -1.
         11    1    3    3    0    0  0.18912015660E+02 -0.40525366911E+01  0.84479012250E+01  0.21105791274E+02  0.51100000000E-03 0. -1.
        -11    1    3    3    0    0  0.85995193269E+01 -0.75942474497E+01  0.69470903551E+01  0.13412173263E+02  0.51100000000E-03 0.  1.
         12    1    3    3    0    0  0.21912604172E+01 -0.27157630850E+01  0.12802247805E+02  0.13269308204E+02  0.00000000000E+00 0. -1.
</event>
<event>
 7    1  0.5646756E-010  0.4778727E+02  0.7816164E-02  0.1312668E+00
        -11   -1    0    0    0    0  0.00000000000E+00  0.00000000000E+00  0.45593999997E+02  0.45594000000E+02  0.51100000000E-03 0.  1.
         11   -1    0    0    0    0 -0.00000000000E+00 -0.00000000000E+00 -0.45593999997E+02  0.45594000000E+02  0.51100000000E-03 0. -1.
    9900012    2    1    2    0    0 -0.38469472024E+02 -0.16305642594E+02  0.11740917465E+02  0.47787269578E+02  0.19999993315E+02 0.  0.
         12    1    1    2    0    0  0.38469472024E+02  0.16305642594E+02 -0.11740917465E+02  0.43400730422E+02  0.00000000000E+00 0. -1.
         11    1    3    3    0    0  0.96294218795E+00 -0.24656521010E+01 -0.75198567059E+00  0.27517595554E+01  0.51100000000E-03 0. -1.
        -11    1    3    3    0    0 -0.28958822738E+02 -0.54417988853E+01  0.11298702942E+02  0.31557681758E+02  0.51100000000E-03 0.  1.
        -12    1    3    3    0    0 -0.10473591474E+02 -0.83981916075E+01  0.11942001934E+01  0.13477828265E+02  0.00000000000E+00 0.  1.
</event>
<event>
 7    1  0.5646756E-010  0.4778727E+02  0.7816164E-02  0.1312668E+00
        -11   -1    0    0    0    0  0.00000000000E+00  0.00000000000E+00  0.45593999997E+02  0.45594000000E+02  0.51100000000E-03 0.  1.
         11   -1    0    0    0    0 -0.00000000000E+00 -0.00000000000E+00 -0.45593999997E+02  0.45594000000E+02  0.51100000000E-03 0. -1.
    9900012    2    1    2    0    0 -0.14294514940E+02 -0.39836988148E+02 -0.96075076061E+01  0.47787274378E+02  0.20000015201E+02 0.  0.
         12    1    1    2    0    0  0.14294514940E+02  0.39836988148E+02  0.96075076061E+01  0.43400725622E+02  0.00000000000E+00 0. -1.
         11    1    3    3    0    0 -0.22327289284E+01 -0.14398624235E+02 -0.10907286570E+02  0.18200943902E+02  0.51100000000E-03 0. -1.
        -11    1    3    3    0    0 -0.15949230465E+01 -0.10826445908E+02 -0.24763627054E+01  0.11219985875E+02  0.51100000000E-03 0.  1.
         12    1    3    3    0    0 -0.10466862966E+02 -0.14611918005E+02  0.37761416695E+01  0.18366344602E+02  0.00000000000E+00 0. -1.
</event>
<event>
 7    1  0.5646756E-010  0.4778727E+02  0.7816164E-02  0.1312668E+00
        -11   -1    0    0    0    0  0.00000000000E+00  0.00000000000E+00  0.45593999997E+02  0.45594000000E+02  0.51100000000E-03 0. -1.
         11   -1    0    0    0    0 -0.00000000000E+00 -0.00000000000E+00 -0.45593999997E+02  0.45594000000E+02  0.51100000000E-03 0.  1.
    9900012    2    1    2    0    0 -0.10777439532E+02  0.41653109121E+02 -0.56998713060E+01  0.47787271490E+02  0.20000002030E+02 0.  0.
         12    1    1    2    0    0  0.10777439532E+02 -0.41653109121E+02  0.56998713060E+01  0.43400728510E+02  0.00000000000E+00 0. -1.
         11    1    3    3    0    0 -0.10413344482E+02  0.19312861831E+02 -0.70414346104E+01  0.23043571274E+02  0.51100000000E-03 0. -1.
        -11    1    3    3    0    0 -0.23875102100E+01  0.12972855121E+02 -0.39849143344E+01  0.13779503529E+02  0.51100000000E-03 0.  1.
         12    1    3    3    0    0  0.20234151602E+01  0.93673921694E+01  0.53264776388E+01  0.10964196687E+02  0.00000000000E+00 0. -1.
</event>
<event>
 7    1  0.5646756E-010  0.4778727E+02  0.7816164E-02  0.1312668E+00
        -11   -1    0    0    0    0  0.00000000000E+00  0.00000000000E+00  0.45593999997E+02  0.45594000000E+02  0.51100000000E-03 0. -1.
         11   -1    0    0    0    0 -0.00000000000E+00 -0.00000000000E+00 -0.45593999997E+02  0.45594000000E+02  0.51100000000E-03 0.  1.
    9900012    2    1    2    0    0 -0.17144622385E+02  0.39866697638E+02 -0.57581359909E+00  0.47787271681E+02  0.20000002905E+02 0.  0.
         12    1    1    2    0    0  0.17144622385E+02 -0.39866697638E+02  0.57581359909E+00  0.43400728319E+02  0.00000000000E+00 0. -1.
         11    1    3    3    0    0 -0.16320520375E+02  0.20164063999E+02  0.32525467472E+01  0.26144366943E+02  0.51100000000E-03 0. -1.
        -11    1    3    3    0    0  0.27635011195E-01  0.19994251666E+01 -0.33636439201E+01  0.39131273137E+01  0.51100000000E-03 0.  1.
         12    1    3    3    0    0 -0.85173702145E+00  0.17703208473E+02 -0.46471642618E+00  0.17729777425E+02  0.00000000000E+00 0. -1.
</event>
<event>
 7    1  0.5646756E-010  0.4778727E+02  0.7816164E-02  0.1312668E+00
        -11   -1    0    0    0    0  0.00000000000E+00  0.00000000000E+00  0.45593999997E+02  0.45594000000E+02  0.51100000000E-03 0.  1.
         11   -1    0    0    0    0 -0.00000000000E+00 -0.00000000000E+00 -0.45593999997E+02  0.45594000000E+02  0.51100000000E-03 0. -1.
    9900012    2    1    2    0    0  0.40427208068E+01  0.25804893864E+02  0.34661029714E+02  0.47787272821E+02  0.20000008098E+02 0.  0.
         12    1    1    2    0    0 -0.40427208068E+01 -0.25804893864E+02 -0.34661029714E+02  0.43400727179E+02  0.00000000000E+00 0. -1.
         11    1    3    3    0    0 -0.34982290860E+01  0.66242297356E+01  0.51562762542E+01  0.90942405620E+01  0.51100000000E-03 0. -1.
        -11    1    3    3    0    0  0.11201362900E+02  0.99196000354E+01  0.15897691073E+02  0.21831298115E+02  0.51100000000E-03 0.  1.
        -12    1    3    3    0    0 -0.36604130075E+01  0.92610640932E+01  0.13607062387E+02  0.16861734143E+02  0.00000000000E+00 0.  1.
</event>
<event>
 7    1  0.5646756E-010  0.4778727E+02  0.7816164E-02  0.1312668E+00
        -11   -1    0    0    0    0  0.00000000000E+00  0.00000000000E+00  0.45593999997E+02  0.45594000000E+02  0.51100000000E-03 0. -1.
         11   -1    0    0    0    0 -0.00000000000E+00 -0.00000000000E+00 -0.45593999997E+02  0.45594000000E+02  0.51100000000E-03 0.  1.
    9900012    2    1    2    0    0 -0.70547546220E+01 -0.71527777621E+01 -0.42221934082E+02  0.47787268323E+02  0.19999987592E+02 0.  0.
         12    1    1    2    0    0  0.70547546220E+01  0.71527777621E+01  0.42221934082E+02  0.43400731677E+02  0.00000000000E+00 0. -1.
         11    1    3    3    0    0 -0.59787270955E+00 -0.72865445026E+01 -0.72277590812E+01  0.10280646097E+02  0.51100000000E-03 0. -1.
        -11    1    3    3    0    0 -0.61756964494E+00 -0.18097979738E+01 -0.28483467807E+02  0.28547586580E+02  0.51100000000E-03 0.  1.
        -12    1    3    3    0    0 -0.58393122675E+01  0.19435647143E+01 -0.65107071939E+01  0.89590356468E+01  0.00000000000E+00 0.  1.
</event>
<event>
 7    1  0.5646756E-010  0.4778728E+02  0.7816164E-02  0.1312668E+00
        -11   -1    0    0    0    0  0.00000000000E+00  0.00000000000E+00  0.45593999997E+02  0.45594000000E+02  0.51100000000E-03 0.  1.
         11   -1    0    0    0    0 -0.00000000000E+00 -0.00000000000E+00 -0.45593999997E+02  0.45594000000E+02  0.51100000000E-03 0. -1.
    9900012    2    1    2    0    0 -0.63918852654E+01 -0.30742687872E+01  0.42817233632E+02  0.47787276254E+02  0.20000023751E+02 0.  0.
         12    1    1    2    0    0  0.63918852654E+01  0.30742687872E+01 -0.42817233632E+02  0.43400723746E+02  0.00000000000E+00 0. -1.
         11    1    3    3    0    0 -0.17535299236E+01  0.17576234047E+01  0.26761403988E+02  0.26876325101E+02  0.51100000000E-03 0. -1.
        -11    1    3    3    0    0 -0.63464949003E+01 -0.13180415526E+01  0.27461034483E+01  0.70396246679E+01  0.51100000000E-03 0.  1.
        -12    1    3    3    0    0  0.17081395585E+01 -0.35138506392E+01  0.13309726195E+02  0.13871326485E+02  0.00000000000E+00 0.  1.
</event>
<event>
 7    1  0.7016897E-010  0.4778727E+02  0.7816164E-02  0.1312668E+00
        -11   -1    0    0    0    0  0.00000000000E+00  0.00000000000E+00  0.45593999997E+02  0.45594000000E+02  0.51100000000E-03 0.  1.
         11   -1    0    0    0    0 -0.00000000000E+00 -0.00000000000E+00 -0.45593999997E+02  0.45594000000E+02  0.51100000000E-03 0. -1.
    9900012    2    1    2    0    0  0.34825179454E+02  0.17052924326E+02  0.19494305570E+02  0.47787270724E+02  0.19999998538E+02 0.  0.
         12    1    1    2    0    0 -0.34825179454E+02 -0.17052924326E+02 -0.19494305570E+02  0.43400729276E+02  0.00000000000E+00 0. -1.
         11    1    3    3    0    0  0.15325879900E+01  0.68778906700E+01  0.12912885476E+01  0.71639118077E+01  0.51100000000E-03 0. -1.
        -11    1    3    3    0    0  0.23698557409E+02  0.61374561450E+01  0.72913533535E+01  0.25543175707E+02  0.51100000000E-03 0.  1.
        -12    1    3    3    0    0  0.95940340547E+01  0.40375775113E+01  0.10911663669E+02  0.15080183209E+02  0.00000000000E+00 0.  1.
</event>
<event>
 7    1  0.5646756E-010  0.4778727E+02  0.7816164E-02  0.1312668E+00
        -11   -1    0    0    0    0  0.00000000000E+00  0.00000000000E+00  0.45593999997E+02  0.45594000000E+02  0.51100000000E-03 0. -1.
         11   -1    0    0    0    0 -0.00000000000E+00 -0.00000000000E+00 -0.45593999997E+02  0.45594000000E+02  0.51100000000E-03 0.  1.
    9900012    2    1    2    0    0 -0.30576182502E+02  0.20449174500E+00 -0.30800626183E+02  0.47787270437E+02  0.19999997231E+02 0.  0.
         12    1    1    2    0    0  0.30576182502E+02 -0.20449174500E+00  0.30800626183E+02  0.43400729563E+02  0.00000000000E+00 0. -1.
         11    1    3    3    0    0 -0.15635152801E+00  0.25051729202E+01  0.99570040427E+00  0.27003252983E+01  0.51100000000E-03 0. -1.
        -11    1    3    3    0    0 -0.18267899335E+02 -0.16132869327E+01 -0.12226865639E+02  0.22041213316E+02  0.51100000000E-03 0.  1.
         12    1    3    3    0    0 -0.12151931640E+02 -0.68739424255E+00 -0.19569460949E+02  0.23045731823E+02  0.00000000000E+00 0. -1.
</event>
<event>
 7    1  0.5646756E-010  0.4778728E+02  0.7816164E-02  0.1312668E+00
        -11   -1    0    0    0    0  0.00000000000E+00  0.00000000000E+00  0.45593999997E+02  0.45594000000E+02  0.51100000000E-03 0.  1.
         11   -1    0    0    0    0 -0.00000000000E+00 -0.00000000000E+00 -0.45593999997E+02  0.45594000000E+02  0.51100000000E-03 0. -1.
    9900012    2    1    2    0    0 -0.23167952298E+02  0.11913659145E+02  0.34712150153E+02  0.47787278161E+02  0.20000032449E+02 0.  0.
         12    1    1    2    0    0  0.23167952298E+02 -0.11913659145E+02 -0.34712150153E+02  0.43400721839E+02  0.00000000000E+00 0. -1.
         11    1    3    3    0    0 -0.72715356989E+01 -0.30345713308E+01  0.87836074557E+01  0.11799814184E+02  0.51100000000E-03 0. -1.
        -11    1    3    3    0    0 -0.54121176351E+01  0.12399399988E+02  0.10334764298E+02  0.17024790475E+02  0.51100000000E-03 0.  1.
         12    1    3    3    0    0 -0.10484298964E+02  0.25488304878E+01  0.15593778398E+02  0.18962673502E+02  0.00000000000E+00 0. -1.
</event>
<event>
 7    1  0.5646756E-010  0.4778727E+02  0.7816164E-02  0.1312668E+00
        -11   -1    0    0    0    0  0.00000000000E+00  0.00000000000E+00  0.45593999997E+02  0.45594000000E+02  0.51100000000E-03 0.  1.
         11   -1    0    0    0    0 -0.00000000000E+00 -0.00000000000E+00 -0.45593999997E+02  0.45594000000E+02  0.51100000000E-03 0. -1.
    9900012    2    1    2    0    0  0.11360539869E+01  0.13341583670E+01  0.43365337155E+02  0.47787273465E+02  0.20000011038E+02 0.  0.
         12    1    1    2    0    0 -0.11360539869E+01 -0.13341583670E+01 -0.43365337155E+02  0.43400726535E+02  0.00000000000E+00 0. -1.
         11    1    3    3    0    0  0.70362360135E+01 -0.94986965295E+00  0.19024995212E+02  0.20306681479E+02  0.51100000000E-03 0.  1.
        -11    1    3    3    0    0 -0.38348124279E+01  0.28070038532E+01  0.21981206919E+01  0.52361046424E+01  0.51100000000E-03 0. -1.
        -12    1    3    3    0    0 -0.20653695986E+01 -0.52297583328E+00  0.22142221251E+02  0.22244487344E+02  0.00000000000E+00 0.  1.
</event>
<event>
 7    1  0.5646756E-010  0.4778727E+02  0.7816164E-02  0.1312668E+00
        -11   -1    0    0    0    0  0.00000000000E+00  0.00000000000E+00  0.45593999997E+02  0.45594000000E+02  0.51100000000E-03 0. -1.
         11   -1    0    0    0    0 -0.00000000000E+00 -0.00000000000E+00 -0.45593999997E+02  0.45594000000E+02  0.51100000000E-03 0.  1.
    9900012    2    1    2    0    0  0.77439264319E+01  0.13983339369E+02 -0.40349984042E+02  0.47787269722E+02  0.19999993968E+02 0.  0.
         12    1    1    2    0    0 -0.77439264319E+01 -0.13983339369E+02  0.40349984042E+02  0.43400730278E+02  0.00000000000E+00 0. -1.
         11    1    3    3    0    0  0.10760536690E+01  0.81734514057E+01 -0.16728957962E+02  0.18649966063E+02  0.51100000000E-03 0.  1.
        -11    1    3    3    0    0  0.11297272524E+02  0.50236724094E+01 -0.17100684362E+02  0.21102110247E+02  0.51100000000E-03 0. -1.
        -12    1    3    3    0    0 -0.46293997612E+01  0.78621555404E+00 -0.65203417185E+01  0.80351934122E+01  0.00000000000E+00 0.  1.
</event>
<event>
 7    1  0.5646756E-010  0.4778727E+02  0.7816164E-02  0.1312668E+00
        -11   -1    0    0    0    0  0.00000000000E+00  0.00000000000E+00  0.45593999997E+02  0.45594000000E+02  0.51100000000E-03 0. -1.
         11   -1    0    0    0    0 -0.00000000000E+00 -0.00000000000E+00 -0.45593999997E+02  0.45594000000E+02  0.51100000000E-03 0.  1.
    9900012    2    1    2    0    0  0.26274851659E+02 -0.25086227321E+02 -0.23747351115E+02  0.47787270560E+02  0.19999997793E+02 0.  0.
         12    1    1    2    0    0 -0.26274851659E+02  0.25086227321E+02  0.23747351115E+02  0.43400729440E+02  0.00000000000E+00 0. -1.
         11    1    3    3    0    0  0.19790715232E+02 -0.14219440919E+02 -0.17635037973E+02  0.30080882202E+02  0.51100000000E-03 0. -1.
        -11    1    3    3    0    0  0.58471824821E+01 -0.96925321619E+01  0.13235034355E+00  0.11320434601E+02  0.51100000000E-03 0.  1.
         12    1    3    3    0    0  0.63695394461E+00 -0.11742542404E+01 -0.62446634853E+01  0.63859537576E+01  0.00000000000E+00 0. -1.
</event>
<event>
 7    1  0.5646756E-010  0.4778727E+02  0.7816164E-02  0.1312668E+00
        -11   -1    0    0    0    0  0.00000000000E+00  0.00000000000E+00  0.45593999997E+02  0.45594000000E+02  0.51100000000E-03 0.  1.
         11   -1    0    0    0    0 -0.00000000000E+00 -0.00000000000E+00 -0.45593999997E+02  0.45594000000E+02  0.51100000000E-03 0. -1.
    9900012    2    1    2    0    0 -0.25026284356E+02  0.10650781358E+02  0.33821142458E+02  0.47787265797E+02  0.19999976077E+02 0.  0.
         12    1    1    2    0    0  0.25026284356E+02 -0.10650781358E+02 -0.33821142458E+02  0.43400734203E+02  0.00000000000E+00 0. -1.
         11    1    3    3    0    0 -0.21218022213E+02  0.35929962098E+01  0.17271335197E+02  0.27593715012E+02  0.51100000000E-03 0. -1.
        -11    1    3    3    0    0 -0.24983045832E+01 -0.11325205717E+01  0.18291434692E+01  0.32969523394E+01  0.51100000000E-03 0.  1.
         12    1    3    3    0    0 -0.13099575590E+01  0.81903057203E+01  0.14720663791E+02  0.16896598446E+02  0.00000000000E+00 0. -1.
</event>
<event>
 7    1  0.5646756E-010  0.4778727E+02  0.7816164E-02  0.1312668E+00
        -11   -1    0    0    0    0  0.00000000000E+00  0.00000000000E+00  0.45593999997E+02  0.45594000000E+02  0.51100000000E-03 0.  1.
         11   -1    0    0    0    0 -0.00000000000E+00 -0.00000000000E+00 -0.45593999997E+02  0.45594000000E+02  0.51100000000E-03 0. -1.
    9900012    2    1    2    0    0  0.11490598265E+02  0.34968955982E+02  0.22994813164E+02  0.47787272317E+02  0.20000005801E+02 0.  0.
         12    1    1    2    0    0 -0.11490598265E+02 -0.34968955982E+02 -0.22994813164E+02  0.43400727683E+02  0.00000000000E+00 0. -1.
         11    1    3    3    0    0 -0.18128864390E+01  0.20838850359E+02  0.11437396552E+02  0.23840265973E+02  0.51100000000E-03 0. -1.
        -11    1    3    3    0    0  0.10141075512E+02  0.12503069169E+02  0.12365912216E+02  0.20299850649E+02  0.51100000000E-03 0.  1.
         12    1    3    3    0    0  0.31624091919E+01  0.16270364549E+01 -0.80849560347E+00  0.36471556950E+01  0.00000000000E+00 0. -1.
</event>
<event>
 7    1  0.5646756E-010  0.4778727E+02  0.7816164E-02  0.1312668E+00
        -11   -1    0    0    0    0  0.00000000000E+00  0.00000000000E+00  0.45593999997E+02  0.45594000000E+02  0.51100000000E-03 0.  1.
         11   -1    0    0    0    0 -0.00000000000E+00 -0.00000000000E+00 -0.45593999997E+02  0.45594000000E+02  0.51100000000E-03 0. -1.
    9900012    2    1    2    0    0  0.42607977358E+02 -0.58427094005E+01 -0.58349215507E+01  0.47787270776E+02  0.19999998774E+02 0.  0.
         12    1    1    2    0    0 -0.42607977358E+02  0.58427094005E+01  0.58349215507E+01  0.43400729224E+02  0.00000000000E+00 0. -1.
         11    1    3    3    0    0  0.39807354909E+02 -0.28764080800E+01 -0.74071617025E+01  0.40592675116E+02  0.51100000000E-03 0. -1.
        -11    1    3    3    0    0  0.29537361724E+01  0.80761129273E+00  0.15166584004E+01  0.34171693463E+01  0.51100000000E-03 0.  1.
         12    1    3    3    0    0 -0.15311372315E+00 -0.37739126133E+01  0.55581751382E-01  0.37774263137E+01  0.00000000000E+00 0. -1.
</event>
<event>
 7    1  0.5646756E-010  0.4778727E+02  0.7816164E-02  0.1312668E+00
        -11   -1    0    0    0    0  0.00000000000E+00  0.00000000000E+00  0.45593999997E+02  0.45594000000E+02  0.51100000000E-03 0.  1.
         11   -1    0    0    0    0 -0.00000000000E+00 -0.00000000000E+00 -0.45593999997E+02  0.45594000000E+02  0.51100000000E-03 0. -1.
    9900012    2    1    2    0    0  0.38715426066E+02 -0.16097068769E+02  0.11208192691E+02  0.47787269340E+02  0.19999992228E+02 0.  0.
         12    1    1    2    0    0 -0.38715426066E+02  0.16097068769E+02 -0.11208192691E+02  0.43400730660E+02  0.00000000000E+00 0. -1.
         11    1    3    3    0    0  0.21012518988E+02 -0.60157502633E+01 -0.39006953738E+01  0.22202041125E+02  0.51100000000E-03 0. -1.
        -11    1    3    3    0    0  0.16881022593E+02 -0.10326208272E+02  0.14425851301E+02  0.24488868636E+02  0.51100000000E-03 0.  1.
         12    1    3    3    0    0  0.82188448526E+00  0.24488976655E+00  0.68303676414E+00  0.10963595788E+01  0.00000000000E+00 0. -1.
</event>
<event>
 7    1  0.5646756E-010  0.4778727E+02  0.7816164E-02  0.1312668E+00
        -11   -1    0    0    0    0  0.00000000000E+00  0.00000000000E+00  0.45593999997E+02  0.45594000000E+02  0.51100000000E-03 0. -1.
         11   -1    0    0    0    0 -0.00000000000E+00 -0.00000000000E+00 -0.45593999997E+02  0.45594000000E+02  0.51100000000E-03 0.  1.
    9900012    2    1    2    0    0  0.24124550237E+02 -0.17209399971E+02 -0.31709079879E+02  0.47787272837E+02  0.20000008174E+02 0.  0.
         12    1    1    2    0    0 -0.24124550237E+02  0.17209399971E+02  0.31709079879E+02  0.43400727163E+02  0.00000000000E+00 0. -1.
         11    1    3    3    0    0  0.18781445651E+00 -0.73053784995E+01 -0.10554368227E+02  0.12837387515E+02  0.51100000000E-03 0.  1.
        -11    1    3    3    0    0  0.21029053721E+02 -0.91262629555E+01 -0.13218381782E+02  0.26461961249E+02  0.51100000000E-03 0. -1.
        -12    1    3    3    0    0  0.29076820594E+01 -0.77775851601E+00 -0.79363298703E+01  0.84879240736E+01  0.00000000000E+00 0.  1.
</event>
<event>
 7    1  0.5646756E-010  0.4778727E+02  0.7816164E-02  0.1312668E+00
        -11   -1    0    0    0    0  0.00000000000E+00  0.00000000000E+00  0.45593999997E+02  0.45594000000E+02  0.51100000000E-03 0. -1.
         11   -1    0    0    0    0 -0.00000000000E+00 -0.00000000000E+00 -0.45593999997E+02  0.45594000000E+02  0.51100000000E-03 0.  1.
    9900012    2    1    2    0    0  0.37863070173E+02 -0.20750265787E+02  0.44088563728E+01  0.47787266968E+02  0.19999981415E+02 0.  0.
         12    1    1    2    0    0 -0.37863070173E+02  0.20750265787E+02 -0.44088563728E+01  0.43400733032E+02  0.00000000000E+00 0. -1.
         11    1    3    3    0    0  0.53423911395E+01  0.37279834643E+01 -0.58016755767E+00  0.65403056850E+01  0.51100000000E-03 0. -1.
        -11    1    3    3    0    0  0.20315564520E+02 -0.12934303945E+02  0.18308916473E+01  0.24153064915E+02  0.51100000000E-03 0.  1.
         12    1    3    3    0    0  0.12205114514E+02 -0.11543945306E+02  0.31581322831E+01  0.17093896368E+02  0.00000000000E+00 0. -1.
</event>
<event>
 7    1  0.5646756E-010  0.4778726E+02  0.7816164E-02  0.1312668E+00
        -11   -1    0    0    0    0  0.00000000000E+00  0.00000000000E+00  0.45593999997E+02  0.45594000000E+02  0.51100000000E-03 0.  1.
         11   -1    0    0    0    0 -0.00000000000E+00 -0.00000000000E+00 -0.45593999997E+02  0.45594000000E+02  0.51100000000E-03 0. -1.
    9900012    2    1    2    0    0 -0.19461413057E+02  0.60122357139E+01  0.38324017476E+02  0.47787263923E+02  0.19999967532E+02 0.  0.
         12    1    1    2    0    0  0.19461413057E+02 -0.60122357139E+01 -0.38324017476E+02  0.43400736077E+02  0.00000000000E+00 0. -1.
         11    1    3    3    0    0 -0.39330884880E+01 -0.48584852718E+01  0.19754877132E+01  0.65556552805E+01  0.51100000000E-03 0. -1.
        -11    1    3    3    0    0 -0.81286210991E+01  0.34354921479E+01  0.19166713849E+02  0.21100711062E+02  0.51100000000E-03 0.  1.
         12    1    3    3    0    0 -0.73997034702E+01  0.74352288378E+01  0.17181815914E+02  0.20130897581E+02  0.00000000000E+00 0. -1.
</event>
<event>
 7    1  0.5646756E-010  0.4778727E+02  0.7816164E-02  0.1312668E+00
        -11   -1    0    0    0    0  0.00000000000E+00  0.00000000000E+00  0.45593999997E+02  0.45594000000E+02  0.51100000000E-03 0. -1.
         11   -1    0    0    0    0 -0.00000000000E+00 -0.00000000000E+00 -0.45593999997E+02  0.45594000000E+02  0.51100000000E-03 0.  1.
    9900012    2    1    2    0    0 -0.34839058105E+02 -0.16370340448E+01 -0.25829899230E+02  0.47787267929E+02  0.19999985795E+02 0.  0.
         12    1    1    2    0    0  0.34839058105E+02  0.16370340448E+01  0.25829899230E+02  0.43400732071E+02  0.00000000000E+00 0. -1.
         11    1    3    3    0    0  0.27351422367E+00 -0.21299123389E+00  0.18338225906E+00  0.39217930889E+00  0.51100000000E-03 0. -1.
        -11    1    3    3    0    0  0.47035766534E+00 -0.38203569993E+01 -0.36197396144E+01  0.52838318550E+01  0.51100000000E-03 0.  1.
        -12    1    3    3    0    0 -0.35582929994E+02  0.23963141884E+01 -0.22393541874E+02  0.42111256765E+02  0.00000000000E+00 0.  1.
</event>
<event>
 7    1  0.5646756E-010  0.4778727E+02  0.7816164E-02  0.1312668E+00
        -11   -1    0    0    0    0  0.00000000000E+00  0.00000000000E+00  0.45593999997E+02  0.45594000000E+02  0.51100000000E-03 0.  1.
         11   -1    0    0    0    0 -0.00000000000E+00 -0.00000000000E+00 -0.45593999997E+02  0.45594000000E+02  0.51100000000E-03 0. -1.
    9900012    2    1    2    0    0 -0.23225881568E+02  0.11188335113E+02  0.34914222197E+02  0.47787270412E+02  0.19999997115E+02 0.  0.
         12    1    1    2    0    0  0.23225881568E+02 -0.11188335113E+02 -0.34914222197E+02  0.43400729588E+02  0.00000000000E+00 0. -1.
         11    1    3    3    0    0 -0.96514899475E+01  0.71111122645E+00  0.20617869009E+02  0.22776159907E+02  0.51100000000E-03 0. -1.
        -11    1    3    3    0    0 -0.12292185273E+02  0.38016651476E+01  0.12592202143E+02  0.18003167270E+02  0.51100000000E-03 0.  1.
         12    1    3    3    0    0 -0.12822063465E+01  0.66755587393E+01  0.17041510454E+01  0.70079432348E+01  0.00000000000E+00 0. -1.
</event>
<event>
 7    1  0.5646756E-010  0.4778727E+02  0.7816164E-02  0.1312668E+00
        -11   -1    0    0    0    0  0.00000000000E+00  0.00000000000E+00  0.45593999997E+02  0.45594000000E+02  0.51100000000E-03 0.  1.
         11   -1    0    0    0    0 -0.00000000000E+00 -0.00000000000E+00 -0.45593999997E+02  0.45594000000E+02  0.51100000000E-03 0. -1.
    9900012    2    1    2    0    0  0.27545963629E+02 -0.25216068148E+01  0.33443750307E+02  0.47787273649E+02  0.20000011874E+02 0.  0.
         12    1    1    2    0    0 -0.27545963629E+02  0.25216068148E+01 -0.33443750307E+02  0.43400726351E+02  0.00000000000E+00 0. -1.
         11    1    3    3    0    0  0.21515554414E+02  0.59347966804E+01  0.19576244040E+02  0.29687880092E+02  0.51100000000E-03 0. -1.
        -11    1    3    3    0    0  0.21177631061E+01 -0.68825136093E+01  0.10345043278E+02  0.12604516446E+02  0.51100000000E-03 0.  1.
        -12    1    3    3    0    0  0.39126461094E+01 -0.15738898858E+01  0.35224629894E+01  0.54948771107E+01  0.00000000000E+00 0.  1.
</event>
<event>
 7    1  0.5646756E-010  0.4778725E+02  0.7816164E-02  0.1312668E+00
        -11   -1    0    0    0    0  0.00000000000E+00  0.00000000000E+00  0.45593999997E+02  0.45594000000E+02  0.51100000000E-03 0.  1.
         11   -1    0    0    0    0 -0.00000000000E+00 -0.00000000000E+00 -0.45593999997E+02  0.45594000000E+02  0.51100000000E-03 0. -1.
    9900012    2    1    2    0    0  0.28783559162E+02 -0.31699218332E+02 -0.70916373638E+01  0.47787250681E+02  0.19999907156E+02 0.  0.
         12    1    1    2    0    0 -0.28783559162E+02  0.31699218332E+02  0.70916373638E+01  0.43400749319E+02  0.00000000000E+00 0. -1.
         11    1    3    3    0    0  0.31054285459E+00 -0.73370017208E+01 -0.18818870898E+01  0.75808660715E+01  0.51100000000E-03 0. -1.
        -11    1    3    3    0    0  0.29737352537E+02 -0.21371927823E+02 -0.48219728777E+01  0.36936714222E+02  0.51100000000E-03 0.  1.
        -12    1    3    3    0    0 -0.12643362292E+01 -0.29902887882E+01 -0.38777739632E+00  0.32696703881E+01  0.00000000000E+00 0.  1.
</event>
<event>
 7    1  0.5646756E-010  0.4778728E+02  0.7816164E-02  0.1312668E+00
        -11   -1    0    0    0    0  0.00000000000E+00  0.00000000000E+00  0.45593999997E+02  0.45594000000E+02  0.51100000000E-03 0.  1.
         11   -1    0    0    0    0 -0.00000000000E+00 -0.00000000000E+00 -0.45593999997E+02  0.45594000000E+02  0.51100000000E-03 0. -1.
    9900012    2    1    2    0    0 -0.13710241033E+02  0.13530877708E+01  0.41156053240E+02  0.47787282563E+02  0.20000052519E+02 0.  0.
         12    1    1    2    0    0  0.13710241033E+02 -0.13530877708E+01 -0.41156053240E+02  0.43400717437E+02  0.00000000000E+00 0. -1.
         11    1    3    3    0    0 -0.82538789877E+01 -0.58182992077E+01  0.27183817281E+02  0.28998949054E+02  0.51100000000E-03 0. -1.
        -11    1    3    3    0    0 -0.57059356562E+01  0.33065615145E+01  0.13316934074E+02  0.14860409959E+02  0.51100000000E-03 0.  1.
         12    1    3    3    0    0  0.24957361104E+00  0.38648254640E+01  0.65530188559E+00  0.39279235502E+01  0.00000000000E+00 0. -1.
</event>
<event>
 7    1  0.5646756E-010  0.4778728E+02  0.7816164E-02  0.1312668E+00
        -11   -1    0    0    0    0  0.00000000000E+00  0.00000000000E+00  0.45593999997E+02  0.45594000000E+02  0.51100000000E-03 0.  1.
         11   -1    0    0    0    0 -0.00000000000E+00 -0.00000000000E+00 -0.45593999997E+02  0.45594000000E+02  0.51100000000E-03 0. -1.
    9900012    2    1    2    0    0  0.56348080121E+00  0.31547262865E+02  0.29800585437E+02  0.47787283447E+02  0.20000056550E+02 0.  0.
         12    1    1    2    0    0 -0.56348080121E+00 -0.31547262865E+02 -0.29800585437E+02  0.43400716553E+02  0.00000000000E+00 0. -1.
         11    1    3    3    0    0  0.23086638362E+01  0.16710956194E+01  0.23708528800E+01  0.37072136326E+01  0.51100000000E-03 0. -1.
        -11    1    3    3    0    0 -0.38754913604E+01  0.29054361780E+01 -0.87831277002E+00  0.49226442338E+01  0.51100000000E-03 0.  1.
        -12    1    3    3    0    0  0.21303083254E+01  0.26970731068E+02  0.28308045327E+02  0.39157425581E+02  0.00000000000E+00 0.  1.
</event>
<event>
 7    1  0.5646756E-010  0.4778727E+02  0.7816164E-02  0.1312668E+00
        -11   -1    0    0    0    0  0.00000000000E+00  0.00000000000E+00  0.45593999997E+02  0.45594000000E+02  0.51100000000E-03 0. -1.
         11   -1    0    0    0    0 -0.00000000000E+00 -0.00000000000E+00 -0.45593999997E+02  0.45594000000E+02  0.51100000000E-03 0.  1.
    9900012    2    1    2    0    0  0.53434842261E+01  0.36959566765E+02 -0.22114726947E+02  0.47787267897E+02  0.19999985649E+02 0.  0.
         12    1    1    2    0    0 -0.53434842261E+01 -0.36959566765E+02  0.22114726947E+02  0.43400732103E+02  0.00000000000E+00 0. -1.
         11    1    3    3    0    0 -0.44170382641E+00  0.12942361207E+02 -0.72604126635E+01  0.14846326420E+02  0.51100000000E-03 0. -1.
        -11    1    3    3    0    0  0.83186905646E+01  0.21652983167E+02 -0.67989495906E+01  0.24171843300E+02  0.51100000000E-03 0.  1.
        -12    1    3    3    0    0 -0.25335025121E+01  0.23642223924E+01 -0.80553646928E+01  0.87690981767E+01  0.00000000000E+00 0.  1.
</event>
<event>
 7    1  0.5646756E-010  0.4778727E+02  0.7816164E-02  0.1312668E+00
        -11   -1    0    0    0    0  0.00000000000E+00  0.00000000000E+00  0.45593999997E+02  0.45594000000E+02  0.51100000000E-03 0.  1.
         11   -1    0    0    0    0 -0.00000000000E+00 -0.00000000000E+00 -0.45593999997E+02  0.45594000000E+02  0.51100000000E-03 0. -1.
    9900012    2    1    2    0    0 -0.71614665284E+01  0.35057248424E+01  0.42662000965E+02  0.47787273786E+02  0.20000012502E+02 0.  0.
         12    1    1    2    0    0  0.71614665284E+01 -0.35057248424E+01 -0.42662000965E+02  0.43400726214E+02  0.00000000000E+00 0. -1.
         11    1    3    3    0    0 -0.10047165378E+02 -0.33419192082E+00  0.11050507514E+02  0.14938906685E+02  0.51100000000E-03 0. -1.
        -11    1    3    3    0    0  0.38060533776E+01  0.14241999156E+00  0.24367705718E+02  0.24663564381E+02  0.51100000000E-03 0.  1.
         12    1    3    3    0    0 -0.92035452764E+00  0.36974967717E+01  0.72437877339E+01  0.81848027201E+01  0.00000000000E+00 0. -1.
</event>
<event>
 7    1  0.5646756E-010  0.4778729E+02  0.7816164E-02  0.1312668E+00
        -11   -1    0    0    0    0  0.00000000000E+00  0.00000000000E+00  0.45593999997E+02  0.45594000000E+02  0.51100000000E-03 0.  1.
         11   -1    0    0    0    0 -0.00000000000E+00 -0.00000000000E+00 -0.45593999997E+02  0.45594000000E+02  0.51100000000E-03 0. -1.
    9900012    2    1    2    0    0  0.53081903063E+01  0.25672904210E+02  0.34588241024E+02  0.47787293646E+02  0.20000103048E+02 0.  0.
         12    1    1    2    0    0 -0.53081903063E+01 -0.25672904210E+02 -0.34588241024E+02  0.43400706354E+02  0.00000000000E+00 0. -1.
         11    1    3    3    0    0  0.79698685235E+01  0.16278910756E+02  0.19113725768E+02  0.26341151317E+02  0.51100000000E-03 0.  1.
        -11    1    3    3    0    0 -0.22944540322E+01  0.58096470888E+01  0.16547077542E+02  0.17686783032E+02  0.51100000000E-03 0. -1.
         12    1    3    3    0    0 -0.36722418510E+00  0.35843463650E+01 -0.10725622856E+01  0.37593592969E+01  0.00000000000E+00 0. -1.
</event>
<event>
 7    1  0.5646756E-010  0.4778725E+02  0.7816164E-02  0.1312668E+00
        -11   -1    0    0    0    0  0.00000000000E+00  0.00000000000E+00  0.45593999997E+02  0.45594000000E+02  0.51100000000E-03 0. -1.
         11   -1    0    0    0    0 -0.00000000000E+00 -0.00000000000E+00 -0.45593999997E+02  0.45594000000E+02  0.51100000000E-03 0.  1.
    9900012    2    1    2    0    0  0.42561724886E+02  0.48264777010E+01  0.69878140085E+01  0.47787252807E+02  0.19999916848E+02 0.  0.
         12    1    1    2    0    0 -0.42561724886E+02 -0.48264777010E+01 -0.69878140085E+01  0.43400747193E+02  0.00000000000E+00 0. -1.
         11    1    3    3    0    0  0.11929614830E+02  0.98391943190E+01 -0.47544654471E+00  0.15470989126E+02  0.51100000000E-03 0. -1.
        -11    1    3    3    0    0  0.96746128854E+01 -0.38294453014E+01  0.33073435836E+01  0.10917935136E+02  0.51100000000E-03 0.  1.
         12    1    3    3    0    0  0.20957497171E+02 -0.11832713166E+01  0.41559169695E+01  0.21398328545E+02  0.00000000000E+00 0. -1.
</event>
<event>
 7    1  0.5646756E-010  0.4778728E+02  0.7816164E-02  0.1312668E+00
        -11   -1    0    0    0    0  0.00000000000E+00  0.00000000000E+00  0.45593999997E+02  0.45594000000E+02  0.51100000000E-03 0.  1.
         11   -1    0    0    0    0 -0.00000000000E+00 -0.00000000000E+00 -0.45593999997E+02  0.45594000000E+02  0.51100000000E-03 0. -1.
    9900012    2    1    2    0    0 -0.13145438193E+02 -0.35533518003E+02 -0.21170486058E+02  0.47787275042E+02  0.20000018226E+02 0.  0.
         12    1    1    2    0    0  0.13145438193E+02  0.35533518003E+02  0.21170486058E+02  0.43400724958E+02  0.00000000000E+00 0. -1.
         11    1    3    3    0    0 -0.47489280275E+01 -0.12516052310E+02  0.31136821430E+00  0.13390326107E+02  0.51100000000E-03 0.  1.
        -11    1    3    3    0    0 -0.32860636185E+01 -0.54742408964E+01 -0.25661086234E+00  0.63899434186E+01  0.51100000000E-03 0. -1.
         12    1    3    3    0    0 -0.51104465465E+01 -0.17543224797E+02 -0.21225243410E+02  0.28007005516E+02  0.00000000000E+00 0. -1.
</event>
<event>
 7    1  0.5646756E-010  0.4778727E+02  0.7816164E-02  0.1312668E+00
        -11   -1    0    0    0    0  0.00000000000E+00  0.00000000000E+00  0.45593999997E+02  0.45594000000E+02  0.51100000000E-03 0.  1.
         11   -1    0    0    0    0 -0.00000000000E+00 -0.00000000000E+00 -0.45593999997E+02  0.45594000000E+02  0.51100000000E-03 0. -1.
    9900012    2    1    2    0    0 -0.96181005474E+01  0.42058232928E+02  0.47138673329E+01  0.47787270047E+02  0.19999995454E+02 0.  0.
         12    1    1    2    0    0  0.96181005474E+01 -0.42058232928E+02 -0.47138673329E+01  0.43400729953E+02  0.00000000000E+00 0. -1.
         11    1    3    3    0    0 -0.77342025279E+01  0.44419096001E+01  0.42763687727E+01  0.98911970853E+01  0.51100000000E-03 0. -1.
        -11    1    3    3    0    0 -0.24351086782E+01  0.24605004455E+02  0.18630034873E+01  0.24795297554E+02  0.51100000000E-03 0.  1.
         12    1    3    3    0    0  0.55121065874E+00  0.13011318873E+02 -0.14255049271E+01  0.13100775408E+02  0.00000000000E+00 0. -1.
</event>
<event>
 7    1  0.5646756E-010  0.4778724E+02  0.7816164E-02  0.1312668E+00
        -11   -1    0    0    0    0  0.00000000000E+00  0.00000000000E+00  0.45593999997E+02  0.45594000000E+02  0.51100000000E-03 0.  1.
         11   -1    0    0    0    0 -0.00000000000E+00 -0.00000000000E+00 -0.45593999997E+02  0.45594000000E+02  0.51100000000E-03 0. -1.
    9900012    2    1    2    0    0  0.20044512008E+02 -0.15001267732E+02  0.35451453671E+02  0.47787238917E+02  0.19999853519E+02 0.  0.
         12    1    1    2    0    0 -0.20044512008E+02  0.15001267732E+02 -0.35451453671E+02  0.43400761083E+02  0.00000000000E+00 0. -1.
         11    1    3    3    0    0  0.53447039983E+01  0.72386818235E+00  0.28407295761E+00  0.54009761786E+01  0.51100000000E-03 0. -1.
        -11    1    3    3    0    0  0.93564057965E+01 -0.97353786923E+01  0.29839071106E+02  0.32751947918E+02  0.51100000000E-03 0.  1.
        -12    1    3    3    0    0  0.53434022132E+01 -0.59897572221E+01  0.53283096068E+01  0.96343148204E+01  0.00000000000E+00 0.  1.
</event>
<event>
 7    1  0.5646756E-010  0.4778727E+02  0.7816164E-02  0.1312668E+00
        -11   -1    0    0    0    0  0.00000000000E+00  0.00000000000E+00  0.45593999997E+02  0.45594000000E+02  0.51100000000E-03 0.  1.
         11   -1    0    0    0    0 -0.00000000000E+00 -0.00000000000E+00 -0.45593999997E+02  0.45594000000E+02  0.51100000000E-03 0. -1.
    9900012    2    1    2    0    0  0.72827754463E+00 -0.25977247631E+02  0.34760259123E+02  0.47787269626E+02  0.19999993535E+02 0.  0.
         12    1    1    2    0    0 -0.72827754463E+00  0.25977247631E+02 -0.34760259123E+02  0.43400730374E+02  0.00000000000E+00 0. -1.
         11    1    3    3    0    0  0.24161249448E+01 -0.20123311522E+02  0.15977146661E+02  0.25808032511E+02  0.51100000000E-03 0. -1.
        -11    1    3    3    0    0 -0.44228315086E+01 -0.36704170950E+00  0.39974196246E+01  0.59728989683E+01  0.51100000000E-03 0.  1.
         12    1    3    3    0    0  0.27349841084E+01 -0.54868943990E+01  0.14785692837E+02  0.16006338148E+02  0.00000000000E+00 0. -1.
</event>
<event>
 7    1  0.5646756E-010  0.4778727E+02  0.7816164E-02  0.1312668E+00
        -11   -1    0    0    0    0  0.00000000000E+00  0.00000000000E+00  0.45593999997E+02  0.45594000000E+02  0.51100000000E-03 0.  1.
         11   -1    0    0    0    0 -0.00000000000E+00 -0.00000000000E+00 -0.45593999997E+02  0.45594000000E+02  0.51100000000E-03 0. -1.
    9900012    2    1    2    0    0  0.20745635666E+02 -0.20702425625E+01  0.38065156916E+02  0.47787268733E+02  0.19999989463E+02 0.  0.
         12    1    1    2    0    0 -0.20745635666E+02  0.20702425625E+01 -0.38065156916E+02  0.43400731267E+02  0.00000000000E+00 0. -1.
         11    1    3    3    0    0 -0.14978313586E+01 -0.80181500925E+00  0.28537425388E+01  0.33211824441E+01  0.51100000000E-03 0. -1.
        -11    1    3    3    0    0  0.17999687496E+02 -0.59735941300E+01  0.32381807176E+02  0.37526710661E+02  0.51100000000E-03 0.  1.
        -12    1    3    3    0    0  0.42437795289E+01  0.47051665768E+01  0.28296072010E+01  0.69393756288E+01  0.00000000000E+00 0.  1.
</event>
<event>
 7    1  0.5646756E-010  0.4778728E+02  0.7816164E-02  0.1312668E+00
        -11   -1    0    0    0    0  0.00000000000E+00  0.00000000000E+00  0.45593999997E+02  0.45594000000E+02  0.51100000000E-03 0.  1.
         11   -1    0    0    0    0 -0.00000000000E+00 -0.00000000000E+00 -0.45593999997E+02  0.45594000000E+02  0.51100000000E-03 0. -1.
    9900012    2    1    2    0    0 -0.10158728504E+02 -0.40115230819E+02  0.13084008339E+02  0.47787276703E+02  0.20000025800E+02 0.  0.
         12    1    1    2    0    0  0.10158728504E+02  0.40115230819E+02 -0.13084008339E+02  0.43400723297E+02  0.00000000000E+00 0. -1.
         11    1    3    3    0    0  0.15269688409E+00 -0.76867057896E+01 -0.91929731606E+00  0.77429884444E+01  0.51100000000E-03 0. -1.
        -11    1    3    3    0    0 -0.70930824671E+00 -0.25688451308E+02  0.10861551021E+02  0.27899335828E+02  0.51100000000E-03 0.  1.
        -12    1    3    3    0    0 -0.96021171410E+01 -0.67400737213E+01  0.31417546341E+01  0.12144952430E+02  0.00000000000E+00 0.  1.
</event>
<event>
 7    1  0.5646756E-010  0.4778723E+02  0.7816164E-02  0.1312668E+00
        -11   -1    0    0    0    0  0.00000000000E+00  0.00000000000E+00  0.45593999997E+02  0.45594000000E+02  0.51100000000E-03 0.  1.
         11   -1    0    0    0    0 -0.00000000000E+00 -0.00000000000E+00 -0.45593999997E+02  0.45594000000E+02  0.51100000000E-03 0. -1.
    9900012    2    1    2    0    0 -0.37264580842E+01  0.15706375569E+02  0.40287100351E+02  0.47787226066E+02  0.19999794926E+02 0.  0.
         12    1    1    2    0    0  0.37264580842E+01 -0.15706375569E+02 -0.40287100351E+02  0.43400773934E+02  0.00000000000E+00 0. -1.
         11    1    3    3    0    0 -0.26845497258E+01 -0.26222287435E+01  0.29774568144E+01  0.47904217096E+01  0.51100000000E-03 0. -1.
        -11    1    3    3    0    0  0.75172209670E-01  0.16761957653E+02  0.22472262137E+02  0.28035182201E+02  0.51100000000E-03 0.  1.
        -12    1    3    3    0    0 -0.11170805680E+01  0.15666466599E+01  0.14837381399E+02  0.14961622156E+02  0.00000000000E+00 0.  1.
</event>
<event>
 7    1  0.5646756E-010  0.4778727E+02  0.7816164E-02  0.1312668E+00
        -11   -1    0    0    0    0  0.00000000000E+00  0.00000000000E+00  0.45593999997E+02  0.45594000000E+02  0.51100000000E-03 0. -1.
         11   -1    0    0    0    0 -0.00000000000E+00 -0.00000000000E+00 -0.45593999997E+02  0.45594000000E+02  0.51100000000E-03 0.  1.
    9900012    2    1    2    0    0 -0.29200068226E+02 -0.28432585547E+02 -0.14918702348E+02  0.47787267459E+02  0.19999983654E+02 0.  0.
         12    1    1    2    0    0  0.29200068226E+02  0.28432585547E+02  0.14918702348E+02  0.43400732541E+02  0.00000000000E+00 0. -1.
         11    1    3    3    0    0  0.10987467866E-01  0.43155325301E+00 -0.13726903043E+01  0.14389711141E+01  0.51100000000E-03 0. -1.
        -11    1    3    3    0    0 -0.12433898746E+01  0.21955634936E+01 -0.94235165743E+00  0.26934261345E+01  0.51100000000E-03 0.  1.
        -12    1    3    3    0    0 -0.27967665819E+02 -0.31059702294E+02 -0.12603660387E+02  0.43654870211E+02  0.00000000000E+00 0.  1.
</event>
<event>
 7    1  0.5646756E-010  0.4778727E+02  0.7816164E-02  0.1312668E+00
        -11   -1    0    0    0    0  0.00000000000E+00  0.00000000000E+00  0.45593999997E+02  0.45594000000E+02  0.51100000000E-03 0.  1.
         11   -1    0    0    0    0 -0.00000000000E+00 -0.00000000000E+00 -0.45593999997E+02  0.45594000000E+02  0.51100000000E-03 0. -1.
    9900012    2    1    2    0    0  0.20968178089E+02  0.22720668969E+02  0.30458660489E+02  0.47787270864E+02  0.19999999177E+02 0.  0.
         12    1    1    2    0    0 -0.20968178089E+02 -0.22720668969E+02 -0.30458660489E+02  0.43400729136E+02  0.00000000000E+00 0. -1.
         11    1    3    3    0    0  0.21253665509E+01  0.80053340034E+00  0.12893626453E+02  0.13092121297E+02  0.51100000000E-03 0. -1.
        -11    1    3    3    0    0  0.18223614733E+02  0.17471669503E+02  0.13457697082E+02  0.28608896871E+02  0.51100000000E-03 0.  1.
        -12    1    3    3    0    0  0.61919680482E+00  0.44484660658E+01  0.41073369539E+01  0.60862526955E+01  0.00000000000E+00 0.  1.
</event>
<event>
 7    1  0.5646756E-010  0.4778728E+02  0.7816164E-02  0.1312668E+00
        -11   -1    0    0    0    0  0.00000000000E+00  0.00000000000E+00  0.45593999997E+02  0.45594000000E+02  0.51100000000E-03 0. -1.
         11   -1    0    0    0    0 -0.00000000000E+00 -0.00000000000E+00 -0.45593999997E+02  0.45594000000E+02  0.51100000000E-03 0.  1.
    9900012    2    1    2    0    0 -0.26310336626E+02  0.88334499587E+01 -0.33367036533E+02  0.47787276751E+02  0.20000026019E+02 0.  0.
         12    1    1    2    0    0  0.26310336626E+02 -0.88334499587E+01  0.33367036533E+02  0.43400723249E+02  0.00000000000E+00 0. -1.
         11    1    3    3    0    0 -0.13054343048E+02  0.10946874365E+02 -0.14506428101E+02  0.22376022598E+02  0.51100000000E-03 0. -1.
        -11    1    3    3    0    0 -0.98688257290E+01 -0.16273796326E+01 -0.19513576215E+02  0.21927647906E+02  0.51100000000E-03 0.  1.
         12    1    3    3    0    0 -0.33871678486E+01 -0.48604477390E+00  0.65296778325E+00  0.34836062468E+01  0.00000000000E+00 0. -1.
</event>
<event>
 7    1  0.5646756E-010  0.4778727E+02  0.7816164E-02  0.1312668E+00
        -11   -1    0    0    0    0  0.00000000000E+00  0.00000000000E+00  0.45593999997E+02  0.45594000000E+02  0.51100000000E-03 0.  1.
         11   -1    0    0    0    0 -0.00000000000E+00 -0.00000000000E+00 -0.45593999997E+02  0.45594000000E+02  0.51100000000E-03 0. -1.
    9900012    2    1    2    0    0 -0.37872580128E+02  0.13973861898E+02  0.15938080678E+02  0.47787267776E+02  0.19999985098E+02 0.  0.
         12    1    1    2    0    0  0.37872580128E+02 -0.13973861898E+02 -0.15938080678E+02  0.43400732224E+02  0.00000000000E+00 0. -1.
         11    1    3    3    0    0 -0.27398526523E+02  0.14294697642E+02  0.15264310369E+02  0.34467619697E+02  0.51100000000E-03 0. -1.
        -11    1    3    3    0    0 -0.10670911890E+01  0.19593999658E+01  0.26254978789E+01  0.34454566033E+01  0.51100000000E-03 0.  1.
         12    1    3    3    0    0 -0.94069624157E+01 -0.22802357094E+01 -0.19517275700E+01  0.98741914752E+01  0.00000000000E+00 0. -1.
</event>
<event>
 7    1  0.5646756E-010  0.4778728E+02  0.7816164E-02  0.1312668E+00
        -11   -1    0    0    0    0  0.00000000000E+00  0.00000000000E+00  0.45593999997E+02  0.45594000000E+02  0.51100000000E-03 0.  1.
         11   -1    0    0    0    0 -0.00000000000E+00 -0.00000000000E+00 -0.45593999997E+02  0.45594000000E+02  0.51100000000E-03 0. -1.
    9900012    2    1    2    0    0  0.21449130118E+02 -0.32471065533E+02  0.19214253480E+02  0.47787276314E+02  0.20000024027E+02 0.  0.
         12    1    1    2    0    0 -0.21449130118E+02  0.32471065533E+02 -0.19214253480E+02  0.43400723686E+02  0.00000000000E+00 0. -1.
         11    1    3    3    0    0  0.14804380755E+01  0.41544977676E+00 -0.27094878834E+01  0.31153844488E+01  0.51100000000E-03 0. -1.
        -11    1    3    3    0    0  0.11942423339E+02 -0.14344128242E+02  0.11684992678E+02  0.22020775290E+02  0.51100000000E-03 0.  1.
         12    1    3    3    0    0  0.80262687026E+01 -0.18542387067E+02  0.10238748686E+02  0.22651116575E+02  0.00000000000E+00 0. -1.
</event>
<event>
 7    1  0.5646756E-010  0.4778728E+02  0.7816164E-02  0.1312668E+00
        -11   -1    0    0    0    0  0.00000000000E+00  0.00000000000E+00  0.45593999997E+02  0.45594000000E+02  0.51100000000E-03 0.  1.
         11   -1    0    0    0    0 -0.00000000000E+00 -0.00000000000E+00 -0.45593999997E+02  0.45594000000E+02  0.51100000000E-03 0. -1.
    9900012    2    1    2    0    0 -0.23984066821E+02 -0.19822051698E+02  0.30256795552E+02  0.47787275676E+02  0.20000021116E+02 0.  0.
         12    1    1    2    0    0  0.23984066821E+02  0.19822051698E+02 -0.30256795552E+02  0.43400724324E+02  0.00000000000E+00 0. -1.
         11    1    3    3    0    0 -0.19651038043E+02 -0.15512899000E+02  0.14259583360E+02  0.28812307256E+02  0.51100000000E-03 0. -1.
        -11    1    3    3    0    0  0.10106070783E+01 -0.38929024610E+01  0.10735192800E+02  0.11463872860E+02  0.51100000000E-03 0.  1.
         12    1    3    3    0    0 -0.53436358561E+01 -0.41625023690E+00  0.52620193919E+01  0.75110955595E+01  0.00000000000E+00 0. -1.
</event>
<event>
 7    1  0.5646756E-010  0.4778727E+02  0.7816164E-02  0.1312668E+00
        -11   -1    0    0    0    0  0.00000000000E+00  0.00000000000E+00  0.45593999997E+02  0.45594000000E+02  0.51100000000E-03 0. -1.
         11   -1    0    0    0    0 -0.00000000000E+00 -0.00000000000E+00 -0.45593999997E+02  0.45594000000E+02  0.51100000000E-03 0.  1.
    9900012    2    1    2    0    0  0.96210650123E+01 -0.36802035914E+02 -0.20896615033E+02  0.47787271213E+02  0.20000000770E+02 0.  0.
         12    1    1    2    0    0 -0.96210650123E+01  0.36802035914E+02  0.20896615033E+02  0.43400728787E+02  0.00000000000E+00 0. -1.
         11    1    3    3    0    0 -0.29980683002E+00  0.72412179621E-01  0.87750658564E+00  0.93013210247E+00  0.51100000000E-03 0. -1.
        -11    1    3    3    0    0 -0.43323581670E+01 -0.12800206286E+02 -0.71102016496E+01  0.15269891159E+02  0.51100000000E-03 0.  1.
        -12    1    3    3    0    0  0.14253230009E+02 -0.24074241807E+02 -0.14663919969E+02  0.31587247952E+02  0.00000000000E+00 0.  1.
</event>
<event>
 7    1  0.5646756E-010  0.4778727E+02  0.7816164E-02  0.1312668E+00
        -11   -1    0    0    0    0  0.00000000000E+00  0.00000000000E+00  0.45593999997E+02  0.45594000000E+02  0.51100000000E-03 0.  1.
         11   -1    0    0    0    0 -0.00000000000E+00 -0.00000000000E+00 -0.45593999997E+02  0.45594000000E+02  0.51100000000E-03 0. -1.
    9900012    2    1    2    0    0 -0.10967940770E+02  0.20472978633E+02  0.36663125598E+02  0.47787270082E+02  0.19999995610E+02 0.  0.
         12    1    1    2    0    0  0.10967940770E+02 -0.20472978633E+02 -0.36663125598E+02  0.43400729918E+02  0.00000000000E+00 0. -1.
         11    1    3    3    0    0 -0.12091114661E+02  0.38583286507E+01  0.20436455675E+02  0.24056817632E+02  0.51100000000E-03 0. -1.
        -11    1    3    3    0    0  0.17828039765E+01  0.15314731549E+02  0.16060346335E+02  0.22263290797E+02  0.51100000000E-03 0.  1.
         12    1    3    3    0    0 -0.65963008459E+00  0.12999184327E+01  0.16632358776E+00  0.14671616530E+01  0.00000000000E+00 0. -1.
</event>
<event>
 7    1  0.5646756E-010  0.4778726E+02  0.7816164E-02  0.1312668E+00
        -11   -1    0    0    0    0  0.00000000000E+00  0.00000000000E+00  0.45593999997E+02  0.45594000000E+02  0.51100000000E-03 0.  1.
         11   -1    0    0    0    0 -0.00000000000E+00 -0.00000000000E+00 -0.45593999997E+02  0.45594000000E+02  0.51100000000E-03 0. -1.
    9900012    2    1    2    0    0  0.87157983757E+01 -0.39715224859E+02  0.15177614236E+02  0.47787260365E+02  0.19999951308E+02 0.  0.
         12    1    1    2    0    0 -0.87157983757E+01  0.39715224859E+02 -0.15177614236E+02  0.43400739635E+02  0.00000000000E+00 0. -1.
         11    1    3    3    0    0  0.78214452449E+01 -0.97031669387E+01 -0.14804112960E+00  0.12463882653E+02  0.51100000000E-03 0. -1.
        -11    1    3    3    0    0 -0.38527830665E+01 -0.22922498332E+02  0.12071795280E+02  0.26191851952E+02  0.51100000000E-03 0.  1.
        -12    1    3    3    0    0  0.47471361973E+01 -0.70895595884E+01  0.32538600860E+01  0.91315257593E+01  0.00000000000E+00 0.  1.
</event>
<event>
 7    1  0.5646756E-010  0.4778727E+02  0.7816164E-02  0.1312668E+00
        -11   -1    0    0    0    0  0.00000000000E+00  0.00000000000E+00  0.45593999997E+02  0.45594000000E+02  0.51100000000E-03 0.  1.
         11   -1    0    0    0    0 -0.00000000000E+00 -0.00000000000E+00 -0.45593999997E+02  0.45594000000E+02  0.51100000000E-03 0. -1.
    9900012    2    1    2    0    0 -0.36756101665E+02  0.44057138559E+01  0.22653959088E+02  0.47787272051E+02  0.20000004589E+02 0.  0.
         12    1    1    2    0    0  0.36756101665E+02 -0.44057138559E+01 -0.22653959088E+02  0.43400727949E+02  0.00000000000E+00 0. -1.
         11    1    3    3    0    0 -0.86439350222E+01 -0.31764011771E+01  0.47480041594E+01  0.10361017366E+02  0.51100000000E-03 0. -1.
        -11    1    3    3    0    0 -0.14327090320E+01  0.77269301596E+00  0.79998447118E+01  0.81637751893E+01  0.51100000000E-03 0.  1.
        -12    1    3    3    0    0 -0.26679457610E+02  0.68094220171E+01  0.99061102163E+01  0.29262479495E+02  0.00000000000E+00 0.  1.
</event>
<event>
 7    1  0.5646756E-010  0.4778727E+02  0.7816164E-02  0.1312668E+00
        -11   -1    0    0    0    0  0.00000000000E+00  0.00000000000E+00  0.45593999997E+02  0.45594000000E+02  0.51100000000E-03 0.  1.
         11   -1    0    0    0    0 -0.00000000000E+00 -0.00000000000E+00 -0.45593999997E+02  0.45594000000E+02  0.51100000000E-03 0. -1.
    9900012    2    1    2    0    0 -0.79709331117E+01 -0.63337354960E+01  0.42189707708E+02  0.47787269402E+02  0.19999992510E+02 0.  0.
         12    1    1    2    0    0  0.79709331117E+01  0.63337354960E+01 -0.42189707708E+02  0.43400730598E+02  0.00000000000E+00 0. -1.
         11    1    3    3    0    0 -0.17968534573E+01  0.58600810593E+01  0.10960134047E+02  0.12557618045E+02  0.51100000000E-03 0. -1.
        -11    1    3    3    0    0  0.88442975912E+00 -0.23352119685E+01  0.10562584684E+01  0.27112936303E+01  0.51100000000E-03 0.  1.
         12    1    3    3    0    0 -0.70585094135E+01 -0.98586045869E+01  0.30173315192E+02  0.32518357726E+02  0.00000000000E+00 0. -1.
</event>
<event>
 7    1  0.5646756E-010  0.4778727E+02  0.7816164E-02  0.1312668E+00
        -11   -1    0    0    0    0  0.00000000000E+00  0.00000000000E+00  0.45593999997E+02  0.45594000000E+02  0.51100000000E-03 0.  1.
         11   -1    0    0    0    0 -0.00000000000E+00 -0.00000000000E+00 -0.45593999997E+02  0.45594000000E+02  0.51100000000E-03 0. -1.
    9900012    2    1    2    0    0  0.22985708173E+02 -0.28705135684E+01  0.36702052144E+02  0.47787271205E+02  0.20000000734E+02 0.  0.
         12    1    1    2    0    0 -0.22985708173E+02  0.28705135684E+01 -0.36702052144E+02  0.43400728795E+02  0.00000000000E+00 0. -1.
         11    1    3    3    0    0 -0.19705059349E+01 -0.27236168095E+00  0.25097701587E+01  0.32025023084E+01  0.51100000000E-03 0. -1.
        -11    1    3    3    0    0  0.26273396824E+02 -0.11525825465E+01  0.29610406684E+02  0.39602979830E+02  0.51100000000E-03 0.  1.
        -12    1    3    3    0    0 -0.13171827168E+01 -0.14455693409E+01  0.45818753012E+01  0.49817890667E+01  0.00000000000E+00 0.  1.
</event>
<event>
 7    1  0.5646756E-010  0.4778727E+02  0.7816164E-02  0.1312668E+00
        -11   -1    0    0    0    0  0.00000000000E+00  0.00000000000E+00  0.45593999997E+02  0.45594000000E+02  0.51100000000E-03 0.  1.
         11   -1    0    0    0    0 -0.00000000000E+00 -0.00000000000E+00 -0.45593999997E+02  0.45594000000E+02  0.51100000000E-03 0. -1.
    9900012    2    1    2    0    0 -0.46899269328E+01  0.15250467804E+02  0.40361504870E+02  0.47787271224E+02  0.20000000820E+02 0.  0.
         12    1    1    2    0    0  0.46899269328E+01 -0.15250467804E+02 -0.40361504870E+02  0.43400728776E+02  0.00000000000E+00 0. -1.
         11    1    3    3    0    0  0.10621739080E+01  0.39424150495E+00  0.42385065049E+01  0.43873200736E+01  0.51100000000E-03 0. -1.
        -11    1    3    3    0    0 -0.11695529182E+02  0.13397866162E+02  0.28891899255E+02  0.33926833972E+02  0.51100000000E-03 0.  1.
        -12    1    3    3    0    0  0.59434283413E+01  0.14583601369E+01  0.72310991098E+01  0.94731171783E+01  0.00000000000E+00 0.  1.
</event>
<event>
 7    1  0.5646756E-010  0.4778727E+02  0.7816164E-02  0.1312668E+00
        -11   -1    0    0    0    0  0.00000000000E+00  0.00000000000E+00  0.45593999997E+02  0.45594000000E+02  0.51100000000E-03 0. -1.
         11   -1    0    0    0    0 -0.00000000000E+00 -0.00000000000E+00 -0.45593999997E+02  0.45594000000E+02  0.51100000000E-03 0.  1.
    9900012    2    1    2    0    0  0.25452551821E+02 -0.34812257319E+02 -0.48885070525E+01  0.47787272414E+02  0.20000006243E+02 0.  0.
         12    1    1    2    0    0 -0.25452551821E+02  0.34812257319E+02  0.48885070525E+01  0.43400727586E+02  0.00000000000E+00 0. -1.
         11    1    3    3    0    0  0.22366441004E+02 -0.18391147316E+02 -0.25683657222E+01  0.29070405665E+02  0.51100000000E-03 0. -1.
        -11    1    3    3    0    0 -0.14314514588E+01 -0.11073798148E+02  0.48288947855E+00  0.11176369769E+02  0.51100000000E-03 0.  1.
        -12    1    3    3    0    0  0.45175622752E+01 -0.53473118542E+01 -0.28030308088E+01  0.75404969791E+01  0.00000000000E+00 0.  1.
</event>
<event>
 7    1  0.5646756E-010  0.4778727E+02  0.7816164E-02  0.1312668E+00
        -11   -1    0    0    0    0  0.00000000000E+00  0.00000000000E+00  0.45593999997E+02  0.45594000000E+02  0.51100000000E-03 0.  1.
         11   -1    0    0    0    0 -0.00000000000E+00 -0.00000000000E+00 -0.45593999997E+02  0.45594000000E+02  0.51100000000E-03 0. -1.
    9900012    2    1    2    0    0 -0.12552011745E+02  0.17287745412E+02  0.37778356323E+02  0.47787270205E+02  0.19999996174E+02 0.  0.
         12    1    1    2    0    0  0.12552011745E+02 -0.17287745412E+02 -0.37778356323E+02  0.43400729795E+02  0.00000000000E+00 0. -1.
         11    1    3    3    0    0 -0.10073250435E+01  0.60042508651E+01  0.93046348095E+01  0.11119440696E+02  0.51100000000E-03 0. -1.
        -11    1    3    3    0    0 -0.15431273966E+01  0.56731220549E+01 -0.98614142723E-01  0.58800749163E+01  0.51100000000E-03 0.  1.
        -12    1    3    3    0    0 -0.10001559305E+02  0.56103724918E+01  0.28572335656E+02  0.30787754593E+02  0.00000000000E+00 0.  1.
</event>
<event>
 7    1  0.5646756E-010  0.4778727E+02  0.7816164E-02  0.1312668E+00
        -11   -1    0    0    0    0  0.00000000000E+00  0.00000000000E+00  0.45593999997E+02  0.45594000000E+02  0.51100000000E-03 0.  1.
         11   -1    0    0    0    0 -0.00000000000E+00 -0.00000000000E+00 -0.45593999997E+02  0.45594000000E+02  0.51100000000E-03 0. -1.
    9900012    2    1    2    0    0 -0.21069582742E+02  0.94610122673E+01  0.36744869851E+02  0.47787268089E+02  0.19999986523E+02 0.  0.
         12    1    1    2    0    0  0.21069582742E+02 -0.94610122673E+01 -0.36744869851E+02  0.43400731911E+02  0.00000000000E+00 0. -1.
         11    1    3    3    0    0 -0.42976297500E+01  0.31463479655E+01 -0.42590108810E+00  0.53432685676E+01  0.51100000000E-03 0. -1.
        -11    1    3    3    0    0 -0.48743027566E+01 -0.17390720088E+01  0.16333286682E+02  0.17133576770E+02  0.51100000000E-03 0.  1.
        -12    1    3    3    0    0 -0.11897650236E+02  0.80537363106E+01  0.20837484257E+02  0.25310422751E+02  0.00000000000E+00 0.  1.
</event>
<event>
 7    1  0.5646756E-010  0.4778728E+02  0.7816164E-02  0.1312668E+00
        -11   -1    0    0    0    0  0.00000000000E+00  0.00000000000E+00  0.45593999997E+02  0.45594000000E+02  0.51100000000E-03 0.  1.
         11   -1    0    0    0    0 -0.00000000000E+00 -0.00000000000E+00 -0.45593999997E+02  0.45594000000E+02  0.51100000000E-03 0. -1.
    9900012    2    1    2    0    0 -0.41615671288E+02  0.53013365716E+00  0.12307618916E+02  0.47787278556E+02  0.20000034250E+02 0.  0.
         12    1    1    2    0    0  0.41615671288E+02 -0.53013365716E+00 -0.12307618916E+02  0.43400721444E+02  0.00000000000E+00 0. -1.
         11    1    3    3    0    0 -0.12463259568E+02  0.16998471054E+01  0.10164125361E+02  0.16171943725E+02  0.51100000000E-03 0. -1.
        -11    1    3    3    0    0 -0.79133662191E+01 -0.49039384507E+01 -0.23178340859E+01  0.95938695195E+01  0.51100000000E-03 0.  1.
        -12    1    3    3    0    0 -0.21239045501E+02  0.37342250024E+01  0.44613276415E+01  0.22021465312E+02  0.00000000000E+00 0.  1.
</event>
<event>
 7    1  0.5646756E-010  0.4778727E+02  0.7816164E-02  0.1312668E+00
        -11   -1    0    0    0    0  0.00000000000E+00  0.00000000000E+00  0.45593999997E+02  0.45594000000E+02  0.51100000000E-03 0.  1.
         11   -1    0    0    0    0 -0.00000000000E+00 -0.00000000000E+00 -0.45593999997E+02  0.45594000000E+02  0.51100000000E-03 0. -1.
    9900012    2    1    2    0    0 -0.31639060254E+02  0.80285555770E+01  0.28603061969E+02  0.47787274287E+02  0.20000014785E+02 0.  0.
         12    1    1    2    0    0  0.31639060254E+02 -0.80285555770E+01 -0.28603061969E+02  0.43400725713E+02  0.00000000000E+00 0. -1.
         11    1    3    3    0    0 -0.94858373455E+01  0.17984234133E+01 -0.14628134972E+01  0.97650018181E+01  0.51100000000E-03 0. -1.
        -11    1    3    3    0    0 -0.19139788960E+02  0.46442188081E+01  0.27136130125E+02  0.33530133436E+02  0.51100000000E-03 0.  1.
         12    1    3    3    0    0 -0.30134339484E+01  0.15859133556E+01  0.29297453409E+01  0.44921390334E+01  0.00000000000E+00 0. -1.
</event>
<event>
 7    1  0.5646756E-010  0.4778727E+02  0.7816164E-02  0.1312668E+00
        -11   -1    0    0    0    0  0.00000000000E+00  0.00000000000E+00  0.45593999997E+02  0.45594000000E+02  0.51100000000E-03 0. -1.
         11   -1    0    0    0    0 -0.00000000000E+00 -0.00000000000E+00 -0.45593999997E+02  0.45594000000E+02  0.51100000000E-03 0.  1.
    9900012    2    1    2    0    0 -0.29717567967E+02 -0.30962020912E+02 -0.64686056427E+01  0.47787269087E+02  0.19999991074E+02 0.  0.
         12    1    1    2    0    0  0.29717567967E+02  0.30962020912E+02  0.64686056427E+01  0.43400730913E+02  0.00000000000E+00 0. -1.
         11    1    3    3    0    0 -0.12334425148E+01  0.92289278534E+00  0.17460034659E+01  0.23284415163E+01  0.51100000000E-03 0.  1.
        -11    1    3    3    0    0 -0.13296945594E+02 -0.19339646719E+02 -0.10338729511E+02  0.25646052825E+02  0.51100000000E-03 0. -1.
        -12    1    3    3    0    0 -0.15187179858E+02 -0.12545266978E+02  0.21241204028E+01  0.19812774745E+02  0.00000000000E+00 0.  1.
</event>
<event>
 7    1  0.5646756E-010  0.4778727E+02  0.7816164E-02  0.1312668E+00
        -11   -1    0    0    0    0  0.00000000000E+00  0.00000000000E+00  0.45593999997E+02  0.45594000000E+02  0.51100000000E-03 0.  1.
         11   -1    0    0    0    0 -0.00000000000E+00 -0.00000000000E+00 -0.45593999997E+02  0.45594000000E+02  0.51100000000E-03 0. -1.
    9900012    2    1    2    0    0 -0.49586631885E+01  0.33110197347E+02  0.27617921590E+02  0.47787273025E+02  0.20000009030E+02 0.  0.
         12    1    1    2    0    0  0.49586631885E+01 -0.33110197347E+02 -0.27617921590E+02  0.43400726975E+02  0.00000000000E+00 0. -1.
         11    1    3    3    0    0 -0.82755768739E+00  0.11434250304E+02  0.68084267337E+01  0.13333476913E+02  0.51100000000E-03 0. -1.
        -11    1    3    3    0    0  0.49461792352E+01  0.96752633956E+01  0.14542632860E+02  0.18153886128E+02  0.51100000000E-03 0.  1.
        -12    1    3    3    0    0 -0.90772847364E+01  0.12000683648E+02  0.62668619969E+01  0.16299909984E+02  0.00000000000E+00 0.  1.
</event>
<event>
 7    1  0.5646756E-010  0.4778727E+02  0.7816164E-02  0.1312668E+00
        -11   -1    0    0    0    0  0.00000000000E+00  0.00000000000E+00  0.45593999997E+02  0.45594000000E+02  0.51100000000E-03 0.  1.
         11   -1    0    0    0    0 -0.00000000000E+00 -0.00000000000E+00 -0.45593999997E+02  0.45594000000E+02  0.51100000000E-03 0. -1.
    9900012    2    1    2    0    0  0.32796257363E+02  0.27107424361E+02  0.85566523326E+01  0.47787271301E+02  0.20000001168E+02 0.  0.
         12    1    1    2    0    0 -0.32796257363E+02 -0.27107424361E+02 -0.85566523326E+01  0.43400728699E+02  0.00000000000E+00 0. -1.
         11    1    3    3    0    0  0.23887612878E+02  0.82579172400E+01  0.42639221084E+01  0.25631860607E+02  0.51100000000E-03 0. -1.
        -11    1    3    3    0    0  0.66168579356E+01  0.13469367517E+02  0.58449818772E+01  0.16104983193E+02  0.51100000000E-03 0.  1.
         12    1    3    3    0    0  0.22917865491E+01  0.53801396044E+01 -0.15522516529E+01  0.60504275009E+01  0.00000000000E+00 0. -1.
</event>
<event>
 7    1  0.5646756E-010  0.4778727E+02  0.7816164E-02  0.1312668E+00
        -11   -1    0    0    0    0  0.00000000000E+00  0.00000000000E+00  0.45593999997E+02  0.45594000000E+02  0.51100000000E-03 0.  1.
         11   -1    0    0    0    0 -0.00000000000E+00 -0.00000000000E+00 -0.45593999997E+02  0.45594000000E+02  0.51100000000E-03 0. -1.
    9900012    2    1    2    0    0  0.21092244753E+02 -0.25574187474E+02  0.28012525408E+02  0.47787269207E+02  0.19999991621E+02 0.  0.
         12    1    1    2    0    0 -0.21092244753E+02  0.25574187474E+02 -0.28012525408E+02  0.43400730793E+02  0.00000000000E+00 0. -1.
         11    1    3    3    0    0  0.30008840180E+01 -0.43947851064E+01 -0.13755257818E+00  0.53233788136E+01  0.51100000000E-03 0. -1.
        -11    1    3    3    0    0  0.16884390381E+02 -0.23226823854E+02  0.22996521329E+02  0.36788693622E+02  0.51100000000E-03 0.  1.
        -12    1    3    3    0    0  0.12069703539E+01  0.20474214866E+01  0.51535566570E+01  0.56751967715E+01  0.00000000000E+00 0.  1.
</event>
<event>
 7    1  0.5646756E-010  0.4778727E+02  0.7816164E-02  0.1312668E+00
        -11   -1    0    0    0    0  0.00000000000E+00  0.00000000000E+00  0.45593999997E+02  0.45594000000E+02  0.51100000000E-03 0.  1.
         11   -1    0    0    0    0 -0.00000000000E+00 -0.00000000000E+00 -0.45593999997E+02  0.45594000000E+02  0.51100000000E-03 0. -1.
    9900012    2    1    2    0    0  0.18696985185E+02 -0.34017469317E+02  0.19412822796E+02  0.47787272326E+02  0.20000005843E+02 0.  0.
         12    1    1    2    0    0 -0.18696985185E+02  0.34017469317E+02 -0.19412822796E+02  0.43400727674E+02  0.00000000000E+00 0. -1.
         11    1    3    3    0    0  0.22967371755E+01 -0.37920155105E+00 -0.29090955483E+01  0.37258063073E+01  0.51100000000E-03 0. -1.
        -11    1    3    3    0    0  0.14804834948E+02 -0.32052334755E+02  0.19128132284E+02  0.40154959171E+02  0.51100000000E-03 0.  1.
        -12    1    3    3    0    0  0.15954130623E+01 -0.15859330104E+01  0.31937860598E+01  0.39065068474E+01  0.00000000000E+00 0.  1.
</event>
<event>
 7    1  0.5646756E-010  0.4778728E+02  0.7816164E-02  0.1312668E+00
        -11   -1    0    0    0    0  0.00000000000E+00  0.00000000000E+00  0.45593999997E+02  0.45594000000E+02  0.51100000000E-03 0. -1.
         11   -1    0    0    0    0 -0.00000000000E+00 -0.00000000000E+00 -0.45593999997E+02  0.45594000000E+02  0.51100000000E-03 0.  1.
    9900012    2    1    2    0    0  0.28293054460E+02  0.25849179347E+02  0.20370216725E+02  0.47787277275E+02  0.20000028408E+02 0.  0.
         12    1    1    2    0    0 -0.28293054460E+02 -0.25849179347E+02 -0.20370216725E+02  0.43400722725E+02  0.00000000000E+00 0. -1.
         11    1    3    3    0    0  0.10631063675E+02  0.14827152607E+02  0.16449680431E+02  0.24565340539E+02  0.51100000000E-03 0.  1.
        -11    1    3    3    0    0  0.13608705491E+02  0.30581223199E+01  0.26132728799E+01  0.14190777733E+02  0.51100000000E-03 0. -1.
        -12    1    3    3    0    0  0.40532852947E+01  0.79639044202E+01  0.13072634148E+01  0.90311590026E+01  0.00000000000E+00 0.  1.
</event>
<event>
 7    1  0.5646756E-010  0.4778727E+02  0.7816164E-02  0.1312668E+00
        -11   -1    0    0    0    0  0.00000000000E+00  0.00000000000E+00  0.45593999997E+02  0.45594000000E+02  0.51100000000E-03 0.  1.
         11   -1    0    0    0    0 -0.00000000000E+00 -0.00000000000E+00 -0.45593999997E+02  0.45594000000E+02  0.51100000000E-03 0. -1.
    9900012    2    1    2    0    0 -0.29885700230E+02  0.14690195492E+02  0.27832827864E+02  0.47787271565E+02  0.20000002372E+02 0.  0.
         12    1    1    2    0    0  0.29885700230E+02 -0.14690195492E+02 -0.27832827864E+02  0.43400728435E+02  0.00000000000E+00 0. -1.
         11    1    3    3    0    0 -0.12901470129E+02  0.94621833083E+01  0.50498851062E+01  0.16777430802E+02  0.51100000000E-03 0.  1.
        -11    1    3    3    0    0  0.70701280737E+00 -0.58506411766E+00  0.55900319353E+01  0.56648587299E+01  0.51100000000E-03 0. -1.
        -12    1    3    3    0    0 -0.17691242908E+02  0.58130763009E+01  0.17192910823E+02  0.25344982033E+02  0.00000000000E+00 0.  1.
</event>
<event>
 7    1  0.5646756E-010  0.4778727E+02  0.7816164E-02  0.1312668E+00
        -11   -1    0    0    0    0  0.00000000000E+00  0.00000000000E+00  0.45593999997E+02  0.45594000000E+02  0.51100000000E-03 0.  1.
         11   -1    0    0    0    0 -0.00000000000E+00 -0.00000000000E+00 -0.45593999997E+02  0.45594000000E+02  0.51100000000E-03 0. -1.
    9900012    2    1    2    0    0 -0.56760816263E+01  0.24553988601E+02  0.35334217373E+02  0.47787272170E+02  0.20000005131E+02 0.  0.
         12    1    1    2    0    0  0.56760816263E+01 -0.24553988601E+02 -0.35334217373E+02  0.43400727830E+02  0.00000000000E+00 0. -1.
         11    1    3    3    0    0 -0.32760126322E+00  0.12848916174E+01 -0.84039728516E+00  0.15698843633E+01  0.51100000000E-03 0. -1.
        -11    1    3    3    0    0 -0.98861388774E+01  0.81744248695E+01  0.13719005254E+02  0.18782121000E+02  0.51100000000E-03 0.  1.
        -12    1    3    3    0    0  0.45376585143E+01  0.15094672114E+02  0.22455609404E+02  0.27435266806E+02  0.00000000000E+00 0.  1.
</event>
<event>
 7    1  0.5646756E-010  0.4778727E+02  0.7816164E-02  0.1312668E+00
        -11   -1    0    0    0    0  0.00000000000E+00  0.00000000000E+00  0.45593999997E+02  0.45594000000E+02  0.51100000000E-03 0.  1.
         11   -1    0    0    0    0 -0.00000000000E+00 -0.00000000000E+00 -0.45593999997E+02  0.45594000000E+02  0.51100000000E-03 0. -1.
    9900012    2    1    2    0    0  0.82854821633E+01  0.39501117162E+02  0.15957323098E+02  0.47787266917E+02  0.19999981179E+02 0.  0.
         12    1    1    2    0    0 -0.82854821633E+01 -0.39501117162E+02 -0.15957323098E+02  0.43400733083E+02  0.00000000000E+00 0. -1.
         11    1    3    3    0    0 -0.13591066011E+01  0.82179769460E+01  0.63171852891E+01  0.10454144923E+02  0.51100000000E-03 0. -1.
        -11    1    3    3    0    0  0.81767589737E+01  0.26161688622E+02  0.13692455845E+02  0.30639462890E+02  0.51100000000E-03 0.  1.
        -12    1    3    3    0    0  0.14678297906E+01  0.51214515942E+01 -0.40523180362E+01  0.66936591034E+01  0.00000000000E+00 0.  1.
</event>
<event>
 7    1  0.5646756E-010  0.4778723E+02  0.7816164E-02  0.1312668E+00
        -11   -1    0    0    0    0  0.00000000000E+00  0.00000000000E+00  0.45593999997E+02  0.45594000000E+02  0.51100000000E-03 0.  1.
         11   -1    0    0    0    0 -0.00000000000E+00 -0.00000000000E+00 -0.45593999997E+02  0.45594000000E+02  0.51100000000E-03 0. -1.
    9900012    2    1    2    0    0  0.16194252399E+02 -0.32317081461E+02  0.24020389260E+02  0.47787231975E+02  0.19999821865E+02 0.  0.
         12    1    1    2    0    0 -0.16194252399E+02  0.32317081461E+02 -0.24020389260E+02  0.43400768025E+02  0.00000000000E+00 0. -1.
         11    1    3    3    0    0 -0.40985226982E+01 -0.23624187374E+01  0.44666626854E+01  0.65061498911E+01  0.51100000000E-03 0. -1.
        -11    1    3    3    0    0  0.19399752800E+02 -0.27261151881E+02  0.17362578486E+02  0.37695887607E+02  0.51100000000E-03 0.  1.
         12    1    3    3    0    0  0.89302229796E+00 -0.26935108431E+01  0.21911480894E+01  0.35851944767E+01  0.00000000000E+00 0. -1.
</event>
<event>
 7    1  0.5646756E-010  0.4778727E+02  0.7816164E-02  0.1312668E+00
        -11   -1    0    0    0    0  0.00000000000E+00  0.00000000000E+00  0.45593999997E+02  0.45594000000E+02  0.51100000000E-03 0.  1.
         11   -1    0    0    0    0 -0.00000000000E+00 -0.00000000000E+00 -0.45593999997E+02  0.45594000000E+02  0.51100000000E-03 0. -1.
    9900012    2    1    2    0    0  0.34741104759E+02 -0.85857647862E+01  0.24555315981E+02  0.47787271207E+02  0.20000000742E+02 0.  0.
         12    1    1    2    0    0 -0.34741104759E+02  0.85857647862E+01 -0.24555315981E+02  0.43400728793E+02  0.00000000000E+00 0. -1.
         11    1    3    3    0    0  0.22924739537E+02  0.44089885063E+00  0.16560385923E+02  0.28283996479E+02  0.51100000000E-03 0. -1.
        -11    1    3    3    0    0  0.12351204272E+02 -0.44850427912E+01  0.67034065766E+01  0.14751390300E+02  0.51100000000E-03 0.  1.
         12    1    3    3    0    0 -0.53483904993E+00 -0.45416208456E+01  0.12915234814E+01  0.47518844280E+01  0.00000000000E+00 0. -1.
</event>
<event>
 7    1  0.5646756E-010  0.4778727E+02  0.7816164E-02  0.1312668E+00
        -11   -1    0    0    0    0  0.00000000000E+00  0.00000000000E+00  0.45593999997E+02  0.45594000000E+02  0.51100000000E-03 0.  1.
         11   -1    0    0    0    0 -0.00000000000E+00 -0.00000000000E+00 -0.45593999997E+02  0.45594000000E+02  0.51100000000E-03 0. -1.
    9900012    2    1    2    0    0  0.40182710084E+02 -0.70029684198E+01  0.14830077194E+02  0.47787274822E+02  0.20000017225E+02 0.  0.
         12    1    1    2    0    0 -0.40182710084E+02  0.70029684198E+01 -0.14830077194E+02  0.43400725178E+02  0.00000000000E+00 0. -1.
         11    1    3    3    0    0  0.17527948274E+02 -0.80875309607E+00  0.14912434194E+02  0.23027456354E+02  0.51100000000E-03 0. -1.
        -11    1    3    3    0    0  0.56293032807E+01  0.17369648340E+01  0.86202773938E+00  0.59539226016E+01  0.51100000000E-03 0.  1.
         12    1    3    3    0    0  0.17025458529E+02 -0.79311801578E+01 -0.94438473955E+00  0.18805895867E+02  0.00000000000E+00 0. -1.
</event>
<event>
 7    1  0.5646756E-010  0.4778725E+02  0.7816164E-02  0.1312668E+00
        -11   -1    0    0    0    0  0.00000000000E+00  0.00000000000E+00  0.45593999997E+02  0.45594000000E+02  0.51100000000E-03 0. -1.
         11   -1    0    0    0    0 -0.00000000000E+00 -0.00000000000E+00 -0.45593999997E+02  0.45594000000E+02  0.51100000000E-03 0.  1.
    9900012    2    1    2    0    0  0.41153092969E+02 -0.13780933362E+02  0.36616337647E+00  0.47787248153E+02  0.19999895629E+02 0.  0.
         12    1    1    2    0    0 -0.41153092969E+02  0.13780933362E+02 -0.36616337647E+00  0.43400751847E+02  0.00000000000E+00 0. -1.
         11    1    3    3    0    0  0.47392340395E+01 -0.71804863208E+00 -0.40939418338E+01  0.63036729863E+01  0.51100000000E-03 0.  1.
        -11    1    3    3    0    0  0.67612916141E+01 -0.63329584866E+01  0.60010859432E+01  0.11037864841E+02  0.51100000000E-03 0. -1.
        -12    1    3    3    0    0  0.29652567315E+02 -0.67299262436E+01 -0.15409807329E+01  0.30445710326E+02  0.00000000000E+00 0.  1.
</event>
<event>
 7    1  0.5646756E-010  0.4778727E+02  0.7816164E-02  0.1312668E+00
        -11   -1    0    0    0    0  0.00000000000E+00  0.00000000000E+00  0.45593999997E+02  0.45594000000E+02  0.51100000000E-03 0.  1.
         11   -1    0    0    0    0 -0.00000000000E+00 -0.00000000000E+00 -0.45593999997E+02  0.45594000000E+02  0.51100000000E-03 0. -1.
    9900012    2    1    2    0    0  0.25639646634E+02 -0.14237766932E+02  0.31992465208E+02  0.47787270550E+02  0.19999997746E+02 0.  0.
         12    1    1    2    0    0 -0.25639646634E+02  0.14237766932E+02 -0.31992465208E+02  0.43400729450E+02  0.00000000000E+00 0. -1.
         11    1    3    3    0    0  0.86677824854E+01 -0.12249858245E+02  0.13670761036E+02  0.20299733688E+02  0.51100000000E-03 0. -1.
        -11    1    3    3    0    0  0.76326146227E+01  0.47343194631E+01  0.82380218671E+01  0.12187517848E+02  0.51100000000E-03 0.  1.
        -12    1    3    3    0    0  0.93392495254E+01 -0.67222281505E+01  0.10083682305E+02  0.15300019014E+02  0.00000000000E+00 0.  1.
</event>
<event>
 7    1  0.5646756E-010  0.4778727E+02  0.7816164E-02  0.1312668E+00
        -11   -1    0    0    0    0  0.00000000000E+00  0.00000000000E+00  0.45593999997E+02  0.45594000000E+02  0.51100000000E-03 0.  1.
         11   -1    0    0    0    0 -0.00000000000E+00 -0.00000000000E+00 -0.45593999997E+02  0.45594000000E+02  0.51100000000E-03 0. -1.
    9900012    2    1    2    0    0 -0.16426752932E+02 -0.24180396105E+02  0.32079488229E+02  0.47787270367E+02  0.19999996911E+02 0.  0.
         12    1    1    2    0    0  0.16426752932E+02  0.24180396105E+02 -0.32079488229E+02  0.43400729633E+02  0.00000000000E+00 0. -1.
         11    1    3    3    0    0 -0.10117612421E+02 -0.74698641257E+01  0.38713123989E+01  0.13158723765E+02  0.51100000000E-03 0. -1.
        -11    1    3    3    0    0 -0.13398505405E+01 -0.55164551239E+01  0.17370009636E+02  0.18274126836E+02  0.51100000000E-03 0.  1.
         12    1    3    3    0    0 -0.49692899705E+01 -0.11194076855E+02  0.10838166194E+02  0.16354419766E+02  0.00000000000E+00 0. -1.
</event>
<event>
 7    1  0.5646756E-010  0.4778727E+02  0.7816164E-02  0.1312668E+00
        -11   -1    0    0    0    0  0.00000000000E+00  0.00000000000E+00  0.45593999997E+02  0.45594000000E+02  0.51100000000E-03 0.  1.
         11   -1    0    0    0    0 -0.00000000000E+00 -0.00000000000E+00 -0.45593999997E+02  0.45594000000E+02  0.51100000000E-03 0. -1.
    9900012    2    1    2    0    0  0.24268927161E+02 -0.33338727474E+02  0.13534089963E+02  0.47787272284E+02  0.20000005654E+02 0.  0.
         12    1    1    2    0    0 -0.24268927161E+02  0.33338727474E+02 -0.13534089963E+02  0.43400727716E+02  0.00000000000E+00 0. -1.
         11    1    3    3    0    0  0.62414442527E+01 -0.42210943570E+01 -0.17949452959E+01  0.77456499280E+01  0.51100000000E-03 0. -1.
        -11    1    3    3    0    0  0.18444975192E+02 -0.19686013757E+02  0.14333530452E+02  0.30548426194E+02  0.51100000000E-03 0.  1.
        -12    1    3    3    0    0 -0.41749228346E+00 -0.94316193602E+01  0.99550480717E+00  0.94931961627E+01  0.00000000000E+00 0.  1.
</event>
<event>
 7    1  0.5646756E-010  0.4778727E+02  0.7816164E-02  0.1312668E+00
        -11   -1    0    0    0    0  0.00000000000E+00  0.00000000000E+00  0.45593999997E+02  0.45594000000E+02  0.51100000000E-03 0.  1.
         11   -1    0    0    0    0 -0.00000000000E+00 -0.00000000000E+00 -0.45593999997E+02  0.45594000000E+02  0.51100000000E-03 0. -1.
    9900012    2    1    2    0    0 -0.17513696010E+02  0.11286399249E+02  0.38072441673E+02  0.47787272230E+02  0.20000005408E+02 0.  0.
         12    1    1    2    0    0  0.17513696010E+02 -0.11286399249E+02 -0.38072441673E+02  0.43400727770E+02  0.00000000000E+00 0. -1.
         11    1    3    3    0    0 -0.22899963734E-01 -0.36071268708E+01  0.28390780601E+01  0.45904523919E+01  0.51100000000E-03 0. -1.
        -11    1    3    3    0    0 -0.19918180051E+01 -0.61515239235E+00  0.78232057066E+01  0.80961904141E+01  0.51100000000E-03 0.  1.
         12    1    3    3    0    0 -0.15498978041E+02  0.15508678513E+02  0.27410157907E+02  0.35100629425E+02  0.00000000000E+00 0. -1.
</event>
<event>
 7    1  0.5646756E-010  0.4778727E+02  0.7816164E-02  0.1312668E+00
        -11   -1    0    0    0    0  0.00000000000E+00  0.00000000000E+00  0.45593999997E+02  0.45594000000E+02  0.51100000000E-03 0.  1.
         11   -1    0    0    0    0 -0.00000000000E+00 -0.00000000000E+00 -0.45593999997E+02  0.45594000000E+02  0.51100000000E-03 0. -1.
    9900012    2    1    2    0    0  0.13714191666E+02 -0.11605766814E+02  0.39507599558E+02  0.47787270752E+02  0.19999998669E+02 0.  0.
         12    1    1    2    0    0 -0.13714191666E+02  0.11605766814E+02 -0.39507599558E+02  0.43400729248E+02  0.00000000000E+00 0. -1.
         11    1    3    3    0    0  0.12027104006E+02 -0.69354060853E+01  0.11537640547E+02  0.18051820905E+02  0.51100000000E-03 0. -1.
        -11    1    3    3    0    0 -0.22888723948E+01 -0.13209850743E+01  0.20290013312E+02  0.20461392398E+02  0.51100000000E-03 0.  1.
        -12    1    3    3    0    0  0.39759600547E+01 -0.33493756542E+01  0.76799456994E+01  0.92740574494E+01  0.00000000000E+00 0.  1.
</event>
<event>
 7    1  0.5646756E-010  0.4778727E+02  0.7816164E-02  0.1312668E+00
        -11   -1    0    0    0    0  0.00000000000E+00  0.00000000000E+00  0.45593999997E+02  0.45594000000E+02  0.51100000000E-03 0.  1.
         11   -1    0    0    0    0 -0.00000000000E+00 -0.00000000000E+00 -0.45593999997E+02  0.45594000000E+02  0.51100000000E-03 0. -1.
    9900012    2    1    2    0    0  0.43038048229E+02  0.11407210894E+01 -0.54816446711E+01  0.47787271109E+02  0.20000000296E+02 0.  0.
         12    1    1    2    0    0 -0.43038048229E+02 -0.11407210894E+01  0.54816446711E+01  0.43400728891E+02  0.00000000000E+00 0. -1.
         11    1    3    3    0    0 -0.14546401024E+01 -0.13567137234E+01 -0.68818482026E+00  0.21048155651E+01  0.51100000000E-03 0. -1.
        -11    1    3    3    0    0  0.32485357712E+02 -0.15483748792E+01 -0.13408816913E+01  0.32549867809E+02  0.51100000000E-03 0.  1.
         12    1    3    3    0    0  0.12007330619E+02  0.40458096921E+01 -0.34525781595E+01  0.13132587735E+02  0.00000000000E+00 0. -1.
</event>
<event>
 7    1  0.5646756E-010  0.4778733E+02  0.7816164E-02  0.1312667E+00
        -11   -1    0    0    0    0  0.00000000000E+00  0.00000000000E+00  0.45593999997E+02  0.45594000000E+02  0.51100000000E-03 0.  1.
         11   -1    0    0    0    0 -0.00000000000E+00 -0.00000000000E+00 -0.45593999997E+02  0.45594000000E+02  0.51100000000E-03 0. -1.
    9900012    2    1    2    0    0  0.21587923493E+02 -0.20928687708E+02  0.31298074945E+02  0.47787332895E+02  0.20000282000E+02 0.  0.
         12    1    1    2    0    0 -0.21587923493E+02  0.20928687708E+02 -0.31298074945E+02  0.43400667105E+02  0.00000000000E+00 0. -1.
         11    1    3    3    0    0 -0.34398459479E+01 -0.50060350839E+01  0.67664905690E+01  0.90927620825E+01  0.51100000000E-03 0. -1.
        -11    1    3    3    0    0  0.20109878172E+02 -0.13701640573E+02  0.18273591055E+02  0.30431337217E+02  0.51100000000E-03 0.  1.
         12    1    3    3    0    0  0.49178912688E+01 -0.22210120507E+01  0.62579933206E+01  0.82632335960E+01  0.00000000000E+00 0. -1.
</event>
<event>
 7    1  0.5646756E-010  0.4778727E+02  0.7816164E-02  0.1312668E+00
        -11   -1    0    0    0    0  0.00000000000E+00  0.00000000000E+00  0.45593999997E+02  0.45594000000E+02  0.51100000000E-03 0.  1.
         11   -1    0    0    0    0 -0.00000000000E+00 -0.00000000000E+00 -0.45593999997E+02  0.45594000000E+02  0.51100000000E-03 0. -1.
    9900012    2    1    2    0    0  0.21577734594E+02  0.12693730881E+02  0.35452697830E+02  0.47787271696E+02  0.20000002970E+02 0.  0.
         12    1    1    2    0    0 -0.21577734594E+02 -0.12693730881E+02 -0.35452697830E+02  0.43400728304E+02  0.00000000000E+00 0. -1.
         11    1    3    3    0    0  0.60474855268E+01 -0.34911960273E+01  0.17989025731E+01  0.72108655255E+01  0.51100000000E-03 0. -1.
        -11    1    3    3    0    0  0.11107045491E+02  0.12230284660E+02  0.22151317398E+02  0.27633805115E+02  0.51100000000E-03 0.  1.
         12    1    3    3    0    0  0.44232035763E+01  0.39546422486E+01  0.11502477859E+02  0.12942601055E+02  0.00000000000E+00 0. -1.
</event>
<event>
 7    1  0.5646756E-010  0.4778727E+02  0.7816164E-02  0.1312668E+00
        -11   -1    0    0    0    0  0.00000000000E+00  0.00000000000E+00  0.45593999997E+02  0.45594000000E+02  0.51100000000E-03 0.  1.
         11   -1    0    0    0    0 -0.00000000000E+00 -0.00000000000E+00 -0.45593999997E+02  0.45594000000E+02  0.51100000000E-03 0. -1.
    9900012    2    1    2    0    0 -0.33054034210E+02 -0.11749969009E+02 -0.25553709003E+02  0.47787274280E+02  0.20000014750E+02 0.  0.
         12    1    1    2    0    0  0.33054034210E+02  0.11749969009E+02  0.25553709003E+02  0.43400725720E+02  0.00000000000E+00 0. -1.
         11    1    3    3    0    0 -0.31876969226E+01  0.33761181593E+01 -0.53846889046E+01  0.71101659866E+01  0.51100000000E-03 0. -1.
        -11    1    3    3    0    0 -0.25075297808E+02 -0.12241431987E+02 -0.11116877979E+02  0.30036780678E+02  0.51100000000E-03 0.  1.
        -12    1    3    3    0    0 -0.47910394797E+01 -0.28846551814E+01 -0.90521421191E+01  0.10640327615E+02  0.00000000000E+00 0.  1.
</event>
<event>
 7    1  0.5646756E-010  0.4778726E+02  0.7816164E-02  0.1312668E+00
        -11   -1    0    0    0    0  0.00000000000E+00  0.00000000000E+00  0.45593999997E+02  0.45594000000E+02  0.51100000000E-03 0. -1.
         11   -1    0    0    0    0 -0.00000000000E+00 -0.00000000000E+00 -0.45593999997E+02  0.45594000000E+02  0.51100000000E-03 0.  1.
    9900012    2    1    2    0    0 -0.40740567649E+01  0.41627715663E+02 -0.11582712454E+02  0.47787264089E+02  0.19999968288E+02 0.  0.
         12    1    1    2    0    0  0.40740567649E+01 -0.41627715663E+02  0.11582712454E+02  0.43400735911E+02  0.00000000000E+00 0. -1.
         11    1    3    3    0    0 -0.68854843822E+01  0.77834570819E+01 -0.24477040402E+01  0.10676298734E+02  0.51100000000E-03 0. -1.
        -11    1    3    3    0    0  0.23070456110E+01  0.33615237907E+02 -0.63701817871E+01  0.34291192678E+02  0.51100000000E-03 0.  1.
        -12    1    3    3    0    0  0.50438200638E+00  0.22902067374E+00 -0.27648266267E+01  0.28197726776E+01  0.00000000000E+00 0.  1.
</event>
<event>
 7    1  0.5646756E-010  0.4778727E+02  0.7816164E-02  0.1312668E+00
        -11   -1    0    0    0    0  0.00000000000E+00  0.00000000000E+00  0.45593999997E+02  0.45594000000E+02  0.51100000000E-03 0.  1.
         11   -1    0    0    0    0 -0.00000000000E+00 -0.00000000000E+00 -0.45593999997E+02  0.45594000000E+02  0.51100000000E-03 0. -1.
    9900012    2    1    2    0    0  0.29878535617E+02 -0.90337765075E+01  0.30154387782E+02  0.47787272920E+02  0.20000008550E+02 0.  0.
         12    1    1    2    0    0 -0.29878535617E+02  0.90337765075E+01 -0.30154387782E+02  0.43400727080E+02  0.00000000000E+00 0. -1.
         11    1    3    3    0    0  0.28432920867E+01  0.13331823933E+01 -0.17140470398E+01  0.35776588295E+01  0.51100000000E-03 0. -1.
        -11    1    3    3    0    0  0.84196076093E+01  0.37789250880E+00  0.13605771482E+02  0.16004674721E+02  0.51100000000E-03 0.  1.
         12    1    3    3    0    0  0.18615635921E+02 -0.10744851410E+02  0.18262663340E+02  0.28204939369E+02  0.00000000000E+00 0. -1.
</event>
<event>
 7    1  0.5646756E-010  0.4778724E+02  0.7816164E-02  0.1312668E+00
        -11   -1    0    0    0    0  0.00000000000E+00  0.00000000000E+00  0.45593999997E+02  0.45594000000E+02  0.51100000000E-03 0.  1.
         11   -1    0    0    0    0 -0.00000000000E+00 -0.00000000000E+00 -0.45593999997E+02  0.45594000000E+02  0.51100000000E-03 0. -1.
    9900012    2    1    2    0    0 -0.40301994735E+02  0.65429457666E+01  0.14716163298E+02  0.47787235247E+02  0.19999836783E+02 0.  0.
         12    1    1    2    0    0  0.40301994735E+02 -0.65429457666E+01 -0.14716163298E+02  0.43400764753E+02  0.00000000000E+00 0. -1.
         11    1    3    3    0    0 -0.18687293986E+02  0.70623069657E+01  0.12908441000E+02  0.23784847814E+02  0.51100000000E-03 0. -1.
        -11    1    3    3    0    0 -0.12382820668E+02  0.14686035495E+01  0.57965387130E+01  0.13751032885E+02  0.51100000000E-03 0.  1.
         12    1    3    3    0    0 -0.92318800813E+01 -0.19879647486E+01 -0.39888164156E+01  0.10251354548E+02  0.00000000000E+00 0. -1.
</event>
<event>
 7    1  0.5646756E-010  0.4778727E+02  0.7816164E-02  0.1312668E+00
        -11   -1    0    0    0    0  0.00000000000E+00  0.00000000000E+00  0.45593999997E+02  0.45594000000E+02  0.51100000000E-03 0.  1.
         11   -1    0    0    0    0 -0.00000000000E+00 -0.00000000000E+00 -0.45593999997E+02  0.45594000000E+02  0.51100000000E-03 0. -1.
    9900012    2    1    2    0    0 -0.52337689789E+01 -0.10651127333E+02  0.41746668607E+02  0.47787272000E+02  0.20000004355E+02 0.  0.
         12    1    1    2    0    0  0.52337689789E+01  0.10651127333E+02 -0.41746668607E+02  0.43400728000E+02  0.00000000000E+00 0. -1.
         11    1    3    3    0    0 -0.15868468373E+01 -0.11893571901E+02  0.16218875298E+02  0.20174911441E+02  0.51100000000E-03 0. -1.
        -11    1    3    3    0    0  0.15336265405E+01 -0.15949310175E+01  0.17534059778E+02  0.17673117096E+02  0.51100000000E-03 0.  1.
         12    1    3    3    0    0 -0.51805486822E+01  0.28373755853E+01  0.79937335309E+01  0.99392434633E+01  0.00000000000E+00 0. -1.
</event>
<event>
 7    1  0.5646756E-010  0.4778728E+02  0.7816164E-02  0.1312668E+00
        -11   -1    0    0    0    0  0.00000000000E+00  0.00000000000E+00  0.45593999997E+02  0.45594000000E+02  0.51100000000E-03 0.  1.
         11   -1    0    0    0    0 -0.00000000000E+00 -0.00000000000E+00 -0.45593999997E+02  0.45594000000E+02  0.51100000000E-03 0. -1.
    9900012    2    1    2    0    0 -0.27501548780E+02 -0.82645358469E+01  0.32542052249E+02  0.47787275321E+02  0.20000019500E+02 0.  0.
         12    1    1    2    0    0  0.27501548780E+02  0.82645358469E+01 -0.32542052249E+02  0.43400724679E+02  0.00000000000E+00 0. -1.
         11    1    3    3    0    0 -0.41458626880E+01 -0.53689920497E+01  0.19484973281E+01  0.70576834128E+01  0.51100000000E-03 0. -1.
        -11    1    3    3    0    0 -0.16679687627E+01  0.19040837660E+01 -0.43645117169E+00  0.25686853968E+01  0.51100000000E-03 0.  1.
        -12    1    3    3    0    0 -0.21687717329E+02 -0.47996275632E+01  0.31030006093E+02  0.38160906512E+02  0.00000000000E+00 0.  1.
</event>
<event>
 7    1  0.5646756E-010  0.4778727E+02  0.7816164E-02  0.1312668E+00
        -11   -1    0    0    0    0  0.00000000000E+00  0.00000000000E+00  0.45593999997E+02  0.45594000000E+02  0.51100000000E-03 0.  1.
         11   -1    0    0    0    0 -0.00000000000E+00 -0.00000000000E+00 -0.45593999997E+02  0.45594000000E+02  0.51100000000E-03 0. -1.
    9900012    2    1    2    0    0 -0.25568618459E+02  0.19641688142E+02 -0.29052936156E+02  0.47787271179E+02  0.20000000613E+02 0.  0.
         12    1    1    2    0    0  0.25568618459E+02 -0.19641688142E+02  0.29052936156E+02  0.43400728821E+02  0.00000000000E+00 0. -1.
         11    1    3    3    0    0 -0.19297223504E+02  0.18172161984E+02 -0.27089835366E+02  0.37900784775E+02  0.51100000000E-03 0. -1.
        -11    1    3    3    0    0 -0.49073386564E+01  0.74779490050E+00 -0.46410989064E+01  0.67956581154E+01  0.51100000000E-03 0.  1.
         12    1    3    3    0    0 -0.13640562979E+01  0.72173125685E+00  0.26779981169E+01  0.30908282879E+01  0.00000000000E+00 0. -1.
</event>
<event>
 7    1  0.5646756E-010  0.4778728E+02  0.7816164E-02  0.1312668E+00
        -11   -1    0    0    0    0  0.00000000000E+00  0.00000000000E+00  0.45593999997E+02  0.45594000000E+02  0.51100000000E-03 0. -1.
         11   -1    0    0    0    0 -0.00000000000E+00 -0.00000000000E+00 -0.45593999997E+02  0.45594000000E+02  0.51100000000E-03 0.  1.
    9900012    2    1    2    0    0  0.31711583230E+02  0.13809091962E+02 -0.26216539856E+02  0.47787280031E+02  0.20000040975E+02 0.  0.
         12    1    1    2    0    0 -0.31711583230E+02 -0.13809091962E+02  0.26216539856E+02  0.43400719969E+02  0.00000000000E+00 0. -1.
         11    1    3    3    0    0  0.12455408559E+02  0.95960601879E+01 -0.72881989086E+01  0.17330303434E+02  0.51100000000E-03 0. -1.
        -11    1    3    3    0    0  0.17035716127E+02 -0.54906958229E+00 -0.18546054434E+02  0.25188752186E+02  0.51100000000E-03 0.  1.
        -12    1    3    3    0    0  0.22204585437E+01  0.47621013560E+01 -0.38228651336E+00  0.52682244113E+01  0.00000000000E+00 0.  1.
</event>
<event>
 7    1  0.5646756E-010  0.4778730E+02  0.7816164E-02  0.1312668E+00
        -11   -1    0    0    0    0  0.00000000000E+00  0.00000000000E+00  0.45593999997E+02  0.45594000000E+02  0.51100000000E-03 0.  1.
         11   -1    0    0    0    0 -0.00000000000E+00 -0.00000000000E+00 -0.45593999997E+02  0.45594000000E+02  0.51100000000E-03 0. -1.
    9900012    2    1    2    0    0 -0.38274910956E+01 -0.68409348878E+01  0.42686910428E+02  0.47787304152E+02  0.20000150950E+02 0.  0.
         12    1    1    2    0    0  0.38274910956E+01  0.68409348878E+01 -0.42686910428E+02  0.43400695848E+02  0.00000000000E+00 0. -1.
         11    1    3    3    0    0 -0.78962250496E+01 -0.28852157020E+01  0.14721909742E+02  0.16953155057E+02  0.51100000000E-03 0. -1.
        -11    1    3    3    0    0  0.41805331392E+01 -0.76154319088E+01  0.23533157033E+02  0.25085476688E+02  0.51100000000E-03 0.  1.
        -12    1    3    3    0    0 -0.11179918519E+00  0.36597127231E+01  0.44318436535E+01  0.57486724069E+01  0.00000000000E+00 0.  1.
</event>
<event>
 7    1  0.5646756E-010  0.4778721E+02  0.7816164E-02  0.1312668E+00
        -11   -1    0    0    0    0  0.00000000000E+00  0.00000000000E+00  0.45593999997E+02  0.45594000000E+02  0.51100000000E-03 0.  1.
         11   -1    0    0    0    0 -0.00000000000E+00 -0.00000000000E+00 -0.45593999997E+02  0.45594000000E+02  0.51100000000E-03 0. -1.
    9900012    2    1    2    0    0 -0.21052672204E+02 -0.12382822076E+02  0.35875883394E+02  0.47787213155E+02  0.19999736056E+02 0.  0.
         12    1    1    2    0    0  0.21052672204E+02  0.12382822076E+02 -0.35875883394E+02  0.43400786845E+02  0.00000000000E+00 0. -1.
         11    1    3    3    0    0  0.28287187827E+01  0.60108676422E+00  0.80720690904E+00  0.30024221064E+01  0.51100000000E-03 0. -1.
        -11    1    3    3    0    0 -0.45981424189E+01 -0.39149558176E+01  0.45430011597E+01  0.75570267008E+01  0.51100000000E-03 0.  1.
         12    1    3    3    0    0 -0.19283248568E+02 -0.90689530222E+01  0.30525675325E+02  0.37227764348E+02  0.00000000000E+00 0. -1.
</event>
<event>
 7    1  0.5646756E-010  0.4778726E+02  0.7816164E-02  0.1312668E+00
        -11   -1    0    0    0    0  0.00000000000E+00  0.00000000000E+00  0.45593999997E+02  0.45594000000E+02  0.51100000000E-03 0. -1.
         11   -1    0    0    0    0 -0.00000000000E+00 -0.00000000000E+00 -0.45593999997E+02  0.45594000000E+02  0.51100000000E-03 0.  1.
    9900012    2    1    2    0    0  0.16385711271E+02  0.37269356254E+02 -0.15037533304E+02  0.47787264323E+02  0.19999969353E+02 0.  0.
         12    1    1    2    0    0 -0.16385711271E+02 -0.37269356254E+02  0.15037533304E+02  0.43400735677E+02  0.00000000000E+00 0. -1.
         11    1    3    3    0    0  0.18249590545E+02  0.24253060187E+02 -0.12756210421E+02  0.32923842244E+02  0.51100000000E-03 0. -1.
        -11    1    3    3    0    0 -0.34907737192E+01  0.80346771715E+01 -0.35813797291E+01  0.94640276539E+01  0.51100000000E-03 0.  1.
         12    1    3    3    0    0  0.16268944447E+01  0.49816188954E+01  0.13000568465E+01  0.53993944251E+01  0.00000000000E+00 0. -1.
</event>
<event>
 7    1  0.5646756E-010  0.4778726E+02  0.7816164E-02  0.1312668E+00
        -11   -1    0    0    0    0  0.00000000000E+00  0.00000000000E+00  0.45593999997E+02  0.45594000000E+02  0.51100000000E-03 0.  1.
         11   -1    0    0    0    0 -0.00000000000E+00 -0.00000000000E+00 -0.45593999997E+02  0.45594000000E+02  0.51100000000E-03 0. -1.
    9900012    2    1    2    0    0  0.22372575571E+02 -0.13484870946E+02  0.34659053091E+02  0.47787264485E+02  0.19999970092E+02 0.  0.
         12    1    1    2    0    0 -0.22372575571E+02  0.13484870946E+02 -0.34659053091E+02  0.43400735515E+02  0.00000000000E+00 0. -1.
         11    1    3    3    0    0  0.43574176810E+01 -0.35331670763E+00  0.11339771901E+00  0.43731888647E+01  0.51100000000E-03 0. -1.
        -11    1    3    3    0    0  0.16853099548E+02 -0.10736967376E+02  0.35372768406E+02  0.40626865222E+02  0.51100000000E-03 0.  1.
        -12    1    3    3    0    0  0.11620583424E+01 -0.23945868625E+01 -0.82711303412E+00  0.27872103983E+01  0.00000000000E+00 0.  1.
</event>
<event>
 7    1  0.5646756E-010  0.4778728E+02  0.7816164E-02  0.1312668E+00
        -11   -1    0    0    0    0  0.00000000000E+00  0.00000000000E+00  0.45593999997E+02  0.45594000000E+02  0.51100000000E-03 0.  1.
         11   -1    0    0    0    0 -0.00000000000E+00 -0.00000000000E+00 -0.45593999997E+02  0.45594000000E+02  0.51100000000E-03 0. -1.
    9900012    2    1    2    0    0 -0.14263603888E+02 -0.24034418957E+01  0.40919383177E+02  0.47787275946E+02  0.20000022350E+02 0.  0.
         12    1    1    2    0    0  0.14263603888E+02  0.24034418957E+01 -0.40919383177E+02  0.43400724054E+02  0.00000000000E+00 0. -1.
         11    1    3    3    0    0 -0.49486647461E+00 -0.10176246744E+01 -0.18946550333E+00  0.11473230773E+01  0.51100000000E-03 0. -1.
        -11    1    3    3    0    0 -0.42009524870E+01  0.75668545551E+01  0.12873223187E+02  0.15512097380E+02  0.51100000000E-03 0.  1.
        -12    1    3    3    0    0 -0.95677849268E+01 -0.89526717765E+01  0.28235625493E+02  0.31127855489E+02  0.00000000000E+00 0.  1.
</event>
<event>
 7    1  0.5646756E-010  0.4778727E+02  0.7816164E-02  0.1312668E+00
        -11   -1    0    0    0    0  0.00000000000E+00  0.00000000000E+00  0.45593999997E+02  0.45594000000E+02  0.51100000000E-03 0.  1.
         11   -1    0    0    0    0 -0.00000000000E+00 -0.00000000000E+00 -0.45593999997E+02  0.45594000000E+02  0.51100000000E-03 0. -1.
    9900012    2    1    2    0    0 -0.23429010799E+02  0.36271778182E+02 -0.43660880937E+01  0.47787272302E+02  0.20000005732E+02 0.  0.
         12    1    1    2    0    0  0.23429010799E+02 -0.36271778182E+02  0.43660880937E+01  0.43400727698E+02  0.00000000000E+00 0. -1.
         11    1    3    3    0    0 -0.10434176383E+01 -0.16055568057E+01  0.34324763921E+00  0.19453411596E+01  0.51100000000E-03 0. -1.
        -11    1    3    3    0    0 -0.21894326434E+02  0.33030309363E+02 -0.86712691879E+00  0.39637290220E+02  0.51100000000E-03 0.  1.
         12    1    3    3    0    0 -0.49126672730E+00  0.48470256244E+01 -0.38422088141E+01  0.62046409221E+01  0.00000000000E+00 0. -1.
</event>
<event>
 7    1  0.5646756E-010  0.4778727E+02  0.7816164E-02  0.1312668E+00
        -11   -1    0    0    0    0  0.00000000000E+00  0.00000000000E+00  0.45593999997E+02  0.45594000000E+02  0.51100000000E-03 0. -1.
         11   -1    0    0    0    0 -0.00000000000E+00 -0.00000000000E+00 -0.45593999997E+02  0.45594000000E+02  0.51100000000E-03 0.  1.
    9900012    2    1    2    0    0  0.31279520368E+02 -0.25092564764E+02 -0.16600542176E+02  0.47787271879E+02  0.20000003807E+02 0.  0.
         12    1    1    2    0    0 -0.31279520368E+02  0.25092564764E+02  0.16600542176E+02  0.43400728121E+02  0.00000000000E+00 0. -1.
         11    1    3    3    0    0  0.18270978345E+02 -0.12858473874E+02 -0.38444101019E+01  0.22670432051E+02  0.51100000000E-03 0. -1.
        -11    1    3    3    0    0  0.49710871317E+01 -0.10577967347E+01 -0.97959350699E+01  0.11035895313E+02  0.51100000000E-03 0.  1.
        -12    1    3    3    0    0  0.80374548907E+01 -0.11176294155E+02 -0.29601970039E+01  0.14080944516E+02  0.00000000000E+00 0.  1.
</event>
<event>
 7    1  0.5646756E-010  0.4778727E+02  0.7816164E-02  0.1312668E+00
        -11   -1    0    0    0    0  0.00000000000E+00  0.00000000000E+00  0.45593999997E+02  0.45594000000E+02  0.51100000000E-03 0. -1.
         11   -1    0    0    0    0 -0.00000000000E+00 -0.00000000000E+00 -0.45593999997E+02  0.45594000000E+02  0.51100000000E-03 0.  1.
    9900012    2    1    2    0    0  0.23339930205E+02 -0.14440923998E+02 -0.33620392980E+02  0.47787268992E+02  0.19999990643E+02 0.  0.
         12    1    1    2    0    0 -0.23339930205E+02  0.14440923998E+02  0.33620392980E+02  0.43400731008E+02  0.00000000000E+00 0. -1.
         11    1    3    3    0    0  0.14807957612E+02 -0.14426881452E+02 -0.21944171650E+02  0.30148916842E+02  0.51100000000E-03 0. -1.
        -11    1    3    3    0    0  0.29155406669E+01 -0.48334873600E+01 -0.36560088031E+01  0.67252790328E+01  0.51100000000E-03 0.  1.
         12    1    3    3    0    0  0.56164319266E+01  0.48194448142E+01 -0.80202125267E+01  0.10913073118E+02  0.00000000000E+00 0. -1.
</event>
<event>
 7    1  0.5646756E-010  0.4778727E+02  0.7816164E-02  0.1312668E+00
        -11   -1    0    0    0    0  0.00000000000E+00  0.00000000000E+00  0.45593999997E+02  0.45594000000E+02  0.51100000000E-03 0.  1.
         11   -1    0    0    0    0 -0.00000000000E+00 -0.00000000000E+00 -0.45593999997E+02  0.45594000000E+02  0.51100000000E-03 0. -1.
    9900012    2    1    2    0    0  0.39884974781E+02  0.16751762131E+02 -0.34914569950E+01  0.47787273972E+02  0.20000013348E+02 0.  0.
         12    1    1    2    0    0 -0.39884974781E+02 -0.16751762131E+02  0.34914569950E+01  0.43400726028E+02  0.00000000000E+00 0. -1.
         11    1    3    3    0    0  0.15024123700E+02  0.14553091933E+02  0.12263769606E+01  0.20952822685E+02  0.51100000000E-03 0. -1.
        -11    1    3    3    0    0  0.13402916667E+02 -0.10729093342E+01  0.12572494704E+01  0.13504443199E+02  0.51100000000E-03 0.  1.
         12    1    3    3    0    0  0.11457934414E+02  0.32715795323E+01 -0.59750834260E+01  0.13330008088E+02  0.00000000000E+00 0. -1.
</event>
<event>
 7    1  0.5646756E-010  0.4778727E+02  0.7816164E-02  0.1312668E+00
        -11   -1    0    0    0    0  0.00000000000E+00  0.00000000000E+00  0.45593999997E+02  0.45594000000E+02  0.51100000000E-03 0.  1.
         11   -1    0    0    0    0 -0.00000000000E+00 -0.00000000000E+00 -0.45593999997E+02  0.45594000000E+02  0.51100000000E-03 0. -1.
    9900012    2    1    2    0    0  0.34553437439E+02 -0.19038138490E+02 -0.18089570310E+02  0.47787270628E+02  0.19999998102E+02 0.  0.
         12    1    1    2    0    0 -0.34553437439E+02  0.19038138490E+02  0.18089570310E+02  0.43400729372E+02  0.00000000000E+00 0. -1.
         11    1    3    3    0    0 -0.16176827488E+01 -0.79664917071E-01  0.12327113164E+01  0.20353922043E+01  0.51100000000E-03 0. -1.
        -11    1    3    3    0    0  0.18969818768E+02 -0.12649974723E+02 -0.77513154103E+01  0.24082333264E+02  0.51100000000E-03 0.  1.
         12    1    3    3    0    0  0.17201301420E+02 -0.63084988503E+01 -0.11570966216E+02  0.21669545160E+02  0.00000000000E+00 0. -1.
</event>
<event>
 7    1  0.5646756E-010  0.4778727E+02  0.7816164E-02  0.1312668E+00
        -11   -1    0    0    0    0  0.00000000000E+00  0.00000000000E+00  0.45593999997E+02  0.45594000000E+02  0.51100000000E-03 0.  1.
         11   -1    0    0    0    0 -0.00000000000E+00 -0.00000000000E+00 -0.45593999997E+02  0.45594000000E+02  0.51100000000E-03 0. -1.
    9900012    2    1    2    0    0  0.14814623483E+02 -0.10849486716E+02  0.39324786385E+02  0.47787271260E+02  0.20000000981E+02 0.  0.
         12    1    1    2    0    0 -0.14814623483E+02  0.10849486716E+02 -0.39324786385E+02  0.43400728740E+02  0.00000000000E+00 0. -1.
         11    1    3    3    0    0 -0.37102402753E+00 -0.56823355891E+01  0.32034251116E+01  0.65336459410E+01  0.51100000000E-03 0. -1.
        -11    1    3    3    0    0  0.13549973181E+02 -0.78963096554E+01  0.33962366155E+02  0.37408498961E+02  0.51100000000E-03 0.  1.
        -12    1    3    3    0    0  0.16356743294E+01  0.27291585286E+01  0.21589951188E+01  0.38451263580E+01  0.00000000000E+00 0.  1.
</event>
<event>
 7    1  0.5646756E-010  0.4778728E+02  0.7816164E-02  0.1312668E+00
        -11   -1    0    0    0    0  0.00000000000E+00  0.00000000000E+00  0.45593999997E+02  0.45594000000E+02  0.51100000000E-03 0.  1.
         11   -1    0    0    0    0 -0.00000000000E+00 -0.00000000000E+00 -0.45593999997E+02  0.45594000000E+02  0.51100000000E-03 0. -1.
    9900012    2    1    2    0    0 -0.14114569852E+02 -0.30934743892E+02  0.26971144359E+02  0.47787284686E+02  0.20000062198E+02 0.  0.
         12    1    1    2    0    0  0.14114569852E+02  0.30934743892E+02 -0.26971144359E+02  0.43400715314E+02  0.00000000000E+00 0. -1.
         11    1    3    3    0    0  0.73742662640E+00 -0.15556060042E+02  0.91156345359E+01  0.18045209761E+02  0.51100000000E-03 0. -1.
        -11    1    3    3    0    0 -0.22902839029E+01 -0.94484660834E+01  0.56131288148E+01  0.11226135891E+02  0.51100000000E-03 0.  1.
         12    1    3    3    0    0 -0.12561712575E+02 -0.59302177658E+01  0.12242381008E+02  0.18515939034E+02  0.00000000000E+00 0. -1.
</event>
<event>
 7    1  0.5646756E-010  0.4778727E+02  0.7816164E-02  0.1312668E+00
        -11   -1    0    0    0    0  0.00000000000E+00  0.00000000000E+00  0.45593999997E+02  0.45594000000E+02  0.51100000000E-03 0.  1.
         11   -1    0    0    0    0 -0.00000000000E+00 -0.00000000000E+00 -0.45593999997E+02  0.45594000000E+02  0.51100000000E-03 0. -1.
    9900012    2    1    2    0    0  0.30627990289E+01  0.29414217000E+02  0.31765489552E+02  0.47787271595E+02  0.20000002509E+02 0.  0.
         12    1    1    2    0    0 -0.30627990289E+01 -0.29414217000E+02 -0.31765489552E+02  0.43400728405E+02  0.00000000000E+00 0. -1.
         11    1    3    3    0    0  0.75224413596E+01  0.23127638648E+01  0.72528846174E+01  0.10702351902E+02  0.51100000000E-03 0. -1.
        -11    1    3    3    0    0 -0.91557801056E+00  0.18439231109E+02  0.16666313378E+02  0.24871862191E+02  0.51100000000E-03 0.  1.
         12    1    3    3    0    0 -0.35440643202E+01  0.86622220262E+01  0.78462915568E+01  0.12213057501E+02  0.00000000000E+00 0. -1.
</event>
<event>
 7    1  0.5646756E-010  0.4778727E+02  0.7816164E-02  0.1312668E+00
        -11   -1    0    0    0    0  0.00000000000E+00  0.00000000000E+00  0.45593999997E+02  0.45594000000E+02  0.51100000000E-03 0.  1.
         11   -1    0    0    0    0 -0.00000000000E+00 -0.00000000000E+00 -0.45593999997E+02  0.45594000000E+02  0.51100000000E-03 0. -1.
    9900012    2    1    2    0    0  0.26405389233E+02 -0.33918218752E+02  0.59944075468E+01  0.47787273443E+02  0.20000010935E+02 0.  0.
         12    1    1    2    0    0 -0.26405389233E+02  0.33918218752E+02 -0.59944075468E+01  0.43400726557E+02  0.00000000000E+00 0. -1.
         11    1    3    3    0    0 -0.58964529775E+00 -0.51860356041E+01  0.26015866656E+01  0.58318865133E+01  0.51100000000E-03 0. -1.
        -11    1    3    3    0    0  0.24373527718E+02 -0.28905550463E+02  0.18694307947E+00  0.37810509769E+02  0.51100000000E-03 0.  1.
        -12    1    3    3    0    0  0.26215068124E+01  0.17336731541E+00  0.32058778017E+01  0.41448771602E+01  0.00000000000E+00 0.  1.
</event>
<event>
 7    1  0.5646756E-010  0.4778727E+02  0.7816164E-02  0.1312668E+00
        -11   -1    0    0    0    0  0.00000000000E+00  0.00000000000E+00  0.45593999997E+02  0.45594000000E+02  0.51100000000E-03 0.  1.
         11   -1    0    0    0    0 -0.00000000000E+00 -0.00000000000E+00 -0.45593999997E+02  0.45594000000E+02  0.51100000000E-03 0. -1.
    9900012    2    1    2    0    0  0.31657136372E+02  0.39623973028E+01  0.29423604156E+02  0.47787270084E+02  0.19999995623E+02 0.  0.
         12    1    1    2    0    0 -0.31657136372E+02 -0.39623973028E+01 -0.29423604156E+02  0.43400729916E+02  0.00000000000E+00 0. -1.
         11    1    3    3    0    0  0.15249714911E+02 -0.46252162153E+01  0.18737977858E+02  0.24597931709E+02  0.51100000000E-03 0.  1.
        -11    1    3    3    0    0  0.14827025062E+02  0.38071376753E+01  0.64563800066E+01  0.16613844001E+02  0.51100000000E-03 0. -1.
         12    1    3    3    0    0  0.15803963990E+01  0.47804758428E+01  0.42292462920E+01  0.65754943738E+01  0.00000000000E+00 0. -1.
</event>
<event>
 7    1  0.5646756E-010  0.4778727E+02  0.7816164E-02  0.1312668E+00
        -11   -1    0    0    0    0  0.00000000000E+00  0.00000000000E+00  0.45593999997E+02  0.45594000000E+02  0.51100000000E-03 0. -1.
         11   -1    0    0    0    0 -0.00000000000E+00 -0.00000000000E+00 -0.45593999997E+02  0.45594000000E+02  0.51100000000E-03 0.  1.
    9900012    2    1    2    0    0 -0.20290069461E+01  0.38940194024E+02 -0.19056959902E+02  0.47787270737E+02  0.19999998599E+02 0.  0.
         12    1    1    2    0    0  0.20290069461E+01 -0.38940194024E+02  0.19056959902E+02  0.43400729263E+02  0.00000000000E+00 0. -1.
         11    1    3    3    0    0  0.12957560696E+01 -0.16790597392E+01 -0.35373723530E+00  0.21501989891E+01  0.51100000000E-03 0. -1.
        -11    1    3    3    0    0 -0.48068971261E+01  0.11566459987E+02 -0.61419450738E+01  0.13950367241E+02  0.51100000000E-03 0.  1.
         12    1    3    3    0    0  0.14821341104E+01  0.29052793777E+02 -0.12561277593E+02  0.31686704507E+02  0.00000000000E+00 0. -1.
</event>
<event>
 7    1  0.5646756E-010  0.4778728E+02  0.7816164E-02  0.1312668E+00
        -11   -1    0    0    0    0  0.00000000000E+00  0.00000000000E+00  0.45593999997E+02  0.45594000000E+02  0.51100000000E-03 0. -1.
         11   -1    0    0    0    0 -0.00000000000E+00 -0.00000000000E+00 -0.45593999997E+02  0.45594000000E+02  0.51100000000E-03 0.  1.
    9900012    2    1    2    0    0  0.63359532367E+01 -0.17138453964E+02 -0.39366879788E+02  0.47787284200E+02  0.20000059981E+02 0.  0.
         12    1    1    2    0    0 -0.63359532367E+01  0.17138453964E+02  0.39366879788E+02  0.43400715800E+02  0.00000000000E+00 0. -1.
         11    1    3    3    0    0 -0.38084857045E+01 -0.11997321424E+02 -0.10669086476E+02  0.16500596692E+02  0.51100000000E-03 0. -1.
        -11    1    3    3    0    0  0.73690701259E+01 -0.18251975733E+01 -0.22365326919E+02  0.23618687287E+02  0.51100000000E-03 0.  1.
        -12    1    3    3    0    0  0.27753688153E+01 -0.33159349665E+01 -0.63324663934E+01  0.76680002208E+01  0.00000000000E+00 0.  1.
</event>
<event>
 7    1  0.5646756E-010  0.4778727E+02  0.7816164E-02  0.1312668E+00
        -11   -1    0    0    0    0  0.00000000000E+00  0.00000000000E+00  0.45593999997E+02  0.45594000000E+02  0.51100000000E-03 0.  1.
         11   -1    0    0    0    0 -0.00000000000E+00 -0.00000000000E+00 -0.45593999997E+02  0.45594000000E+02  0.51100000000E-03 0. -1.
    9900012    2    1    2    0    0 -0.20311849086E+02  0.16139248990E+02  0.34793341142E+02  0.47787272367E+02  0.20000006031E+02 0.  0.
         12    1    1    2    0    0  0.20311849086E+02 -0.16139248990E+02 -0.34793341142E+02  0.43400727633E+02  0.00000000000E+00 0. -1.
         11    1    3    3    0    0 -0.12989028776E+02  0.19306982791E+02  0.23053682323E+02  0.32755865458E+02  0.51100000000E-03 0. -1.
        -11    1    3    3    0    0 -0.41182609922E+01 -0.33688295147E+01  0.10123976691E+02  0.11436957209E+02  0.51100000000E-03 0.  1.
         12    1    3    3    0    0 -0.32045593180E+01  0.20109571421E+00  0.16156821283E+01  0.35944497004E+01  0.00000000000E+00 0. -1.
</event>
<event>
 7    1  0.5646756E-010  0.4778729E+02  0.7816164E-02  0.1312668E+00
        -11   -1    0    0    0    0  0.00000000000E+00  0.00000000000E+00  0.45593999997E+02  0.45594000000E+02  0.51100000000E-03 0. -1.
         11   -1    0    0    0    0 -0.00000000000E+00 -0.00000000000E+00 -0.45593999997E+02  0.45594000000E+02  0.51100000000E-03 0.  1.
    9900012    2    1    2    0    0  0.32243049805E+02  0.28952224491E+02 -0.24033127897E+01  0.47787291757E+02  0.20000094435E+02 0.  0.
         12    1    1    2    0    0 -0.32243049805E+02 -0.28952224491E+02  0.24033127897E+01  0.43400708243E+02  0.00000000000E+00 0. -1.
         11    1    3    3    0    0  0.54311294700E+01  0.74447141123E+01  0.57053210970E+01  0.10838432756E+02  0.51100000000E-03 0. -1.
        -11    1    3    3    0    0  0.26029795367E+02  0.16161236519E+02 -0.71359661981E+01  0.31458827481E+02  0.51100000000E-03 0.  1.
        -12    1    3    3    0    0  0.78212496820E+00  0.53462738597E+01 -0.97266768867E+00  0.54900315191E+01  0.00000000000E+00 0.  1.
</event>
<event>
 7    1  0.5646756E-010  0.4778727E+02  0.7816164E-02  0.1312668E+00
        -11   -1    0    0    0    0  0.00000000000E+00  0.00000000000E+00  0.45593999997E+02  0.45594000000E+02  0.51100000000E-03 0. -1.
         11   -1    0    0    0    0 -0.00000000000E+00 -0.00000000000E+00 -0.45593999997E+02  0.45594000000E+02  0.51100000000E-03 0.  1.
    9900012    2    1    2    0    0 -0.65756493131E+01  0.75206035877E+01 -0.42235349717E+02  0.47787269500E+02  0.19999992959E+02 0.  0.
         12    1    1    2    0    0  0.65756493131E+01 -0.75206035877E+01  0.42235349717E+02  0.43400730500E+02  0.00000000000E+00 0. -1.
         11    1    3    3    0    0  0.17384405476E+01 -0.65508228502E+00 -0.25608726109E+02  0.25676023086E+02  0.51100000000E-03 0. -1.
        -11    1    3    3    0    0 -0.92582884353E+00  0.70070372982E+01 -0.73934873703E+01  0.10228361868E+02  0.51100000000E-03 0.  1.
         12    1    3    3    0    0 -0.73882610172E+01  0.11686485746E+01 -0.92331362375E+01  0.11882884546E+02  0.00000000000E+00 0. -1.
</event>
<event>
 7    1  0.5646756E-010  0.4778727E+02  0.7816164E-02  0.1312668E+00
        -11   -1    0    0    0    0  0.00000000000E+00  0.00000000000E+00  0.45593999997E+02  0.45594000000E+02  0.51100000000E-03 0. -1.
         11   -1    0    0    0    0 -0.00000000000E+00 -0.00000000000E+00 -0.45593999997E+02  0.45594000000E+02  0.51100000000E-03 0.  1.
    9900012    2    1    2    0    0 -0.10064747606E+02  0.86458779035E+01 -0.41322786613E+02  0.47787273710E+02  0.20000012151E+02 0.  0.
         12    1    1    2    0    0  0.10064747606E+02 -0.86458779035E+01  0.41322786613E+02  0.43400726290E+02  0.00000000000E+00 0. -1.
         11    1    3    3    0    0 -0.96766351484E+01  0.71225423204E+00 -0.79410690143E+01  0.12538147839E+02  0.51100000000E-03 0. -1.
        -11    1    3    3    0    0 -0.32560306100E+01  0.75911667855E+01 -0.21791386641E+02  0.23304336088E+02  0.51100000000E-03 0.  1.
         12    1    3    3    0    0  0.28679181520E+01  0.34245688596E+00 -0.11590330957E+02  0.11944789782E+02  0.00000000000E+00 0. -1.
</event>
<event>
 7    1  0.5646756E-010  0.4778728E+02  0.7816164E-02  0.1312668E+00
        -11   -1    0    0    0    0  0.00000000000E+00  0.00000000000E+00  0.45593999997E+02  0.45594000000E+02  0.51100000000E-03 0. -1.
         11   -1    0    0    0    0 -0.00000000000E+00 -0.00000000000E+00 -0.45593999997E+02  0.45594000000E+02  0.51100000000E-03 0.  1.
    9900012    2    1    2    0    0  0.38102821795E+02 -0.42183325891E+01 -0.20347071432E+02  0.47787277950E+02  0.20000031485E+02 0.  0.
         12    1    1    2    0    0 -0.38102821795E+02  0.42183325891E+01  0.20347071432E+02  0.43400722050E+02  0.00000000000E+00 0. -1.
         11    1    3    3    0    0  0.60798327521E+01 -0.66661219143E+01 -0.38886001873E+01  0.98245997042E+01  0.51100000000E-03 0. -1.
        -11    1    3    3    0    0  0.13474730674E+00 -0.20038173409E+01 -0.83832802013E+00  0.21762892507E+01  0.51100000000E-03 0.  1.
         12    1    3    3    0    0  0.31888241737E+02  0.44516066661E+01 -0.15620143224E+02  0.35786388995E+02  0.00000000000E+00 0. -1.
</event>
<event>
 7    1  0.5898636E-010  0.4778726E+02  0.7816164E-02  0.1312668E+00
        -11   -1    0    0    0    0  0.00000000000E+00  0.00000000000E+00  0.45593999997E+02  0.45594000000E+02  0.51100000000E-03 0.  1.
         11   -1    0    0    0    0 -0.00000000000E+00 -0.00000000000E+00 -0.45593999997E+02  0.45594000000E+02  0.51100000000E-03 0. -1.
    9900012    2    1    2    0    0 -0.30149193476E+02  0.12161980912E+02  0.28753020006E+02  0.47787264909E+02  0.19999972024E+02 0.  0.
         12    1    1    2    0    0  0.30149193476E+02 -0.12161980912E+02 -0.28753020006E+02  0.43400735091E+02  0.00000000000E+00 0. -1.
         11    1    3    3    0    0  0.38371094290E-01 -0.12960767042E+01  0.93785793691E+00  0.16002702694E+01  0.51100000000E-03 0. -1.
        -11    1    3    3    0    0 -0.58504857322E+01  0.70546257763E+01  0.15879632702E+02  0.18334630161E+02  0.51100000000E-03 0.  1.
        -12    1    3    3    0    0 -0.24337078839E+02  0.64034318398E+01  0.11935529368E+02  0.27852364478E+02  0.00000000000E+00 0.  1.
</event>
<event>
 7    1  0.5646756E-010  0.4778727E+02  0.7816164E-02  0.1312668E+00
        -11   -1    0    0    0    0  0.00000000000E+00  0.00000000000E+00  0.45593999997E+02  0.45594000000E+02  0.51100000000E-03 0.  1.
         11   -1    0    0    0    0 -0.00000000000E+00 -0.00000000000E+00 -0.45593999997E+02  0.45594000000E+02  0.51100000000E-03 0. -1.
    9900012    2    1    2    0    0  0.26265364987E+02 -0.11132516427E+02  0.32708122894E+02  0.47787267020E+02  0.19999981653E+02 0.  0.
         12    1    1    2    0    0 -0.26265364987E+02  0.11132516427E+02 -0.32708122894E+02  0.43400732980E+02  0.00000000000E+00 0. -1.
         11    1    3    3    0    0  0.19153343971E+02 -0.33872028395E+01  0.19861083405E+02  0.27799035282E+02  0.51100000000E-03 0. -1.
        -11    1    3    3    0    0 -0.27071943426E+01 -0.13964733885E+01  0.69553726992E+00  0.31245498058E+01  0.51100000000E-03 0.  1.
        -12    1    3    3    0    0  0.98192153593E+01 -0.63488401990E+01  0.12151502219E+02  0.16863681933E+02  0.00000000000E+00 0.  1.
</event>
<event>
 7    1  0.5646756E-010  0.4778727E+02  0.7816164E-02  0.1312668E+00
        -11   -1    0    0    0    0  0.00000000000E+00  0.00000000000E+00  0.45593999997E+02  0.45594000000E+02  0.51100000000E-03 0.  1.
         11   -1    0    0    0    0 -0.00000000000E+00 -0.00000000000E+00 -0.45593999997E+02  0.45594000000E+02  0.51100000000E-03 0. -1.
    9900012    2    1    2    0    0  0.18771636733E+02 -0.14224556344E+02  0.36454232639E+02  0.47787269291E+02  0.19999992004E+02 0.  0.
         12    1    1    2    0    0 -0.18771636733E+02  0.14224556344E+02 -0.36454232639E+02  0.43400730709E+02  0.00000000000E+00 0. -1.
         11    1    3    3    0    0  0.14039075543E+02 -0.11326767031E+01  0.86492263250E+01  0.16528391177E+02  0.51100000000E-03 0. -1.
        -11    1    3    3    0    0  0.15464337532E+01 -0.86943711623E+01  0.16373355446E+02  0.18602965250E+02  0.51100000000E-03 0.  1.
         12    1    3    3    0    0  0.31861274365E+01 -0.43975084783E+01  0.11431650868E+02  0.12655912864E+02  0.00000000000E+00 0. -1.
</event>
<event>
 7    1  0.5646756E-010  0.4778727E+02  0.7816164E-02  0.1312668E+00
        -11   -1    0    0    0    0  0.00000000000E+00  0.00000000000E+00  0.45593999997E+02  0.45594000000E+02  0.51100000000E-03 0. -1.
         11   -1    0    0    0    0 -0.00000000000E+00 -0.00000000000E+00 -0.45593999997E+02  0.45594000000E+02  0.51100000000E-03 0.  1.
    9900012    2    1    2    0    0  0.94692542739E+01  0.30410710323E+02 -0.29481272154E+02  0.47787268593E+02  0.19999988822E+02 0.  0.
         12    1    1    2    0    0 -0.94692542739E+01 -0.30410710323E+02  0.29481272154E+02  0.43400731407E+02  0.00000000000E+00 0. -1.
         11    1    3    3    0    0  0.68172260414E+01  0.27431912443E+02 -0.18393667074E+02  0.33724047502E+02  0.51100000000E-03 0. -1.
        -11    1    3    3    0    0  0.31057013598E+01 -0.84107130045E+00 -0.92626038498E+01  0.98055398734E+01  0.51100000000E-03 0.  1.
        -12    1    3    3    0    0 -0.45367312734E+00  0.38198691805E+01 -0.18250012295E+01  0.42576812175E+01  0.00000000000E+00 0.  1.
</event>
<event>
 7    1  0.5646756E-010  0.4778728E+02  0.7816164E-02  0.1312668E+00
        -11   -1    0    0    0    0  0.00000000000E+00  0.00000000000E+00  0.45593999997E+02  0.45594000000E+02  0.51100000000E-03 0.  1.
         11   -1    0    0    0    0 -0.00000000000E+00 -0.00000000000E+00 -0.45593999997E+02  0.45594000000E+02  0.51100000000E-03 0. -1.
    9900012    2    1    2    0    0  0.18259518025E+02 -0.43256223851E+01  0.39134399426E+02  0.47787283117E+02  0.20000055042E+02 0.  0.
         12    1    1    2    0    0 -0.18259518025E+02  0.43256223851E+01 -0.39134399426E+02  0.43400716883E+02  0.00000000000E+00 0. -1.
         11    1    3    3    0    0  0.14917830258E+02 -0.48004397323E+01  0.20022338203E+02  0.25425969177E+02  0.51100000000E-03 0.  1.
        -11    1    3    3    0    0 -0.15458731825E+01 -0.39849918052E+01  0.11537827897E+02  0.12304119490E+02  0.51100000000E-03 0. -1.
         12    1    3    3    0    0  0.48875609498E+01  0.44598091524E+01  0.75742333263E+01  0.10057194450E+02  0.00000000000E+00 0. -1.
</event>
<event>
 7    1  0.5646756E-010  0.4778727E+02  0.7816164E-02  0.1312668E+00
        -11   -1    0    0    0    0  0.00000000000E+00  0.00000000000E+00  0.45593999997E+02  0.45594000000E+02  0.51100000000E-03 0. -1.
         11   -1    0    0    0    0 -0.00000000000E+00 -0.00000000000E+00 -0.45593999997E+02  0.45594000000E+02  0.51100000000E-03 0.  1.
    9900012    2    1    2    0    0 -0.16410875547E+02 -0.16329181494E+02 -0.36710545084E+02  0.47787272761E+02  0.20000007826E+02 0.  0.
         12    1    1    2    0    0  0.16410875547E+02  0.16329181494E+02  0.36710545084E+02  0.43400727239E+02  0.00000000000E+00 0. -1.
         11    1    3    3    0    0 -0.95932542715E+01 -0.70841018164E+01 -0.29303665925E+02  0.31637317569E+02  0.51100000000E-03 0. -1.
        -11    1    3    3    0    0 -0.60035685866E+01 -0.59273750319E+01 -0.90385714929E+01  0.12364157288E+02  0.51100000000E-03 0.  1.
         12    1    3    3    0    0 -0.81405268927E+00 -0.33177046462E+01  0.16316923334E+01  0.37857979042E+01  0.00000000000E+00 0. -1.
</event>
<event>
 7    1  0.5646756E-010  0.4778727E+02  0.7816164E-02  0.1312668E+00
        -11   -1    0    0    0    0  0.00000000000E+00  0.00000000000E+00  0.45593999997E+02  0.45594000000E+02  0.51100000000E-03 0.  1.
         11   -1    0    0    0    0 -0.00000000000E+00 -0.00000000000E+00 -0.45593999997E+02  0.45594000000E+02  0.51100000000E-03 0. -1.
    9900012    2    1    2    0    0  0.17711012091E+01 -0.32716010581E+02  0.28463117368E+02  0.47787271917E+02  0.20000003979E+02 0.  0.
         12    1    1    2    0    0 -0.17711012091E+01  0.32716010581E+02 -0.28463117368E+02  0.43400728083E+02  0.00000000000E+00 0. -1.
         11    1    3    3    0    0  0.14201769324E+01  0.13059572551E+00  0.36716829386E+01  0.39389355955E+01  0.51100000000E-03 0. -1.
        -11    1    3    3    0    0  0.38157746731E+01 -0.20722850202E+02  0.22863953561E+02  0.31092716664E+02  0.51100000000E-03 0.  1.
        -12    1    3    3    0    0 -0.34648503963E+01 -0.12123756105E+02  0.19274808686E+01  0.12755619658E+02  0.00000000000E+00 0.  1.
</event>
<event>
 7    1  0.5646756E-010  0.4778727E+02  0.7816164E-02  0.1312668E+00
        -11   -1    0    0    0    0  0.00000000000E+00  0.00000000000E+00  0.45593999997E+02  0.45594000000E+02  0.51100000000E-03 0. -1.
         11   -1    0    0    0    0 -0.00000000000E+00 -0.00000000000E+00 -0.45593999997E+02  0.45594000000E+02  0.51100000000E-03 0.  1.
    9900012    2    1    2    0    0 -0.35431482604E+02 -0.15433194088E+02  0.19749677326E+02  0.47787271968E+02  0.20000004209E+02 0.  0.
         12    1    1    2    0    0  0.35431482604E+02  0.15433194088E+02 -0.19749677326E+02  0.43400728032E+02  0.00000000000E+00 0. -1.
         11    1    3    3    0    0 -0.46791305468E+01 -0.52439770558E+00 -0.22646706057E+01  0.52247477299E+01  0.51100000000E-03 0.  1.
        -11    1    3    3    0    0 -0.28429570263E+02 -0.86861400574E+01  0.18901665395E+02  0.35227296936E+02  0.51100000000E-03 0. -1.
         12    1    3    3    0    0 -0.23227817945E+01 -0.62226563247E+01  0.31126825365E+01  0.73352273021E+01  0.00000000000E+00 0. -1.
</event>
<event>
 7    1  0.5646756E-010  0.4778727E+02  0.7816164E-02  0.1312668E+00
        -11   -1    0    0    0    0  0.00000000000E+00  0.00000000000E+00  0.45593999997E+02  0.45594000000E+02  0.51100000000E-03 0.  1.
         11   -1    0    0    0    0 -0.00000000000E+00 -0.00000000000E+00 -0.45593999997E+02  0.45594000000E+02  0.51100000000E-03 0. -1.
    9900012    2    1    2    0    0  0.23209163585E+02  0.10136641159E+02  0.35244949935E+02  0.47787271156E+02  0.20000000507E+02 0.  0.
         12    1    1    2    0    0 -0.23209163585E+02 -0.10136641159E+02 -0.35244949935E+02  0.43400728844E+02  0.00000000000E+00 0. -1.
         11    1    3    3    0    0  0.16256053404E+02  0.34185392111E+01  0.11125831647E+02  0.19993244176E+02  0.51100000000E-03 0. -1.
        -11    1    3    3    0    0  0.64768071602E+01  0.54542106965E+00  0.17790986889E+02  0.18941112160E+02  0.51100000000E-03 0.  1.
         12    1    3    3    0    0  0.47630302177E+00  0.61726808783E+01  0.63281313991E+01  0.88529148193E+01  0.00000000000E+00 0. -1.
</event>
<event>
 7    1  0.5646756E-010  0.4778723E+02  0.7816164E-02  0.1312668E+00
        -11   -1    0    0    0    0  0.00000000000E+00  0.00000000000E+00  0.45593999997E+02  0.45594000000E+02  0.51100000000E-03 0. -1.
         11   -1    0    0    0    0 -0.00000000000E+00 -0.00000000000E+00 -0.45593999997E+02  0.45594000000E+02  0.51100000000E-03 0.  1.
    9900012    2    1    2    0    0  0.16960719592E+02 -0.24493540326E+02  0.31559902522E+02  0.47787228417E+02  0.19999805645E+02 0.  0.
         12    1    1    2    0    0 -0.16960719592E+02  0.24493540326E+02 -0.31559902522E+02  0.43400771583E+02  0.00000000000E+00 0. -1.
         11    1    3    3    0    0  0.35033664218E+01  0.31643188462E+01  0.32914599636E+01  0.57550151172E+01  0.51100000000E-03 0. -1.
        -11    1    3    3    0    0  0.93213834256E+01 -0.22666568411E+02  0.20818816553E+02  0.32157186373E+02  0.51100000000E-03 0.  1.
         12    1    3    3    0    0  0.41359697450E+01 -0.49912907611E+01  0.74496260058E+01  0.98750269275E+01  0.00000000000E+00 0. -1.
</event>
<event>
 7    1  0.5646756E-010  0.4778727E+02  0.7816164E-02  0.1312668E+00
        -11   -1    0    0    0    0  0.00000000000E+00  0.00000000000E+00  0.45593999997E+02  0.45594000000E+02  0.51100000000E-03 0.  1.
         11   -1    0    0    0    0 -0.00000000000E+00 -0.00000000000E+00 -0.45593999997E+02  0.45594000000E+02  0.51100000000E-03 0. -1.
    9900012    2    1    2    0    0 -0.14801659668E+02 -0.10477951942E+01  0.40785248443E+02  0.47787268506E+02  0.19999988427E+02 0.  0.
         12    1    1    2    0    0  0.14801659668E+02  0.10477951942E+01 -0.40785248443E+02  0.43400731494E+02  0.00000000000E+00 0. -1.
         11    1    3    3    0    0 -0.17050900691E+02 -0.14068207386E+01  0.23498452650E+02  0.29066985330E+02  0.51100000000E-03 0. -1.
        -11    1    3    3    0    0  0.17896673435E+01  0.32420545804E+01  0.13119384953E+02  0.13632024388E+02  0.51100000000E-03 0.  1.
         12    1    3    3    0    0  0.45957368034E+00 -0.28830290359E+01  0.41674108392E+01  0.50882587879E+01  0.00000000000E+00 0. -1.
</event>
<event>
 7    1  0.5646756E-010  0.4778728E+02  0.7816164E-02  0.1312668E+00
        -11   -1    0    0    0    0  0.00000000000E+00  0.00000000000E+00  0.45593999997E+02  0.45594000000E+02  0.51100000000E-03 0. -1.
         11   -1    0    0    0    0 -0.00000000000E+00 -0.00000000000E+00 -0.45593999997E+02  0.45594000000E+02  0.51100000000E-03 0.  1.
    9900012    2    1    2    0    0  0.42419741083E+02 -0.27413392307E+01 -0.87563406143E+01  0.47787275636E+02  0.20000020935E+02 0.  0.
         12    1    1    2    0    0 -0.42419741083E+02  0.27413392307E+01  0.87563406143E+01  0.43400724364E+02  0.00000000000E+00 0. -1.
         11    1    3    3    0    0  0.24569348965E+02  0.36006741851E+01 -0.11510396837E+02  0.27369819122E+02  0.51100000000E-03 0. -1.
        -11    1    3    3    0    0  0.17590158507E+02 -0.63474393216E+01  0.10888589314E+01  0.18732038764E+02  0.51100000000E-03 0.  1.
         12    1    3    3    0    0  0.26023361157E+00  0.54259056893E-02  0.16651972913E+01  0.16854177500E+01  0.00000000000E+00 0. -1.
</event>
<event>
 7    1  0.5646756E-010  0.4778728E+02  0.7816164E-02  0.1312668E+00
        -11   -1    0    0    0    0  0.00000000000E+00  0.00000000000E+00  0.45593999997E+02  0.45594000000E+02  0.51100000000E-03 0.  1.
         11   -1    0    0    0    0 -0.00000000000E+00 -0.00000000000E+00 -0.45593999997E+02  0.45594000000E+02  0.51100000000E-03 0. -1.
    9900012    2    1    2    0    0  0.21725594115E+02 -0.11102589836E+02  0.35893643229E+02  0.47787279211E+02  0.20000037235E+02 0.  0.
         12    1    1    2    0    0 -0.21725594115E+02  0.11102589836E+02 -0.35893643229E+02  0.43400720789E+02  0.00000000000E+00 0. -1.
         11    1    3    3    0    0  0.34159775475E+00  0.11263736038E+00 -0.17772872065E+01  0.18133191326E+01  0.51100000000E-03 0. -1.
        -11    1    3    3    0    0  0.15890958736E+02 -0.32642167115E+01  0.27611885691E+02  0.32024895190E+02  0.51100000000E-03 0.  1.
         12    1    3    3    0    0  0.54930376247E+01 -0.79510104850E+01  0.10059044745E+02  0.13949064888E+02  0.00000000000E+00 0. -1.
</event>
<event>
 7    1  0.5646756E-010  0.4778727E+02  0.7816164E-02  0.1312668E+00
        -11   -1    0    0    0    0  0.00000000000E+00  0.00000000000E+00  0.45593999997E+02  0.45594000000E+02  0.51100000000E-03 0.  1.
         11   -1    0    0    0    0 -0.00000000000E+00 -0.00000000000E+00 -0.45593999997E+02  0.45594000000E+02  0.51100000000E-03 0. -1.
    9900012    2    1    2    0    0  0.99317326564E+01  0.38094803416E+02  0.18269377116E+02  0.47787268427E+02  0.19999988068E+02 0.  0.
         12    1    1    2    0    0 -0.99317326564E+01 -0.38094803416E+02 -0.18269377116E+02  0.43400731573E+02  0.00000000000E+00 0. -1.
         11    1    3    3    0    0 -0.80865161925E+00  0.44837753036E+01 -0.27343850534E+01  0.53136635475E+01  0.51100000000E-03 0. -1.
        -11    1    3    3    0    0  0.11249712734E+02  0.27511481059E+02  0.20929838505E+02  0.36352383234E+02  0.51100000000E-03 0.  1.
        -12    1    3    3    0    0 -0.50932845858E+00  0.60995470531E+01  0.73923663930E-01  0.61212216460E+01  0.00000000000E+00 0.  1.
</event>
<event>
 7    1  0.5646756E-010  0.4778727E+02  0.7816164E-02  0.1312668E+00
        -11   -1    0    0    0    0  0.00000000000E+00  0.00000000000E+00  0.45593999997E+02  0.45594000000E+02  0.51100000000E-03 0.  1.
         11   -1    0    0    0    0 -0.00000000000E+00 -0.00000000000E+00 -0.45593999997E+02  0.45594000000E+02  0.51100000000E-03 0. -1.
    9900012    2    1    2    0    0 -0.14792729836E+02 -0.30659673745E+02  0.26921792333E+02  0.47787270138E+02  0.19999995866E+02 0.  0.
         12    1    1    2    0    0  0.14792729836E+02  0.30659673745E+02 -0.26921792333E+02  0.43400729862E+02  0.00000000000E+00 0. -1.
         11    1    3    3    0    0 -0.11180404173E+02 -0.73369993495E+01  0.85261232125E+01  0.15859627178E+02  0.51100000000E-03 0.  1.
        -11    1    3    3    0    0  0.39225423626E+01 -0.10341251157E+02  0.71087723065E+01  0.13147716838E+02  0.51100000000E-03 0. -1.
        -12    1    3    3    0    0 -0.75348680256E+01 -0.12981423239E+02  0.11286896814E+02  0.18779926122E+02  0.00000000000E+00 0.  1.
</event>
<event>
 7    1  0.5646756E-010  0.4778728E+02  0.7816164E-02  0.1312668E+00
        -11   -1    0    0    0    0  0.00000000000E+00  0.00000000000E+00  0.45593999997E+02  0.45594000000E+02  0.51100000000E-03 0. -1.
         11   -1    0    0    0    0 -0.00000000000E+00 -0.00000000000E+00 -0.45593999997E+02  0.45594000000E+02  0.51100000000E-03 0.  1.
    9900012    2    1    2    0    0 -0.40666516753E+02 -0.67338966240E+01 -0.13583517830E+02  0.47787275291E+02  0.20000019364E+02 0.  0.
         12    1    1    2    0    0  0.40666516753E+02  0.67338966240E+01  0.13583517830E+02  0.43400724709E+02  0.00000000000E+00 0. -1.
         11    1    3    3    0    0 -0.22230947601E+02 -0.88059253255E+00 -0.14788104885E+02  0.26714762226E+02  0.51100000000E-03 0. -1.
        -11    1    3    3    0    0 -0.32408861717E+01 -0.10198178661E+01 -0.30542998478E+01  0.45686014796E+01  0.51100000000E-03 0.  1.
         12    1    3    3    0    0 -0.15194682981E+02 -0.48334862254E+01  0.42588869028E+01  0.16503911586E+02  0.00000000000E+00 0. -1.
</event>
<event>
 7    1  0.5646756E-010  0.4778727E+02  0.7816164E-02  0.1312668E+00
        -11   -1    0    0    0    0  0.00000000000E+00  0.00000000000E+00  0.45593999997E+02  0.45594000000E+02  0.51100000000E-03 0. -1.
         11   -1    0    0    0    0 -0.00000000000E+00 -0.00000000000E+00 -0.45593999997E+02  0.45594000000E+02  0.51100000000E-03 0.  1.
    9900012    2    1    2    0    0  0.55673686968E+01 -0.19984215759E+02 -0.38121627160E+02  0.47787274995E+02  0.20000018010E+02 0.  0.
         12    1    1    2    0    0 -0.55673686968E+01  0.19984215759E+02  0.38121627160E+02  0.43400725005E+02  0.00000000000E+00 0. -1.
         11    1    3    3    0    0 -0.39715843590E+01  0.11083076981E+00 -0.37778019869E+01  0.54824769853E+01  0.51100000000E-03 0. -1.
        -11    1    3    3    0    0  0.10523041560E+02 -0.10603815254E+02 -0.23645072466E+02  0.27968996296E+02  0.51100000000E-03 0.  1.
        -12    1    3    3    0    0 -0.98408850412E+00 -0.94912312742E+01 -0.10698752707E+02  0.14335801714E+02  0.00000000000E+00 0.  1.
</event>
<event>
 7    1  0.5646756E-010  0.4778727E+02  0.7816164E-02  0.1312668E+00
        -11   -1    0    0    0    0  0.00000000000E+00  0.00000000000E+00  0.45593999997E+02  0.45594000000E+02  0.51100000000E-03 0.  1.
         11   -1    0    0    0    0 -0.00000000000E+00 -0.00000000000E+00 -0.45593999997E+02  0.45594000000E+02  0.51100000000E-03 0. -1.
    9900012    2    1    2    0    0 -0.40184209961E+02  0.32741236775E+01  0.16066509606E+02  0.47787270202E+02  0.19999996159E+02 0.  0.
         12    1    1    2    0    0  0.40184209961E+02 -0.32741236775E+01 -0.16066509606E+02  0.43400729798E+02  0.00000000000E+00 0. -1.
         11    1    3    3    0    0 -0.14061291890E+02  0.44871683270E+01  0.10533481160E+02  0.18133086742E+02  0.51100000000E-03 0. -1.
        -11    1    3    3    0    0 -0.11709922747E+02  0.22743365419E+01  0.83490461024E+01  0.14560270208E+02  0.51100000000E-03 0.  1.
         12    1    3    3    0    0 -0.14412995325E+02 -0.34873811914E+01 -0.28160176563E+01  0.15093913252E+02  0.00000000000E+00 0. -1.
</event>
<event>
 7    1  0.5646756E-010  0.4778727E+02  0.7816164E-02  0.1312668E+00
        -11   -1    0    0    0    0  0.00000000000E+00  0.00000000000E+00  0.45593999997E+02  0.45594000000E+02  0.51100000000E-03 0. -1.
         11   -1    0    0    0    0 -0.00000000000E+00 -0.00000000000E+00 -0.45593999997E+02  0.45594000000E+02  0.51100000000E-03 0.  1.
    9900012    2    1    2    0    0 -0.11418453884E+02 -0.13327010751E+02 -0.39694242106E+02  0.47787272344E+02  0.20000005926E+02 0.  0.
         12    1    1    2    0    0  0.11418453884E+02  0.13327010751E+02  0.39694242106E+02  0.43400727656E+02  0.00000000000E+00 0. -1.
         11    1    3    3    0    0 -0.67575974765E+01  0.30742016896E+01 -0.19720613501E+02  0.21071744987E+02  0.51100000000E-03 0.  1.
        -11    1    3    3    0    0 -0.35219972593E+01 -0.10655458007E+02 -0.94487309744E+01  0.14670438552E+02  0.51100000000E-03 0. -1.
        -12    1    3    3    0    0 -0.11388591481E+01 -0.57457544336E+01 -0.10524897631E+02  0.12045088805E+02  0.00000000000E+00 0.  1.
</event>
<event>
 7    1  0.5646756E-010  0.4778727E+02  0.7816164E-02  0.1312668E+00
        -11   -1    0    0    0    0  0.00000000000E+00  0.00000000000E+00  0.45593999997E+02  0.45594000000E+02  0.51100000000E-03 0.  1.
         11   -1    0    0    0    0 -0.00000000000E+00 -0.00000000000E+00 -0.45593999997E+02  0.45594000000E+02  0.51100000000E-03 0. -1.
    9900012    2    1    2    0    0  0.33143968087E+02 -0.26362891459E+02  0.94920364040E+01  0.47787269341E+02  0.19999992234E+02 0.  0.
         12    1    1    2    0    0 -0.33143968087E+02  0.26362891459E+02 -0.94920364040E+01  0.43400730659E+02  0.00000000000E+00 0. -1.
         11    1    3    3    0    0  0.19399206125E+02 -0.22114937841E+02  0.45206448340E+01  0.29762995547E+02  0.51100000000E-03 0. -1.
        -11    1    3    3    0    0  0.96913462619E+01 -0.73322277087E+01  0.27079234564E+01  0.12450566463E+02  0.51100000000E-03 0.  1.
         12    1    3    3    0    0  0.40534157004E+01  0.30842740909E+01  0.22634681136E+01  0.55737073308E+01  0.00000000000E+00 0. -1.
</event>
<event>
 7    1  0.5646756E-010  0.4778722E+02  0.7816164E-02  0.1312668E+00
        -11   -1    0    0    0    0  0.00000000000E+00  0.00000000000E+00  0.45593999997E+02  0.45594000000E+02  0.51100000000E-03 0. -1.
         11   -1    0    0    0    0 -0.00000000000E+00 -0.00000000000E+00 -0.45593999997E+02  0.45594000000E+02  0.51100000000E-03 0.  1.
    9900012    2    1    2    0    0  0.28020797610E+00 -0.39321454321E+02 -0.18367695966E+02  0.47787221879E+02  0.19999775834E+02 0.  0.
         12    1    1    2    0    0 -0.28020797610E+00  0.39321454321E+02  0.18367695966E+02  0.43400778121E+02  0.00000000000E+00 0. -1.
         11    1    3    3    0    0  0.59149823220E+00  0.59480147309E+00 -0.19194473928E+01  0.20947404388E+01  0.51100000000E-03 0. -1.
        -11    1    3    3    0    0 -0.48203996121E+00 -0.41160556863E+02 -0.15088933306E+02  0.43841757634E+02  0.51100000000E-03 0.  1.
        -12    1    3    3    0    0  0.17074970511E+00  0.12443010694E+01 -0.13593152670E+01  0.18507238066E+01  0.00000000000E+00 0.  1.
</event>
<event>
 7    1  0.5646756E-010  0.4778727E+02  0.7816164E-02  0.1312668E+00
        -11   -1    0    0    0    0  0.00000000000E+00  0.00000000000E+00  0.45593999997E+02  0.45594000000E+02  0.51100000000E-03 0.  1.
         11   -1    0    0    0    0 -0.00000000000E+00 -0.00000000000E+00 -0.45593999997E+02  0.45594000000E+02  0.51100000000E-03 0. -1.
    9900012    2    1    2    0    0 -0.19827661421E+02  0.79073732099E+01  0.37788368488E+02  0.47787268422E+02  0.19999988044E+02 0.  0.
         12    1    1    2    0    0  0.19827661421E+02 -0.79073732099E+01 -0.37788368488E+02  0.43400731578E+02  0.00000000000E+00 0. -1.
         11    1    3    3    0    0 -0.83744557767E+01 -0.42249598432E+01  0.72182792119E+01  0.11835765724E+02  0.51100000000E-03 0. -1.
        -11    1    3    3    0    0 -0.39516519378E+01  0.74784202718E+01  0.22318840791E+02  0.23867823054E+02  0.51100000000E-03 0.  1.
        -12    1    3    3    0    0 -0.75015537065E+01  0.46539127813E+01  0.82512484852E+01  0.12083679645E+02  0.00000000000E+00 0.  1.
</event>
<event>
 7    1  0.5646756E-010  0.4778724E+02  0.7816164E-02  0.1312668E+00
        -11   -1    0    0    0    0  0.00000000000E+00  0.00000000000E+00  0.45593999997E+02  0.45594000000E+02  0.51100000000E-03 0.  1.
         11   -1    0    0    0    0 -0.00000000000E+00 -0.00000000000E+00 -0.45593999997E+02  0.45594000000E+02  0.51100000000E-03 0. -1.
    9900012    2    1    2    0    0 -0.37003133721E+02  0.81152499278E+01  0.21178684154E+02  0.47787241377E+02  0.19999864734E+02 0.  0.
         12    1    1    2    0    0  0.37003133721E+02 -0.81152499278E+01 -0.21178684154E+02  0.43400758623E+02  0.00000000000E+00 0. -1.
         11    1    3    3    0    0  0.20095724483E+01  0.41117455542E-01 -0.72637717366E+00  0.21372169122E+01  0.51100000000E-03 0. -1.
        -11    1    3    3    0    0 -0.30889181933E+02  0.80644775679E+01  0.17687035027E+02  0.36496692552E+02  0.51100000000E-03 0.  1.
        -12    1    3    3    0    0 -0.81235242363E+01  0.96549043939E-02  0.42180263006E+01  0.91533319129E+01  0.00000000000E+00 0.  1.
</event>
<event>
 7    1  0.5646756E-010  0.4778727E+02  0.7816164E-02  0.1312668E+00
        -11   -1    0    0    0    0  0.00000000000E+00  0.00000000000E+00  0.45593999997E+02  0.45594000000E+02  0.51100000000E-03 0.  1.
         11   -1    0    0    0    0 -0.00000000000E+00 -0.00000000000E+00 -0.45593999997E+02  0.45594000000E+02  0.51100000000E-03 0. -1.
    9900012    2    1    2    0    0 -0.21583981605E+01  0.56132511766E+01  0.42982046643E+02  0.47787267230E+02  0.19999982606E+02 0.  0.
         12    1    1    2    0    0  0.21583981605E+01 -0.56132511766E+01 -0.42982046643E+02  0.43400732770E+02  0.00000000000E+00 0. -1.
         11    1    3    3    0    0  0.28853409525E+01  0.50588589848E+01  0.25994781232E+02  0.26639179758E+02  0.51100000000E-03 0. -1.
        -11    1    3    3    0    0 -0.53525776035E+00 -0.29142692394E+01  0.14735102861E+02  0.15030060634E+02  0.51100000000E-03 0.  1.
         12    1    3    3    0    0 -0.45084813527E+01  0.34686614313E+01  0.22521625502E+01  0.61180268375E+01  0.00000000000E+00 0. -1.
</event>
<event>
 7    1  0.5646756E-010  0.4778726E+02  0.7816164E-02  0.1312668E+00
        -11   -1    0    0    0    0  0.00000000000E+00  0.00000000000E+00  0.45593999997E+02  0.45594000000E+02  0.51100000000E-03 0.  1.
         11   -1    0    0    0    0 -0.00000000000E+00 -0.00000000000E+00 -0.45593999997E+02  0.45594000000E+02  0.51100000000E-03 0. -1.
    9900012    2    1    2    0    0  0.11707743412E+02  0.30288122789E+02  0.28795536773E+02  0.47787256043E+02  0.19999931604E+02 0.  0.
         12    1    1    2    0    0 -0.11707743412E+02 -0.30288122789E+02 -0.28795536773E+02  0.43400743957E+02  0.00000000000E+00 0. -1.
         11    1    3    3    0    0  0.26455954311E+00  0.54694796260E+00 -0.45762151624E+00  0.76063232832E+00  0.51100000000E-03 0. -1.
        -11    1    3    3    0    0  0.16096445218E+02  0.21103203693E+02  0.17859951752E+02  0.31990914830E+02  0.51100000000E-03 0.  1.
        -12    1    3    3    0    0 -0.46532613491E+01  0.86379711334E+01  0.11393206537E+02  0.15035708885E+02  0.00000000000E+00 0.  1.
</event>
<event>
 7    1  0.5646756E-010  0.4778727E+02  0.7816164E-02  0.1312668E+00
        -11   -1    0    0    0    0  0.00000000000E+00  0.00000000000E+00  0.45593999997E+02  0.45594000000E+02  0.51100000000E-03 0.  1.
         11   -1    0    0    0    0 -0.00000000000E+00 -0.00000000000E+00 -0.45593999997E+02  0.45594000000E+02  0.51100000000E-03 0. -1.
    9900012    2    1    2    0    0 -0.16151558351E+02  0.32753751344E+02  0.23450849217E+02  0.47787269669E+02  0.19999993730E+02 0.  0.
         12    1    1    2    0    0  0.16151558351E+02 -0.32753751344E+02 -0.23450849217E+02  0.43400730331E+02  0.00000000000E+00 0. -1.
         11    1    3    3    0    0 -0.15451710203E+02  0.24393451313E+02  0.11281992134E+02  0.31001276779E+02  0.51100000000E-03 0. -1.
        -11    1    3    3    0    0 -0.42137775248E+01  0.59858338962E+01  0.78189135428E+01  0.10710814055E+02  0.51100000000E-03 0.  1.
         12    1    3    3    0    0  0.35139293765E+01  0.23744661349E+01  0.43499435401E+01  0.60751788362E+01  0.00000000000E+00 0. -1.
</event>
<event>
 7    1  0.5646756E-010  0.4778727E+02  0.7816164E-02  0.1312668E+00
        -11   -1    0    0    0    0  0.00000000000E+00  0.00000000000E+00  0.45593999997E+02  0.45594000000E+02  0.51100000000E-03 0.  1.
         11   -1    0    0    0    0 -0.00000000000E+00 -0.00000000000E+00 -0.45593999997E+02  0.45594000000E+02  0.51100000000E-03 0. -1.
    9900012    2    1    2    0    0 -0.19232854810E+02 -0.12629392459E+02  0.36799714315E+02  0.47787271531E+02  0.20000002217E+02 0.  0.
         12    1    1    2    0    0  0.19232854810E+02  0.12629392459E+02 -0.36799714315E+02  0.43400728469E+02  0.00000000000E+00 0. -1.
         11    1    3    3    0    0 -0.11799720583E+00  0.17103791721E+01  0.12272724691E+02  0.12391896217E+02  0.51100000000E-03 0. -1.
        -11    1    3    3    0    0 -0.58791046246E+01 -0.94092315559E+01  0.13513952014E+02  0.17484976665E+02  0.51100000000E-03 0.  1.
         12    1    3    3    0    0 -0.13235752980E+02 -0.49305400751E+01  0.11013037609E+02  0.17910398649E+02  0.00000000000E+00 0. -1.
</event>
<event>
 7    1  0.5646756E-010  0.4778727E+02  0.7816164E-02  0.1312668E+00
        -11   -1    0    0    0    0  0.00000000000E+00  0.00000000000E+00  0.45593999997E+02  0.45594000000E+02  0.51100000000E-03 0. -1.
         11   -1    0    0    0    0 -0.00000000000E+00 -0.00000000000E+00 -0.45593999997E+02  0.45594000000E+02  0.51100000000E-03 0.  1.
    9900012    2    1    2    0    0 -0.46720210714E+01 -0.25066696437E+02 -0.35120591869E+02  0.47787273919E+02  0.20000013106E+02 0.  0.
         12    1    1    2    0    0  0.46720210714E+01  0.25066696437E+02  0.35120591869E+02  0.43400726081E+02  0.00000000000E+00 0. -1.
         11    1    3    3    0    0  0.35846897020E+01 -0.28142460362E+01 -0.73079116006E+01  0.86125230470E+01  0.51100000000E-03 0. -1.
        -11    1    3    3    0    0 -0.11355130549E+02 -0.10612316574E+02 -0.15533644981E+02  0.21973947745E+02  0.51100000000E-03 0.  1.
        -12    1    3    3    0    0  0.30984197760E+01 -0.11640133827E+02 -0.12279035287E+02  0.17200803127E+02  0.00000000000E+00 0.  1.
</event>
<event>
 7    1  0.5646756E-010  0.4778726E+02  0.7816164E-02  0.1312668E+00
        -11   -1    0    0    0    0  0.00000000000E+00  0.00000000000E+00  0.45593999997E+02  0.45594000000E+02  0.51100000000E-03 0.  1.
         11   -1    0    0    0    0 -0.00000000000E+00 -0.00000000000E+00 -0.45593999997E+02  0.45594000000E+02  0.51100000000E-03 0. -1.
    9900012    2    1    2    0    0 -0.20487716917E+02  0.33020076854E+02  0.19327500256E+02  0.47787259384E+02  0.19999946836E+02 0.  0.
         12    1    1    2    0    0  0.20487716917E+02 -0.33020076854E+02 -0.19327500256E+02  0.43400740616E+02  0.00000000000E+00 0. -1.
         11    1    3    3    0    0 -0.67376310396E+01  0.17338794756E+01  0.76031207787E+01  0.10305797199E+02  0.51100000000E-03 0.  1.
        -11    1    3    3    0    0 -0.28613096697E+01  0.18192941810E+02  0.78330609629E+01  0.20013172388E+02  0.51100000000E-03 0. -1.
         12    1    3    3    0    0 -0.10888776208E+02  0.13093255568E+02  0.38913185139E+01  0.17468289798E+02  0.00000000000E+00 0. -1.
</event>
<event>
 7    1  0.5646756E-010  0.4778728E+02  0.7816164E-02  0.1312668E+00
        -11   -1    0    0    0    0  0.00000000000E+00  0.00000000000E+00  0.45593999997E+02  0.45594000000E+02  0.51100000000E-03 0. -1.
         11   -1    0    0    0    0 -0.00000000000E+00 -0.00000000000E+00 -0.45593999997E+02  0.45594000000E+02  0.51100000000E-03 0.  1.
    9900012    2    1    2    0    0 -0.38378845952E+02  0.61972515717E+01 -0.19294584372E+02  0.47787277313E+02  0.20000028582E+02 0.  0.
         12    1    1    2    0    0  0.38378845952E+02 -0.61972515717E+01  0.19294584372E+02  0.43400722687E+02  0.00000000000E+00 0. -1.
         11    1    3    3    0    0 -0.48303481681E+01  0.65332175582E-01  0.13079302824E+01  0.50047191333E+01  0.51100000000E-03 0. -1.
        -11    1    3    3    0    0 -0.25025955284E+02  0.30691949118E+01 -0.22191078134E+02  0.33588128026E+02  0.51100000000E-03 0.  1.
        -12    1    3    3    0    0 -0.85225424995E+01  0.30627244843E+01  0.15885634795E+01  0.91944301537E+01  0.00000000000E+00 0.  1.
</event>
<event>
 7    1  0.5646756E-010  0.4778726E+02  0.7816164E-02  0.1312668E+00
        -11   -1    0    0    0    0  0.00000000000E+00  0.00000000000E+00  0.45593999997E+02  0.45594000000E+02  0.51100000000E-03 0.  1.
         11   -1    0    0    0    0 -0.00000000000E+00 -0.00000000000E+00 -0.45593999997E+02  0.45594000000E+02  0.51100000000E-03 0. -1.
    9900012    2    1    2    0    0 -0.13282362550E+02  0.17877366604E+01  0.41279624436E+02  0.47787256333E+02  0.19999932924E+02 0.  0.
         12    1    1    2    0    0  0.13282362550E+02 -0.17877366604E+01 -0.41279624436E+02  0.43400743667E+02  0.00000000000E+00 0. -1.
         11    1    3    3    0    0 -0.83645647134E+01 -0.50800589413E+01  0.12123133702E+02  0.15580221844E+02  0.51100000000E-03 0. -1.
        -11    1    3    3    0    0 -0.51783497918E+01  0.37401173603E+01  0.28216886480E+02  0.28930891229E+02  0.51100000000E-03 0.  1.
        -12    1    3    3    0    0  0.26055195492E+00  0.31276782414E+01  0.93960425382E+00  0.32761432595E+01  0.00000000000E+00 0.  1.
</event>
<event>
 7    1  0.5646756E-010  0.4778727E+02  0.7816164E-02  0.1312668E+00
        -11   -1    0    0    0    0  0.00000000000E+00  0.00000000000E+00  0.45593999997E+02  0.45594000000E+02  0.51100000000E-03 0.  1.
         11   -1    0    0    0    0 -0.00000000000E+00 -0.00000000000E+00 -0.45593999997E+02  0.45594000000E+02  0.51100000000E-03 0. -1.
    9900012    2    1    2    0    0 -0.12319365696E+02 -0.18746784522E+02  0.37153936286E+02  0.47787266335E+02  0.19999978530E+02 0.  0.
         12    1    1    2    0    0  0.12319365696E+02  0.18746784522E+02 -0.37153936286E+02  0.43400733665E+02  0.00000000000E+00 0. -1.
         11    1    3    3    0    0 -0.39545390538E+00 -0.16896717249E+02  0.19853307470E+02  0.26073152002E+02  0.51100000000E-03 0. -1.
        -11    1    3    3    0    0 -0.10164078961E+02 -0.26924539724E+01  0.16582484809E+02  0.19635086254E+02  0.51100000000E-03 0.  1.
         12    1    3    3    0    0 -0.17598328295E+01  0.84238669856E+00  0.71814400755E+00  0.20790280790E+01  0.00000000000E+00 0. -1.
</event>
<event>
 7    1 -0.5646756E-010  0.4778729E+02  0.7816164E-02  0.1312668E+00
        -11   -1    0    0    0    0  0.00000000000E+00  0.00000000000E+00  0.45593999997E+02  0.45594000000E+02  0.51100000000E-03 0.  1.
         11   -1    0    0    0    0 -0.00000000000E+00 -0.00000000000E+00 -0.45593999997E+02  0.45594000000E+02  0.51100000000E-03 0. -1.
    9900012    2    1    2    0    0  0.23418629036E+02  0.27238190888E+02  0.24357144402E+02  0.47787289036E+02  0.20000082032E+02 0.  0.
         12    1    1    2    0    0 -0.23418629036E+02 -0.27238190888E+02 -0.24357144402E+02  0.43400710964E+02  0.00000000000E+00 0. -1.
         11    1    3    3    0    0  0.44988596057E+01  0.64459733548E+01  0.10293456193E+02  0.12951662090E+02  0.51100000000E-03 0. -1.
        -11    1    3    3    0    0  0.10567397439E+02  0.20983198179E+02  0.97992031058E+01  0.25455625630E+02  0.51100000000E-03 0.  1.
        -12    1    3    3    0    0  0.83523719914E+01 -0.19098064631E+00  0.42644851027E+01  0.93800013156E+01  0.00000000000E+00 0.  1.
</event>
<event>
 7    1  0.5646756E-010  0.4778727E+02  0.7816164E-02  0.1312668E+00
        -11   -1    0    0    0    0  0.00000000000E+00  0.00000000000E+00  0.45593999997E+02  0.45594000000E+02  0.51100000000E-03 0.  1.
         11   -1    0    0    0    0 -0.00000000000E+00 -0.00000000000E+00 -0.45593999997E+02  0.45594000000E+02  0.51100000000E-03 0. -1.
    9900012    2    1    2    0    0 -0.24423620737E+02 -0.18532771736E+02  0.30718831459E+02  0.47787268620E+02  0.19999988947E+02 0.  0.
         12    1    1    2    0    0  0.24423620737E+02  0.18532771736E+02 -0.30718831459E+02  0.43400731380E+02  0.00000000000E+00 0. -1.
         11    1    3    3    0    0 -0.17327070730E+02 -0.40288892193E+01  0.20005300355E+02  0.26770718537E+02  0.51100000000E-03 0. -1.
        -11    1    3    3    0    0 -0.35915074966E+01 -0.57079382336E+00  0.29710413413E+01  0.46959363922E+01  0.51100000000E-03 0.  1.
         12    1    3    3    0    0 -0.35050425105E+01 -0.13933088694E+02  0.77424897618E+01  0.16320613691E+02  0.00000000000E+00 0. -1.
</event>
<event>
 7    1  0.5646756E-010  0.4778727E+02  0.7816164E-02  0.1312668E+00
        -11   -1    0    0    0    0  0.00000000000E+00  0.00000000000E+00  0.45593999997E+02  0.45594000000E+02  0.51100000000E-03 0.  1.
         11   -1    0    0    0    0 -0.00000000000E+00 -0.00000000000E+00 -0.45593999997E+02  0.45594000000E+02  0.51100000000E-03 0. -1.
    9900012    2    1    2    0    0 -0.33153210280E+02 -0.25985817005E+02  0.10451102339E+02  0.47787267548E+02  0.19999984059E+02 0.  0.
         12    1    1    2    0    0  0.33153210280E+02  0.25985817005E+02 -0.10451102339E+02  0.43400732452E+02  0.00000000000E+00 0. -1.
         11    1    3    3    0    0 -0.65769499831E+01 -0.14958268045E+02 -0.29568744761E+00  0.16342994992E+02  0.51100000000E-03 0. -1.
        -11    1    3    3    0    0 -0.16981185400E+02 -0.48814864685E+01  0.92737188678E+01  0.19954734517E+02  0.51100000000E-03 0.  1.
        -12    1    3    3    0    0 -0.95950748967E+01 -0.61460624908E+01  0.14730709189E+01  0.11489538039E+02  0.00000000000E+00 0.  1.
</event>
<event>
 7    1  0.5646756E-010  0.4778727E+02  0.7816164E-02  0.1312668E+00
        -11   -1    0    0    0    0  0.00000000000E+00  0.00000000000E+00  0.45593999997E+02  0.45594000000E+02  0.51100000000E-03 0. -1.
         11   -1    0    0    0    0 -0.00000000000E+00 -0.00000000000E+00 -0.45593999997E+02  0.45594000000E+02  0.51100000000E-03 0.  1.
    9900012    2    1    2    0    0  0.23385925298E+02 -0.31946166965E+02  0.17781008031E+02  0.47787270370E+02  0.19999996925E+02 0.  0.
         12    1    1    2    0    0 -0.23385925298E+02  0.31946166965E+02 -0.17781008031E+02  0.43400729630E+02  0.00000000000E+00 0. -1.
         11    1    3    3    0    0 -0.12100117154E+01 -0.48183651430E+00  0.56614677479E+01  0.58093469599E+01  0.51100000000E-03 0. -1.
        -11    1    3    3    0    0  0.19023761414E+02 -0.25470930070E+02  0.11357835956E+02  0.33759031604E+02  0.51100000000E-03 0.  1.
         12    1    3    3    0    0  0.55721756001E+01 -0.59934003811E+01  0.76170432708E+00  0.82188918066E+01  0.00000000000E+00 0. -1.
</event>
<event>
 7    1  0.5646756E-010  0.4778727E+02  0.7816164E-02  0.1312668E+00
        -11   -1    0    0    0    0  0.00000000000E+00  0.00000000000E+00  0.45593999997E+02  0.45594000000E+02  0.51100000000E-03 0.  1.
         11   -1    0    0    0    0 -0.00000000000E+00 -0.00000000000E+00 -0.45593999997E+02  0.45594000000E+02  0.51100000000E-03 0. -1.
    9900012    2    1    2    0    0  0.18925902195E+02  0.28958585131E+02  0.26207515714E+02  0.47787270667E+02  0.19999998280E+02 0.  0.
         12    1    1    2    0    0 -0.18925902195E+02 -0.28958585131E+02 -0.26207515714E+02  0.43400729333E+02  0.00000000000E+00 0. -1.
         11    1    3    3    0    0 -0.19616983994E+01  0.28900063197E+01  0.61319443507E+00  0.35463227172E+01  0.51100000000E-03 0. -1.
        -11    1    3    3    0    0  0.18300984638E+02  0.12404517875E+02  0.14355346623E+02  0.26360464324E+02  0.51100000000E-03 0.  1.
        -12    1    3    3    0    0  0.25866159564E+01  0.13664060936E+02  0.11238974656E+02  0.17880483626E+02  0.00000000000E+00 0.  1.
</event>
<event>
 7    1  0.5646756E-010  0.4778727E+02  0.7816164E-02  0.1312668E+00
        -11   -1    0    0    0    0  0.00000000000E+00  0.00000000000E+00  0.45593999997E+02  0.45594000000E+02  0.51100000000E-03 0.  1.
         11   -1    0    0    0    0 -0.00000000000E+00 -0.00000000000E+00 -0.45593999997E+02  0.45594000000E+02  0.51100000000E-03 0. -1.
    9900012    2    1    2    0    0 -0.24038119508E+02 -0.30155075108E+02  0.19911395796E+02  0.47787269282E+02  0.19999991965E+02 0.  0.
         12    1    1    2    0    0  0.24038119508E+02  0.30155075108E+02 -0.19911395796E+02  0.43400730718E+02  0.00000000000E+00 0. -1.
         11    1    3    3    0    0 -0.12240248518E+02 -0.24929628211E+02  0.12152642223E+02  0.30314959340E+02  0.51100000000E-03 0. -1.
        -11    1    3    3    0    0 -0.73576334422E+01  0.15186247611E+01  0.45528652931E+01  0.87846214303E+01  0.51100000000E-03 0.  1.
        -12    1    3    3    0    0 -0.44402375477E+01 -0.67440716585E+01  0.32058882797E+01  0.86876885117E+01  0.00000000000E+00 0.  1.
</event>
<event>
 7    1  0.5646756E-010  0.4778727E+02  0.7816164E-02  0.1312668E+00
        -11   -1    0    0    0    0  0.00000000000E+00  0.00000000000E+00  0.45593999997E+02  0.45594000000E+02  0.51100000000E-03 0.  1.
         11   -1    0    0    0    0 -0.00000000000E+00 -0.00000000000E+00 -0.45593999997E+02  0.45594000000E+02  0.51100000000E-03 0. -1.
    9900012    2    1    2    0    0  0.30602999767E+01  0.42739241572E+02  0.69003900647E+01  0.47787267413E+02  0.19999983442E+02 0.  0.
         12    1    1    2    0    0 -0.30602999767E+01 -0.42739241572E+02 -0.69003900647E+01  0.43400732587E+02  0.00000000000E+00 0. -1.
         11    1    3    3    0    0  0.84784331835E+01  0.18397853531E+02  0.74597989763E+01  0.21587344552E+02  0.51100000000E-03 0. -1.
        -11    1    3    3    0    0 -0.35546665807E+01  0.42088898993E+01 -0.21615281712E+01  0.59179906202E+01  0.51100000000E-03 0.  1.
        -12    1    3    3    0    0 -0.18634666261E+01  0.20132498141E+02  0.16021192596E+01  0.20281932240E+02  0.00000000000E+00 0.  1.
</event>
<event>
 7    1  0.5646756E-010  0.4778728E+02  0.7816164E-02  0.1312668E+00
        -11   -1    0    0    0    0  0.00000000000E+00  0.00000000000E+00  0.45593999997E+02  0.45594000000E+02  0.51100000000E-03 0.  1.
         11   -1    0    0    0    0 -0.00000000000E+00 -0.00000000000E+00 -0.45593999997E+02  0.45594000000E+02  0.51100000000E-03 0. -1.
    9900012    2    1    2    0    0  0.38043926843E+02  0.34100855012E+01  0.20607121363E+02  0.47787279918E+02  0.20000040458E+02 0.  0.
         12    1    1    2    0    0 -0.38043926843E+02 -0.34100855012E+01 -0.20607121363E+02  0.43400720082E+02  0.00000000000E+00 0. -1.
         11    1    3    3    0    0  0.66783878018E+01  0.45334385301E+01 -0.20912077186E+01  0.83382299394E+01  0.51100000000E-03 0. -1.
        -11    1    3    3    0    0  0.18033250310E+02 -0.24317462137E+01  0.16962384838E+02  0.24876374455E+02  0.51100000000E-03 0.  1.
         12    1    3    3    0    0  0.13332288732E+02  0.13083931848E+01  0.57359442433E+01  0.14572675523E+02  0.00000000000E+00 0. -1.
</event>
<event>
 7    1  0.5646756E-010  0.4778727E+02  0.7816164E-02  0.1312668E+00
        -11   -1    0    0    0    0  0.00000000000E+00  0.00000000000E+00  0.45593999997E+02  0.45594000000E+02  0.51100000000E-03 0.  1.
         11   -1    0    0    0    0 -0.00000000000E+00 -0.00000000000E+00 -0.45593999997E+02  0.45594000000E+02  0.51100000000E-03 0. -1.
    9900012    2    1    2    0    0  0.35926282452E+02  0.21203542589E+02  0.11972274490E+02  0.47787270218E+02  0.19999996232E+02 0.  0.
         12    1    1    2    0    0 -0.35926282452E+02 -0.21203542589E+02 -0.11972274490E+02  0.43400729782E+02  0.00000000000E+00 0. -1.
         11    1    3    3    0    0  0.24722047987E+02  0.11572440590E+02  0.20408332437E+01  0.27372724352E+02  0.51100000000E-03 0. -1.
        -11    1    3    3    0    0  0.91490077880E+01  0.32660767742E+01  0.96907637407E+01  0.13721607163E+02  0.51100000000E-03 0.  1.
         12    1    3    3    0    0  0.20552266766E+01  0.63650252254E+01  0.24067750566E+00  0.66929387024E+01  0.00000000000E+00 0. -1.
</event>
<event>
 7    1  0.5646756E-010  0.4778727E+02  0.7816164E-02  0.1312668E+00
        -11   -1    0    0    0    0  0.00000000000E+00  0.00000000000E+00  0.45593999997E+02  0.45594000000E+02  0.51100000000E-03 0.  1.
         11   -1    0    0    0    0 -0.00000000000E+00 -0.00000000000E+00 -0.45593999997E+02  0.45594000000E+02  0.51100000000E-03 0. -1.
    9900012    2    1    2    0    0  0.33230283827E+02 -0.25834704481E+02 -0.10580148747E+02  0.47787271131E+02  0.20000000396E+02 0.  0.
         12    1    1    2    0    0 -0.33230283827E+02  0.25834704481E+02  0.10580148747E+02  0.43400728869E+02  0.00000000000E+00 0. -1.
         11    1    3    3    0    0  0.37987476871E+01  0.43728164183E-01 -0.66918403012E+01  0.76950063691E+01  0.51100000000E-03 0. -1.
        -11    1    3    3    0    0  0.10214635638E+02 -0.11447456234E+02 -0.47014815078E+01  0.16046400346E+02  0.51100000000E-03 0.  1.
         12    1    3    3    0    0  0.19216900502E+02 -0.14430976411E+02  0.81317306191E+00  0.24045864416E+02  0.00000000000E+00 0. -1.
</event>
<event>
 7    1  0.5646756E-010  0.4778727E+02  0.7816164E-02  0.1312668E+00
        -11   -1    0    0    0    0  0.00000000000E+00  0.00000000000E+00  0.45593999997E+02  0.45594000000E+02  0.51100000000E-03 0. -1.
         11   -1    0    0    0    0 -0.00000000000E+00 -0.00000000000E+00 -0.45593999997E+02  0.45594000000E+02  0.51100000000E-03 0.  1.
    9900012    2    1    2    0    0 -0.20333219074E+02 -0.19862066166E+02 -0.32797595249E+02  0.47787265854E+02  0.19999976333E+02 0.  0.
         12    1    1    2    0    0  0.20333219074E+02  0.19862066166E+02  0.32797595249E+02  0.43400734146E+02  0.00000000000E+00 0. -1.
         11    1    3    3    0    0 -0.83736426272E+01 -0.10002592219E+02 -0.24576923787E+02  0.27824358484E+02  0.51100000000E-03 0.  1.
        -11    1    3    3    0    0 -0.11156487085E+02 -0.11609057889E+02 -0.81266483966E+01  0.18035516172E+02  0.51100000000E-03 0. -1.
        -12    1    3    3    0    0 -0.80308936203E+00  0.17495839423E+01 -0.94023066004E-01  0.19273911984E+01  0.00000000000E+00 0.  1.
</event>
<event>
 7    1  0.5646756E-010  0.4778727E+02  0.7816164E-02  0.1312668E+00
        -11   -1    0    0    0    0  0.00000000000E+00  0.00000000000E+00  0.45593999997E+02  0.45594000000E+02  0.51100000000E-03 0.  1.
         11   -1    0    0    0    0 -0.00000000000E+00 -0.00000000000E+00 -0.45593999997E+02  0.45594000000E+02  0.51100000000E-03 0. -1.
    9900012    2    1    2    0    0 -0.42855028775E+02  0.41052518274E+00  0.68484367649E+01  0.47787272952E+02  0.20000008695E+02 0.  0.
         12    1    1    2    0    0  0.42855028775E+02 -0.41052518274E+00 -0.68484367649E+01  0.43400727048E+02  0.00000000000E+00 0. -1.
         11    1    3    3    0    0 -0.12234527722E+02  0.91085135394E+01  0.68508062791E+00  0.15268203011E+02  0.51100000000E-03 0. -1.
        -11    1    3    3    0    0 -0.15356300773E+02 -0.40561093592E+01  0.43102832833E+01  0.16457415921E+02  0.51100000000E-03 0.  1.
         12    1    3    3    0    0 -0.15264200280E+02 -0.46418789975E+01  0.18530728537E+01  0.16061654019E+02  0.00000000000E+00 0. -1.
</event>
<event>
 7    1  0.5646756E-010  0.4778727E+02  0.7816164E-02  0.1312668E+00
        -11   -1    0    0    0    0  0.00000000000E+00  0.00000000000E+00  0.45593999997E+02  0.45594000000E+02  0.51100000000E-03 0.  1.
         11   -1    0    0    0    0 -0.00000000000E+00 -0.00000000000E+00 -0.45593999997E+02  0.45594000000E+02  0.51100000000E-03 0. -1.
    9900012    2    1    2    0    0  0.13650912471E+02  0.19282315300E+02  0.36406980111E+02  0.47787270796E+02  0.19999998869E+02 0.  0.
         12    1    1    2    0    0 -0.13650912471E+02 -0.19282315300E+02 -0.36406980111E+02  0.43400729204E+02  0.00000000000E+00 0. -1.
         11    1    3    3    0    0  0.11212120030E+02  0.44592728573E+01  0.23571404733E+02  0.26480329895E+02  0.51100000000E-03 0. -1.
        -11    1    3    3    0    0  0.96696960110E+00  0.15373297074E+02  0.11248535647E+02  0.19073616532E+02  0.51100000000E-03 0.  1.
        -12    1    3    3    0    0  0.14718228400E+01 -0.55025463183E+00  0.15870397304E+01  0.22333243693E+01  0.00000000000E+00 0.  1.
</event>
<event>
 7    1  0.5646756E-010  0.4778727E+02  0.7816164E-02  0.1312668E+00
        -11   -1    0    0    0    0  0.00000000000E+00  0.00000000000E+00  0.45593999997E+02  0.45594000000E+02  0.51100000000E-03 0. -1.
         11   -1    0    0    0    0 -0.00000000000E+00 -0.00000000000E+00 -0.45593999997E+02  0.45594000000E+02  0.51100000000E-03 0.  1.
    9900012    2    1    2    0    0 -0.29833671074E+02 -0.30896937786E+02 -0.62413648659E+01  0.47787270401E+02  0.19999997066E+02 0.  0.
         12    1    1    2    0    0  0.29833671074E+02  0.30896937786E+02  0.62413648659E+01  0.43400729599E+02  0.00000000000E+00 0. -1.
         11    1    3    3    0    0 -0.68007911106E+00  0.17072136351E+01  0.14172346132E+01  0.23206982146E+01  0.51100000000E-03 0. -1.
        -11    1    3    3    0    0 -0.31281624114E+01 -0.75167005726E+01  0.12490513054E+01  0.82368875794E+01  0.51100000000E-03 0.  1.
         12    1    3    3    0    0 -0.26025429552E+02 -0.25087450849E+02 -0.89076507846E+01  0.37229684607E+02  0.00000000000E+00 0. -1.
</event>
<event>
 7    1  0.5646756E-010  0.4778726E+02  0.7816164E-02  0.1312668E+00
        -11   -1    0    0    0    0  0.00000000000E+00  0.00000000000E+00  0.45593999997E+02  0.45594000000E+02  0.51100000000E-03 0.  1.
         11   -1    0    0    0    0 -0.00000000000E+00 -0.00000000000E+00 -0.45593999997E+02  0.45594000000E+02  0.51100000000E-03 0. -1.
    9900012    2    1    2    0    0  0.23874970131E+02  0.22115699470E+02  0.28714213708E+02  0.47787257718E+02  0.19999939239E+02 0.  0.
         12    1    1    2    0    0 -0.23874970131E+02 -0.22115699470E+02 -0.28714213708E+02  0.43400742282E+02  0.00000000000E+00 0. -1.
         11    1    3    3    0    0 -0.12229629034E+01  0.13874305091E+01  0.87329351135E+01  0.89266319314E+01  0.51100000000E-03 0. -1.
        -11    1    3    3    0    0  0.22443176587E+02  0.15334464536E+02  0.17668296474E+02  0.32419294849E+02  0.51100000000E-03 0.  1.
         12    1    3    3    0    0  0.26547564467E+01  0.53938044244E+01  0.23129821205E+01  0.64413309377E+01  0.00000000000E+00 0. -1.
</event>
<event>
 7    1  0.5646756E-010  0.4778727E+02  0.7816164E-02  0.1312668E+00
        -11   -1    0    0    0    0  0.00000000000E+00  0.00000000000E+00  0.45593999997E+02  0.45594000000E+02  0.51100000000E-03 0.  1.
         11   -1    0    0    0    0 -0.00000000000E+00 -0.00000000000E+00 -0.45593999997E+02  0.45594000000E+02  0.51100000000E-03 0. -1.
    9900012    2    1    2    0    0  0.12179430147E+02  0.39109465562E+02 -0.14343451665E+02  0.47787269350E+02  0.19999992277E+02 0.  0.
         12    1    1    2    0    0 -0.12179430147E+02 -0.39109465562E+02  0.14343451665E+02  0.43400730650E+02  0.00000000000E+00 0. -1.
         11    1    3    3    0    0  0.14625608030E+01  0.27515789033E+02 -0.62316094136E+01  0.28250498869E+02  0.51100000000E-03 0.  1.
        -11    1    3    3    0    0  0.11692702854E+02  0.88395857296E+01 -0.77838381479E+01  0.16596557248E+02  0.51100000000E-03 0. -1.
         12    1    3    3    0    0 -0.97583350931E+00  0.27540907997E+01 -0.32800410317E+00  0.29402132342E+01  0.00000000000E+00 0. -1.
</event>
<event>
 7    1  0.5646756E-010  0.4778727E+02  0.7816164E-02  0.1312668E+00
        -11   -1    0    0    0    0  0.00000000000E+00  0.00000000000E+00  0.45593999997E+02  0.45594000000E+02  0.51100000000E-03 0.  1.
         11   -1    0    0    0    0 -0.00000000000E+00 -0.00000000000E+00 -0.45593999997E+02  0.45594000000E+02  0.51100000000E-03 0. -1.
    9900012    2    1    2    0    0  0.11991468435E+01 -0.21892284784E+02  0.37455486589E+02  0.47787267727E+02  0.19999984872E+02 0.  0.
         12    1    1    2    0    0 -0.11991468435E+01  0.21892284784E+02 -0.37455486589E+02  0.43400732273E+02  0.00000000000E+00 0. -1.
         11    1    3    3    0    0  0.13365887948E+01 -0.24617551276E+01  0.58986943330E+01  0.65300308582E+01  0.51100000000E-03 0. -1.
        -11    1    3    3    0    0  0.60769214622E+00 -0.18250865155E+02  0.33914117568E+02  0.38517927505E+02  0.51100000000E-03 0.  1.
        -12    1    3    3    0    0 -0.74513409750E+00 -0.11796645022E+01 -0.23573253116E+01  0.27393093629E+01  0.00000000000E+00 0.  1.
</event>
<event>
 7    1  0.5646756E-010  0.4778727E+02  0.7816164E-02  0.1312668E+00
        -11   -1    0    0    0    0  0.00000000000E+00  0.00000000000E+00  0.45593999997E+02  0.45594000000E+02  0.51100000000E-03 0. -1.
         11   -1    0    0    0    0 -0.00000000000E+00 -0.00000000000E+00 -0.45593999997E+02  0.45594000000E+02  0.51100000000E-03 0.  1.
    9900012    2    1    2    0    0  0.14984891332E+02 -0.46624848826E+01 -0.40464028774E+02  0.47787270073E+02  0.19999995572E+02 0.  0.
         12    1    1    2    0    0 -0.14984891332E+02  0.46624848826E+01  0.40464028774E+02  0.43400729927E+02  0.00000000000E+00 0. -1.
         11    1    3    3    0    0  0.25289939785E+01 -0.86680053221E+01 -0.16183879767E+02  0.18532352560E+02  0.51100000000E-03 0. -1.
        -11    1    3    3    0    0  0.14074066181E+02  0.41716186242E+01 -0.21485056066E+02  0.26020941090E+02  0.51100000000E-03 0.  1.
        -12    1    3    3    0    0 -0.16181688266E+01 -0.16609818471E+00 -0.27950929408E+01  0.32339764232E+01  0.00000000000E+00 0.  1.
</event>
<event>
 7    1  0.5646756E-010  0.4778727E+02  0.7816164E-02  0.1312668E+00
        -11   -1    0    0    0    0  0.00000000000E+00  0.00000000000E+00  0.45593999997E+02  0.45594000000E+02  0.51100000000E-03 0. -1.
         11   -1    0    0    0    0 -0.00000000000E+00 -0.00000000000E+00 -0.45593999997E+02  0.45594000000E+02  0.51100000000E-03 0.  1.
    9900012    2    1    2    0    0 -0.24324487196E+02 -0.35154226592E+02 -0.74915365927E+01  0.47787269071E+02  0.19999991002E+02 0.  0.
         12    1    1    2    0    0  0.24324487196E+02  0.35154226592E+02  0.74915365927E+01  0.43400730929E+02  0.00000000000E+00 0. -1.
         11    1    3    3    0    0 -0.22573410481E+01  0.22603162176E+01 -0.16988891707E+01  0.36181269583E+01  0.51100000000E-03 0. -1.
        -11    1    3    3    0    0 -0.78909277112E+01 -0.18151650376E+02 -0.13125236194E+01  0.19836125379E+02  0.51100000000E-03 0.  1.
         12    1    3    3    0    0 -0.14176218437E+02 -0.19262892434E+02 -0.44801238027E+01  0.24333016734E+02  0.00000000000E+00 0. -1.
</event>
<event>
 7    1  0.5646756E-010  0.4778727E+02  0.7816164E-02  0.1312668E+00
        -11   -1    0    0    0    0  0.00000000000E+00  0.00000000000E+00  0.45593999997E+02  0.45594000000E+02  0.51100000000E-03 0.  1.
         11   -1    0    0    0    0 -0.00000000000E+00 -0.00000000000E+00 -0.45593999997E+02  0.45594000000E+02  0.51100000000E-03 0. -1.
    9900012    2    1    2    0    0  0.35683750164E+02  0.23016263943E+02  0.89746681577E+01  0.47787273045E+02  0.20000009121E+02 0.  0.
         12    1    1    2    0    0 -0.35683750164E+02 -0.23016263943E+02 -0.89746681577E+01  0.43400726955E+02  0.00000000000E+00 0. -1.
         11    1    3    3    0    0  0.27379728568E+02  0.16664637215E+02  0.32156826990E+01  0.32213355700E+02  0.51100000000E-03 0. -1.
        -11    1    3    3    0    0  0.22120423084E+01  0.24085108804E+01  0.74382835881E+01  0.81253996107E+01  0.51100000000E-03 0.  1.
        -12    1    3    3    0    0  0.60919792880E+01  0.39431158482E+01 -0.16792981294E+01  0.74485177348E+01  0.00000000000E+00 0.  1.
</event>
<event>
 7    1  0.5646756E-010  0.4778727E+02  0.7816164E-02  0.1312668E+00
        -11   -1    0    0    0    0  0.00000000000E+00  0.00000000000E+00  0.45593999997E+02  0.45594000000E+02  0.51100000000E-03 0.  1.
         11   -1    0    0    0    0 -0.00000000000E+00 -0.00000000000E+00 -0.45593999997E+02  0.45594000000E+02  0.51100000000E-03 0. -1.
    9900012    2    1    2    0    0  0.97153829304E+01  0.35417333974E+02  0.23126763560E+02  0.47787269545E+02  0.19999993162E+02 0.  0.
         12    1    1    2    0    0 -0.97153829304E+01 -0.35417333974E+02 -0.23126763560E+02  0.43400730455E+02  0.00000000000E+00 0. -1.
         11    1    3    3    0    0 -0.34697051904E+01  0.10444027774E+02  0.25648705507E+01  0.11300227053E+02  0.51100000000E-03 0. -1.
        -11    1    3    3    0    0  0.80888364755E+01  0.54156892240E+01  0.86806460136E+01  0.13042721371E+02  0.51100000000E-03 0.  1.
        -12    1    3    3    0    0  0.50962516452E+01  0.19557616976E+02  0.11881246996E+02  0.23444321120E+02  0.00000000000E+00 0.  1.
</event>
<event>
 7    1  0.5646756E-010  0.4778728E+02  0.7816164E-02  0.1312668E+00
        -11   -1    0    0    0    0  0.00000000000E+00  0.00000000000E+00  0.45593999997E+02  0.45594000000E+02  0.51100000000E-03 0.  1.
         11   -1    0    0    0    0 -0.00000000000E+00 -0.00000000000E+00 -0.45593999997E+02  0.45594000000E+02  0.51100000000E-03 0. -1.
    9900012    2    1    2    0    0 -0.57641132386E+00  0.71966575425E+01  0.42796010385E+02  0.47787278408E+02  0.20000033574E+02 0.  0.
         12    1    1    2    0    0  0.57641132386E+00 -0.71966575425E+01 -0.42796010385E+02  0.43400721592E+02  0.00000000000E+00 0. -1.
         11    1    3    3    0    0 -0.38252811263E+01  0.56878379198E+01  0.43347001705E+01  0.81101110798E+01  0.51100000000E-03 0. -1.
        -11    1    3    3    0    0 -0.15278414480E+01 -0.27941685418E+01  0.98324903422E+01  0.10335354078E+02  0.51100000000E-03 0.  1.
         12    1    3    3    0    0  0.47767112504E+01  0.43029881645E+01  0.28628819873E+02  0.29341813250E+02  0.00000000000E+00 0. -1.
</event>
<event>
 7    1  0.5646756E-010  0.4778727E+02  0.7816164E-02  0.1312668E+00
        -11   -1    0    0    0    0  0.00000000000E+00  0.00000000000E+00  0.45593999997E+02  0.45594000000E+02  0.51100000000E-03 0. -1.
         11   -1    0    0    0    0 -0.00000000000E+00 -0.00000000000E+00 -0.45593999997E+02  0.45594000000E+02  0.51100000000E-03 0.  1.
    9900012    2    1    2    0    0  0.14163226834E+01 -0.38971707058E+02 -0.19047924820E+02  0.47787270042E+02  0.19999995429E+02 0.  0.
         12    1    1    2    0    0 -0.14163226834E+01  0.38971707058E+02  0.19047924820E+02  0.43400729958E+02  0.00000000000E+00 0. -1.
         11    1    3    3    0    0 -0.76314733050E+00 -0.24666905069E+02 -0.14825309061E+02  0.28789379787E+02  0.51100000000E-03 0. -1.
        -11    1    3    3    0    0  0.54055849591E+01 -0.20732709945E+01 -0.21687143160E+01  0.61824043391E+01  0.51100000000E-03 0.  1.
         12    1    3    3    0    0 -0.32261149453E+01 -0.12231530995E+02 -0.20539014433E+01  0.12815485916E+02  0.00000000000E+00 0. -1.
</event>
<event>
 7    1  0.5646756E-010  0.4778728E+02  0.7816164E-02  0.1312668E+00
        -11   -1    0    0    0    0  0.00000000000E+00  0.00000000000E+00  0.45593999997E+02  0.45594000000E+02  0.51100000000E-03 0.  1.
         11   -1    0    0    0    0 -0.00000000000E+00 -0.00000000000E+00 -0.45593999997E+02  0.45594000000E+02  0.51100000000E-03 0. -1.
    9900012    2    1    2    0    0  0.25876324396E+01  0.59927855687E+01  0.42907032304E+02  0.47787277176E+02  0.20000027955E+02 0.  0.
         12    1    1    2    0    0 -0.25876324396E+01 -0.59927855687E+01 -0.42907032304E+02  0.43400722824E+02  0.00000000000E+00 0. -1.
         11    1    3    3    0    0  0.19998342834E+01  0.37095731548E+01 -0.45571518023E+00  0.42388614908E+01  0.51100000000E-03 0. -1.
        -11    1    3    3    0    0 -0.91866046039E+00  0.20553277425E+01  0.18049707014E+02  0.18189563841E+02  0.51100000000E-03 0.  1.
         12    1    3    3    0    0  0.15064586166E+01  0.22788467133E+00  0.25313040470E+02  0.25358851844E+02  0.00000000000E+00 0. -1.
</event>
<event>
 7    1  0.5646756E-010  0.4778727E+02  0.7816164E-02  0.1312668E+00
        -11   -1    0    0    0    0  0.00000000000E+00  0.00000000000E+00  0.45593999997E+02  0.45594000000E+02  0.51100000000E-03 0.  1.
         11   -1    0    0    0    0 -0.00000000000E+00 -0.00000000000E+00 -0.45593999997E+02  0.45594000000E+02  0.51100000000E-03 0. -1.
    9900012    2    1    2    0    0  0.23184535929E+02 -0.27985116276E+02  0.23726226656E+02  0.47787271083E+02  0.20000000175E+02 0.  0.
         12    1    1    2    0    0 -0.23184535929E+02  0.27985116276E+02 -0.23726226656E+02  0.43400728917E+02  0.00000000000E+00 0. -1.
         11    1    3    3    0    0  0.73262928868E+01 -0.21649080607E+02  0.10010206031E+02  0.24951182009E+02  0.51100000000E-03 0. -1.
        -11    1    3    3    0    0  0.11838083885E+02 -0.41199365886E+01  0.13221966906E+02  0.18219070138E+02  0.51100000000E-03 0.  1.
        -12    1    3    3    0    0  0.40201591574E+01 -0.22160990802E+01  0.49405371921E+00  0.46170189367E+01  0.00000000000E+00 0.  1.
</event>
<event>
 7    1  0.5646756E-010  0.4778727E+02  0.7816164E-02  0.1312668E+00
        -11   -1    0    0    0    0  0.00000000000E+00  0.00000000000E+00  0.45593999997E+02  0.45594000000E+02  0.51100000000E-03 0.  1.
         11   -1    0    0    0    0 -0.00000000000E+00 -0.00000000000E+00 -0.45593999997E+02  0.45594000000E+02  0.51100000000E-03 0. -1.
    9900012    2    1    2    0    0 -0.12626745320E+02  0.41503905602E+02  0.12704944869E+01  0.47787273810E+02  0.20000012610E+02 0.  0.
         12    1    1    2    0    0  0.12626745320E+02 -0.41503905602E+02 -0.12704944869E+01  0.43400726190E+02  0.00000000000E+00 0. -1.
         11    1    3    3    0    0 -0.13004370718E+01  0.14515719424E+01 -0.48804089505E+01  0.52551488530E+01  0.51100000000E-03 0. -1.
        -11    1    3    3    0    0 -0.72875167467E+01  0.26584239323E+02  0.10837384107E+01  0.27586304028E+02  0.51100000000E-03 0.  1.
         12    1    3    3    0    0 -0.40387915012E+01  0.13468094336E+02  0.50671650267E+01  0.14945820929E+02  0.00000000000E+00 0. -1.
</event>
<event>
 7    1  0.5646756E-010  0.4778727E+02  0.7816164E-02  0.1312668E+00
        -11   -1    0    0    0    0  0.00000000000E+00  0.00000000000E+00  0.45593999997E+02  0.45594000000E+02  0.51100000000E-03 0.  1.
         11   -1    0    0    0    0 -0.00000000000E+00 -0.00000000000E+00 -0.45593999997E+02  0.45594000000E+02  0.51100000000E-03 0. -1.
    9900012    2    1    2    0    0 -0.42196617607E+02  0.42546267391E+01  0.92177481327E+01  0.47787271126E+02  0.20000000372E+02 0.  0.
         12    1    1    2    0    0  0.42196617607E+02 -0.42546267391E+01 -0.92177481327E+01  0.43400728874E+02  0.00000000000E+00 0. -1.
         11    1    3    3    0    0 -0.25440424647E+02 -0.26482738381E+00  0.16640282140E+00  0.25442347178E+02  0.51100000000E-03 0.  1.
        -11    1    3    3    0    0 -0.16891878127E+02  0.20657532580E+01  0.52330084799E+01  0.17804136070E+02  0.51100000000E-03 0. -1.
         12    1    3    3    0    0  0.13568516685E+00  0.24537008649E+01  0.38183368314E+01  0.45407878784E+01  0.00000000000E+00 0. -1.
</event>
<event>
 7    1  0.5646756E-010  0.4778727E+02  0.7816164E-02  0.1312668E+00
        -11   -1    0    0    0    0  0.00000000000E+00  0.00000000000E+00  0.45593999997E+02  0.45594000000E+02  0.51100000000E-03 0.  1.
         11   -1    0    0    0    0 -0.00000000000E+00 -0.00000000000E+00 -0.45593999997E+02  0.45594000000E+02  0.51100000000E-03 0. -1.
    9900012    2    1    2    0    0 -0.11311885851E+02  0.11584166798E+02  0.40267505767E+02  0.47787266105E+02  0.19999977480E+02 0.  0.
         12    1    1    2    0    0  0.11311885851E+02 -0.11584166798E+02 -0.40267505767E+02  0.43400733895E+02  0.00000000000E+00 0. -1.
         11    1    3    3    0    0  0.31284179306E+01  0.23073474956E+01  0.10369628775E+01  0.40232006518E+01  0.51100000000E-03 0. -1.
        -11    1    3    3    0    0 -0.66349340125E+01  0.25702389057E+01  0.26260385233E+02  0.27207284139E+02  0.51100000000E-03 0.  1.
        -12    1    3    3    0    0 -0.78053697692E+01  0.67065803968E+01  0.12970157656E+02  0.16556781314E+02  0.00000000000E+00 0.  1.
</event>
<event>
 7    1  0.5646756E-010  0.4778727E+02  0.7816164E-02  0.1312668E+00
        -11   -1    0    0    0    0  0.00000000000E+00  0.00000000000E+00  0.45593999997E+02  0.45594000000E+02  0.51100000000E-03 0.  1.
         11   -1    0    0    0    0 -0.00000000000E+00 -0.00000000000E+00 -0.45593999997E+02  0.45594000000E+02  0.51100000000E-03 0. -1.
    9900012    2    1    2    0    0 -0.21081294419E+02 -0.33220222816E+02  0.18319919942E+02  0.47787266769E+02  0.19999980506E+02 0.  0.
         12    1    1    2    0    0  0.21081294419E+02  0.33220222816E+02 -0.18319919942E+02  0.43400733231E+02  0.00000000000E+00 0. -1.
         11    1    3    3    0    0 -0.15393291608E+02 -0.12564382078E+02  0.66629999975E+01  0.20957401860E+02  0.51100000000E-03 0. -1.
        -11    1    3    3    0    0  0.27020300195E+01 -0.31027129262E+01 -0.67621788017E-01  0.41148957090E+01  0.51100000000E-03 0.  1.
         12    1    3    3    0    0 -0.83900328314E+01 -0.17553127812E+02  0.11724541733E+02  0.22714969199E+02  0.00000000000E+00 0. -1.
</event>
<event>
 7    1  0.5646756E-010  0.4778727E+02  0.7816164E-02  0.1312668E+00
        -11   -1    0    0    0    0  0.00000000000E+00  0.00000000000E+00  0.45593999997E+02  0.45594000000E+02  0.51100000000E-03 0.  1.
         11   -1    0    0    0    0 -0.00000000000E+00 -0.00000000000E+00 -0.45593999997E+02  0.45594000000E+02  0.51100000000E-03 0. -1.
    9900012    2    1    2    0    0 -0.35689797227E+02 -0.13684526314E+02  0.20557131896E+02  0.47787267767E+02  0.19999985059E+02 0.  0.
         12    1    1    2    0    0  0.35689797227E+02  0.13684526314E+02 -0.20557131896E+02  0.43400732233E+02  0.00000000000E+00 0. -1.
         11    1    3    3    0    0 -0.61414013882E+01  0.42163848555E+01  0.53060354351E+01  0.91459676667E+01  0.51100000000E-03 0. -1.
        -11    1    3    3    0    0 -0.13648754955E+02 -0.12097223522E+02  0.52377918348E+01  0.18975399662E+02  0.51100000000E-03 0.  1.
        -12    1    3    3    0    0 -0.15899640884E+02 -0.58036876479E+01  0.10013304626E+02  0.19665900439E+02  0.00000000000E+00 0.  1.
</event>
<event>
 7    1  0.5646756E-010  0.4778726E+02  0.7816164E-02  0.1312668E+00
        -11   -1    0    0    0    0  0.00000000000E+00  0.00000000000E+00  0.45593999997E+02  0.45594000000E+02  0.51100000000E-03 0.  1.
         11   -1    0    0    0    0 -0.00000000000E+00 -0.00000000000E+00 -0.45593999997E+02  0.45594000000E+02  0.51100000000E-03 0. -1.
    9900012    2    1    2    0    0 -0.44668143205E+01  0.35196908571E+02  0.24996989727E+02  0.47787259240E+02  0.19999946177E+02 0.  0.
         12    1    1    2    0    0  0.44668143205E+01 -0.35196908571E+02 -0.24996989727E+02  0.43400740760E+02  0.00000000000E+00 0. -1.
         11    1    3    3    0    0 -0.99626781670E+00  0.16050427316E+00  0.28010874982E+00  0.10472689994E+01  0.51100000000E-03 0. -1.
        -11    1    3    3    0    0  0.20954135109E+01  0.28240868916E+02  0.10851694738E+02  0.30326501840E+02  0.51100000000E-03 0.  1.
        -12    1    3    3    0    0 -0.55659600147E+01  0.67955353822E+01  0.13865186239E+02  0.16413488400E+02  0.00000000000E+00 0.  1.
</event>
<event>
 7    1  0.5646756E-010  0.4778727E+02  0.7816164E-02  0.1312668E+00
        -11   -1    0    0    0    0  0.00000000000E+00  0.00000000000E+00  0.45593999997E+02  0.45594000000E+02  0.51100000000E-03 0.  1.
         11   -1    0    0    0    0 -0.00000000000E+00 -0.00000000000E+00 -0.45593999997E+02  0.45594000000E+02  0.51100000000E-03 0. -1.
    9900012    2    1    2    0    0 -0.25137915488E+02 -0.25166229923E+00  0.35378593502E+02  0.47787274118E+02  0.20000014011E+02 0.  0.
         12    1    1    2    0    0  0.25137915488E+02  0.25166229923E+00 -0.35378593502E+02  0.43400725882E+02  0.00000000000E+00 0. -1.
         11    1    3    3    0    0 -0.25203118040E+01  0.90846386164E+00  0.17486975202E+02  0.17691002803E+02  0.51100000000E-03 0. -1.
        -11    1    3    3    0    0 -0.17717296455E+01 -0.13219548308E+01  0.52989613702E+01  0.57415661953E+01  0.51100000000E-03 0.  1.
         12    1    3    3    0    0 -0.20845874038E+02  0.16182866990E+00  0.12592656929E+02  0.24354705120E+02  0.00000000000E+00 0. -1.
</event>
<event>
 7    1  0.5646756E-010  0.4778727E+02  0.7816164E-02  0.1312668E+00
        -11   -1    0    0    0    0  0.00000000000E+00  0.00000000000E+00  0.45593999997E+02  0.45594000000E+02  0.51100000000E-03 0.  1.
         11   -1    0    0    0    0 -0.00000000000E+00 -0.00000000000E+00 -0.45593999997E+02  0.45594000000E+02  0.51100000000E-03 0. -1.
    9900012    2    1    2    0    0  0.30210093317E+02  0.27100738233E+02  0.15379321978E+02  0.47787270795E+02  0.19999998864E+02 0.  0.
         12    1    1    2    0    0 -0.30210093317E+02 -0.27100738233E+02 -0.15379321978E+02  0.43400729205E+02  0.00000000000E+00 0. -1.
         11    1    3    3    0    0  0.91362666715E+01  0.47297661338E+01 -0.41610546678E+01  0.11097586791E+02  0.51100000000E-03 0. -1.
        -11    1    3    3    0    0  0.16105603858E+02  0.14112357863E+02  0.13298071976E+02  0.25206900615E+02  0.51100000000E-03 0.  1.
         12    1    3    3    0    0  0.49682227874E+01  0.82586142362E+01  0.62423046704E+01  0.11482783389E+02  0.00000000000E+00 0. -1.
</event>
<event>
 7    1  0.5646756E-010  0.4778727E+02  0.7816164E-02  0.1312668E+00
        -11   -1    0    0    0    0  0.00000000000E+00  0.00000000000E+00  0.45593999997E+02  0.45594000000E+02  0.51100000000E-03 0.  1.
         11   -1    0    0    0    0 -0.00000000000E+00 -0.00000000000E+00 -0.45593999997E+02  0.45594000000E+02  0.51100000000E-03 0. -1.
    9900012    2    1    2    0    0  0.33351511272E+02 -0.20957554205E+02  0.18223093771E+02  0.47787268106E+02  0.19999986601E+02 0.  0.
         12    1    1    2    0    0 -0.33351511272E+02  0.20957554205E+02 -0.18223093771E+02  0.43400731894E+02  0.00000000000E+00 0. -1.
         11    1    3    3    0    0  0.15004211617E+02 -0.17293400357E+02  0.12584357191E+02  0.26125736512E+02  0.51100000000E-03 0.  1.
        -11    1    3    3    0    0  0.65979087069E+01 -0.94662803461E+00 -0.24930662590E+01  0.71164516139E+01  0.51100000000E-03 0. -1.
         12    1    3    3    0    0  0.11749390948E+02 -0.27175258135E+01  0.81318028390E+01  0.14545079979E+02  0.00000000000E+00 0. -1.
</event>
<event>
 7    1  0.5646756E-010  0.4778727E+02  0.7816164E-02  0.1312668E+00
        -11   -1    0    0    0    0  0.00000000000E+00  0.00000000000E+00  0.45593999997E+02  0.45594000000E+02  0.51100000000E-03 0. -1.
         11   -1    0    0    0    0 -0.00000000000E+00 -0.00000000000E+00 -0.45593999997E+02  0.45594000000E+02  0.51100000000E-03 0.  1.
    9900012    2    1    2    0    0 -0.17149384111E+02 -0.39827958312E+02 -0.18043573297E+01  0.47787270236E+02  0.19999996312E+02 0.  0.
         12    1    1    2    0    0  0.17149384111E+02  0.39827958312E+02  0.18043573297E+01  0.43400729764E+02  0.00000000000E+00 0. -1.
         11    1    3    3    0    0 -0.10356813297E+02 -0.71014086150E+01 -0.62465684561E+01  0.14025448432E+02  0.51100000000E-03 0. -1.
        -11    1    3    3    0    0 -0.25356553648E+01 -0.14425861369E+02  0.12138592177E+01  0.14697226909E+02  0.51100000000E-03 0.  1.
         12    1    3    3    0    0 -0.42569154494E+01 -0.18300688328E+02  0.32283519087E+01  0.19064594894E+02  0.00000000000E+00 0. -1.
</event>
<event>
 7    1  0.5646756E-010  0.4778727E+02  0.7816164E-02  0.1312668E+00
        -11   -1    0    0    0    0  0.00000000000E+00  0.00000000000E+00  0.45593999997E+02  0.45594000000E+02  0.51100000000E-03 0. -1.
         11   -1    0    0    0    0 -0.00000000000E+00 -0.00000000000E+00 -0.45593999997E+02  0.45594000000E+02  0.51100000000E-03 0.  1.
    9900012    2    1    2    0    0 -0.26711896122E+02 -0.19979622115E+02 -0.27765312286E+02  0.47787271197E+02  0.20000000695E+02 0.  0.
         12    1    1    2    0    0  0.26711896122E+02  0.19979622115E+02  0.27765312286E+02  0.43400728803E+02  0.00000000000E+00 0. -1.
         11    1    3    3    0    0  0.95822900063E+00 -0.50978562749E+01  0.34656765234E-01  0.51872480922E+01  0.51100000000E-03 0. -1.
        -11    1    3    3    0    0 -0.23509862652E+02 -0.99292141790E+01 -0.24330935190E+02  0.35260421773E+02  0.51100000000E-03 0.  1.
        -12    1    3    3    0    0 -0.41602624712E+01 -0.49525516608E+01 -0.34690338613E+01  0.73396013321E+01  0.00000000000E+00 0.  1.
</event>
<event>
 7    1  0.5646756E-010  0.4778728E+02  0.7816164E-02  0.1312668E+00
        -11   -1    0    0    0    0  0.00000000000E+00  0.00000000000E+00  0.45593999997E+02  0.45594000000E+02  0.51100000000E-03 0.  1.
         11   -1    0    0    0    0 -0.00000000000E+00 -0.00000000000E+00 -0.45593999997E+02  0.45594000000E+02  0.51100000000E-03 0. -1.
    9900012    2    1    2    0    0 -0.23786593666E+02  0.10925196256E+02  0.34618794405E+02  0.47787275610E+02  0.20000020818E+02 0.  0.
         12    1    1    2    0    0  0.23786593666E+02 -0.10925196256E+02 -0.34618794405E+02  0.43400724390E+02  0.00000000000E+00 0. -1.
         11    1    3    3    0    0 -0.11409943121E+02 -0.48327657420E+00  0.30028688690E+01  0.11808369065E+02  0.51100000000E-03 0. -1.
        -11    1    3    3    0    0 -0.54770697458E+01  0.64374357619E+01  0.12909639662E+02  0.15430413755E+02  0.51100000000E-03 0.  1.
         12    1    3    3    0    0 -0.68995807993E+01  0.49710370679E+01  0.18706285875E+02  0.20548492790E+02  0.00000000000E+00 0. -1.
</event>
<event>
 7    1  0.5646756E-010  0.4778727E+02  0.7816164E-02  0.1312668E+00
        -11   -1    0    0    0    0  0.00000000000E+00  0.00000000000E+00  0.45593999997E+02  0.45594000000E+02  0.51100000000E-03 0.  1.
         11   -1    0    0    0    0 -0.00000000000E+00 -0.00000000000E+00 -0.45593999997E+02  0.45594000000E+02  0.51100000000E-03 0. -1.
    9900012    2    1    2    0    0  0.38527732119E+02  0.53233669770E+01  0.19258735059E+02  0.47787271270E+02  0.20000001030E+02 0.  0.
         12    1    1    2    0    0 -0.38527732119E+02 -0.53233669770E+01 -0.19258735059E+02  0.43400728730E+02  0.00000000000E+00 0. -1.
         11    1    3    3    0    0  0.12842762097E+02 -0.35050404329E+01  0.14404099687E+02  0.19613769010E+02  0.51100000000E-03 0. -1.
        -11    1    3    3    0    0  0.17988097080E+02  0.41693008515E+01  0.51559187527E+01  0.19171285940E+02  0.51100000000E-03 0.  1.
         12    1    3    3    0    0  0.76968729417E+01  0.46591065584E+01 -0.30128338060E+00  0.90022163204E+01  0.00000000000E+00 0. -1.
</event>
<event>
 7    1  0.5646756E-010  0.4778725E+02  0.7816164E-02  0.1312668E+00
        -11   -1    0    0    0    0  0.00000000000E+00  0.00000000000E+00  0.45593999997E+02  0.45594000000E+02  0.51100000000E-03 0.  1.
         11   -1    0    0    0    0 -0.00000000000E+00 -0.00000000000E+00 -0.45593999997E+02  0.45594000000E+02  0.51100000000E-03 0. -1.
    9900012    2    1    2    0    0 -0.38924660599E+02  0.23421946352E+01 -0.19052819867E+02  0.47787250890E+02  0.19999908107E+02 0.  0.
         12    1    1    2    0    0  0.38924660599E+02 -0.23421946352E+01  0.19052819867E+02  0.43400749110E+02  0.00000000000E+00 0. -1.
         11    1    3    3    0    0 -0.12104030037E+02  0.74242516585E+01 -0.53150902163E+01  0.15161703073E+02  0.51100000000E-03 0. -1.
        -11    1    3    3    0    0 -0.27604368166E+02 -0.51586165585E+01 -0.11665647822E+02  0.30408877093E+02  0.51100000000E-03 0.  1.
         12    1    3    3    0    0  0.78373760417E+00  0.76559535183E-01 -0.20720818286E+01  0.22166707241E+01  0.00000000000E+00 0. -1.
</event>
<event>
 7    1  0.5646756E-010  0.4778728E+02  0.7816164E-02  0.1312668E+00
        -11   -1    0    0    0    0  0.00000000000E+00  0.00000000000E+00  0.45593999997E+02  0.45594000000E+02  0.51100000000E-03 0.  1.
         11   -1    0    0    0    0 -0.00000000000E+00 -0.00000000000E+00 -0.45593999997E+02  0.45594000000E+02  0.51100000000E-03 0. -1.
    9900012    2    1    2    0    0  0.12501946324E+02 -0.31239903037E+01  0.41443510679E+02  0.47787279330E+02  0.20000037777E+02 0.  0.
         12    1    1    2    0    0 -0.12501946324E+02  0.31239903037E+01 -0.41443510679E+02  0.43400720670E+02  0.00000000000E+00 0. -1.
         11    1    3    3    0    0  0.46402685554E+00 -0.74547434047E+01  0.26748571174E+02  0.27771830697E+02  0.51100000000E-03 0.  1.
        -11    1    3    3    0    0  0.11103304302E+02  0.28061333574E+01  0.14022475392E+02  0.18104904508E+02  0.51100000000E-03 0. -1.
        -12    1    3    3    0    0  0.93461516604E+00  0.15246197436E+01  0.67246411238E+00  0.19105441250E+01  0.00000000000E+00 0.  1.
</event>
<event>
 7    1  0.5646756E-010  0.4778727E+02  0.7816164E-02  0.1312668E+00
        -11   -1    0    0    0    0  0.00000000000E+00  0.00000000000E+00  0.45593999997E+02  0.45594000000E+02  0.51100000000E-03 0. -1.
         11   -1    0    0    0    0 -0.00000000000E+00 -0.00000000000E+00 -0.45593999997E+02  0.45594000000E+02  0.51100000000E-03 0.  1.
    9900012    2    1    2    0    0 -0.11041350555E+01 -0.34876380218E+02 -0.25807795605E+02  0.47787270452E+02  0.19999997299E+02 0.  0.
         12    1    1    2    0    0  0.11041350555E+01  0.34876380218E+02  0.25807795605E+02  0.43400729548E+02  0.00000000000E+00 0. -1.
         11    1    3    3    0    0  0.99094380989E+00  0.57268741445E+00 -0.12259488325E+01  0.16771676452E+01  0.51100000000E-03 0. -1.
        -11    1    3    3    0    0  0.70421639144E+01 -0.17592998337E+02 -0.11656090407E+02  0.22247923654E+02  0.51100000000E-03 0.  1.
        -12    1    3    3    0    0 -0.91372427798E+01 -0.17856069295E+02 -0.12925756365E+02  0.23862179152E+02  0.00000000000E+00 0.  1.
</event>
<event>
 7    1  0.5646756E-010  0.4778727E+02  0.7816164E-02  0.1312668E+00
        -11   -1    0    0    0    0  0.00000000000E+00  0.00000000000E+00  0.45593999997E+02  0.45594000000E+02  0.51100000000E-03 0. -1.
         11   -1    0    0    0    0 -0.00000000000E+00 -0.00000000000E+00 -0.45593999997E+02  0.45594000000E+02  0.51100000000E-03 0.  1.
    9900012    2    1    2    0    0 -0.35267540309E+02 -0.21965574434E+02 -0.12543424883E+02  0.47787269966E+02  0.19999995083E+02 0.  0.
         12    1    1    2    0    0  0.35267540309E+02  0.21965574434E+02  0.12543424883E+02  0.43400730034E+02  0.00000000000E+00 0. -1.
         11    1    3    3    0    0 -0.32043468424E+02 -0.12774386511E+02 -0.43688592697E+01  0.34771478987E+02  0.51100000000E-03 0. -1.
        -11    1    3    3    0    0 -0.23954748681E+01 -0.43418760216E+01 -0.55399900434E+01  0.74351649056E+01  0.51100000000E-03 0.  1.
         12    1    3    3    0    0 -0.82859701698E+00 -0.48493119018E+01 -0.26345755703E+01  0.55806260735E+01  0.00000000000E+00 0. -1.
</event>
<event>
 7    1  0.5646756E-010  0.4778727E+02  0.7816164E-02  0.1312668E+00
        -11   -1    0    0    0    0  0.00000000000E+00  0.00000000000E+00  0.45593999997E+02  0.45594000000E+02  0.51100000000E-03 0.  1.
         11   -1    0    0    0    0 -0.00000000000E+00 -0.00000000000E+00 -0.45593999997E+02  0.45594000000E+02  0.51100000000E-03 0. -1.
    9900012    2    1    2    0    0 -0.32773830928E+02 -0.37101712936E+01  0.28208752636E+02  0.47787273163E+02  0.20000009658E+02 0.  0.
         12    1    1    2    0    0  0.32773830928E+02  0.37101712936E+01 -0.28208752636E+02  0.43400726837E+02  0.00000000000E+00 0. -1.
         11    1    3    3    0    0 -0.32189361222E+01 -0.20888973909E+01  0.71560905864E+01  0.81200169218E+01  0.51100000000E-03 0. -1.
        -11    1    3    3    0    0 -0.17231822267E+02  0.43386917744E+01  0.18666753432E+02  0.25772225921E+02  0.51100000000E-03 0.  1.
        -12    1    3    3    0    0 -0.12323072539E+02 -0.59599656771E+01  0.23859086177E+01  0.13895030320E+02  0.00000000000E+00 0.  1.
</event>
<event>
 7    1  0.5646756E-010  0.4778727E+02  0.7816164E-02  0.1312668E+00
        -11   -1    0    0    0    0  0.00000000000E+00  0.00000000000E+00  0.45593999997E+02  0.45594000000E+02  0.51100000000E-03 0. -1.
         11   -1    0    0    0    0 -0.00000000000E+00 -0.00000000000E+00 -0.45593999997E+02  0.45594000000E+02  0.51100000000E-03 0.  1.
    9900012    2    1    2    0    0 -0.17894260720E+02 -0.24173427871E+02 -0.31290000759E+02  0.47787270406E+02  0.19999997089E+02 0.  0.
         12    1    1    2    0    0  0.17894260720E+02  0.24173427871E+02  0.31290000759E+02  0.43400729594E+02  0.00000000000E+00 0. -1.
         11    1    3    3    0    0 -0.11771486881E+01 -0.49404505201E+01 -0.23228554051E+00  0.50840620776E+01  0.51100000000E-03 0. -1.
        -11    1    3    3    0    0 -0.17960896362E+02 -0.16750737378E+02 -0.21142408453E+02  0.32406518423E+02  0.51100000000E-03 0.  1.
        -12    1    3    3    0    0  0.12437843305E+01 -0.24822399735E+01 -0.99153067659E+01  0.10296689905E+02  0.00000000000E+00 0.  1.
</event>
<event>
 7    1  0.5646756E-010  0.4778727E+02  0.7816164E-02  0.1312668E+00
        -11   -1    0    0    0    0  0.00000000000E+00  0.00000000000E+00  0.45593999997E+02  0.45594000000E+02  0.51100000000E-03 0.  1.
         11   -1    0    0    0    0 -0.00000000000E+00 -0.00000000000E+00 -0.45593999997E+02  0.45594000000E+02  0.51100000000E-03 0. -1.
    9900012    2    1    2    0    0 -0.67417117959E+01 -0.41549302658E+02  0.10574887138E+02  0.47787268816E+02  0.19999989840E+02 0.  0.
         12    1    1    2    0    0  0.67417117959E+01  0.41549302658E+02 -0.10574887138E+02  0.43400731184E+02  0.00000000000E+00 0. -1.
         11    1    3    3    0    0 -0.82641794233E+01 -0.10218094641E+02 -0.16858315244E+01  0.13249458397E+02  0.51100000000E-03 0. -1.
        -11    1    3    3    0    0  0.15689391423E+01 -0.31782750735E+02  0.12199390200E+02  0.34079758448E+02  0.51100000000E-03 0.  1.
         12    1    3    3    0    0 -0.46471514935E-01  0.45154271817E+00  0.61328462625E-01  0.45805197124E+00  0.00000000000E+00 0. -1.
</event>
<event>
 7    1  0.5646756E-010  0.4778727E+02  0.7816164E-02  0.1312668E+00
        -11   -1    0    0    0    0  0.00000000000E+00  0.00000000000E+00  0.45593999997E+02  0.45594000000E+02  0.51100000000E-03 0.  1.
         11   -1    0    0    0    0 -0.00000000000E+00 -0.00000000000E+00 -0.45593999997E+02  0.45594000000E+02  0.51100000000E-03 0. -1.
    9900012    2    1    2    0    0 -0.24160932954E+02  0.10032274135E+02  0.34629847965E+02  0.47787267568E+02  0.19999984150E+02 0.  0.
         12    1    1    2    0    0  0.24160932954E+02 -0.10032274135E+02 -0.34629847965E+02  0.43400732432E+02  0.00000000000E+00 0. -1.
         11    1    3    3    0    0 -0.10916466422E+02  0.50482636575E+01  0.80321333118E+01  0.14462688924E+02  0.51100000000E-03 0. -1.
        -11    1    3    3    0    0  0.28111383965E+01  0.25692061577E+01  0.43350057860E+01  0.57702335127E+01  0.51100000000E-03 0.  1.
        -12    1    3    3    0    0 -0.16055604928E+02  0.24148043200E+01  0.22262708868E+02  0.27554345132E+02  0.00000000000E+00 0.  1.
</event>
<event>
 7    1  0.5646756E-010  0.4778728E+02  0.7816164E-02  0.1312668E+00
        -11   -1    0    0    0    0  0.00000000000E+00  0.00000000000E+00  0.45593999997E+02  0.45594000000E+02  0.51100000000E-03 0.  1.
         11   -1    0    0    0    0 -0.00000000000E+00 -0.00000000000E+00 -0.45593999997E+02  0.45594000000E+02  0.51100000000E-03 0. -1.
    9900012    2    1    2    0    0  0.40380128328E+02 -0.87842626897E+01  0.13262906887E+02  0.47787277266E+02  0.20000028365E+02 0.  0.
         12    1    1    2    0    0 -0.40380128328E+02  0.87842626897E+01 -0.13262906887E+02  0.43400722734E+02  0.00000000000E+00 0. -1.
         11    1    3    3    0    0 -0.12357469894E+01 -0.17224385156E+01 -0.28831236960E-02  0.21198758537E+01  0.51100000000E-03 0. -1.
        -11    1    3    3    0    0  0.35222102599E+02 -0.56854591971E+01  0.65148719685E+01  0.36267954379E+02  0.51100000000E-03 0.  1.
        -12    1    3    3    0    0  0.63937727181E+01 -0.13763649770E+01  0.67509180417E+01  0.93994470330E+01  0.00000000000E+00 0.  1.
</event>
<event>
 7    1  0.5646756E-010  0.4778727E+02  0.7816164E-02  0.1312668E+00
        -11   -1    0    0    0    0  0.00000000000E+00  0.00000000000E+00  0.45593999997E+02  0.45594000000E+02  0.51100000000E-03 0. -1.
         11   -1    0    0    0    0 -0.00000000000E+00 -0.00000000000E+00 -0.45593999997E+02  0.45594000000E+02  0.51100000000E-03 0.  1.
    9900012    2    1    2    0    0 -0.32468296555E+02 -0.27865599252E+02  0.72760836096E+01  0.47787270795E+02  0.19999998861E+02 0.  0.
         12    1    1    2    0    0  0.32468296555E+02  0.27865599252E+02 -0.72760836096E+01  0.43400729205E+02  0.00000000000E+00 0. -1.
         11    1    3    3    0    0 -0.13539909732E+01 -0.70882537979E+01  0.72416789104E+01  0.10223431281E+02  0.51100000000E-03 0. -1.
        -11    1    3    3    0    0 -0.13486474016E+02 -0.83990179210E+01 -0.15640703978E+01  0.15964798774E+02  0.51100000000E-03 0.  1.
         12    1    3    3    0    0 -0.17627831566E+02 -0.12378327533E+02  0.15984750971E+01  0.21599040740E+02  0.00000000000E+00 0. -1.
</event>
<event>
 7    1  0.5646756E-010  0.4778728E+02  0.7816164E-02  0.1312668E+00
        -11   -1    0    0    0    0  0.00000000000E+00  0.00000000000E+00  0.45593999997E+02  0.45594000000E+02  0.51100000000E-03 0.  1.
         11   -1    0    0    0    0 -0.00000000000E+00 -0.00000000000E+00 -0.45593999997E+02  0.45594000000E+02  0.51100000000E-03 0. -1.
    9900012    2    1    2    0    0 -0.24088031780E+02 -0.10112422046E+02  0.34657298044E+02  0.47787278089E+02  0.20000032121E+02 0.  0.
         12    1    1    2    0    0  0.24088031780E+02  0.10112422046E+02 -0.34657298044E+02  0.43400721911E+02  0.00000000000E+00 0. -1.
         11    1    3    3    0    0 -0.74128538626E+01  0.21979751512E+01  0.19690662041E+02  0.21154282522E+02  0.51100000000E-03 0. -1.
        -11    1    3    3    0    0 -0.29052091226E+01 -0.46710349213E+01  0.10133430212E+01  0.55933596006E+01  0.51100000000E-03 0.  1.
        -12    1    3    3    0    0 -0.13769968795E+02 -0.76393622755E+01  0.13953292982E+02  0.21039635967E+02  0.00000000000E+00 0.  1.
</event>
<event>
 7    1  0.5646756E-010  0.4778728E+02  0.7816164E-02  0.1312668E+00
        -11   -1    0    0    0    0  0.00000000000E+00  0.00000000000E+00  0.45593999997E+02  0.45594000000E+02  0.51100000000E-03 0.  1.
         11   -1    0    0    0    0 -0.00000000000E+00 -0.00000000000E+00 -0.45593999997E+02  0.45594000000E+02  0.51100000000E-03 0. -1.
    9900012    2    1    2    0    0  0.23147617422E+02  0.31750306054E+02  0.18431716506E+02  0.47787282262E+02  0.20000051145E+02 0.  0.
         12    1    1    2    0    0 -0.23147617422E+02 -0.31750306054E+02 -0.18431716506E+02  0.43400717738E+02  0.00000000000E+00 0. -1.
         11    1    3    3    0    0  0.62308917377E+01  0.40182112080E+01  0.97033163791E+01  0.12211649445E+02  0.51100000000E-03 0. -1.
        -11    1    3    3    0    0  0.20894615810E+01  0.12950693507E+02  0.64877797888E+00  0.13134200590E+02  0.51100000000E-03 0.  1.
         12    1    3    3    0    0  0.14827264104E+02  0.14781401338E+02  0.80796221477E+01  0.22441432226E+02  0.00000000000E+00 0. -1.
</event>
<event>
 7    1  0.5646756E-010  0.4778729E+02  0.7816164E-02  0.1312668E+00
        -11   -1    0    0    0    0  0.00000000000E+00  0.00000000000E+00  0.45593999997E+02  0.45594000000E+02  0.51100000000E-03 0. -1.
         11   -1    0    0    0    0 -0.00000000000E+00 -0.00000000000E+00 -0.45593999997E+02  0.45594000000E+02  0.51100000000E-03 0.  1.
    9900012    2    1    2    0    0  0.60552133340E+01  0.34300583544E+02 -0.25892589060E+02  0.47787287930E+02  0.20000076986E+02 0.  0.
         12    1    1    2    0    0 -0.60552133340E+01 -0.34300583544E+02  0.25892589060E+02  0.43400712070E+02  0.00000000000E+00 0. -1.
         11    1    3    3    0    0 -0.26419010114E+01  0.51919794959E+01 -0.64035693824E+01  0.86569043622E+01  0.51100000000E-03 0. -1.
        -11    1    3    3    0    0  0.10656929071E+02  0.10699990311E+02 -0.61175064166E+01  0.16293674076E+02  0.51100000000E-03 0.  1.
        -12    1    3    3    0    0 -0.19598147260E+01  0.18408613738E+02 -0.13371513261E+02  0.22836709491E+02  0.00000000000E+00 0.  1.
</event>
<event>
 7    1  0.5646756E-010  0.4778727E+02  0.7816164E-02  0.1312668E+00
        -11   -1    0    0    0    0  0.00000000000E+00  0.00000000000E+00  0.45593999997E+02  0.45594000000E+02  0.51100000000E-03 0. -1.
         11   -1    0    0    0    0 -0.00000000000E+00 -0.00000000000E+00 -0.45593999997E+02  0.45594000000E+02  0.51100000000E-03 0.  1.
    9900012    2    1    2    0    0  0.10019193434E+02  0.36263697235E+02  0.21637542087E+02  0.47787271875E+02  0.20000003789E+02 0.  0.
         12    1    1    2    0    0 -0.10019193434E+02 -0.36263697235E+02 -0.21637542087E+02  0.43400728125E+02  0.00000000000E+00 0. -1.
         11    1    3    3    0    0 -0.20902961110E+01  0.15317560990E+02  0.15975779221E+02  0.22231116357E+02  0.51100000000E-03 0. -1.
        -11    1    3    3    0    0  0.37159643270E+01  0.12135298071E+02  0.19988549782E+01  0.12847928691E+02  0.51100000000E-03 0.  1.
         12    1    3    3    0    0  0.83935252178E+01  0.88108381739E+01  0.36629078871E+01  0.12708226827E+02  0.00000000000E+00 0. -1.
</event>
<event>
 7    1  0.5646756E-010  0.4778727E+02  0.7816164E-02  0.1312668E+00
        -11   -1    0    0    0    0  0.00000000000E+00  0.00000000000E+00  0.45593999997E+02  0.45594000000E+02  0.51100000000E-03 0.  1.
         11   -1    0    0    0    0 -0.00000000000E+00 -0.00000000000E+00 -0.45593999997E+02  0.45594000000E+02  0.51100000000E-03 0. -1.
    9900012    2    1    2    0    0  0.26878213394E+02  0.33918041162E+02 -0.32789294555E+01  0.47787271320E+02  0.20000001258E+02 0.  0.
         12    1    1    2    0    0 -0.26878213394E+02 -0.33918041162E+02  0.32789294555E+01  0.43400728680E+02  0.00000000000E+00 0. -1.
         11    1    3    3    0    0  0.31384279387E+01  0.50969529062E+01 -0.57020883633E+01  0.82669505151E+01  0.51100000000E-03 0. -1.
        -11    1    3    3    0    0  0.17716542092E+02  0.15983323046E+02 -0.35678526750E+01  0.24126169449E+02  0.51100000000E-03 0.  1.
        -12    1    3    3    0    0  0.60232433635E+01  0.12837765210E+02  0.59910115829E+01  0.15394151357E+02  0.00000000000E+00 0.  1.
</event>
<event>
 7    1  0.5646756E-010  0.4778727E+02  0.7816164E-02  0.1312668E+00
        -11   -1    0    0    0    0  0.00000000000E+00  0.00000000000E+00  0.45593999997E+02  0.45594000000E+02  0.51100000000E-03 0.  1.
         11   -1    0    0    0    0 -0.00000000000E+00 -0.00000000000E+00 -0.45593999997E+02  0.45594000000E+02  0.51100000000E-03 0. -1.
    9900012    2    1    2    0    0 -0.67032578999E+00  0.43395488287E+02 -0.75553646753E-01  0.47787269031E+02  0.19999990819E+02 0.  0.
         12    1    1    2    0    0  0.67032578999E+00 -0.43395488287E+02  0.75553646753E-01  0.43400730969E+02  0.00000000000E+00 0. -1.
         11    1    3    3    0    0 -0.31380061520E+01  0.23460546810E+02  0.26365559768E+01  0.23815872164E+02  0.51100000000E-03 0. -1.
        -11    1    3    3    0    0 -0.33131323492E+00  0.64678817171E+01  0.50182975285E+01  0.81930807827E+01  0.51100000000E-03 0.  1.
         12    1    3    3    0    0  0.27989935969E+01  0.13467059759E+02 -0.77304071521E+01  0.15778316084E+02  0.00000000000E+00 0. -1.
</event>
<event>
 7    1  0.5646756E-010  0.4778730E+02  0.7816164E-02  0.1312668E+00
        -11   -1    0    0    0    0  0.00000000000E+00  0.00000000000E+00  0.45593999997E+02  0.45594000000E+02  0.51100000000E-03 0. -1.
         11   -1    0    0    0    0 -0.00000000000E+00 -0.00000000000E+00 -0.45593999997E+02  0.45594000000E+02  0.51100000000E-03 0.  1.
    9900012    2    1    2    0    0  0.20000069173E+02  0.21838723773E+02 -0.31728354830E+02  0.47787295821E+02  0.20000112968E+02 0.  0.
         12    1    1    2    0    0 -0.20000069173E+02 -0.21838723773E+02  0.31728354830E+02  0.43400704179E+02  0.00000000000E+00 0. -1.
         11    1    3    3    0    0  0.36812804546E+01  0.87906294991E+01 -0.13534198912E+01  0.96259409118E+01  0.51100000000E-03 0. -1.
        -11    1    3    3    0    0  0.94083891928E+01  0.15264954467E+01 -0.10610052372E+02  0.14262579961E+02  0.51100000000E-03 0.  1.
         12    1    3    3    0    0  0.69103995259E+01  0.11521598827E+02 -0.19764882567E+02  0.23898774948E+02  0.00000000000E+00 0. -1.
</event>
<event>
 7    1  0.5646756E-010  0.4778727E+02  0.7816164E-02  0.1312668E+00
        -11   -1    0    0    0    0  0.00000000000E+00  0.00000000000E+00  0.45593999997E+02  0.45594000000E+02  0.51100000000E-03 0.  1.
         11   -1    0    0    0    0 -0.00000000000E+00 -0.00000000000E+00 -0.45593999997E+02  0.45594000000E+02  0.51100000000E-03 0. -1.
    9900012    2    1    2    0    0 -0.16885132620E+02 -0.55701821597E+01  0.39591528041E+02  0.47787265841E+02  0.19999976277E+02 0.  0.
         12    1    1    2    0    0  0.16885132620E+02  0.55701821597E+01 -0.39591528041E+02  0.43400734159E+02  0.00000000000E+00 0. -1.
         11    1    3    3    0    0 -0.21326162555E+01  0.58355940485E+01  0.48249242093E+01  0.78665179005E+01  0.51100000000E-03 0. -1.
        -11    1    3    3    0    0 -0.14677256623E+02 -0.93034317416E+01  0.32308514785E+02  0.36685362640E+02  0.51100000000E-03 0.  1.
        -12    1    3    3    0    0 -0.75259741789E-01 -0.21023444666E+01  0.24580890467E+01  0.32353853011E+01  0.00000000000E+00 0.  1.
</event>
<event>
 7    1  0.5646756E-010  0.4778727E+02  0.7816164E-02  0.1312668E+00
        -11   -1    0    0    0    0  0.00000000000E+00  0.00000000000E+00  0.45593999997E+02  0.45594000000E+02  0.51100000000E-03 0.  1.
         11   -1    0    0    0    0 -0.00000000000E+00 -0.00000000000E+00 -0.45593999997E+02  0.45594000000E+02  0.51100000000E-03 0. -1.
    9900012    2    1    2    0    0 -0.53025437283E+01 -0.41307977455E+02  0.12212996975E+02  0.47787271129E+02  0.20000000385E+02 0.  0.
         12    1    1    2    0    0  0.53025437283E+01  0.41307977455E+02 -0.12212996975E+02  0.43400728871E+02  0.00000000000E+00 0. -1.
         11    1    3    3    0    0  0.12738212099E+00 -0.71994815012E+01 -0.37289162651E+01  0.81088579260E+01  0.51100000000E-03 0. -1.
        -11    1    3    3    0    0  0.15969682462E+00 -0.26517095838E+02  0.14238645001E+02  0.30098519672E+02  0.51100000000E-03 0.  1.
        -12    1    3    3    0    0 -0.55896226739E+01 -0.75914001166E+01  0.17032682391E+01  0.95798935308E+01  0.00000000000E+00 0.  1.
</event>
<event>
 7    1  0.5646756E-010  0.4778727E+02  0.7816164E-02  0.1312668E+00
        -11   -1    0    0    0    0  0.00000000000E+00  0.00000000000E+00  0.45593999997E+02  0.45594000000E+02  0.51100000000E-03 0.  1.
         11   -1    0    0    0    0 -0.00000000000E+00 -0.00000000000E+00 -0.45593999997E+02  0.45594000000E+02  0.51100000000E-03 0. -1.
    9900012    2    1    2    0    0 -0.18458068499E+02  0.39167085130E+02 -0.29770100216E+01  0.47787269143E+02  0.19999991330E+02 0.  0.
         12    1    1    2    0    0  0.18458068499E+02 -0.39167085130E+02  0.29770100216E+01  0.43400730857E+02  0.00000000000E+00 0. -1.
         11    1    3    3    0    0 -0.13089256171E+02  0.16199142063E+02 -0.60519880598E+01  0.21687954962E+02  0.51100000000E-03 0. -1.
        -11    1    3    3    0    0  0.28876234909E+01  0.26834942740E+01  0.11910939453E+01  0.41180354529E+01  0.51100000000E-03 0.  1.
         12    1    3    3    0    0 -0.82564358189E+01  0.20284448793E+02  0.18838840928E+01  0.21981278728E+02  0.00000000000E+00 0. -1.
</event>
<event>
 7    1  0.5646756E-010  0.4778727E+02  0.7816164E-02  0.1312668E+00
        -11   -1    0    0    0    0  0.00000000000E+00  0.00000000000E+00  0.45593999997E+02  0.45594000000E+02  0.51100000000E-03 0.  1.
         11   -1    0    0    0    0 -0.00000000000E+00 -0.00000000000E+00 -0.45593999997E+02  0.45594000000E+02  0.51100000000E-03 0. -1.
    9900012    2    1    2    0    0  0.38687053755E+02 -0.13529088556E+02  0.14279315880E+02  0.47787271579E+02  0.20000002439E+02 0.  0.
         12    1    1    2    0    0 -0.38687053755E+02  0.13529088556E+02 -0.14279315880E+02  0.43400728421E+02  0.00000000000E+00 0. -1.
         11    1    3    3    0    0  0.60101056342E+01 -0.63164307104E+01 -0.11574012875E+01  0.87953535833E+01  0.51100000000E-03 0. -1.
        -11    1    3    3    0    0  0.25158793336E+02 -0.90496042237E+01  0.16123436271E+02  0.31222194288E+02  0.51100000000E-03 0.  1.
        -12    1    3    3    0    0  0.75181547854E+01  0.18369463780E+01 -0.68671910299E+00  0.77697237081E+01  0.00000000000E+00 0.  1.
</event>
<event>
 7    1  0.5646756E-010  0.4778726E+02  0.7816164E-02  0.1312668E+00
        -11   -1    0    0    0    0  0.00000000000E+00  0.00000000000E+00  0.45593999997E+02  0.45594000000E+02  0.51100000000E-03 0. -1.
         11   -1    0    0    0    0 -0.00000000000E+00 -0.00000000000E+00 -0.45593999997E+02  0.45594000000E+02  0.51100000000E-03 0.  1.
    9900012    2    1    2    0    0  0.10914024406E+02 -0.39026384930E+02 -0.15538656847E+02  0.47787256849E+02  0.19999935277E+02 0.  0.
         12    1    1    2    0    0 -0.10914024406E+02  0.39026384930E+02  0.15538656847E+02  0.43400743151E+02  0.00000000000E+00 0. -1.
         11    1    3    3    0    0  0.12503266536E+02 -0.27996392787E+02 -0.97287769837E+01  0.32167977634E+02  0.51100000000E-03 0. -1.
        -11    1    3    3    0    0 -0.16703636709E+01 -0.71636162443E+01  0.13529384371E+01  0.74791680797E+01  0.51100000000E-03 0.  1.
         12    1    3    3    0    0  0.81121540649E-01 -0.38663758987E+01 -0.71628183004E+01  0.81401111355E+01  0.00000000000E+00 0. -1.
</event>
<event>
 7    1  0.5646756E-010  0.4778727E+02  0.7816164E-02  0.1312668E+00
        -11   -1    0    0    0    0  0.00000000000E+00  0.00000000000E+00  0.45593999997E+02  0.45594000000E+02  0.51100000000E-03 0.  1.
         11   -1    0    0    0    0 -0.00000000000E+00 -0.00000000000E+00 -0.45593999997E+02  0.45594000000E+02  0.51100000000E-03 0. -1.
    9900012    2    1    2    0    0  0.38905758259E+02  0.19232024749E+02 -0.30738753982E+00  0.47787270873E+02  0.19999999217E+02 0.  0.
         12    1    1    2    0    0 -0.38905758259E+02 -0.19232024749E+02  0.30738753982E+00  0.43400729127E+02  0.00000000000E+00 0. -1.
         11    1    3    3    0    0  0.79683457866E+01  0.20822132829E+01 -0.79161032315E+01  0.11423433694E+02  0.51100000000E-03 0. -1.
        -11    1    3    3    0    0  0.23992755988E+02  0.12328513202E+02  0.44534379037E+01  0.27340038169E+02  0.51100000000E-03 0.  1.
         12    1    3    3    0    0  0.69446564853E+01  0.48212982645E+01  0.31552777879E+01  0.90237990100E+01  0.00000000000E+00 0. -1.
</event>
<event>
 7    1  0.5646756E-010  0.4778727E+02  0.7816164E-02  0.1312668E+00
        -11   -1    0    0    0    0  0.00000000000E+00  0.00000000000E+00  0.45593999997E+02  0.45594000000E+02  0.51100000000E-03 0.  1.
         11   -1    0    0    0    0 -0.00000000000E+00 -0.00000000000E+00 -0.45593999997E+02  0.45594000000E+02  0.51100000000E-03 0. -1.
    9900012    2    1    2    0    0 -0.37723540871E+02  0.19235758478E+02  0.95154433005E+01  0.47787267272E+02  0.19999982801E+02 0.  0.
         12    1    1    2    0    0  0.37723540871E+02 -0.19235758478E+02 -0.95154433005E+01  0.43400732728E+02  0.00000000000E+00 0. -1.
         11    1    3    3    0    0 -0.26371371763E+01 -0.14295368127E+01 -0.10554592067E+00  0.30015343056E+01  0.51100000000E-03 0. -1.
        -11    1    3    3    0    0 -0.14566642123E+01 -0.11755921443E+01 -0.22869399349E+01  0.29553311226E+01  0.51100000000E-03 0.  1.
        -12    1    3    3    0    0 -0.33629739483E+02  0.21840887435E+02  0.11907929156E+02  0.41830401844E+02  0.00000000000E+00 0.  1.
</event>
<event>
 7    1  0.5646756E-010  0.4778725E+02  0.7816164E-02  0.1312668E+00
        -11   -1    0    0    0    0  0.00000000000E+00  0.00000000000E+00  0.45593999997E+02  0.45594000000E+02  0.51100000000E-03 0.  1.
         11   -1    0    0    0    0 -0.00000000000E+00 -0.00000000000E+00 -0.45593999997E+02  0.45594000000E+02  0.51100000000E-03 0. -1.
    9900012    2    1    2    0    0 -0.29272620945E+02 -0.29865036152E+02 -0.11611128299E+02  0.47787250909E+02  0.19999908192E+02 0.  0.
         12    1    1    2    0    0  0.29272620945E+02  0.29865036152E+02  0.11611128299E+02  0.43400749091E+02  0.00000000000E+00 0. -1.
         11    1    3    3    0    0 -0.71310632705E+00  0.13122055359E+01 -0.40653134687E+01  0.43309557677E+01  0.51100000000E-03 0. -1.
        -11    1    3    3    0    0 -0.12942583951E+02 -0.18976682558E+02 -0.36230964450E+01  0.23254070361E+02  0.51100000000E-03 0.  1.
         12    1    3    3    0    0 -0.15616930667E+02 -0.12200559130E+02 -0.39227183848E+01  0.20202224780E+02  0.00000000000E+00 0. -1.
</event>
<event>
 7    1  0.5646756E-010  0.4778727E+02  0.7816164E-02  0.1312668E+00
        -11   -1    0    0    0    0  0.00000000000E+00  0.00000000000E+00  0.45593999997E+02  0.45594000000E+02  0.51100000000E-03 0.  1.
         11   -1    0    0    0    0 -0.00000000000E+00 -0.00000000000E+00 -0.45593999997E+02  0.45594000000E+02  0.51100000000E-03 0. -1.
    9900012    2    1    2    0    0 -0.22724087701E+02 -0.33691599815E+02  0.15235325873E+02  0.47787271730E+02  0.20000003124E+02 0.  0.
         12    1    1    2    0    0  0.22724087701E+02  0.33691599815E+02 -0.15235325873E+02  0.43400728270E+02  0.00000000000E+00 0. -1.
         11    1    3    3    0    0 -0.55423379780E+01 -0.10209254291E+02  0.12027266663E+02  0.16721289636E+02  0.51100000000E-03 0. -1.
        -11    1    3    3    0    0 -0.45129881118E+01 -0.71352501389E+01  0.57705194323E+01  0.10226326370E+02  0.51100000000E-03 0.  1.
         12    1    3    3    0    0 -0.12668761612E+02 -0.16347095385E+02 -0.25624602226E+01  0.20839655724E+02  0.00000000000E+00 0. -1.
</event>
<event>
 7    1  0.5646756E-010  0.4778727E+02  0.7816164E-02  0.1312668E+00
        -11   -1    0    0    0    0  0.00000000000E+00  0.00000000000E+00  0.45593999997E+02  0.45594000000E+02  0.51100000000E-03 0.  1.
         11   -1    0    0    0    0 -0.00000000000E+00 -0.00000000000E+00 -0.45593999997E+02  0.45594000000E+02  0.51100000000E-03 0. -1.
    9900012    2    1    2    0    0  0.35883607996E+02 -0.23534755565E+02  0.64888373229E+01  0.47787273599E+02  0.20000011648E+02 0.  0.
         12    1    1    2    0    0 -0.35883607996E+02  0.23534755565E+02 -0.64888373229E+01  0.43400726401E+02  0.00000000000E+00 0. -1.
         11    1    3    3    0    0  0.10707717312E+02 -0.83462731658E+01 -0.33433391418E+01  0.13981895532E+02  0.51100000000E-03 0. -1.
        -11    1    3    3    0    0  0.35513839243E+01 -0.66075145218E+01  0.71904214479E+01  0.10391041179E+02  0.51100000000E-03 0.  1.
        -12    1    3    3    0    0  0.21624506760E+02 -0.85809678778E+01  0.26417550168E+01  0.23414336888E+02  0.00000000000E+00 0.  1.
</event>
<event>
 7    1  0.5646756E-010  0.4778727E+02  0.7816164E-02  0.1312668E+00
        -11   -1    0    0    0    0  0.00000000000E+00  0.00000000000E+00  0.45593999997E+02  0.45594000000E+02  0.51100000000E-03 0.  1.
         11   -1    0    0    0    0 -0.00000000000E+00 -0.00000000000E+00 -0.45593999997E+02  0.45594000000E+02  0.51100000000E-03 0. -1.
    9900012    2    1    2    0    0 -0.15947123765E+02  0.17449219456E+02  0.36398314126E+02  0.47787270891E+02  0.19999999300E+02 0.  0.
         12    1    1    2    0    0  0.15947123765E+02 -0.17449219456E+02 -0.36398314126E+02  0.43400729109E+02  0.00000000000E+00 0. -1.
         11    1    3    3    0    0 -0.58796594256E+00 -0.36178084527E+01  0.42759097612E+01  0.56318421939E+01  0.51100000000E-03 0. -1.
        -11    1    3    3    0    0 -0.10392022527E+02  0.81446978973E+01  0.18540948887E+02  0.22761744703E+02  0.51100000000E-03 0.  1.
         12    1    3    3    0    0 -0.49671352957E+01  0.12922330012E+02  0.13581455477E+02  0.19393683994E+02  0.00000000000E+00 0. -1.
</event>
<event>
 7    1  0.5646756E-010  0.4778727E+02  0.7816164E-02  0.1312668E+00
        -11   -1    0    0    0    0  0.00000000000E+00  0.00000000000E+00  0.45593999997E+02  0.45594000000E+02  0.51100000000E-03 0.  1.
         11   -1    0    0    0    0 -0.00000000000E+00 -0.00000000000E+00 -0.45593999997E+02  0.45594000000E+02  0.51100000000E-03 0. -1.
    9900012    2    1    2    0    0  0.10593312901E+02  0.26325460974E+02  0.32838626946E+02  0.47787267363E+02  0.19999983214E+02 0.  0.
         12    1    1    2    0    0 -0.10593312901E+02 -0.26325460974E+02 -0.32838626946E+02  0.43400732637E+02  0.00000000000E+00 0. -1.
         11    1    3    3    0    0 -0.24694413790E+01  0.23430918982E+00  0.29515800478E-01  0.24807081579E+01  0.51100000000E-03 0. -1.
        -11    1    3    3    0    0  0.24382754479E+01  0.16254281333E+02  0.14145336613E+02  0.21684957851E+02  0.51100000000E-03 0.  1.
         12    1    3    3    0    0  0.10624478833E+02  0.98368704508E+01  0.18663774533E+02  0.23621601354E+02  0.00000000000E+00 0. -1.
</event>
<event>
 7    1  0.5646756E-010  0.4778727E+02  0.7816164E-02  0.1312668E+00
        -11   -1    0    0    0    0  0.00000000000E+00  0.00000000000E+00  0.45593999997E+02  0.45594000000E+02  0.51100000000E-03 0.  1.
         11   -1    0    0    0    0 -0.00000000000E+00 -0.00000000000E+00 -0.45593999997E+02  0.45594000000E+02  0.51100000000E-03 0. -1.
    9900012    2    1    2    0    0 -0.10904033544E+02 -0.34416784861E+02  0.24087553978E+02  0.47787270924E+02  0.19999999451E+02 0.  0.
         12    1    1    2    0    0  0.10904033544E+02  0.34416784861E+02 -0.24087553978E+02  0.43400729076E+02  0.00000000000E+00 0. -1.
         11    1    3    3    0    0 -0.50463704651E+01 -0.16428496043E+02  0.20172222083E+02  0.26500563789E+02  0.51100000000E-03 0. -1.
        -11    1    3    3    0    0  0.88336757873E+00 -0.88031738973E+01  0.44040468206E+01  0.98829063339E+01  0.51100000000E-03 0.  1.
         12    1    3    3    0    0 -0.67410306578E+01 -0.91851149209E+01 -0.48871492561E+00  0.11403800801E+02  0.00000000000E+00 0. -1.
</event>
<event>
 7    1  0.5646756E-010  0.4778729E+02  0.7816164E-02  0.1312668E+00
        -11   -1    0    0    0    0  0.00000000000E+00  0.00000000000E+00  0.45593999997E+02  0.45594000000E+02  0.51100000000E-03 0.  1.
         11   -1    0    0    0    0 -0.00000000000E+00 -0.00000000000E+00 -0.45593999997E+02  0.45594000000E+02  0.51100000000E-03 0. -1.
    9900012    2    1    2    0    0 -0.20817422625E+02  0.25304991835E+02  0.28458985768E+02  0.47787290703E+02  0.20000089632E+02 0.  0.
         12    1    1    2    0    0  0.20817422625E+02 -0.25304991835E+02 -0.28458985768E+02  0.43400709297E+02  0.00000000000E+00 0. -1.
         11    1    3    3    0    0 -0.89180008740E+01  0.31103979442E+01  0.10674547194E+01  0.95049868384E+01  0.51100000000E-03 0. -1.
        -11    1    3    3    0    0 -0.27096655768E+01 -0.16596832574E-02  0.24559407272E+01  0.36570391588E+01  0.51100000000E-03 0.  1.
         12    1    3    3    0    0 -0.91897561743E+01  0.22196253574E+02  0.24935590321E+02  0.34625264706E+02  0.00000000000E+00 0. -1.
</event>
<event>
 7    1  0.5646756E-010  0.4778726E+02  0.7816164E-02  0.1312668E+00
        -11   -1    0    0    0    0  0.00000000000E+00  0.00000000000E+00  0.45593999997E+02  0.45594000000E+02  0.51100000000E-03 0.  1.
         11   -1    0    0    0    0 -0.00000000000E+00 -0.00000000000E+00 -0.45593999997E+02  0.45594000000E+02  0.51100000000E-03 0. -1.
    9900012    2    1    2    0    0  0.22339945695E+02 -0.13587604303E+02  0.34639974299E+02  0.47787262866E+02  0.19999962710E+02 0.  0.
         12    1    1    2    0    0 -0.22339945695E+02  0.13587604303E+02 -0.34639974299E+02  0.43400737134E+02  0.00000000000E+00 0. -1.
         11    1    3    3    0    0  0.13821650180E+02 -0.14444487316E+02  0.22716985469E+02  0.30261240169E+02  0.51100000000E-03 0. -1.
        -11    1    3    3    0    0  0.43730254893E+01 -0.43028499002E+01  0.46936521644E+01  0.77245219979E+01  0.51100000000E-03 0.  1.
         12    1    3    3    0    0  0.41452700255E+01  0.51597329128E+01  0.72293366660E+01  0.98015006987E+01  0.00000000000E+00 0. -1.
</event>
<event>
 7    1  0.5646756E-010  0.4778727E+02  0.7816164E-02  0.1312668E+00
        -11   -1    0    0    0    0  0.00000000000E+00  0.00000000000E+00  0.45593999997E+02  0.45594000000E+02  0.51100000000E-03 0.  1.
         11   -1    0    0    0    0 -0.00000000000E+00 -0.00000000000E+00 -0.45593999997E+02  0.45594000000E+02  0.51100000000E-03 0. -1.
    9900012    2    1    2    0    0  0.12433159825E+02 -0.43294850428E+01  0.41355714983E+02  0.47787273442E+02  0.20000010932E+02 0.  0.
         12    1    1    2    0    0 -0.12433159825E+02  0.43294850428E+01 -0.41355714983E+02  0.43400726558E+02  0.00000000000E+00 0. -1.
         11    1    3    3    0    0 -0.18499924576E+00  0.10288619197E+01  0.20400157774E+02  0.20426923876E+02  0.51100000000E-03 0.  1.
        -11    1    3    3    0    0  0.99087902903E+01 -0.18197485853E+01  0.59353579777E+01  0.11692907445E+02  0.51100000000E-03 0. -1.
         12    1    3    3    0    0  0.27093687805E+01 -0.35385983772E+01  0.15020199232E+02  0.15667442122E+02  0.00000000000E+00 0. -1.
</event>
<event>
 7    1  0.5646756E-010  0.4778725E+02  0.7816164E-02  0.1312668E+00
        -11   -1    0    0    0    0  0.00000000000E+00  0.00000000000E+00  0.45593999997E+02  0.45594000000E+02  0.51100000000E-03 0.  1.
         11   -1    0    0    0    0 -0.00000000000E+00 -0.00000000000E+00 -0.45593999997E+02  0.45594000000E+02  0.51100000000E-03 0. -1.
    9900012    2    1    2    0    0  0.35456640966E+02 -0.24036653363E+02  0.69778853465E+01  0.47787251419E+02  0.19999910520E+02 0.  0.
         12    1    1    2    0    0 -0.35456640966E+02  0.24036653363E+02 -0.69778853465E+01  0.43400748581E+02  0.00000000000E+00 0. -1.
         11    1    3    3    0    0  0.13479491476E+02 -0.10045146343E+01 -0.34198440634E+01  0.13942778553E+02  0.51100000000E-03 0. -1.
        -11    1    3    3    0    0  0.19174008548E+02 -0.17425486412E+02  0.77867735072E+01  0.27054094374E+02  0.51100000000E-03 0.  1.
         12    1    3    3    0    0  0.28031409425E+01 -0.56066523165E+01  0.26109559026E+01  0.67903784922E+01  0.00000000000E+00 0. -1.
</event>
<event>
 7    1  0.5646756E-010  0.4778727E+02  0.7816164E-02  0.1312668E+00
        -11   -1    0    0    0    0  0.00000000000E+00  0.00000000000E+00  0.45593999997E+02  0.45594000000E+02  0.51100000000E-03 0. -1.
         11   -1    0    0    0    0 -0.00000000000E+00 -0.00000000000E+00 -0.45593999997E+02  0.45594000000E+02  0.51100000000E-03 0.  1.
    9900012    2    1    2    0    0 -0.81467680929E+01 -0.21255898624E+02 -0.36951867113E+02  0.47787267980E+02  0.19999986030E+02 0.  0.
         12    1    1    2    0    0  0.81467680929E+01  0.21255898624E+02  0.36951867113E+02  0.43400732020E+02  0.00000000000E+00 0. -1.
         11    1    3    3    0    0 -0.56147339180E+01 -0.13018034028E+02 -0.17577501475E+02  0.22582360489E+02  0.51100000000E-03 0. -1.
        -11    1    3    3    0    0 -0.81275769168E+01 -0.54516718926E+01 -0.10542580042E+02  0.14384861041E+02  0.51100000000E-03 0.  1.
        -12    1    3    3    0    0  0.55955427419E+01 -0.27861927034E+01 -0.88317855969E+01  0.10820046450E+02  0.00000000000E+00 0.  1.
</event>
<event>
 7    1  0.5646756E-010  0.4778727E+02  0.7816164E-02  0.1312668E+00
        -11   -1    0    0    0    0  0.00000000000E+00  0.00000000000E+00  0.45593999997E+02  0.45594000000E+02  0.51100000000E-03 0. -1.
         11   -1    0    0    0    0 -0.00000000000E+00 -0.00000000000E+00 -0.45593999997E+02  0.45594000000E+02  0.51100000000E-03 0.  1.
    9900012    2    1    2    0    0  0.30917043342E+02 -0.18172859569E+02  0.24443953273E+02  0.47787271370E+02  0.20000001486E+02 0.  0.
         12    1    1    2    0    0 -0.30917043342E+02  0.18172859569E+02 -0.24443953273E+02  0.43400728630E+02  0.00000000000E+00 0. -1.
         11    1    3    3    0    0  0.79587513568E+01  0.29641163544E+01  0.52098046964E+01  0.99634218097E+01  0.51100000000E-03 0. -1.
        -11    1    3    3    0    0  0.10154104140E+02 -0.10358656496E+02  0.36560101934E+01  0.14959077715E+02  0.51100000000E-03 0.  1.
         12    1    3    3    0    0  0.12804187845E+02 -0.10778319428E+02  0.15578138384E+02  0.22864771846E+02  0.00000000000E+00 0. -1.
</event>
<event>
 7    1  0.5646756E-010  0.4778727E+02  0.7816164E-02  0.1312668E+00
        -11   -1    0    0    0    0  0.00000000000E+00  0.00000000000E+00  0.45593999997E+02  0.45594000000E+02  0.51100000000E-03 0. -1.
         11   -1    0    0    0    0 -0.00000000000E+00 -0.00000000000E+00 -0.45593999997E+02  0.45594000000E+02  0.51100000000E-03 0.  1.
    9900012    2    1    2    0    0 -0.48823139135E+01  0.42928688419E+02  0.41126662321E+01  0.47787270720E+02  0.19999998519E+02 0.  0.
         12    1    1    2    0    0  0.48823139135E+01 -0.42928688419E+02 -0.41126662321E+01  0.43400729280E+02  0.00000000000E+00 0. -1.
         11    1    3    3    0    0 -0.69597578094E+01  0.71597170941E+01 -0.29402487120E+01  0.10408882763E+02  0.51100000000E-03 0. -1.
        -11    1    3    3    0    0  0.42197692729E+00  0.36445369161E+01 -0.16972448545E+01  0.40424440896E+01  0.51100000000E-03 0.  1.
         12    1    3    3    0    0  0.16554669686E+01  0.32124434409E+02  0.87501597986E+01  0.33335943867E+02  0.00000000000E+00 0. -1.
</event>
<event>
 7    1  0.5646756E-010  0.4778726E+02  0.7816164E-02  0.1312668E+00
        -11   -1    0    0    0    0  0.00000000000E+00  0.00000000000E+00  0.45593999997E+02  0.45594000000E+02  0.51100000000E-03 0.  1.
         11   -1    0    0    0    0 -0.00000000000E+00 -0.00000000000E+00 -0.45593999997E+02  0.45594000000E+02  0.51100000000E-03 0. -1.
    9900012    2    1    2    0    0 -0.22403615070E+02 -0.28118252510E+02 -0.24311849136E+02  0.47787261517E+02  0.19999956561E+02 0.  0.
         12    1    1    2    0    0  0.22403615070E+02  0.28118252510E+02  0.24311849136E+02  0.43400738483E+02  0.00000000000E+00 0. -1.
         11    1    3    3    0    0  0.64376497045E+00  0.11894393571E+01  0.13387322059E+01  0.19029985553E+01  0.51100000000E-03 0. -1.
        -11    1    3    3    0    0 -0.17129272602E+02 -0.16020117201E+02 -0.14731589860E+02  0.27696134659E+02  0.51100000000E-03 0.  1.
         12    1    3    3    0    0 -0.59181074393E+01 -0.13287574666E+02 -0.10918991482E+02  0.18188128303E+02  0.00000000000E+00 0. -1.
</event>
<event>
 7    1  0.5646756E-010  0.4778727E+02  0.7816164E-02  0.1312668E+00
        -11   -1    0    0    0    0  0.00000000000E+00  0.00000000000E+00  0.45593999997E+02  0.45594000000E+02  0.51100000000E-03 0. -1.
         11   -1    0    0    0    0 -0.00000000000E+00 -0.00000000000E+00 -0.45593999997E+02  0.45594000000E+02  0.51100000000E-03 0.  1.
    9900012    2    1    2    0    0 -0.39020308952E+02  0.10919518214E+02 -0.15550017384E+02  0.47787269253E+02  0.19999991831E+02 0.  0.
         12    1    1    2    0    0  0.39020308952E+02 -0.10919518214E+02  0.15550017384E+02  0.43400730747E+02  0.00000000000E+00 0. -1.
         11    1    3    3    0    0 -0.18892270011E+02  0.11242481462E+00 -0.25888687907E+01  0.19069156966E+02  0.51100000000E-03 0. -1.
        -11    1    3    3    0    0 -0.18305653345E+02  0.10886637912E+02 -0.14948414866E+02  0.26020586786E+02  0.51100000000E-03 0.  1.
        -12    1    3    3    0    0 -0.18223855959E+01 -0.79544512880E-01  0.19872662726E+01  0.26975255009E+01  0.00000000000E+00 0.  1.
</event>
<event>
 7    1  0.5646756E-010  0.4778726E+02  0.7816164E-02  0.1312668E+00
        -11   -1    0    0    0    0  0.00000000000E+00  0.00000000000E+00  0.45593999997E+02  0.45594000000E+02  0.51100000000E-03 0.  1.
         11   -1    0    0    0    0 -0.00000000000E+00 -0.00000000000E+00 -0.45593999997E+02  0.45594000000E+02  0.51100000000E-03 0. -1.
    9900012    2    1    2    0    0  0.27899230212E+02  0.18627323848E+02  0.27536879556E+02  0.47787262958E+02  0.19999963128E+02 0.  0.
         12    1    1    2    0    0 -0.27899230212E+02 -0.18627323848E+02 -0.27536879556E+02  0.43400737042E+02  0.00000000000E+00 0. -1.
         11    1    3    3    0    0 -0.93009644083E+00  0.20890185221E+01 -0.16135790605E+01  0.27986988799E+01  0.51100000000E-03 0. -1.
        -11    1    3    3    0    0  0.13813185922E+02  0.41876724153E+01  0.15817207931E+02  0.21413191555E+02  0.51100000000E-03 0.  1.
         12    1    3    3    0    0  0.15016140731E+02  0.12350632911E+02  0.13333250685E+02  0.23575372522E+02  0.00000000000E+00 0. -1.
</event>
<event>
 7    1  0.5646756E-010  0.4778727E+02  0.7816164E-02  0.1312668E+00
        -11   -1    0    0    0    0  0.00000000000E+00  0.00000000000E+00  0.45593999997E+02  0.45594000000E+02  0.51100000000E-03 0. -1.
         11   -1    0    0    0    0 -0.00000000000E+00 -0.00000000000E+00 -0.45593999997E+02  0.45594000000E+02  0.51100000000E-03 0.  1.
    9900012    2    1    2    0    0 -0.36785692754E+02 -0.23003228523E+02 -0.11347233530E+01  0.47787270617E+02  0.19999998051E+02 0.  0.
         12    1    1    2    0    0  0.36785692754E+02  0.23003228523E+02  0.11347233530E+01  0.43400729383E+02  0.00000000000E+00 0. -1.
         11    1    3    3    0    0 -0.73884454803E+01 -0.13455396661E+01 -0.30420064036E+01  0.81026789909E+01  0.51100000000E-03 0. -1.
        -11    1    3    3    0    0 -0.23444861530E+02 -0.82571598302E+01  0.26843833386E+01  0.25000962678E+02  0.51100000000E-03 0.  1.
        -12    1    3    3    0    0 -0.59523857435E+01 -0.13400529027E+02 -0.77710028799E+00  0.14683628949E+02  0.00000000000E+00 0.  1.
</event>
<event>
 7    1  0.5646756E-010  0.4778727E+02  0.7816164E-02  0.1312668E+00
        -11   -1    0    0    0    0  0.00000000000E+00  0.00000000000E+00  0.45593999997E+02  0.45594000000E+02  0.51100000000E-03 0. -1.
         11   -1    0    0    0    0 -0.00000000000E+00 -0.00000000000E+00 -0.45593999997E+02  0.45594000000E+02  0.51100000000E-03 0.  1.
    9900012    2    1    2    0    0 -0.16950016215E+02  0.29027163028E+02 -0.27454401428E+02  0.47787269581E+02  0.19999993327E+02 0.  0.
         12    1    1    2    0    0  0.16950016215E+02 -0.29027163028E+02  0.27454401428E+02  0.43400730419E+02  0.00000000000E+00 0. -1.
         11    1    3    3    0    0 -0.57276618222E+01  0.85620630351E+01 -0.15587243909E+02  0.18683607957E+02  0.51100000000E-03 0. -1.
        -11    1    3    3    0    0 -0.22891304268E+01  0.15190511881E+02 -0.34508512219E+01  0.15744844989E+02  0.51100000000E-03 0.  1.
        -12    1    3    3    0    0 -0.89332239659E+01  0.52745881113E+01 -0.84163062973E+01  0.13358816634E+02  0.00000000000E+00 0.  1.
</event>
<event>
 7    1  0.5646756E-010  0.4778727E+02  0.7816164E-02  0.1312668E+00
        -11   -1    0    0    0    0  0.00000000000E+00  0.00000000000E+00  0.45593999997E+02  0.45594000000E+02  0.51100000000E-03 0. -1.
         11   -1    0    0    0    0 -0.00000000000E+00 -0.00000000000E+00 -0.45593999997E+02  0.45594000000E+02  0.51100000000E-03 0.  1.
    9900012    2    1    2    0    0  0.15427631736E+02  0.30690404460E+02 -0.26527546714E+02  0.47787268652E+02  0.19999989091E+02 0.  0.
         12    1    1    2    0    0 -0.15427631736E+02 -0.30690404460E+02  0.26527546714E+02  0.43400731348E+02  0.00000000000E+00 0. -1.
         11    1    3    3    0    0  0.10984112678E+02  0.25043860335E+02 -0.18046151725E+02  0.32764451226E+02  0.51100000000E-03 0. -1.
        -11    1    3    3    0    0 -0.26297284699E+01 -0.46160092123E+00 -0.35916234643E+01  0.44752996108E+01  0.51100000000E-03 0.  1.
        -12    1    3    3    0    0  0.70732475278E+01  0.61081450459E+01 -0.48897715246E+01  0.10547517815E+02  0.00000000000E+00 0.  1.
</event>
<event>
 7    1  0.5646756E-010  0.4778727E+02  0.7816164E-02  0.1312668E+00
        -11   -1    0    0    0    0  0.00000000000E+00  0.00000000000E+00  0.45593999997E+02  0.45594000000E+02  0.51100000000E-03 0.  1.
         11   -1    0    0    0    0 -0.00000000000E+00 -0.00000000000E+00 -0.45593999997E+02  0.45594000000E+02  0.51100000000E-03 0. -1.
    9900012    2    1    2    0    0  0.16375539176E+02 -0.27246789149E+02  0.29547885828E+02  0.47787270062E+02  0.19999995520E+02 0.  0.
         12    1    1    2    0    0 -0.16375539176E+02  0.27246789149E+02 -0.29547885828E+02  0.43400729938E+02  0.00000000000E+00 0. -1.
         11    1    3    3    0    0  0.41824011457E+01 -0.40200729957E+01  0.18271452325E+01  0.60820988315E+01  0.51100000000E-03 0. -1.
        -11    1    3    3    0    0  0.76562090635E+01 -0.19240496310E+01  0.22848387361E+01  0.82182718693E+01  0.51100000000E-03 0.  1.
        -12    1    3    3    0    0  0.45369289673E+01 -0.21302666522E+02  0.25435901859E+02  0.33486899361E+02  0.00000000000E+00 0.  1.
</event>
<event>
 7    1  0.5646756E-010  0.4778729E+02  0.7816164E-02  0.1312668E+00
        -11   -1    0    0    0    0  0.00000000000E+00  0.00000000000E+00  0.45593999997E+02  0.45594000000E+02  0.51100000000E-03 0.  1.
         11   -1    0    0    0    0 -0.00000000000E+00 -0.00000000000E+00 -0.45593999997E+02  0.45594000000E+02  0.51100000000E-03 0. -1.
    9900012    2    1    2    0    0 -0.19494475227E+02  0.18288048762E+02  0.34192605223E+02  0.47787290976E+02  0.20000090875E+02 0.  0.
         12    1    1    2    0    0  0.19494475227E+02 -0.18288048762E+02 -0.34192605223E+02  0.43400709024E+02  0.00000000000E+00 0. -1.
         11    1    3    3    0    0 -0.32561556634E+01 -0.98162104589E+00  0.12733731898E+02  0.13180062894E+02  0.51100000000E-03 0. -1.
        -11    1    3    3    0    0 -0.17629972447E+02  0.18425876690E+02  0.19824742364E+02  0.32300917484E+02  0.51100000000E-03 0.  1.
         12    1    3    3    0    0  0.13916528834E+01  0.84379311718E+00  0.16341309609E+01  0.23063105971E+01  0.00000000000E+00 0. -1.
</event>
<event>
 7    1  0.5646756E-010  0.4778727E+02  0.7816164E-02  0.1312668E+00
        -11   -1    0    0    0    0  0.00000000000E+00  0.00000000000E+00  0.45593999997E+02  0.45594000000E+02  0.51100000000E-03 0.  1.
         11   -1    0    0    0    0 -0.00000000000E+00 -0.00000000000E+00 -0.45593999997E+02  0.45594000000E+02  0.51100000000E-03 0. -1.
    9900012    2    1    2    0    0  0.20574151424E+01 -0.43325183966E+02 -0.15228088207E+01  0.47787268791E+02  0.19999989728E+02 0.  0.
         12    1    1    2    0    0 -0.20574151424E+01  0.43325183966E+02  0.15228088207E+01  0.43400731209E+02  0.00000000000E+00 0. -1.
         11    1    3    3    0    0  0.23127221657E+00  0.11118032797E+01 -0.90256374939E+00  0.14505912428E+01  0.51100000000E-03 0.  1.
        -11    1    3    3    0    0  0.56184259300E+01 -0.32795480600E+02 -0.43050069168E+01  0.33550608676E+02  0.51100000000E-03 0. -1.
        -12    1    3    3    0    0 -0.37922830041E+01 -0.11641506645E+02  0.36847618454E+01  0.12786068872E+02  0.00000000000E+00 0.  1.
</event>
<event>
 7    1  0.5646756E-010  0.4778727E+02  0.7816164E-02  0.1312668E+00
        -11   -1    0    0    0    0  0.00000000000E+00  0.00000000000E+00  0.45593999997E+02  0.45594000000E+02  0.51100000000E-03 0. -1.
         11   -1    0    0    0    0 -0.00000000000E+00 -0.00000000000E+00 -0.45593999997E+02  0.45594000000E+02  0.51100000000E-03 0.  1.
    9900012    2    1    2    0    0  0.13463079048E+02 -0.38695318290E+02 -0.14319263087E+02  0.47787269011E+02  0.19999990728E+02 0.  0.
         12    1    1    2    0    0 -0.13463079048E+02  0.38695318290E+02  0.14319263087E+02  0.43400730989E+02  0.00000000000E+00 0. -1.
         11    1    3    3    0    0  0.10598670225E+01 -0.63809655522E+01  0.33565493006E+01  0.72874181266E+01  0.51100000000E-03 0. -1.
        -11    1    3    3    0    0  0.63718558882E+01 -0.26742628529E+02 -0.16857406402E+02  0.32248114347E+02  0.51100000000E-03 0.  1.
         12    1    3    3    0    0  0.60313561376E+01 -0.55717242088E+01 -0.81840598581E+00  0.82517365370E+01  0.00000000000E+00 0. -1.
</event>
<event>
 7    1  0.5646756E-010  0.4778726E+02  0.7816164E-02  0.1312668E+00
        -11   -1    0    0    0    0  0.00000000000E+00  0.00000000000E+00  0.45593999997E+02  0.45594000000E+02  0.51100000000E-03 0.  1.
         11   -1    0    0    0    0 -0.00000000000E+00 -0.00000000000E+00 -0.45593999997E+02  0.45594000000E+02  0.51100000000E-03 0. -1.
    9900012    2    1    2    0    0 -0.14897146231E+02  0.17098173364E+02  0.37004750242E+02  0.47787262233E+02  0.19999959827E+02 0.  0.
         12    1    1    2    0    0  0.14897146231E+02 -0.17098173364E+02 -0.37004750242E+02  0.43400737767E+02  0.00000000000E+00 0. -1.
         11    1    3    3    0    0 -0.10683411907E+02  0.94178138432E+01  0.15677602380E+02  0.21180597825E+02  0.51100000000E-03 0.  1.
        -11    1    3    3    0    0  0.21167864436E+01  0.69165993179E+01  0.42768893506E+01  0.84030895360E+01  0.51100000000E-03 0. -1.
        -12    1    3    3    0    0 -0.63305207677E+01  0.76376020250E+00  0.17050258511E+02  0.18203574873E+02  0.00000000000E+00 0.  1.
</event>
<event>
 7    1  0.5646756E-010  0.4778727E+02  0.7816164E-02  0.1312668E+00
        -11   -1    0    0    0    0  0.00000000000E+00  0.00000000000E+00  0.45593999997E+02  0.45594000000E+02  0.51100000000E-03 0.  1.
         11   -1    0    0    0    0 -0.00000000000E+00 -0.00000000000E+00 -0.45593999997E+02  0.45594000000E+02  0.51100000000E-03 0. -1.
    9900012    2    1    2    0    0 -0.27192847579E+02 -0.13312313470E+02  0.31095892299E+02  0.47787272272E+02  0.20000005599E+02 0.  0.
         12    1    1    2    0    0  0.27192847579E+02  0.13312313470E+02 -0.31095892299E+02  0.43400727728E+02  0.00000000000E+00 0. -1.
         11    1    3    3    0    0 -0.16170713287E+01  0.37858757304E+01  0.81506013898E+01  0.91312692439E+01  0.51100000000E-03 0. -1.
        -11    1    3    3    0    0 -0.51680528913E+01 -0.46883825182E+01  0.32467459746E+01  0.76961718412E+01  0.51100000000E-03 0.  1.
         12    1    3    3    0    0 -0.20407723359E+02 -0.12409806682E+02  0.19698544935E+02  0.30959831187E+02  0.00000000000E+00 0. -1.
</event>
<event>
 7    1  0.5646756E-010  0.4778727E+02  0.7816164E-02  0.1312668E+00
        -11   -1    0    0    0    0  0.00000000000E+00  0.00000000000E+00  0.45593999997E+02  0.45594000000E+02  0.51100000000E-03 0.  1.
         11   -1    0    0    0    0 -0.00000000000E+00 -0.00000000000E+00 -0.45593999997E+02  0.45594000000E+02  0.51100000000E-03 0. -1.
    9900012    2    1    2    0    0  0.10947141424E+02 -0.39383438100E+01  0.41812351649E+02  0.47787271806E+02  0.20000003474E+02 0.  0.
         12    1    1    2    0    0 -0.10947141424E+02  0.39383438100E+01 -0.41812351649E+02  0.43400728194E+02  0.00000000000E+00 0. -1.
         11    1    3    3    0    0 -0.10608996376E+01  0.51127633203E+01  0.18521750842E+02  0.19243729143E+02  0.51100000000E-03 0. -1.
        -11    1    3    3    0    0  0.11058008108E+02 -0.62459128496E+01  0.21795947310E+02  0.25226063705E+02  0.51100000000E-03 0.  1.
         12    1    3    3    0    0  0.95003295439E+00 -0.28051942806E+01  0.14946534965E+01  0.33174789586E+01  0.00000000000E+00 0. -1.
</event>
<event>
 7    1  0.5646756E-010  0.4778727E+02  0.7816164E-02  0.1312668E+00
        -11   -1    0    0    0    0  0.00000000000E+00  0.00000000000E+00  0.45593999997E+02  0.45594000000E+02  0.51100000000E-03 0. -1.
         11   -1    0    0    0    0 -0.00000000000E+00 -0.00000000000E+00 -0.45593999997E+02  0.45594000000E+02  0.51100000000E-03 0.  1.
    9900012    2    1    2    0    0  0.15701915641E+02 -0.38379153729E+02 -0.12810691040E+02  0.47787269583E+02  0.19999993339E+02 0.  0.
         12    1    1    2    0    0 -0.15701915641E+02  0.38379153729E+02  0.12810691040E+02  0.43400730417E+02  0.00000000000E+00 0. -1.
         11    1    3    3    0    0  0.13966126364E+02 -0.19398728899E+02 -0.42414035714E+01  0.24276591050E+02  0.51100000000E-03 0. -1.
        -11    1    3    3    0    0  0.53583482672E+01 -0.10317408099E+02 -0.14270552420E+01  0.11713124816E+02  0.51100000000E-03 0.  1.
         12    1    3    3    0    0 -0.36225589904E+01 -0.86630167318E+01 -0.71422322265E+01  0.11797553717E+02  0.00000000000E+00 0. -1.
</event>
<event>
 7    1  0.5646756E-010  0.4778727E+02  0.7816164E-02  0.1312668E+00
        -11   -1    0    0    0    0  0.00000000000E+00  0.00000000000E+00  0.45593999997E+02  0.45594000000E+02  0.51100000000E-03 0. -1.
         11   -1    0    0    0    0 -0.00000000000E+00 -0.00000000000E+00 -0.45593999997E+02  0.45594000000E+02  0.51100000000E-03 0.  1.
    9900012    2    1    2    0    0  0.47695089912E+01  0.43137808328E+02  0.70699082790E-01  0.47787265885E+02  0.19999976478E+02 0.  0.
         12    1    1    2    0    0 -0.47695089912E+01 -0.43137808328E+02 -0.70699082790E-01  0.43400734115E+02  0.00000000000E+00 0. -1.
         11    1    3    3    0    0 -0.32670344314E+00  0.45180134742E+01  0.59376897312E+01  0.74682889940E+01  0.51100000000E-03 0. -1.
        -11    1    3    3    0    0 -0.48269896604E+00  0.26939914396E+02 -0.37879764264E+01  0.27209203436E+02  0.51100000000E-03 0.  1.
         12    1    3    3    0    0  0.55789114004E+01  0.11679880457E+02 -0.20790142220E+01  0.13109773455E+02  0.00000000000E+00 0. -1.
</event>
<event>
 7    1  0.5646756E-010  0.4778727E+02  0.7816164E-02  0.1312668E+00
        -11   -1    0    0    0    0  0.00000000000E+00  0.00000000000E+00  0.45593999997E+02  0.45594000000E+02  0.51100000000E-03 0.  1.
         11   -1    0    0    0    0 -0.00000000000E+00 -0.00000000000E+00 -0.45593999997E+02  0.45594000000E+02  0.51100000000E-03 0. -1.
    9900012    2    1    2    0    0 -0.32212457566E+02  0.15284070882E+02  0.24746272948E+02  0.47787271089E+02  0.20000000202E+02 0.  0.
         12    1    1    2    0    0  0.32212457566E+02 -0.15284070882E+02 -0.24746272948E+02  0.43400728911E+02  0.00000000000E+00 0. -1.
         11    1    3    3    0    0 -0.11270722191E+02  0.12371746439E+02  0.15141692548E+02  0.22569008444E+02  0.51100000000E-03 0. -1.
        -11    1    3    3    0    0 -0.50560838627E+01 -0.98993298367E+00 -0.15954668862E+01  0.53934651371E+01  0.51100000000E-03 0.  1.
        -12    1    3    3    0    0 -0.15885651513E+02  0.39022574267E+01  0.11200047287E+02  0.19824797508E+02  0.00000000000E+00 0.  1.
</event>
<event>
 7    1  0.5646756E-010  0.4778727E+02  0.7816164E-02  0.1312668E+00
        -11   -1    0    0    0    0  0.00000000000E+00  0.00000000000E+00  0.45593999997E+02  0.45594000000E+02  0.51100000000E-03 0.  1.
         11   -1    0    0    0    0 -0.00000000000E+00 -0.00000000000E+00 -0.45593999997E+02  0.45594000000E+02  0.51100000000E-03 0. -1.
    9900012    2    1    2    0    0 -0.10060866167E+02 -0.15652797735E+01  0.42189480910E+02  0.47787269266E+02  0.19999991890E+02 0.  0.
         12    1    1    2    0    0  0.10060866167E+02  0.15652797735E+01 -0.42189480910E+02  0.43400730734E+02  0.00000000000E+00 0. -1.
         11    1    3    3    0    0 -0.43412358166E+01  0.99083531943E+00  0.13631021444E+01  0.46568369912E+01  0.51100000000E-03 0. -1.
        -11    1    3    3    0    0 -0.40819233551E+01  0.10104908792E+01  0.38147745239E+02  0.38378817819E+02  0.51100000000E-03 0.  1.
        -12    1    3    3    0    0 -0.16377069957E+01 -0.35666059721E+01  0.26786335269E+01  0.47516144557E+01  0.00000000000E+00 0.  1.
</event>
<event>
 7    1  0.5646756E-010  0.4778727E+02  0.7816164E-02  0.1312668E+00
        -11   -1    0    0    0    0  0.00000000000E+00  0.00000000000E+00  0.45593999997E+02  0.45594000000E+02  0.51100000000E-03 0. -1.
         11   -1    0    0    0    0 -0.00000000000E+00 -0.00000000000E+00 -0.45593999997E+02  0.45594000000E+02  0.51100000000E-03 0.  1.
    9900012    2    1    2    0    0  0.25641251440E+02 -0.33284301900E+02 -0.10876800267E+02  0.47787270600E+02  0.19999997972E+02 0.  0.
         12    1    1    2    0    0 -0.25641251440E+02  0.33284301900E+02  0.10876800267E+02  0.43400729400E+02  0.00000000000E+00 0. -1.
         11    1    3    3    0    0 -0.91819664209E+00  0.12092971100E+01 -0.40295183867E+00  0.15709408070E+01  0.51100000000E-03 0. -1.
        -11    1    3    3    0    0  0.17938833799E+02 -0.24671282383E+02 -0.12548476992E+02  0.32983908312E+02  0.51100000000E-03 0.  1.
         12    1    3    3    0    0  0.86206142835E+01 -0.98223166274E+01  0.20746285634E+01  0.13232421480E+02  0.00000000000E+00 0. -1.
</event>
<event>
 7    1  0.5646756E-010  0.4778727E+02  0.7816164E-02  0.1312668E+00
        -11   -1    0    0    0    0  0.00000000000E+00  0.00000000000E+00  0.45593999997E+02  0.45594000000E+02  0.51100000000E-03 0.  1.
         11   -1    0    0    0    0 -0.00000000000E+00 -0.00000000000E+00 -0.45593999997E+02  0.45594000000E+02  0.51100000000E-03 0. -1.
    9900012    2    1    2    0    0 -0.16491615192E+02 -0.89316098256E+01  0.39139191650E+02  0.47787270183E+02  0.19999996070E+02 0.  0.
         12    1    1    2    0    0  0.16491615192E+02  0.89316098256E+01 -0.39139191650E+02  0.43400729817E+02  0.00000000000E+00 0. -1.
         11    1    3    3    0    0 -0.48838112832E+00  0.41764335700E+00 -0.10877356912E+01  0.12633729834E+01  0.51100000000E-03 0. -1.
        -11    1    3    3    0    0 -0.12880023656E+02 -0.22874303343E+01  0.34539447339E+02  0.36933734846E+02  0.51100000000E-03 0.  1.
        -12    1    3    3    0    0 -0.31232104078E+01 -0.70618228483E+01  0.56874800013E+01  0.95901623530E+01  0.00000000000E+00 0.  1.
</event>
<event>
 7    1  0.5646756E-010  0.4778728E+02  0.7816164E-02  0.1312668E+00
        -11   -1    0    0    0    0  0.00000000000E+00  0.00000000000E+00  0.45593999997E+02  0.45594000000E+02  0.51100000000E-03 0.  1.
         11   -1    0    0    0    0 -0.00000000000E+00 -0.00000000000E+00 -0.45593999997E+02  0.45594000000E+02  0.51100000000E-03 0. -1.
    9900012    2    1    2    0    0  0.16499375156E+02 -0.39940694782E+02 -0.40167563793E+01  0.47787276365E+02  0.20000024261E+02 0.  0.
         12    1    1    2    0    0 -0.16499375156E+02  0.39940694782E+02  0.40167563793E+01  0.43400723635E+02  0.00000000000E+00 0. -1.
         11    1    3    3    0    0  0.26968308845E+01 -0.21325420330E+02 -0.77243208847E+01  0.22841006599E+02  0.51100000000E-03 0. -1.
        -11    1    3    3    0    0  0.25309412001E+01 -0.57815996324E+01  0.46503173544E+01  0.78395158923E+01  0.51100000000E-03 0.  1.
        -12    1    3    3    0    0  0.11271603071E+02 -0.12833674819E+02 -0.94275284910E+00  0.17106753874E+02  0.00000000000E+00 0.  1.
</event>
<event>
 7    1  0.5646756E-010  0.4778727E+02  0.7816164E-02  0.1312668E+00
        -11   -1    0    0    0    0  0.00000000000E+00  0.00000000000E+00  0.45593999997E+02  0.45594000000E+02  0.51100000000E-03 0.  1.
         11   -1    0    0    0    0 -0.00000000000E+00 -0.00000000000E+00 -0.45593999997E+02  0.45594000000E+02  0.51100000000E-03 0. -1.
    9900012    2    1    2    0    0 -0.16694529235E+02  0.32913214227E+02  0.22839358816E+02  0.47787270879E+02  0.19999999246E+02 0.  0.
         12    1    1    2    0    0  0.16694529235E+02 -0.32913214227E+02 -0.22839358816E+02  0.43400729121E+02  0.00000000000E+00 0. -1.
         11    1    3    3    0    0 -0.10133171119E+02  0.75604997360E+01  0.58809544342E+01  0.13943741912E+02  0.51100000000E-03 0. -1.
        -11    1    3    3    0    0  0.25996918854E+01  0.40560723376E+01  0.72603885275E+01  0.87134013186E+01  0.51100000000E-03 0.  1.
         12    1    3    3    0    0 -0.91610500013E+01  0.21296642153E+02  0.96980158543E+01  0.25130127649E+02  0.00000000000E+00 0. -1.
</event>
<event>
 7    1  0.5646756E-010  0.4778727E+02  0.7816164E-02  0.1312668E+00
        -11   -1    0    0    0    0  0.00000000000E+00  0.00000000000E+00  0.45593999997E+02  0.45594000000E+02  0.51100000000E-03 0.  1.
         11   -1    0    0    0    0 -0.00000000000E+00 -0.00000000000E+00 -0.45593999997E+02  0.45594000000E+02  0.51100000000E-03 0. -1.
    9900012    2    1    2    0    0 -0.46950275604E+01  0.41673162342E+02  0.11177091500E+02  0.47787272843E+02  0.20000008199E+02 0.  0.
         12    1    1    2    0    0  0.46950275604E+01 -0.41673162342E+02 -0.11177091500E+02  0.43400727157E+02  0.00000000000E+00 0. -1.
         11    1    3    3    0    0  0.47434059214E+01  0.30398268981E+02  0.74386679559E+01  0.31652621344E+02  0.51100000000E-03 0. -1.
        -11    1    3    3    0    0 -0.73494653200E+01  0.11021305328E+02  0.43505259860E+01  0.13943130503E+02  0.51100000000E-03 0.  1.
         12    1    3    3    0    0 -0.20889681618E+01  0.25358803396E+00 -0.61210244238E+00  0.21915209951E+01  0.00000000000E+00 0. -1.
</event>
<event>
 7    1  0.6903849E-010  0.4778727E+02  0.7816164E-02  0.1312668E+00
        -11   -1    0    0    0    0  0.00000000000E+00  0.00000000000E+00  0.45593999997E+02  0.45594000000E+02  0.51100000000E-03 0. -1.
         11   -1    0    0    0    0 -0.00000000000E+00 -0.00000000000E+00 -0.45593999997E+02  0.45594000000E+02  0.51100000000E-03 0.  1.
    9900012    2    1    2    0    0 -0.17143425060E+02  0.37670626746E+02  0.13063311766E+02  0.47787271244E+02  0.20000000910E+02 0.  0.
         12    1    1    2    0    0  0.17143425060E+02 -0.37670626746E+02 -0.13063311766E+02  0.43400728756E+02  0.00000000000E+00 0. -1.
         11    1    3    3    0    0  0.22971309065E-01  0.94347248656E+00  0.20108161443E+01  0.22212721222E+01  0.51100000000E-03 0. -1.
        -11    1    3    3    0    0 -0.56554205048E+01  0.85297760375E+00  0.46044342209E+01  0.73424904926E+01  0.51100000000E-03 0.  1.
        -12    1    3    3    0    0 -0.11510975864E+02  0.35874176656E+02  0.64480614007E+01  0.38223508629E+02  0.00000000000E+00 0.  1.
</event>
<event>
 7    1  0.5646756E-010  0.4778728E+02  0.7816164E-02  0.1312668E+00
        -11   -1    0    0    0    0  0.00000000000E+00  0.00000000000E+00  0.45593999997E+02  0.45594000000E+02  0.51100000000E-03 0.  1.
         11   -1    0    0    0    0 -0.00000000000E+00 -0.00000000000E+00 -0.45593999997E+02  0.45594000000E+02  0.51100000000E-03 0. -1.
    9900012    2    1    2    0    0 -0.95525868050E+01  0.10497392642E+02  0.41014334452E+02  0.47787276532E+02  0.20000025022E+02 0.  0.
         12    1    1    2    0    0  0.95525868050E+01 -0.10497392642E+02 -0.41014334452E+02  0.43400723468E+02  0.00000000000E+00 0. -1.
         11    1    3    3    0    0  0.66923536177E+00  0.50791726183E+01  0.54640023987E+01  0.74900729589E+01  0.51100000000E-03 0. -1.
        -11    1    3    3    0    0 -0.12876782207E+02  0.44560332357E+01  0.18291771451E+02  0.22809135347E+02  0.51100000000E-03 0.  1.
        -12    1    3    3    0    0  0.26549600398E+01  0.96218678766E+00  0.17258560602E+02  0.17488068227E+02  0.00000000000E+00 0.  1.
</event>
<event>
 7    1  0.5646756E-010  0.4778726E+02  0.7816164E-02  0.1312668E+00
        -11   -1    0    0    0    0  0.00000000000E+00  0.00000000000E+00  0.45593999997E+02  0.45594000000E+02  0.51100000000E-03 0. -1.
         11   -1    0    0    0    0 -0.00000000000E+00 -0.00000000000E+00 -0.45593999997E+02  0.45594000000E+02  0.51100000000E-03 0.  1.
    9900012    2    1    2    0    0 -0.52302800976E+01 -0.55448664491E+01 -0.42726134094E+02  0.47787263734E+02  0.19999966668E+02 0.  0.
         12    1    1    2    0    0  0.52302800976E+01  0.55448664491E+01  0.42726134094E+02  0.43400736266E+02  0.00000000000E+00 0. -1.
         11    1    3    3    0    0  0.24145808510E+01 -0.33775907129E+01 -0.13778279070E+01  0.43745548016E+01  0.51100000000E-03 0. -1.
        -11    1    3    3    0    0 -0.34348772552E+01 -0.62074863503E+01 -0.27163117706E+02  0.28074298429E+02  0.51100000000E-03 0.  1.
         12    1    3    3    0    0 -0.42099836935E+01  0.40402106141E+01 -0.14185188481E+02  0.15338410503E+02  0.00000000000E+00 0. -1.
</event>
<event>
 7    1  0.5875134E-010  0.4778727E+02  0.7816164E-02  0.1312668E+00
        -11   -1    0    0    0    0  0.00000000000E+00  0.00000000000E+00  0.45593999997E+02  0.45594000000E+02  0.51100000000E-03 0.  1.
         11   -1    0    0    0    0 -0.00000000000E+00 -0.00000000000E+00 -0.45593999997E+02  0.45594000000E+02  0.51100000000E-03 0. -1.
    9900012    2    1    2    0    0  0.12978886518E+02 -0.33895345826E+02  0.23796583439E+02  0.47787270199E+02  0.19999996145E+02 0.  0.
         12    1    1    2    0    0 -0.12978886518E+02  0.33895345826E+02 -0.23796583439E+02  0.43400729801E+02  0.00000000000E+00 0. -1.
         11    1    3    3    0    0  0.16064565393E+01 -0.16012403803E+00  0.32153614688E+01  0.35979010488E+01  0.51100000000E-03 0. -1.
        -11    1    3    3    0    0  0.99702444577E+01 -0.10930828636E+02  0.23948266655E+01  0.14987460900E+02  0.51100000000E-03 0.  1.
        -12    1    3    3    0    0  0.14021855212E+01 -0.22804393152E+02  0.18186395305E+02  0.29201908250E+02  0.00000000000E+00 0.  1.
</event>
<event>
 7    1  0.5646756E-010  0.4778727E+02  0.7816164E-02  0.1312668E+00
        -11   -1    0    0    0    0  0.00000000000E+00  0.00000000000E+00  0.45593999997E+02  0.45594000000E+02  0.51100000000E-03 0.  1.
         11   -1    0    0    0    0 -0.00000000000E+00 -0.00000000000E+00 -0.45593999997E+02  0.45594000000E+02  0.51100000000E-03 0. -1.
    9900012    2    1    2    0    0  0.38045955273E+02  0.13711887179E+02 -0.15751585435E+02  0.47787274126E+02  0.20000014051E+02 0.  0.
         12    1    1    2    0    0 -0.38045955273E+02 -0.13711887179E+02  0.15751585435E+02  0.43400725874E+02  0.00000000000E+00 0. -1.
         11    1    3    3    0    0  0.23810613876E+00  0.13108112903E+01 -0.36038193715E-01  0.13327489578E+01  0.51100000000E-03 0. -1.
        -11    1    3    3    0    0  0.32415969214E+01 -0.15590624964E+01  0.30526580315E+01  0.47177693656E+01  0.51100000000E-03 0.  1.
        -12    1    3    3    0    0  0.34566252213E+02  0.13960138385E+02 -0.18768205272E+02  0.41736755803E+02  0.00000000000E+00 0.  1.
</event>
<event>
 7    1  0.5646756E-010  0.4778727E+02  0.7816164E-02  0.1312668E+00
        -11   -1    0    0    0    0  0.00000000000E+00  0.00000000000E+00  0.45593999997E+02  0.45594000000E+02  0.51100000000E-03 0.  1.
         11   -1    0    0    0    0 -0.00000000000E+00 -0.00000000000E+00 -0.45593999997E+02  0.45594000000E+02  0.51100000000E-03 0. -1.
    9900012    2    1    2    0    0 -0.23819147755E+02  0.34106723074E+02  0.12369436761E+02  0.47787270462E+02  0.19999997344E+02 0.  0.
         12    1    1    2    0    0  0.23819147755E+02 -0.34106723074E+02 -0.12369436761E+02  0.43400729538E+02  0.00000000000E+00 0. -1.
         11    1    3    3    0    0 -0.16589679093E+02  0.13255116572E+02 -0.11499262702E+01  0.21265885790E+02  0.51100000000E-03 0. -1.
        -11    1    3    3    0    0 -0.10961905180E+00  0.85828825612E+01  0.59399398940E+01  0.10438427832E+02  0.51100000000E-03 0.  1.
         12    1    3    3    0    0 -0.71198496106E+01  0.12268723941E+02  0.75794231373E+01  0.16082956840E+02  0.00000000000E+00 0. -1.
</event>
<event>
 7    1  0.5646756E-010  0.4778727E+02  0.7816164E-02  0.1312668E+00
        -11   -1    0    0    0    0  0.00000000000E+00  0.00000000000E+00  0.45593999997E+02  0.45594000000E+02  0.51100000000E-03 0. -1.
         11   -1    0    0    0    0 -0.00000000000E+00 -0.00000000000E+00 -0.45593999997E+02  0.45594000000E+02  0.51100000000E-03 0.  1.
    9900012    2    1    2    0    0  0.44092739720E+01  0.33118601627E+01 -0.43048965283E+02  0.47787268132E+02  0.19999986722E+02 0.  0.
         12    1    1    2    0    0 -0.44092739720E+01 -0.33118601627E+01  0.43048965283E+02  0.43400731868E+02  0.00000000000E+00 0. -1.
         11    1    3    3    0    0  0.29524714726E+01  0.43995779215E+01 -0.10932598393E+02  0.12148871617E+02  0.51100000000E-03 0. -1.
        -11    1    3    3    0    0 -0.37488095352E+01  0.56085278599E+01 -0.17258106811E+02  0.18529743890E+02  0.51100000000E-03 0.  1.
        -12    1    3    3    0    0  0.52056120346E+01 -0.66962456187E+01 -0.14858260079E+02  0.17108652624E+02  0.00000000000E+00 0.  1.
</event>
<event>
 7    1  0.5646756E-010  0.4778722E+02  0.7816164E-02  0.1312668E+00
        -11   -1    0    0    0    0  0.00000000000E+00  0.00000000000E+00  0.45593999997E+02  0.45594000000E+02  0.51100000000E-03 0.  1.
         11   -1    0    0    0    0 -0.00000000000E+00 -0.00000000000E+00 -0.45593999997E+02  0.45594000000E+02  0.51100000000E-03 0. -1.
    9900012    2    1    2    0    0  0.35237369982E+02  0.24847944795E+02  0.49532547196E+01  0.47787224246E+02  0.19999786625E+02 0.  0.
         12    1    1    2    0    0 -0.35237369982E+02 -0.24847944795E+02 -0.49532547196E+01  0.43400775754E+02  0.00000000000E+00 0. -1.
         11    1    3    3    0    0  0.11889983088E+02  0.85256180795E+01 -0.49080096605E+01  0.15431993408E+02  0.51100000000E-03 0. -1.
        -11    1    3    3    0    0  0.26002715505E+01  0.25922329690E+01  0.62038753887E+01  0.72089634485E+01  0.51100000000E-03 0.  1.
        -12    1    3    3    0    0  0.20747115343E+02  0.13730093746E+02  0.36573889914E+01  0.25146267389E+02  0.00000000000E+00 0.  1.
</event>
<event>
 7    1  0.5646756E-010  0.4778727E+02  0.7816164E-02  0.1312668E+00
        -11   -1    0    0    0    0  0.00000000000E+00  0.00000000000E+00  0.45593999997E+02  0.45594000000E+02  0.51100000000E-03 0. -1.
         11   -1    0    0    0    0 -0.00000000000E+00 -0.00000000000E+00 -0.45593999997E+02  0.45594000000E+02  0.51100000000E-03 0.  1.
    9900012    2    1    2    0    0 -0.99058332560E+01 -0.25882845411E+02 -0.33400244383E+02  0.47787267933E+02  0.19999985815E+02 0.  0.
         12    1    1    2    0    0  0.99058332560E+01  0.25882845411E+02  0.33400244383E+02  0.43400732067E+02  0.00000000000E+00 0. -1.
         11    1    3    3    0    0 -0.17157707542E+01 -0.84750510065E+01 -0.62873360614E+01  0.10691162418E+02  0.51100000000E-03 0. -1.
        -11    1    3    3    0    0  0.38869509531E+01 -0.10297858808E+02 -0.91537097934E+01  0.14315889318E+02  0.51100000000E-03 0.  1.
        -12    1    3    3    0    0 -0.12077013455E+02 -0.71099355968E+01 -0.17959198528E+02  0.22780216197E+02  0.00000000000E+00 0.  1.
</event>
<event>
 7    1  0.5646756E-010  0.4778727E+02  0.7816164E-02  0.1312668E+00
        -11   -1    0    0    0    0  0.00000000000E+00  0.00000000000E+00  0.45593999997E+02  0.45594000000E+02  0.51100000000E-03 0. -1.
         11   -1    0    0    0    0 -0.00000000000E+00 -0.00000000000E+00 -0.45593999997E+02  0.45594000000E+02  0.51100000000E-03 0.  1.
    9900012    2    1    2    0    0 -0.16903956551E+01 -0.42368666961E+02 -0.92553780540E+01  0.47787269587E+02  0.19999993353E+02 0.  0.
         12    1    1    2    0    0  0.16903956551E+01  0.42368666961E+02  0.92553780540E+01  0.43400730413E+02  0.00000000000E+00 0. -1.
         11    1    3    3    0    0  0.16937330057E+01 -0.35227668555E+01 -0.10433365373E+01  0.40456358219E+01  0.51100000000E-03 0. -1.
        -11    1    3    3    0    0  0.20602564723E+01 -0.98958919342E+00  0.31059865925E+01  0.38563060663E+01  0.51100000000E-03 0.  1.
        -12    1    3    3    0    0 -0.54443851331E+01 -0.37856310912E+02 -0.11318028109E+02  0.39885327698E+02  0.00000000000E+00 0.  1.
</event>
<event>
 7    1  0.5646756E-010  0.4778727E+02  0.7816164E-02  0.1312668E+00
        -11   -1    0    0    0    0  0.00000000000E+00  0.00000000000E+00  0.45593999997E+02  0.45594000000E+02  0.51100000000E-03 0.  1.
         11   -1    0    0    0    0 -0.00000000000E+00 -0.00000000000E+00 -0.45593999997E+02  0.45594000000E+02  0.51100000000E-03 0. -1.
    9900012    2    1    2    0    0  0.35845425956E+00  0.38141369852E+02  0.20705818819E+02  0.47787268248E+02  0.19999987248E+02 0.  0.
         12    1    1    2    0    0 -0.35845425956E+00 -0.38141369852E+02 -0.20705818819E+02  0.43400731752E+02  0.00000000000E+00 0. -1.
         11    1    3    3    0    0 -0.77713995593E+00 -0.21907417360E-02 -0.66259790176E+00  0.10212676197E+01  0.51100000000E-03 0. -1.
        -11    1    3    3    0    0 -0.18576184474E+01  0.22995869710E+01  0.77686532892E+01  0.83120888303E+01  0.51100000000E-03 0.  1.
        -12    1    3    3    0    0  0.29932126628E+01  0.35843973623E+02  0.13599763432E+02  0.38453911798E+02  0.00000000000E+00 0.  1.
</event>
<event>
 7    1  0.5646756E-010  0.4778727E+02  0.7816164E-02  0.1312668E+00
        -11   -1    0    0    0    0  0.00000000000E+00  0.00000000000E+00  0.45593999997E+02  0.45594000000E+02  0.51100000000E-03 0.  1.
         11   -1    0    0    0    0 -0.00000000000E+00 -0.00000000000E+00 -0.45593999997E+02  0.45594000000E+02  0.51100000000E-03 0. -1.
    9900012    2    1    2    0    0  0.37551543647E+02 -0.59276412054E+01  0.20937233215E+02  0.47787273102E+02  0.20000009381E+02 0.  0.
         12    1    1    2    0    0 -0.37551543647E+02  0.59276412054E+01 -0.20937233215E+02  0.43400726898E+02  0.00000000000E+00 0. -1.
         11    1    3    3    0    0  0.12887969563E+02  0.42330718244E+01  0.13556268355E+02  0.19177879666E+02  0.51100000000E-03 0. -1.
        -11    1    3    3    0    0  0.24144862052E+02 -0.85139115929E+01  0.79227325877E+01  0.26799827351E+02  0.51100000000E-03 0.  1.
         12    1    3    3    0    0  0.51871203289E+00 -0.16468014369E+01 -0.54176772714E+00  0.18095660849E+01  0.00000000000E+00 0. -1.
</event>
<event>
 7    1  0.9728819E-010  0.4778727E+02  0.7816164E-02  0.1312668E+00
        -11   -1    0    0    0    0  0.00000000000E+00  0.00000000000E+00  0.45593999997E+02  0.45594000000E+02  0.51100000000E-03 0. -1.
         11   -1    0    0    0    0 -0.00000000000E+00 -0.00000000000E+00 -0.45593999997E+02  0.45594000000E+02  0.51100000000E-03 0.  1.
    9900012    2    1    2    0    0  0.11631286769E+02  0.20510577257E+02 -0.36436970317E+02  0.47787269393E+02  0.19999992472E+02 0.  0.
         12    1    1    2    0    0 -0.11631286769E+02 -0.20510577257E+02  0.36436970317E+02  0.43400730607E+02  0.00000000000E+00 0. -1.
         11    1    3    3    0    0  0.13204401948E+01  0.19675544248E+01  0.12315189856E+01  0.26704816037E+01  0.51100000000E-03 0. -1.
        -11    1    3    3    0    0  0.38556655447E+01  0.10063565807E+02 -0.30302778482E+02  0.32162087891E+02  0.51100000000E-03 0.  1.
        -12    1    3    3    0    0  0.64551810298E+01  0.84794570250E+01 -0.73657108207E+01  0.12954699898E+02  0.00000000000E+00 0.  1.
</event>
<event>
 7    1  0.5646756E-010  0.4778727E+02  0.7816164E-02  0.1312668E+00
        -11   -1    0    0    0    0  0.00000000000E+00  0.00000000000E+00  0.45593999997E+02  0.45594000000E+02  0.51100000000E-03 0. -1.
         11   -1    0    0    0    0 -0.00000000000E+00 -0.00000000000E+00 -0.45593999997E+02  0.45594000000E+02  0.51100000000E-03 0.  1.
    9900012    2    1    2    0    0 -0.23997321700E+02 -0.18735025259E+02 -0.30931384971E+02  0.47787271936E+02  0.20000004066E+02 0.  0.
         12    1    1    2    0    0  0.23997321700E+02  0.18735025259E+02  0.30931384971E+02  0.43400728064E+02  0.00000000000E+00 0. -1.
         11    1    3    3    0    0 -0.10180432280E+01  0.22418314895E+01  0.17477784569E+00  0.24683532968E+01  0.51100000000E-03 0. -1.
        -11    1    3    3    0    0 -0.12938683800E+02 -0.18493591402E+02 -0.22405006737E+02  0.31802622354E+02  0.51100000000E-03 0.  1.
        -12    1    3    3    0    0 -0.10040594673E+02 -0.24832653460E+01 -0.87011560795E+01  0.13516296286E+02  0.00000000000E+00 0.  1.
</event>
<event>
 7    1  0.5646756E-010  0.4778727E+02  0.7816164E-02  0.1312668E+00
        -11   -1    0    0    0    0  0.00000000000E+00  0.00000000000E+00  0.45593999997E+02  0.45594000000E+02  0.51100000000E-03 0. -1.
         11   -1    0    0    0    0 -0.00000000000E+00 -0.00000000000E+00 -0.45593999997E+02  0.45594000000E+02  0.51100000000E-03 0.  1.
    9900012    2    1    2    0    0  0.30656282383E+02 -0.25587128444E+02  0.17003364574E+02  0.47787271914E+02  0.20000003963E+02 0.  0.
         12    1    1    2    0    0 -0.30656282383E+02  0.25587128444E+02 -0.17003364574E+02  0.43400728086E+02  0.00000000000E+00 0. -1.
         11    1    3    3    0    0 -0.17675258279E+01 -0.15754017314E+01 -0.15161968450E+01  0.28115638533E+01  0.51100000000E-03 0. -1.
        -11    1    3    3    0    0  0.25070384397E+02 -0.14494717538E+02  0.13084312824E+02  0.31777669088E+02  0.51100000000E-03 0.  1.
         12    1    3    3    0    0  0.73534238137E+01 -0.95170091750E+01  0.54352485956E+01  0.13198038972E+02  0.00000000000E+00 0. -1.
</event>
<event>
 7    1  0.5646756E-010  0.4778727E+02  0.7816164E-02  0.1312668E+00
        -11   -1    0    0    0    0  0.00000000000E+00  0.00000000000E+00  0.45593999997E+02  0.45594000000E+02  0.51100000000E-03 0. -1.
         11   -1    0    0    0    0 -0.00000000000E+00 -0.00000000000E+00 -0.45593999997E+02  0.45594000000E+02  0.51100000000E-03 0.  1.
    9900012    2    1    2    0    0 -0.11866689921E+02  0.41716215699E+02  0.16006099191E+01  0.47787274959E+02  0.20000017849E+02 0.  0.
         12    1    1    2    0    0  0.11866689921E+02 -0.41716215699E+02 -0.16006099191E+01  0.43400725041E+02  0.00000000000E+00 0. -1.
         11    1    3    3    0    0 -0.49345367108E+01  0.19737182189E+01  0.29977403394E-01  0.53147074298E+01  0.51100000000E-03 0. -1.
        -11    1    3    3    0    0 -0.79300869670E+01  0.40354360722E+02  0.21173230420E+01  0.41180623668E+02  0.51100000000E-03 0.  1.
        -12    1    3    3    0    0  0.99793375674E+00 -0.61186324147E+00 -0.54669052633E+00  0.12919438613E+01  0.00000000000E+00 0.  1.
</event>
<event>
 7    1  0.5646756E-010  0.4778732E+02  0.7816164E-02  0.1312668E+00
        -11   -1    0    0    0    0  0.00000000000E+00  0.00000000000E+00  0.45593999997E+02  0.45594000000E+02  0.51100000000E-03 0.  1.
         11   -1    0    0    0    0 -0.00000000000E+00 -0.00000000000E+00 -0.45593999997E+02  0.45594000000E+02  0.51100000000E-03 0. -1.
    9900012    2    1    2    0    0  0.54969545064E+01 -0.53105979528E+01  0.42722365037E+02  0.47787315284E+02  0.20000201704E+02 0.  0.
         12    1    1    2    0    0 -0.54969545064E+01  0.53105979528E+01 -0.42722365037E+02  0.43400684716E+02  0.00000000000E+00 0. -1.
         11    1    3    3    0    0  0.48817014967E+01  0.57559298591E+01  0.99859911719E+01  0.12517258406E+02  0.51100000000E-03 0. -1.
        -11    1    3    3    0    0  0.77158775497E+00 -0.96046654911E+01  0.17621752931E+02  0.20084101261E+02  0.51100000000E-03 0.  1.
        -12    1    3    3    0    0 -0.15633474531E+00 -0.14618623207E+01  0.15114620935E+02  0.15185955617E+02  0.00000000000E+00 0.  1.
</event>
<event>
 7    1  0.5646756E-010  0.4778728E+02  0.7816164E-02  0.1312668E+00
        -11   -1    0    0    0    0  0.00000000000E+00  0.00000000000E+00  0.45593999997E+02  0.45594000000E+02  0.51100000000E-03 0.  1.
         11   -1    0    0    0    0 -0.00000000000E+00 -0.00000000000E+00 -0.45593999997E+02  0.45594000000E+02  0.51100000000E-03 0. -1.
    9900012    2    1    2    0    0 -0.23571738927E+02  0.43515172816E+01  0.36180937703E+02  0.47787276137E+02  0.20000023221E+02 0.  0.
         12    1    1    2    0    0  0.23571738927E+02 -0.43515172816E+01 -0.36180937703E+02  0.43400723863E+02  0.00000000000E+00 0. -1.
         11    1    3    3    0    0 -0.13689915078E+02  0.79801837164E+01  0.16639305464E+02  0.22977458380E+02  0.51100000000E-03 0. -1.
        -11    1    3    3    0    0  0.23276473356E+00 -0.41742408265E+01  0.21940268351E+01  0.47214637468E+01  0.51100000000E-03 0.  1.
        -12    1    3    3    0    0 -0.10114588583E+02  0.54557439158E+00  0.17347605404E+02  0.20088354011E+02  0.00000000000E+00 0.  1.
</event>
<event>
 7    1  0.5646756E-010  0.4778727E+02  0.7816164E-02  0.1312668E+00
        -11   -1    0    0    0    0  0.00000000000E+00  0.00000000000E+00  0.45593999997E+02  0.45594000000E+02  0.51100000000E-03 0.  1.
         11   -1    0    0    0    0 -0.00000000000E+00 -0.00000000000E+00 -0.45593999997E+02  0.45594000000E+02  0.51100000000E-03 0. -1.
    9900012    2    1    2    0    0 -0.11506594511E+02 -0.41275741984E+02  0.68945637596E+01  0.47787267253E+02  0.19999982713E+02 0.  0.
         12    1    1    2    0    0  0.11506594511E+02  0.41275741984E+02 -0.68945637596E+01  0.43400732747E+02  0.00000000000E+00 0. -1.
         11    1    3    3    0    0  0.14325304686E+01 -0.15224694030E+01 -0.32627299148E+01  0.38749791464E+01  0.51100000000E-03 0. -1.
        -11    1    3    3    0    0 -0.63513124620E+01 -0.28903241263E+02  0.41963088061E+01  0.29888886452E+02  0.51100000000E-03 0.  1.
         12    1    3    3    0    0 -0.65878125175E+01 -0.10850031318E+02  0.59609848683E+01  0.14023401655E+02  0.00000000000E+00 0. -1.
</event>
<event>
 7    1  0.5646756E-010  0.4778727E+02  0.7816164E-02  0.1312668E+00
        -11   -1    0    0    0    0  0.00000000000E+00  0.00000000000E+00  0.45593999997E+02  0.45594000000E+02  0.51100000000E-03 0.  1.
         11   -1    0    0    0    0 -0.00000000000E+00 -0.00000000000E+00 -0.45593999997E+02  0.45594000000E+02  0.51100000000E-03 0. -1.
    9900012    2    1    2    0    0 -0.37579161448E+02 -0.21093424233E+02 -0.51476088558E+01  0.47787265007E+02  0.19999972473E+02 0.  0.
         12    1    1    2    0    0  0.37579161448E+02  0.21093424233E+02  0.51476088558E+01  0.43400734993E+02  0.00000000000E+00 0. -1.
         11    1    3    3    0    0 -0.19999474525E+02 -0.20613638148E+01 -0.42002504813E+01  0.20539481649E+02  0.51100000000E-03 0. -1.
        -11    1    3    3    0    0 -0.16157450690E+02 -0.18953037008E+02 -0.26291503605E+01  0.25043826715E+02  0.51100000000E-03 0.  1.
         12    1    3    3    0    0 -0.14222362328E+01 -0.79023409712E-01  0.16817919860E+01  0.22039566432E+01  0.00000000000E+00 0. -1.
</event>
<event>
 7    1  0.5646756E-010  0.4778727E+02  0.7816164E-02  0.1312668E+00
        -11   -1    0    0    0    0  0.00000000000E+00  0.00000000000E+00  0.45593999997E+02  0.45594000000E+02  0.51100000000E-03 0.  1.
         11   -1    0    0    0    0 -0.00000000000E+00 -0.00000000000E+00 -0.45593999997E+02  0.45594000000E+02  0.51100000000E-03 0. -1.
    9900012    2    1    2    0    0 -0.42503217438E+02  0.75626581945E+01 -0.44616068845E+01  0.47787271578E+02  0.20000002432E+02 0.  0.
         12    1    1    2    0    0  0.42503217438E+02 -0.75626581945E+01  0.44616068845E+01  0.43400728422E+02  0.00000000000E+00 0. -1.
         11    1    3    3    0    0 -0.31987545001E+02  0.18241832723E+01  0.44721374656E+01  0.32350126639E+02  0.51100000000E-03 0.  1.
        -11    1    3    3    0    0 -0.42048357861E+01  0.42544660317E+01 -0.53737051030E+01  0.80410093893E+01  0.51100000000E-03 0. -1.
        -12    1    3    3    0    0 -0.63108366512E+01  0.14840088905E+01 -0.35600392470E+01  0.73961355494E+01  0.00000000000E+00 0.  1.
</event>
<event>
 7    1  0.5646756E-010  0.4778726E+02  0.7816164E-02  0.1312668E+00
        -11   -1    0    0    0    0  0.00000000000E+00  0.00000000000E+00  0.45593999997E+02  0.45594000000E+02  0.51100000000E-03 0.  1.
         11   -1    0    0    0    0 -0.00000000000E+00 -0.00000000000E+00 -0.45593999997E+02  0.45594000000E+02  0.51100000000E-03 0. -1.
    9900012    2    1    2    0    0 -0.19297004816E+02  0.34295650791E+02  0.18304594958E+02  0.47787259746E+02  0.19999948486E+02 0.  0.
         12    1    1    2    0    0  0.19297004816E+02 -0.34295650791E+02 -0.18304594958E+02  0.43400740254E+02  0.00000000000E+00 0. -1.
         11    1    3    3    0    0 -0.75010564680E+00  0.66675551942E+01 -0.26399488815E+01  0.72102899461E+01  0.51100000000E-03 0. -1.
        -11    1    3    3    0    0 -0.15708137320E+02  0.23490972636E+02  0.21529035140E+02  0.35525634797E+02  0.51100000000E-03 0.  1.
        -12    1    3    3    0    0 -0.28387618485E+01  0.41371229611E+01 -0.58449130060E+00  0.50513350026E+01  0.00000000000E+00 0.  1.
</event>
<event>
 7    1  0.5646756E-010  0.4778723E+02  0.7816164E-02  0.1312668E+00
        -11   -1    0    0    0    0  0.00000000000E+00  0.00000000000E+00  0.45593999997E+02  0.45594000000E+02  0.51100000000E-03 0.  1.
         11   -1    0    0    0    0 -0.00000000000E+00 -0.00000000000E+00 -0.45593999997E+02  0.45594000000E+02  0.51100000000E-03 0. -1.
    9900012    2    1    2    0    0 -0.22835718580E+02 -0.14030924734E+02  0.34136337953E+02  0.47787234330E+02  0.19999832602E+02 0.  0.
         12    1    1    2    0    0  0.22835718580E+02  0.14030924734E+02 -0.34136337953E+02  0.43400765670E+02  0.00000000000E+00 0. -1.
         11    1    3    3    0    0 -0.59740542647E+01 -0.66748854406E+01  0.90307512360E+00  0.90032752342E+01  0.51100000000E-03 0. -1.
        -11    1    3    3    0    0 -0.14332630538E+02 -0.25428382940E+01  0.24178311252E+02  0.28221996031E+02  0.51100000000E-03 0.  1.
        -12    1    3    3    0    0 -0.25290337772E+01 -0.48132009991E+01  0.90549515773E+01  0.10561963064E+02  0.00000000000E+00 0.  1.
</event>
<event>
 7    1  0.5646756E-010  0.4778727E+02  0.7816164E-02  0.1312668E+00
        -11   -1    0    0    0    0  0.00000000000E+00  0.00000000000E+00  0.45593999997E+02  0.45594000000E+02  0.51100000000E-03 0.  1.
         11   -1    0    0    0    0 -0.00000000000E+00 -0.00000000000E+00 -0.45593999997E+02  0.45594000000E+02  0.51100000000E-03 0. -1.
    9900012    2    1    2    0    0  0.36858696757E+02  0.22574180770E+02  0.39327013642E+01  0.47787270697E+02  0.19999998415E+02 0.  0.
         12    1    1    2    0    0 -0.36858696757E+02 -0.22574180770E+02 -0.39327013642E+01  0.43400729303E+02  0.00000000000E+00 0. -1.
         11    1    3    3    0    0  0.33532135592E+02  0.17996986133E+02 -0.22833211096E+01  0.38124915511E+02  0.51100000000E-03 0. -1.
        -11    1    3    3    0    0  0.45208564107E+01  0.39782993930E+01  0.54514336352E+01  0.81230005347E+01  0.51100000000E-03 0.  1.
         12    1    3    3    0    0 -0.11942952459E+01  0.59889524464E+00  0.76458883849E+00  0.15393546506E+01  0.00000000000E+00 0. -1.
</event>
<event>
 7    1  0.5646756E-010  0.4778727E+02  0.7816164E-02  0.1312668E+00
        -11   -1    0    0    0    0  0.00000000000E+00  0.00000000000E+00  0.45593999997E+02  0.45594000000E+02  0.51100000000E-03 0.  1.
         11   -1    0    0    0    0 -0.00000000000E+00 -0.00000000000E+00 -0.45593999997E+02  0.45594000000E+02  0.51100000000E-03 0. -1.
    9900012    2    1    2    0    0 -0.75165893364E+01  0.40546426021E+02 -0.13531866849E+02  0.47787271910E+02  0.20000003947E+02 0.  0.
         12    1    1    2    0    0  0.75165893364E+01 -0.40546426021E+02  0.13531866849E+02  0.43400728090E+02  0.00000000000E+00 0. -1.
         11    1    3    3    0    0 -0.95585643732E+00  0.38076867904E+01  0.42433700642E+01  0.57808589315E+01  0.51100000000E-03 0. -1.
        -11    1    3    3    0    0 -0.50375502995E+01  0.35092574442E+02 -0.17986022267E+02  0.39753775811E+02  0.51100000000E-03 0.  1.
        -12    1    3    3    0    0 -0.15231825995E+01  0.16461647888E+01  0.21078535406E+00  0.22526371676E+01  0.00000000000E+00 0.  1.
</event>
<event>
 7    1  0.5646756E-010  0.4778727E+02  0.7816164E-02  0.1312668E+00
        -11   -1    0    0    0    0  0.00000000000E+00  0.00000000000E+00  0.45593999997E+02  0.45594000000E+02  0.51100000000E-03 0.  1.
         11   -1    0    0    0    0 -0.00000000000E+00 -0.00000000000E+00 -0.45593999997E+02  0.45594000000E+02  0.51100000000E-03 0. -1.
    9900012    2    1    2    0    0  0.20810666898E+02 -0.25847559772E+01  0.37998136393E+02  0.47787272016E+02  0.20000004430E+02 0.  0.
         12    1    1    2    0    0 -0.20810666898E+02  0.25847559772E+01 -0.37998136393E+02  0.43400727984E+02  0.00000000000E+00 0. -1.
         11    1    3    3    0    0  0.10359707089E+02  0.44530509281E+01  0.25931388600E+02  0.28277024393E+02  0.51100000000E-03 0. -1.
        -11    1    3    3    0    0  0.27575060090E+01 -0.12481296422E+01  0.88583338437E+01  0.93611829242E+01  0.51100000000E-03 0.  1.
         12    1    3    3    0    0  0.76934538006E+01 -0.57896772632E+01  0.32084139493E+01  0.10149064699E+02  0.00000000000E+00 0. -1.
</event>
<event>
 7    1  0.5646756E-010  0.4778727E+02  0.7816164E-02  0.1312668E+00
        -11   -1    0    0    0    0  0.00000000000E+00  0.00000000000E+00  0.45593999997E+02  0.45594000000E+02  0.51100000000E-03 0. -1.
         11   -1    0    0    0    0 -0.00000000000E+00 -0.00000000000E+00 -0.45593999997E+02  0.45594000000E+02  0.51100000000E-03 0.  1.
    9900012    2    1    2    0    0  0.32420964037E+02  0.60114439195E+01 -0.28219977818E+02  0.47787268265E+02  0.19999987326E+02 0.  0.
         12    1    1    2    0    0 -0.32420964037E+02 -0.60114439195E+01  0.28219977818E+02  0.43400731735E+02  0.00000000000E+00 0. -1.
         11    1    3    3    0    0  0.21186766050E+01  0.20831736280E+01  0.20339599849E+01  0.36007494223E+01  0.51100000000E-03 0. -1.
        -11    1    3    3    0    0  0.26773442208E+02  0.38102686645E+01 -0.30355112380E+02  0.40654251965E+02  0.51100000000E-03 0.  1.
        -12    1    3    3    0    0  0.35288452238E+01  0.11800162705E+00  0.10117457683E+00  0.35322668773E+01  0.00000000000E+00 0.  1.
</event>
<event>
 7    1  0.5646756E-010  0.4778727E+02  0.7816164E-02  0.1312668E+00
        -11   -1    0    0    0    0  0.00000000000E+00  0.00000000000E+00  0.45593999997E+02  0.45594000000E+02  0.51100000000E-03 0. -1.
         11   -1    0    0    0    0 -0.00000000000E+00 -0.00000000000E+00 -0.45593999997E+02  0.45594000000E+02  0.51100000000E-03 0.  1.
    9900012    2    1    2    0    0  0.25975924189E+02  0.32040022397E+02 -0.13502283514E+02  0.47787270366E+02  0.19999996909E+02 0.  0.
         12    1    1    2    0    0 -0.25975924189E+02 -0.32040022397E+02  0.13502283514E+02  0.43400729634E+02  0.00000000000E+00 0. -1.
         11    1    3    3    0    0 -0.32278773152E+00  0.90387918521E+01 -0.59675122527E+01  0.10835827279E+02  0.51100000000E-03 0. -1.
        -11    1    3    3    0    0  0.16431116352E+02  0.18077633768E+02 -0.85379549687E+01  0.25878158794E+02  0.51100000000E-03 0.  1.
         12    1    3    3    0    0  0.98675955678E+01  0.49235967763E+01  0.10031837079E+01  0.11073284294E+02  0.00000000000E+00 0. -1.
</event>
<event>
 7    1  0.5646756E-010  0.4778727E+02  0.7816164E-02  0.1312668E+00
        -11   -1    0    0    0    0  0.00000000000E+00  0.00000000000E+00  0.45593999997E+02  0.45594000000E+02  0.51100000000E-03 0.  1.
         11   -1    0    0    0    0 -0.00000000000E+00 -0.00000000000E+00 -0.45593999997E+02  0.45594000000E+02  0.51100000000E-03 0. -1.
    9900012    2    1    2    0    0 -0.33824219836E+02 -0.12496816949E+02  0.24153167448E+02  0.47787265224E+02  0.19999973460E+02 0.  0.
         12    1    1    2    0    0  0.33824219836E+02  0.12496816949E+02 -0.24153167448E+02  0.43400734776E+02  0.00000000000E+00 0. -1.
         11    1    3    3    0    0 -0.12298253450E+01  0.14682948446E+01 -0.24490807772E+00  0.19308910786E+01  0.51100000000E-03 0. -1.
        -11    1    3    3    0    0 -0.20534165612E+02 -0.82874585837E+01  0.56506423276E+01  0.22853089203E+02  0.51100000000E-03 0.  1.
        -12    1    3    3    0    0 -0.12060228878E+02 -0.56776532102E+01  0.18747433198E+02  0.23003284941E+02  0.00000000000E+00 0.  1.
</event>
<event>
 7    1  0.5646756E-010  0.4778727E+02  0.7816164E-02  0.1312668E+00
        -11   -1    0    0    0    0  0.00000000000E+00  0.00000000000E+00  0.45593999997E+02  0.45594000000E+02  0.51100000000E-03 0. -1.
         11   -1    0    0    0    0 -0.00000000000E+00 -0.00000000000E+00 -0.45593999997E+02  0.45594000000E+02  0.51100000000E-03 0.  1.
    9900012    2    1    2    0    0  0.35394433626E+02  0.17661080117E+02 -0.17858997013E+02  0.47787268936E+02  0.19999990385E+02 0.  0.
         12    1    1    2    0    0 -0.35394433626E+02 -0.17661080117E+02  0.17858997013E+02  0.43400731064E+02  0.00000000000E+00 0. -1.
         11    1    3    3    0    0  0.16848747447E+02 -0.71831168018E+00 -0.99776239694E+01  0.19594622796E+02  0.51100000000E-03 0. -1.
        -11    1    3    3    0    0  0.52593374406E+01  0.97397466221E+01 -0.47133439540E+01  0.12030748359E+02  0.51100000000E-03 0.  1.
         12    1    3    3    0    0  0.13286348739E+02  0.86396451753E+01 -0.31680290892E+01  0.16161897781E+02  0.00000000000E+00 0. -1.
</event>
<event>
 7    1  0.5646756E-010  0.4778727E+02  0.7816164E-02  0.1312668E+00
        -11   -1    0    0    0    0  0.00000000000E+00  0.00000000000E+00  0.45593999997E+02  0.45594000000E+02  0.51100000000E-03 0. -1.
         11   -1    0    0    0    0 -0.00000000000E+00 -0.00000000000E+00 -0.45593999997E+02  0.45594000000E+02  0.51100000000E-03 0.  1.
    9900012    2    1    2    0    0 -0.27360868502E+02 -0.29767003165E+02 -0.15777564207E+02  0.47787272645E+02  0.20000007296E+02 0.  0.
         12    1    1    2    0    0  0.27360868502E+02  0.29767003165E+02  0.15777564207E+02  0.43400727355E+02  0.00000000000E+00 0. -1.
         11    1    3    3    0    0  0.10107793960E+00 -0.71262228489E+01 -0.24531831344E+01  0.75373321935E+01  0.51100000000E-03 0. -1.
        -11    1    3    3    0    0 -0.82563789889E+01 -0.11399487710E+02 -0.11022442451E+02  0.17877649507E+02  0.51100000000E-03 0.  1.
        -12    1    3    3    0    0 -0.19205567453E+02 -0.11241292606E+02 -0.23019386220E+01  0.22372290944E+02  0.00000000000E+00 0.  1.
</event>
<event>
 7    1  0.5646756E-010  0.4778727E+02  0.7816164E-02  0.1312668E+00
        -11   -1    0    0    0    0  0.00000000000E+00  0.00000000000E+00  0.45593999997E+02  0.45594000000E+02  0.51100000000E-03 0.  1.
         11   -1    0    0    0    0 -0.00000000000E+00 -0.00000000000E+00 -0.45593999997E+02  0.45594000000E+02  0.51100000000E-03 0. -1.
    9900012    2    1    2    0    0 -0.21194646794E+02  0.74770632148E+00  0.37866226784E+02  0.47787271339E+02  0.20000001343E+02 0.  0.
         12    1    1    2    0    0  0.21194646794E+02 -0.74770632148E+00 -0.37866226784E+02  0.43400728661E+02  0.00000000000E+00 0. -1.
         11    1    3    3    0    0 -0.45124179615E+01 -0.20839940923E+01  0.96996143703E+01  0.10898966301E+02  0.51100000000E-03 0. -1.
        -11    1    3    3    0    0 -0.74824220923E+01 -0.69989323069E+01  0.13946865860E+02  0.17305685811E+02  0.51100000000E-03 0.  1.
        -12    1    3    3    0    0 -0.91998067402E+01  0.98306327207E+01  0.14219746553E+02  0.19582619227E+02  0.00000000000E+00 0.  1.
</event>
<event>
 7    1  0.5646756E-010  0.4778727E+02  0.7816164E-02  0.1312668E+00
        -11   -1    0    0    0    0  0.00000000000E+00  0.00000000000E+00  0.45593999997E+02  0.45594000000E+02  0.51100000000E-03 0. -1.
         11   -1    0    0    0    0 -0.00000000000E+00 -0.00000000000E+00 -0.45593999997E+02  0.45594000000E+02  0.51100000000E-03 0.  1.
    9900012    2    1    2    0    0  0.34167247838E+02  0.60523168460E+00 -0.26755483462E+02  0.47787273906E+02  0.20000013046E+02 0.  0.
         12    1    1    2    0    0 -0.34167247838E+02 -0.60523168460E+00  0.26755483462E+02  0.43400726094E+02  0.00000000000E+00 0. -1.
         11    1    3    3    0    0  0.78532544020E+01  0.56867992532E-01 -0.15136055233E+02  0.17052184814E+02  0.51100000000E-03 0.  1.
        -11    1    3    3    0    0  0.21516223739E+02  0.46326645767E+01 -0.77134680082E+01  0.23321814981E+02  0.51100000000E-03 0. -1.
         12    1    3    3    0    0  0.47977696971E+01 -0.40843008846E+01 -0.39059602214E+01  0.74132741102E+01  0.00000000000E+00 0. -1.
</event>
<event>
 7    1  0.5646756E-010  0.4778727E+02  0.7816164E-02  0.1312668E+00
        -11   -1    0    0    0    0  0.00000000000E+00  0.00000000000E+00  0.45593999997E+02  0.45594000000E+02  0.51100000000E-03 0.  1.
         11   -1    0    0    0    0 -0.00000000000E+00 -0.00000000000E+00 -0.45593999997E+02  0.45594000000E+02  0.51100000000E-03 0. -1.
    9900012    2    1    2    0    0 -0.27077177014E+02  0.18064210293E+01  0.33870144436E+02  0.47787270097E+02  0.19999995682E+02 0.  0.
         12    1    1    2    0    0  0.27077177014E+02 -0.18064210293E+01 -0.33870144436E+02  0.43400729903E+02  0.00000000000E+00 0. -1.
         11    1    3    3    0    0 -0.43577783081E+01  0.56273926982E+01  0.25369371144E+01  0.75560459597E+01  0.51100000000E-03 0. -1.
        -11    1    3    3    0    0 -0.18308647479E+02  0.14433172690E+01  0.22980735411E+02  0.29417748682E+02  0.51100000000E-03 0.  1.
         12    1    3    3    0    0 -0.44107512271E+01 -0.52642889379E+01  0.83524719104E+01  0.10813475455E+02  0.00000000000E+00 0. -1.
</event>
<event>
 7    1  0.5646756E-010  0.4778727E+02  0.7816164E-02  0.1312668E+00
        -11   -1    0    0    0    0  0.00000000000E+00  0.00000000000E+00  0.45593999997E+02  0.45594000000E+02  0.51100000000E-03 0. -1.
         11   -1    0    0    0    0 -0.00000000000E+00 -0.00000000000E+00 -0.45593999997E+02  0.45594000000E+02  0.51100000000E-03 0.  1.
    9900012    2    1    2    0    0 -0.30119243934E+02  0.18070560421E+02 -0.25493316389E+02  0.47787272016E+02  0.20000004428E+02 0.  0.
         12    1    1    2    0    0  0.30119243934E+02 -0.18070560421E+02  0.25493316389E+02  0.43400727984E+02  0.00000000000E+00 0. -1.
         11    1    3    3    0    0 -0.13805070118E+01  0.36347935534E+01  0.16101617285E+01  0.42083422911E+01  0.51100000000E-03 0. -1.
        -11    1    3    3    0    0 -0.19145709274E+02  0.14273760970E+02 -0.22960397989E+02  0.33128210213E+02  0.51100000000E-03 0.  1.
        -12    1    3    3    0    0 -0.95930276479E+01  0.16200589775E+00 -0.41430801287E+01  0.10450719512E+02  0.00000000000E+00 0.  1.
</event>
<event>
 7    1  0.5646756E-010  0.4778727E+02  0.7816164E-02  0.1312668E+00
        -11   -1    0    0    0    0  0.00000000000E+00  0.00000000000E+00  0.45593999997E+02  0.45594000000E+02  0.51100000000E-03 0.  1.
         11   -1    0    0    0    0 -0.00000000000E+00 -0.00000000000E+00 -0.45593999997E+02  0.45594000000E+02  0.51100000000E-03 0. -1.
    9900012    2    1    2    0    0 -0.37614407569E+02 -0.13245994045E+02  0.17126688460E+02  0.47787268755E+02  0.19999989561E+02 0.  0.
         12    1    1    2    0    0  0.37614407569E+02  0.13245994045E+02 -0.17126688460E+02  0.43400731245E+02  0.00000000000E+00 0. -1.
         11    1    3    3    0    0 -0.75293878025E+01 -0.76923733493E+01  0.99527683828E+01  0.14660214431E+02  0.51100000000E-03 0. -1.
        -11    1    3    3    0    0 -0.25457288777E+02 -0.58487429188E+00  0.46617334779E+01  0.25887205123E+02  0.51100000000E-03 0.  1.
        -12    1    3    3    0    0 -0.46277309900E+01 -0.49687464038E+01  0.25121865992E+01  0.72398492008E+01  0.00000000000E+00 0.  1.
</event>
<event>
 7    1  0.5646756E-010  0.4778727E+02  0.7816164E-02  0.1312668E+00
        -11   -1    0    0    0    0  0.00000000000E+00  0.00000000000E+00  0.45593999997E+02  0.45594000000E+02  0.51100000000E-03 0. -1.
         11   -1    0    0    0    0 -0.00000000000E+00 -0.00000000000E+00 -0.45593999997E+02  0.45594000000E+02  0.51100000000E-03 0.  1.
    9900012    2    1    2    0    0 -0.23428957878E+01 -0.35948089064E+02 -0.24204732015E+02  0.47787270513E+02  0.19999997579E+02 0.  0.
         12    1    1    2    0    0  0.23428957878E+01  0.35948089064E+02  0.24204732015E+02  0.43400729487E+02  0.00000000000E+00 0. -1.
         11    1    3    3    0    0 -0.33591324850E+01 -0.13954976118E+02 -0.11706411416E+01  0.14401233643E+02  0.51100000000E-03 0. -1.
        -11    1    3    3    0    0  0.51803210238E+01 -0.14444976427E+02 -0.16758718354E+02  0.22723285656E+02  0.51100000000E-03 0.  1.
        -12    1    3    3    0    0 -0.41640843266E+01 -0.75481365198E+01 -0.62753725190E+01  0.10662751214E+02  0.00000000000E+00 0.  1.
</event>
<event>
 7    1  0.5646756E-010  0.4778727E+02  0.7816164E-02  0.1312668E+00
        -11   -1    0    0    0    0  0.00000000000E+00  0.00000000000E+00  0.45593999997E+02  0.45594000000E+02  0.51100000000E-03 0.  1.
         11   -1    0    0    0    0 -0.00000000000E+00 -0.00000000000E+00 -0.45593999997E+02  0.45594000000E+02  0.51100000000E-03 0. -1.
    9900012    2    1    2    0    0  0.93869961219E+01 -0.11833101713E+02  0.40687654373E+02  0.47787271772E+02  0.20000003317E+02 0.  0.
         12    1    1    2    0    0 -0.93869961219E+01  0.11833101713E+02 -0.40687654373E+02  0.43400728228E+02  0.00000000000E+00 0. -1.
         11    1    3    3    0    0  0.65795283195E+01  0.26809769647E+01  0.67813360963E+01  0.98216266425E+01  0.51100000000E-03 0. -1.
        -11    1    3    3    0    0  0.47193455126E+01 -0.76705913631E+01  0.12468545799E+02  0.15380989192E+02  0.51100000000E-03 0.  1.
         12    1    3    3    0    0 -0.19118777102E+01 -0.68434873143E+01  0.21437772478E+02  0.22584655937E+02  0.00000000000E+00 0. -1.
</event>
<event>
 7    1  0.5646756E-010  0.4778727E+02  0.7816164E-02  0.1312668E+00
        -11   -1    0    0    0    0  0.00000000000E+00  0.00000000000E+00  0.45593999997E+02  0.45594000000E+02  0.51100000000E-03 0.  1.
         11   -1    0    0    0    0 -0.00000000000E+00 -0.00000000000E+00 -0.45593999997E+02  0.45594000000E+02  0.51100000000E-03 0. -1.
    9900012    2    1    2    0    0 -0.23065338967E+02 -0.36695963710E+02  0.22404587438E+01  0.47787271093E+02  0.20000000221E+02 0.  0.
         12    1    1    2    0    0  0.23065338967E+02  0.36695963710E+02 -0.22404587438E+01  0.43400728907E+02  0.00000000000E+00 0. -1.
         11    1    3    3    0    0 -0.16121071446E+01  0.72710389950E+00 -0.25711239095E+01  0.31206165970E+01  0.51100000000E-03 0. -1.
        -11    1    3    3    0    0 -0.12905994919E+02 -0.30564252413E+02  0.14714350922E+01  0.33209988737E+02  0.51100000000E-03 0.  1.
        -12    1    3    3    0    0 -0.85472369032E+01 -0.68588151966E+01  0.33401475611E+01  0.11456665759E+02  0.00000000000E+00 0.  1.
</event>
<event>
 7    1  0.5646756E-010  0.4778728E+02  0.7816164E-02  0.1312668E+00
        -11   -1    0    0    0    0  0.00000000000E+00  0.00000000000E+00  0.45593999997E+02  0.45594000000E+02  0.51100000000E-03 0. -1.
         11   -1    0    0    0    0 -0.00000000000E+00 -0.00000000000E+00 -0.45593999997E+02  0.45594000000E+02  0.51100000000E-03 0.  1.
    9900012    2    1    2    0    0 -0.31449638606E+02 -0.12992649157E+02 -0.26939453260E+02  0.47787276014E+02  0.20000022657E+02 0.  0.
         12    1    1    2    0    0  0.31449638606E+02  0.12992649157E+02  0.26939453260E+02  0.43400723986E+02  0.00000000000E+00 0. -1.
         11    1    3    3    0    0 -0.13608996615E+02  0.83372865150E+00 -0.46237863279E+01  0.14397197387E+02  0.51100000000E-03 0. -1.
        -11    1    3    3    0    0 -0.10349372720E+02 -0.16433620305E+01 -0.10558229052E+02  0.14875696805E+02  0.51100000000E-03 0.  1.
         12    1    3    3    0    0 -0.74912692713E+01 -0.12183015778E+02 -0.11757437881E+02  0.18514381822E+02  0.00000000000E+00 0. -1.
</event>
<event>
 7    1  0.5646756E-010  0.4778732E+02  0.7816164E-02  0.1312668E+00
        -11   -1    0    0    0    0  0.00000000000E+00  0.00000000000E+00  0.45593999997E+02  0.45594000000E+02  0.51100000000E-03 0.  1.
         11   -1    0    0    0    0 -0.00000000000E+00 -0.00000000000E+00 -0.45593999997E+02  0.45594000000E+02  0.51100000000E-03 0. -1.
    9900012    2    1    2    0    0 -0.38290032828E+02 -0.14421628698E+02  0.14474439768E+02  0.47787315733E+02  0.20000203751E+02 0.  0.
         12    1    1    2    0    0  0.38290032828E+02  0.14421628698E+02 -0.14474439768E+02  0.43400684267E+02  0.00000000000E+00 0. -1.
         11    1    3    3    0    0 -0.18033735985E+02 -0.11825276931E+02  0.57405423129E+01  0.22316062250E+02  0.51100000000E-03 0.  1.
        -11    1    3    3    0    0 -0.52623781544E+01  0.47500647124E+01  0.13593950781E+01  0.72182888451E+01  0.51100000000E-03 0. -1.
         12    1    3    3    0    0 -0.14993918689E+02 -0.73464164794E+01  0.73745023775E+01  0.18252964637E+02  0.00000000000E+00 0. -1.
</event>
<event>
 7    1  0.5646756E-010  0.4778726E+02  0.7816164E-02  0.1312668E+00
        -11   -1    0    0    0    0  0.00000000000E+00  0.00000000000E+00  0.45593999997E+02  0.45594000000E+02  0.51100000000E-03 0. -1.
         11   -1    0    0    0    0 -0.00000000000E+00 -0.00000000000E+00 -0.45593999997E+02  0.45594000000E+02  0.51100000000E-03 0.  1.
    9900012    2    1    2    0    0 -0.31379880628E+02 -0.13976753456E+02 -0.26525035243E+02  0.47787262217E+02  0.19999959754E+02 0.  0.
         12    1    1    2    0    0  0.31379880628E+02  0.13976753456E+02  0.26525035243E+02  0.43400737783E+02  0.00000000000E+00 0. -1.
         11    1    3    3    0    0 -0.11650870655E+01 -0.53915327573E+01  0.12623575836E+01  0.56585864201E+01  0.51100000000E-03 0. -1.
        -11    1    3    3    0    0 -0.45329057869E+01 -0.19787116419E+01 -0.27530087208E+01  0.56605292961E+01  0.51100000000E-03 0.  1.
         12    1    3    3    0    0 -0.25681887776E+02 -0.66065090566E+01 -0.25034384106E+02  0.36468146501E+02  0.00000000000E+00 0. -1.
</event>
<event>
 7    1  0.5646756E-010  0.4778727E+02  0.7816164E-02  0.1312668E+00
        -11   -1    0    0    0    0  0.00000000000E+00  0.00000000000E+00  0.45593999997E+02  0.45594000000E+02  0.51100000000E-03 0. -1.
         11   -1    0    0    0    0 -0.00000000000E+00 -0.00000000000E+00 -0.45593999997E+02  0.45594000000E+02  0.51100000000E-03 0.  1.
    9900012    2    1    2    0    0 -0.75534480589E+01 -0.40233241344E+01 -0.42548582627E+02  0.47787267307E+02  0.19999982961E+02 0.  0.
         12    1    1    2    0    0  0.75534480589E+01  0.40233241344E+01  0.42548582627E+02  0.43400732693E+02  0.00000000000E+00 0. -1.
         11    1    3    3    0    0 -0.10904893373E+01 -0.41405519059E+01 -0.16854416474E+00  0.42850606153E+01  0.51100000000E-03 0. -1.
        -11    1    3    3    0    0 -0.18679802673E+01 -0.29287965263E+01 -0.85968761291E+01  0.92721884586E+01  0.51100000000E-03 0.  1.
         12    1    3    3    0    0 -0.45949784543E+01  0.30460242978E+01 -0.33783162333E+02  0.34230018233E+02  0.00000000000E+00 0. -1.
</event>
<event>
 7    1  0.5646756E-010  0.4778727E+02  0.7816164E-02  0.1312668E+00
        -11   -1    0    0    0    0  0.00000000000E+00  0.00000000000E+00  0.45593999997E+02  0.45594000000E+02  0.51100000000E-03 0.  1.
         11   -1    0    0    0    0 -0.00000000000E+00 -0.00000000000E+00 -0.45593999997E+02  0.45594000000E+02  0.51100000000E-03 0. -1.
    9900012    2    1    2    0    0  0.17469156920E+02 -0.21435966502E+02  0.33450724786E+02  0.47787273139E+02  0.20000009551E+02 0.  0.
         12    1    1    2    0    0 -0.17469156920E+02  0.21435966502E+02 -0.33450724786E+02  0.43400726861E+02  0.00000000000E+00 0. -1.
         11    1    3    3    0    0  0.32674329472E+01 -0.58685165764E+01 -0.44896499126E+00  0.67318032277E+01  0.51100000000E-03 0. -1.
        -11    1    3    3    0    0  0.10804622032E+02 -0.16316553318E+02  0.30114716725E+02  0.35914703578E+02  0.51100000000E-03 0.  1.
         12    1    3    3    0    0  0.33971019404E+01  0.74910339292E+00  0.37849730525E+01  0.51407663334E+01  0.00000000000E+00 0. -1.
</event>
<event>
 7    1  0.5646756E-010  0.4778727E+02  0.7816164E-02  0.1312668E+00
        -11   -1    0    0    0    0  0.00000000000E+00  0.00000000000E+00  0.45593999997E+02  0.45594000000E+02  0.51100000000E-03 0. -1.
         11   -1    0    0    0    0 -0.00000000000E+00 -0.00000000000E+00 -0.45593999997E+02  0.45594000000E+02  0.51100000000E-03 0.  1.
    9900012    2    1    2    0    0  0.10408445185E+02 -0.32176316785E+02 -0.27202426492E+02  0.47787273047E+02  0.20000009129E+02 0.  0.
         12    1    1    2    0    0 -0.10408445185E+02  0.32176316785E+02  0.27202426492E+02  0.43400726953E+02  0.00000000000E+00 0. -1.
         11    1    3    3    0    0  0.14227811702E+02 -0.15981082940E+02 -0.12361903687E+02  0.24711177649E+02  0.51100000000E-03 0. -1.
        -11    1    3    3    0    0 -0.91507920616E+00 -0.13237883069E+02 -0.12873780048E+02  0.18488188962E+02  0.51100000000E-03 0.  1.
         12    1    3    3    0    0 -0.29042873105E+01 -0.29573507758E+01 -0.19667427567E+01  0.45879064358E+01  0.00000000000E+00 0. -1.
</event>
<event>
 7    1  0.5646756E-010  0.4778727E+02  0.7816164E-02  0.1312668E+00
        -11   -1    0    0    0    0  0.00000000000E+00  0.00000000000E+00  0.45593999997E+02  0.45594000000E+02  0.51100000000E-03 0. -1.
         11   -1    0    0    0    0 -0.00000000000E+00 -0.00000000000E+00 -0.45593999997E+02  0.45594000000E+02  0.51100000000E-03 0.  1.
    9900012    2    1    2    0    0  0.23155943991E+02 -0.18449180982E+02 -0.31734103993E+02  0.47787269854E+02  0.19999994572E+02 0.  0.
         12    1    1    2    0    0 -0.23155943991E+02  0.18449180982E+02  0.31734103993E+02  0.43400730146E+02  0.00000000000E+00 0. -1.
         11    1    3    3    0    0 -0.15344718230E+01  0.25021972948E+01 -0.33432427548E+01  0.44489175601E+01  0.51100000000E-03 0. -1.
        -11    1    3    3    0    0  0.87997452322E+01 -0.10484921947E+02 -0.12764484956E+02  0.18716334600E+02  0.51100000000E-03 0.  1.
         12    1    3    3    0    0  0.15890670581E+02 -0.10466456329E+02 -0.15626376282E+02  0.24622017694E+02  0.00000000000E+00 0. -1.
</event>
<event>
 7    1  0.5646756E-010  0.4778727E+02  0.7816164E-02  0.1312668E+00
        -11   -1    0    0    0    0  0.00000000000E+00  0.00000000000E+00  0.45593999997E+02  0.45594000000E+02  0.51100000000E-03 0.  1.
         11   -1    0    0    0    0 -0.00000000000E+00 -0.00000000000E+00 -0.45593999997E+02  0.45594000000E+02  0.51100000000E-03 0. -1.
    9900012    2    1    2    0    0  0.16821130365E+02  0.29809915861E+02  0.26684110386E+02  0.47787271233E+02  0.20000000860E+02 0.  0.
         12    1    1    2    0    0 -0.16821130365E+02 -0.29809915861E+02 -0.26684110386E+02  0.43400728767E+02  0.00000000000E+00 0. -1.
         11    1    3    3    0    0  0.62429721638E+01  0.19016688599E+02  0.43620990743E+01  0.20485044674E+02  0.51100000000E-03 0. -1.
        -11    1    3    3    0    0  0.53889946258E+01  0.46330639509E+01  0.14114645362E+02  0.15802840207E+02  0.51100000000E-03 0.  1.
        -12    1    3    3    0    0  0.51891635757E+01  0.61601633105E+01  0.82073659501E+01  0.11499386352E+02  0.00000000000E+00 0.  1.
</event>
<event>
 7    1  0.5646756E-010  0.4778727E+02  0.7816164E-02  0.1312668E+00
        -11   -1    0    0    0    0  0.00000000000E+00  0.00000000000E+00  0.45593999997E+02  0.45594000000E+02  0.51100000000E-03 0.  1.
         11   -1    0    0    0    0 -0.00000000000E+00 -0.00000000000E+00 -0.45593999997E+02  0.45594000000E+02  0.51100000000E-03 0. -1.
    9900012    2    1    2    0    0 -0.39494127285E+02 -0.71712112337E+00  0.17981186627E+02  0.47787269301E+02  0.19999992052E+02 0.  0.
         12    1    1    2    0    0  0.39494127285E+02  0.71712112337E+00 -0.17981186627E+02  0.43400730699E+02  0.00000000000E+00 0. -1.
         11    1    3    3    0    0 -0.11969376931E+01  0.47304409184E+00  0.52096442192E+01  0.53662672041E+01  0.51100000000E-03 0. -1.
        -11    1    3    3    0    0 -0.25684687415E+02  0.45611047302E+01  0.51086169540E+01  0.26582039263E+02  0.51100000000E-03 0.  1.
        -12    1    3    3    0    0 -0.12612502177E+02 -0.57512699454E+01  0.76629254535E+01  0.15838962834E+02  0.00000000000E+00 0.  1.
</event>
<event>
 7    1  0.5646756E-010  0.4778727E+02  0.7816164E-02  0.1312668E+00
        -11   -1    0    0    0    0  0.00000000000E+00  0.00000000000E+00  0.45593999997E+02  0.45594000000E+02  0.51100000000E-03 0.  1.
         11   -1    0    0    0    0 -0.00000000000E+00 -0.00000000000E+00 -0.45593999997E+02  0.45594000000E+02  0.51100000000E-03 0. -1.
    9900012    2    1    2    0    0 -0.83388723977E+01 -0.39163528553E+02  0.16742295710E+02  0.47787271582E+02  0.20000002452E+02 0.  0.
         12    1    1    2    0    0  0.83388723977E+01  0.39163528553E+02 -0.16742295710E+02  0.43400728418E+02  0.00000000000E+00 0. -1.
         11    1    3    3    0    0  0.46280080780E+01 -0.65929172097E+01  0.53805449587E+00  0.80730737024E+01  0.51100000000E-03 0. -1.
        -11    1    3    3    0    0 -0.13259285416E+02 -0.24852416283E+02  0.10300357501E+02  0.29992475885E+02  0.51100000000E-03 0.  1.
        -12    1    3    3    0    0  0.29240494004E+00 -0.77181950605E+01  0.59038837132E+01  0.97217219946E+01  0.00000000000E+00 0.  1.
</event>
<event>
 7    1  0.5646756E-010  0.4778727E+02  0.7816164E-02  0.1312668E+00
        -11   -1    0    0    0    0  0.00000000000E+00  0.00000000000E+00  0.45593999997E+02  0.45594000000E+02  0.51100000000E-03 0.  1.
         11   -1    0    0    0    0 -0.00000000000E+00 -0.00000000000E+00 -0.45593999997E+02  0.45594000000E+02  0.51100000000E-03 0. -1.
    9900012    2    1    2    0    0  0.14852714844E+02 -0.21190020581E+02  0.34842551817E+02  0.47787268121E+02  0.19999986673E+02 0.  0.
         12    1    1    2    0    0 -0.14852714844E+02  0.21190020581E+02 -0.34842551817E+02  0.43400731879E+02  0.00000000000E+00 0. -1.
         11    1    3    3    0    0  0.98771176013E-01 -0.62166890337E+01  0.54419989531E+01  0.82627072533E+01  0.51100000000E-03 0. -1.
        -11    1    3    3    0    0  0.92821863856E+01 -0.17357398593E+02  0.18079529446E+02  0.26726534666E+02  0.51100000000E-03 0.  1.
        -12    1    3    3    0    0  0.54717572828E+01  0.23840670453E+01  0.11321023418E+02  0.12798026202E+02  0.00000000000E+00 0.  1.
</event>
<event>
 7    1  0.5646756E-010  0.4778727E+02  0.7816164E-02  0.1312668E+00
        -11   -1    0    0    0    0  0.00000000000E+00  0.00000000000E+00  0.45593999997E+02  0.45594000000E+02  0.51100000000E-03 0.  1.
         11   -1    0    0    0    0 -0.00000000000E+00 -0.00000000000E+00 -0.45593999997E+02  0.45594000000E+02  0.51100000000E-03 0. -1.
    9900012    2    1    2    0    0  0.18694439315E+02 -0.12389822240E+02  0.37156880303E+02  0.47787268321E+02  0.19999987581E+02 0.  0.
         12    1    1    2    0    0 -0.18694439315E+02  0.12389822240E+02 -0.37156880303E+02  0.43400731679E+02  0.00000000000E+00 0. -1.
         11    1    3    3    0    0 -0.37964398518E+01 -0.13146976736E+01  0.22424642581E+01  0.46010902763E+01  0.51100000000E-03 0. -1.
        -11    1    3    3    0    0  0.15645587462E+02 -0.96421635063E+01  0.24110185729E+02  0.30315949272E+02  0.51100000000E-03 0.  1.
         12    1    3    3    0    0  0.68452917049E+01 -0.14329610605E+01  0.10804230316E+02  0.12870228772E+02  0.00000000000E+00 0. -1.
</event>
<event>
 7    1  0.5646756E-010  0.4778727E+02  0.7816164E-02  0.1312668E+00
        -11   -1    0    0    0    0  0.00000000000E+00  0.00000000000E+00  0.45593999997E+02  0.45594000000E+02  0.51100000000E-03 0.  1.
         11   -1    0    0    0    0 -0.00000000000E+00 -0.00000000000E+00 -0.45593999997E+02  0.45594000000E+02  0.51100000000E-03 0. -1.
    9900012    2    1    2    0    0 -0.27934091690E+02  0.37206194964E+00  0.33214018887E+02  0.47787274669E+02  0.20000016526E+02 0.  0.
         12    1    1    2    0    0  0.27934091690E+02 -0.37206194964E+00 -0.33214018887E+02  0.43400725331E+02  0.00000000000E+00 0. -1.
         11    1    3    3    0    0  0.20692383403E+01 -0.26721950029E+01  0.67446872863E+01  0.75440824686E+01  0.51100000000E-03 0. -1.
        -11    1    3    3    0    0 -0.21173661687E+02  0.10182389824E+01  0.19644197546E+02  0.28900782988E+02  0.51100000000E-03 0.  1.
         12    1    3    3    0    0 -0.88296683432E+01  0.20260179701E+01  0.68251340548E+01  0.11342409212E+02  0.00000000000E+00 0. -1.
</event>
<event>
 7    1  0.5646756E-010  0.4778727E+02  0.7816164E-02  0.1312668E+00
        -11   -1    0    0    0    0  0.00000000000E+00  0.00000000000E+00  0.45593999997E+02  0.45594000000E+02  0.51100000000E-03 0. -1.
         11   -1    0    0    0    0 -0.00000000000E+00 -0.00000000000E+00 -0.45593999997E+02  0.45594000000E+02  0.51100000000E-03 0.  1.
    9900012    2    1    2    0    0 -0.23507842981E+02  0.15236158717E+01  0.36451106240E+02  0.47787271515E+02  0.20000002144E+02 0.  0.
         12    1    1    2    0    0  0.23507842981E+02 -0.15236158717E+01 -0.36451106240E+02  0.43400728485E+02  0.00000000000E+00 0. -1.
         11    1    3    3    0    0  0.64143393548E+00 -0.48442145202E+01  0.49294529002E+01  0.69409911373E+01  0.51100000000E-03 0. -1.
        -11    1    3    3    0    0 -0.15207927843E+02  0.39313277727E+01  0.24959268855E+02  0.29490702084E+02  0.51100000000E-03 0.  1.
        -12    1    3    3    0    0 -0.89413490735E+01  0.24365026191E+01  0.65623844844E+01  0.11355578294E+02  0.00000000000E+00 0.  1.
</event>
<event>
 7    1  0.5646756E-010  0.4778726E+02  0.7816164E-02  0.1312668E+00
        -11   -1    0    0    0    0  0.00000000000E+00  0.00000000000E+00  0.45593999997E+02  0.45594000000E+02  0.51100000000E-03 0. -1.
         11   -1    0    0    0    0 -0.00000000000E+00 -0.00000000000E+00 -0.45593999997E+02  0.45594000000E+02  0.51100000000E-03 0.  1.
    9900012    2    1    2    0    0 -0.31991695975E+02  0.17499044687E+02 -0.23535911977E+02  0.47787258890E+02  0.19999944583E+02 0.  0.
         12    1    1    2    0    0  0.31991695975E+02 -0.17499044687E+02  0.23535911977E+02  0.43400741110E+02  0.00000000000E+00 0. -1.
         11    1    3    3    0    0 -0.16126142606E+02  0.13864019628E+02 -0.18563136461E+02  0.28228594565E+02  0.51100000000E-03 0. -1.
        -11    1    3    3    0    0 -0.88001747745E+01  0.66105482707E+01 -0.13815572490E+01  0.11092841169E+02  0.51100000000E-03 0.  1.
         12    1    3    3    0    0 -0.70653785941E+01 -0.29755232123E+01 -0.35912182674E+01  0.84658231560E+01  0.00000000000E+00 0. -1.
</event>
<event>
 7    1  0.5646756E-010  0.4778727E+02  0.7816164E-02  0.1312668E+00
        -11   -1    0    0    0    0  0.00000000000E+00  0.00000000000E+00  0.45593999997E+02  0.45594000000E+02  0.51100000000E-03 0. -1.
         11   -1    0    0    0    0 -0.00000000000E+00 -0.00000000000E+00 -0.45593999997E+02  0.45594000000E+02  0.51100000000E-03 0.  1.
    9900012    2    1    2    0    0 -0.37835732828E+01  0.34374839188E+02 -0.26223623304E+02  0.47787269417E+02  0.19999992579E+02 0.  0.
         12    1    1    2    0    0  0.37835732828E+01 -0.34374839188E+02  0.26223623304E+02  0.43400730583E+02  0.00000000000E+00 0. -1.
         11    1    3    3    0    0  0.11022338050E+01  0.28538625151E+01  0.52551077612E+00  0.31041282920E+01  0.51100000000E-03 0. -1.
        -11    1    3    3    0    0  0.29430725521E+01  0.34804394058E+01 -0.10255281136E+02  0.11222563252E+02  0.51100000000E-03 0.  1.
        -12    1    3    3    0    0 -0.78288796399E+01  0.28040537267E+02 -0.16493852943E+02  0.33460577872E+02  0.00000000000E+00 0.  1.
</event>
<event>
 7    1  0.5646756E-010  0.4778728E+02  0.7816164E-02  0.1312668E+00
        -11   -1    0    0    0    0  0.00000000000E+00  0.00000000000E+00  0.45593999997E+02  0.45594000000E+02  0.51100000000E-03 0. -1.
         11   -1    0    0    0    0 -0.00000000000E+00 -0.00000000000E+00 -0.45593999997E+02  0.45594000000E+02  0.51100000000E-03 0.  1.
    9900012    2    1    2    0    0 -0.17647476004E+02  0.29530624995E+02 -0.26459989048E+02  0.47787282929E+02  0.20000054186E+02 0.  0.
         12    1    1    2    0    0  0.17647476004E+02 -0.29530624995E+02  0.26459989048E+02  0.43400717071E+02  0.00000000000E+00 0. -1.
         11    1    3    3    0    0 -0.64935245584E+01  0.19365284556E+01  0.80862232225E+00  0.68242123334E+01  0.51100000000E-03 0. -1.
        -11    1    3    3    0    0 -0.33426678005E+01  0.17084378662E+02 -0.16874934527E+02  0.24244851780E+02  0.51100000000E-03 0.  1.
         12    1    3    3    0    0 -0.78112836447E+01  0.10509717877E+02 -0.10393676844E+02  0.16718218815E+02  0.00000000000E+00 0. -1.
</event>
<event>
 7    1  0.5646756E-010  0.4778728E+02  0.7816164E-02  0.1312668E+00
        -11   -1    0    0    0    0  0.00000000000E+00  0.00000000000E+00  0.45593999997E+02  0.45594000000E+02  0.51100000000E-03 0. -1.
         11   -1    0    0    0    0 -0.00000000000E+00 -0.00000000000E+00 -0.45593999997E+02  0.45594000000E+02  0.51100000000E-03 0.  1.
    9900012    2    1    2    0    0 -0.38835913088E+02  0.16482285524E+02 -0.10184738950E+02  0.47787276631E+02  0.20000025472E+02 0.  0.
         12    1    1    2    0    0  0.38835913088E+02 -0.16482285524E+02  0.10184738950E+02  0.43400723369E+02  0.00000000000E+00 0. -1.
         11    1    3    3    0    0  0.10964001763E+01  0.13563421911E+01 -0.73223059329E+00  0.18915388944E+01  0.51100000000E-03 0. -1.
        -11    1    3    3    0    0 -0.25619513266E+02  0.15937883750E+02 -0.35056334428E+01  0.30375402293E+02  0.51100000000E-03 0.  1.
        -12    1    3    3    0    0 -0.14312799999E+02 -0.81194041697E+00 -0.59468749134E+01  0.15520335443E+02  0.00000000000E+00 0.  1.
</event>
<event>
 7    1  0.5646756E-010  0.4778727E+02  0.7816164E-02  0.1312668E+00
        -11   -1    0    0    0    0  0.00000000000E+00  0.00000000000E+00  0.45593999997E+02  0.45594000000E+02  0.51100000000E-03 0.  1.
         11   -1    0    0    0    0 -0.00000000000E+00 -0.00000000000E+00 -0.45593999997E+02  0.45594000000E+02  0.51100000000E-03 0. -1.
    9900012    2    1    2    0    0  0.30070969242E+02 -0.29118863928E+02  0.11465244139E+02  0.47787271311E+02  0.20000001215E+02 0.  0.
         12    1    1    2    0    0 -0.30070969242E+02  0.29118863928E+02 -0.11465244139E+02  0.43400728689E+02  0.00000000000E+00 0. -1.
         11    1    3    3    0    0  0.24035455126E+01 -0.82870308850E+01 -0.28724163931E+01  0.90941018312E+01  0.51100000000E-03 0. -1.
        -11    1    3    3    0    0  0.13818997147E+02 -0.60337116625E+01  0.96131943940E+01  0.17882501651E+02  0.51100000000E-03 0.  1.
        -12    1    3    3    0    0  0.13848426582E+02 -0.14798121380E+02  0.47244661379E+01  0.20810667829E+02  0.00000000000E+00 0.  1.
</event>
<event>
 7    1  0.5646756E-010  0.4778727E+02  0.7816164E-02  0.1312668E+00
        -11   -1    0    0    0    0  0.00000000000E+00  0.00000000000E+00  0.45593999997E+02  0.45594000000E+02  0.51100000000E-03 0.  1.
         11   -1    0    0    0    0 -0.00000000000E+00 -0.00000000000E+00 -0.45593999997E+02  0.45594000000E+02  0.51100000000E-03 0. -1.
    9900012    2    1    2    0    0  0.18574024976E+02  0.15987614568E+02  0.35819342222E+02  0.47787268432E+02  0.19999988090E+02 0.  0.
         12    1    1    2    0    0 -0.18574024976E+02 -0.15987614568E+02 -0.35819342222E+02  0.43400731568E+02  0.00000000000E+00 0. -1.
         11    1    3    3    0    0  0.66704376630E+01 -0.11093445668E+01  0.10946900925E+02  0.12867013022E+02  0.51100000000E-03 0. -1.
        -11    1    3    3    0    0  0.13200247335E+02  0.17106838146E+02  0.18585779166E+02  0.28501256613E+02  0.51100000000E-03 0.  1.
        -12    1    3    3    0    0 -0.12966600227E+01 -0.98790106870E-02  0.62866621309E+01  0.64189987971E+01  0.00000000000E+00 0.  1.
</event>
<event>
 7    1  0.5646756E-010  0.4778728E+02  0.7816164E-02  0.1312668E+00
        -11   -1    0    0    0    0  0.00000000000E+00  0.00000000000E+00  0.45593999997E+02  0.45594000000E+02  0.51100000000E-03 0.  1.
         11   -1    0    0    0    0 -0.00000000000E+00 -0.00000000000E+00 -0.45593999997E+02  0.45594000000E+02  0.51100000000E-03 0. -1.
    9900012    2    1    2    0    0  0.41650279505E+02 -0.49445323583E+01  0.11154747458E+02  0.47787279108E+02  0.20000036763E+02 0.  0.
         12    1    1    2    0    0 -0.41650279505E+02  0.49445323583E+01 -0.11154747458E+02  0.43400720892E+02  0.00000000000E+00 0. -1.
         11    1    3    3    0    0  0.33315512949E+02  0.19079774335E+01  0.12336077405E+02  0.35577276272E+02  0.51100000000E-03 0. -1.
        -11    1    3    3    0    0  0.82189879219E+01 -0.50382945731E+01 -0.25059154859E+01  0.99607121908E+01  0.51100000000E-03 0.  1.
         12    1    3    3    0    0  0.11577863453E+00 -0.18142152187E+01  0.13245855397E+01  0.22492906446E+01  0.00000000000E+00 0. -1.
</event>
<event>
 7    1  0.5646756E-010  0.4778725E+02  0.7816164E-02  0.1312668E+00
        -11   -1    0    0    0    0  0.00000000000E+00  0.00000000000E+00  0.45593999997E+02  0.45594000000E+02  0.51100000000E-03 0.  1.
         11   -1    0    0    0    0 -0.00000000000E+00 -0.00000000000E+00 -0.45593999997E+02  0.45594000000E+02  0.51100000000E-03 0. -1.
    9900012    2    1    2    0    0 -0.16904331773E+02  0.17215552444E+02  0.36076219254E+02  0.47787247998E+02  0.19999894922E+02 0.  0.
         12    1    1    2    0    0  0.16904331773E+02 -0.17215552444E+02 -0.36076219254E+02  0.43400752002E+02  0.00000000000E+00 0. -1.
         11    1    3    3    0    0 -0.46874498581E+00  0.11525809842E+02  0.12195775114E+02  0.16786927809E+02  0.51100000000E-03 0. -1.
        -11    1    3    3    0    0 -0.12195670864E+02 -0.31696711404E+00  0.12625686590E+02  0.17556845334E+02  0.51100000000E-03 0.  1.
        -12    1    3    3    0    0 -0.42399159237E+01  0.60067097167E+01  0.11254757551E+02  0.13443474855E+02  0.00000000000E+00 0.  1.
</event>
<event>
 7    1  0.5646756E-010  0.4778727E+02  0.7816164E-02  0.1312668E+00
        -11   -1    0    0    0    0  0.00000000000E+00  0.00000000000E+00  0.45593999997E+02  0.45594000000E+02  0.51100000000E-03 0.  1.
         11   -1    0    0    0    0 -0.00000000000E+00 -0.00000000000E+00 -0.45593999997E+02  0.45594000000E+02  0.51100000000E-03 0. -1.
    9900012    2    1    2    0    0  0.14562045960E+02  0.16178779284E+02  0.37547537624E+02  0.47787266558E+02  0.19999979544E+02 0.  0.
         12    1    1    2    0    0 -0.14562045960E+02 -0.16178779284E+02 -0.37547537624E+02  0.43400733442E+02  0.00000000000E+00 0. -1.
         11    1    3    3    0    0  0.24253248492E+01 -0.21380795097E+01  0.86177979946E+01  0.92043482741E+01  0.51100000000E-03 0. -1.
        -11    1    3    3    0    0  0.12935736244E+02  0.16853642376E+02  0.18962681888E+02  0.28477391703E+02  0.51100000000E-03 0.  1.
        -12    1    3    3    0    0 -0.79901513304E+00  0.14632164174E+01  0.99670577412E+01  0.10105526581E+02  0.00000000000E+00 0.  1.
</event>
<event>
 7    1  0.5646756E-010  0.4778728E+02  0.7816164E-02  0.1312668E+00
        -11   -1    0    0    0    0  0.00000000000E+00  0.00000000000E+00  0.45593999997E+02  0.45594000000E+02  0.51100000000E-03 0.  1.
         11   -1    0    0    0    0 -0.00000000000E+00 -0.00000000000E+00 -0.45593999997E+02  0.45594000000E+02  0.51100000000E-03 0. -1.
    9900012    2    1    2    0    0  0.79876899368E+01  0.41479365147E+02  0.99640285774E+01  0.47787276631E+02  0.20000025469E+02 0.  0.
         12    1    1    2    0    0 -0.79876899368E+01 -0.41479365147E+02 -0.99640285774E+01  0.43400723369E+02  0.00000000000E+00 0. -1.
         11    1    3    3    0    0  0.55356351413E+01  0.35181484871E+01 -0.11179402520E+01  0.66536017211E+01  0.51100000000E-03 0. -1.
        -11    1    3    3    0    0 -0.42750561633E+01  0.15680219262E+02  0.58924662196E+01  0.17287756931E+02  0.51100000000E-03 0.  1.
        -12    1    3    3    0    0  0.67271109589E+01  0.22280997398E+02  0.51895026098E+01  0.23845917979E+02  0.00000000000E+00 0.  1.
</event>
<event>
 7    1  0.5646756E-010  0.4778727E+02  0.7816164E-02  0.1312668E+00
        -11   -1    0    0    0    0  0.00000000000E+00  0.00000000000E+00  0.45593999997E+02  0.45594000000E+02  0.51100000000E-03 0. -1.
         11   -1    0    0    0    0 -0.00000000000E+00 -0.00000000000E+00 -0.45593999997E+02  0.45594000000E+02  0.51100000000E-03 0.  1.
    9900012    2    1    2    0    0 -0.40526840602E+02 -0.13129872539E+02 -0.82948750170E+01  0.47787270586E+02  0.19999997910E+02 0.  0.
         12    1    1    2    0    0  0.40526840602E+02  0.13129872539E+02  0.82948750170E+01  0.43400729414E+02  0.00000000000E+00 0. -1.
         11    1    3    3    0    0  0.10483064583E+01 -0.25473475733E+01 -0.19168730272E+01  0.33559392952E+01  0.51100000000E-03 0. -1.
        -11    1    3    3    0    0 -0.25371708031E+02 -0.27924516890E+01 -0.54758079522E+00  0.25530789252E+02  0.51100000000E-03 0.  1.
         12    1    3    3    0    0 -0.16203439030E+02 -0.77900732772E+01 -0.58304211946E+01  0.18900542039E+02  0.00000000000E+00 0. -1.
</event>
<event>
 7    1  0.5646756E-010  0.4778727E+02  0.7816164E-02  0.1312668E+00
        -11   -1    0    0    0    0  0.00000000000E+00  0.00000000000E+00  0.45593999997E+02  0.45594000000E+02  0.51100000000E-03 0. -1.
         11   -1    0    0    0    0 -0.00000000000E+00 -0.00000000000E+00 -0.45593999997E+02  0.45594000000E+02  0.51100000000E-03 0.  1.
    9900012    2    1    2    0    0 -0.37032108951E+02 -0.58656889458E+01 -0.21859551473E+02  0.47787269697E+02  0.19999993858E+02 0.  0.
         12    1    1    2    0    0  0.37032108951E+02  0.58656889458E+01  0.21859551473E+02  0.43400730303E+02  0.00000000000E+00 0. -1.
         11    1    3    3    0    0  0.34164896612E+00  0.16738528886E+00 -0.52404481279E+00  0.64758403155E+00  0.51100000000E-03 0. -1.
        -11    1    3    3    0    0  0.45500794192E+00 -0.37629746744E+01 -0.38525076586E+01  0.54045190487E+01  0.51100000000E-03 0.  1.
        -12    1    3    3    0    0 -0.37828765859E+02 -0.22700995603E+01 -0.17482999002E+02  0.41735166617E+02  0.00000000000E+00 0.  1.
</event>
<event>
 7    1  0.5646756E-010  0.4778728E+02  0.7816164E-02  0.1312668E+00
        -11   -1    0    0    0    0  0.00000000000E+00  0.00000000000E+00  0.45593999997E+02  0.45594000000E+02  0.51100000000E-03 0.  1.
         11   -1    0    0    0    0 -0.00000000000E+00 -0.00000000000E+00 -0.45593999997E+02  0.45594000000E+02  0.51100000000E-03 0. -1.
    9900012    2    1    2    0    0  0.36939647698E+02 -0.22778006092E+02 -0.49770892519E+00  0.47787275954E+02  0.20000022383E+02 0.  0.
         12    1    1    2    0    0 -0.36939647698E+02  0.22778006092E+02  0.49770892519E+00  0.43400724046E+02  0.00000000000E+00 0. -1.
         11    1    3    3    0    0  0.10764124665E+02 -0.33613332706E+01  0.74173895917E+01  0.13497503835E+02  0.51100000000E-03 0. -1.
        -11    1    3    3    0    0  0.17790432019E+02 -0.15078849763E+02 -0.26259398594E+01  0.23468420100E+02  0.51100000000E-03 0.  1.
         12    1    3    3    0    0  0.83850910139E+01 -0.43378230586E+01 -0.52891586575E+01  0.10821352018E+02  0.00000000000E+00 0. -1.
</event>
<event>
 7    1  0.5646756E-010  0.4778726E+02  0.7816164E-02  0.1312668E+00
        -11   -1    0    0    0    0  0.00000000000E+00  0.00000000000E+00  0.45593999997E+02  0.45594000000E+02  0.51100000000E-03 0.  1.
         11   -1    0    0    0    0 -0.00000000000E+00 -0.00000000000E+00 -0.45593999997E+02  0.45594000000E+02  0.51100000000E-03 0. -1.
    9900012    2    1    2    0    0  0.39910380320E+01  0.40304682847E+02  0.15595769458E+02  0.47787264188E+02  0.19999968740E+02 0.  0.
         12    1    1    2    0    0 -0.39910380320E+01 -0.40304682847E+02 -0.15595769458E+02  0.43400735812E+02  0.00000000000E+00 0. -1.
         11    1    3    3    0    0  0.62911722256E+01  0.71731337497E+01  0.77078677407E+01  0.12265558329E+02  0.51100000000E-03 0. -1.
        -11    1    3    3    0    0 -0.58753288876E+01  0.25020264611E+02  0.68418951246E+01  0.26595951945E+02  0.51100000000E-03 0.  1.
         12    1    3    3    0    0  0.35751946939E+01  0.81112844871E+01  0.10460065929E+01  0.89257539134E+01  0.00000000000E+00 0. -1.
</event>
<event>
 7    1  0.5646756E-010  0.4778727E+02  0.7816164E-02  0.1312668E+00
        -11   -1    0    0    0    0  0.00000000000E+00  0.00000000000E+00  0.45593999997E+02  0.45594000000E+02  0.51100000000E-03 0.  1.
         11   -1    0    0    0    0 -0.00000000000E+00 -0.00000000000E+00 -0.45593999997E+02  0.45594000000E+02  0.51100000000E-03 0. -1.
    9900012    2    1    2    0    0 -0.34247215122E+02  0.13556582456E+01  0.26625437894E+02  0.47787268486E+02  0.19999988336E+02 0.  0.
         12    1    1    2    0    0  0.34247215122E+02 -0.13556582456E+01 -0.26625437894E+02  0.43400731514E+02  0.00000000000E+00 0. -1.
         11    1    3    3    0    0 -0.22379952683E+02  0.76689366272E+01  0.15066417383E+02  0.28047670208E+02  0.51100000000E-03 0. -1.
        -11    1    3    3    0    0 -0.12310765664E+02 -0.75509802640E+01  0.94657424874E+01  0.17267673129E+02  0.51100000000E-03 0.  1.
         12    1    3    3    0    0  0.44350322506E+00  0.12377018824E+01  0.20932780238E+01  0.24719251496E+01  0.00000000000E+00 0. -1.
</event>
<event>
 7    1  0.5646756E-010  0.4778727E+02  0.7816164E-02  0.1312668E+00
        -11   -1    0    0    0    0  0.00000000000E+00  0.00000000000E+00  0.45593999997E+02  0.45594000000E+02  0.51100000000E-03 0.  1.
         11   -1    0    0    0    0 -0.00000000000E+00 -0.00000000000E+00 -0.45593999997E+02  0.45594000000E+02  0.51100000000E-03 0. -1.
    9900012    2    1    2    0    0  0.10117964899E+02  0.30784318102E+02  0.28871719630E+02  0.47787266722E+02  0.19999980290E+02 0.  0.
         12    1    1    2    0    0 -0.10117964899E+02 -0.30784318102E+02 -0.28871719630E+02  0.43400733278E+02  0.00000000000E+00 0. -1.
         11    1    3    3    0    0 -0.12228338157E+01  0.64581942299E+01  0.86264482805E+01  0.10845238838E+02  0.51100000000E-03 0. -1.
        -11    1    3    3    0    0  0.72251133566E+01  0.25545780160E+02  0.16600482828E+02  0.31310783723E+02  0.51100000000E-03 0.  1.
        -12    1    3    3    0    0  0.41156853586E+01 -0.12196562872E+01  0.36447885214E+01  0.56312441606E+01  0.00000000000E+00 0.  1.
</event>
<event>
 7    1  0.5646756E-010  0.4778727E+02  0.7816164E-02  0.1312668E+00
        -11   -1    0    0    0    0  0.00000000000E+00  0.00000000000E+00  0.45593999997E+02  0.45594000000E+02  0.51100000000E-03 0.  1.
         11   -1    0    0    0    0 -0.00000000000E+00 -0.00000000000E+00 -0.45593999997E+02  0.45594000000E+02  0.51100000000E-03 0. -1.
    9900012    2    1    2    0    0  0.28150687368E+02 -0.26018008507E+02  0.20352523933E+02  0.47787271937E+02  0.20000004069E+02 0.  0.
         12    1    1    2    0    0 -0.28150687368E+02  0.26018008507E+02 -0.20352523933E+02  0.43400728063E+02  0.00000000000E+00 0. -1.
         11    1    3    3    0    0  0.21281847629E+02 -0.20469518744E+02  0.18880291278E+02  0.35048304311E+02  0.51100000000E-03 0. -1.
        -11    1    3    3    0    0  0.47977533660E+01 -0.11519067378E+01  0.47723405917E+01  0.68644418184E+01  0.51100000000E-03 0.  1.
         12    1    3    3    0    0  0.20710863734E+01 -0.43965830251E+01 -0.33001079368E+01  0.58745258070E+01  0.00000000000E+00 0. -1.
</event>
<event>
 7    1  0.5646756E-010  0.4778727E+02  0.7816164E-02  0.1312668E+00
        -11   -1    0    0    0    0  0.00000000000E+00  0.00000000000E+00  0.45593999997E+02  0.45594000000E+02  0.51100000000E-03 0.  1.
         11   -1    0    0    0    0 -0.00000000000E+00 -0.00000000000E+00 -0.45593999997E+02  0.45594000000E+02  0.51100000000E-03 0. -1.
    9900012    2    1    2    0    0  0.62567228556E+01  0.42424208898E+02  0.66830497039E+01  0.47787271493E+02  0.20000002047E+02 0.  0.
         12    1    1    2    0    0 -0.62567228556E+01 -0.42424208898E+02 -0.66830497039E+01  0.43400728507E+02  0.00000000000E+00 0. -1.
         11    1    3    3    0    0  0.47106293911E+01  0.48190987681E+01  0.20840207004E+01  0.70538560191E+01  0.51100000000E-03 0. -1.
        -11    1    3    3    0    0 -0.44236128253E+01  0.30234521111E+02  0.60167883237E+01  0.31143159108E+02  0.51100000000E-03 0.  1.
        -12    1    3    3    0    0  0.59697062898E+01  0.73705890190E+01 -0.14177593202E+01  0.95902563659E+01  0.00000000000E+00 0.  1.
</event>
<event>
 7    1  0.5646756E-010  0.4778728E+02  0.7816164E-02  0.1312668E+00
        -11   -1    0    0    0    0  0.00000000000E+00  0.00000000000E+00  0.45593999997E+02  0.45594000000E+02  0.51100000000E-03 0.  1.
         11   -1    0    0    0    0 -0.00000000000E+00 -0.00000000000E+00 -0.45593999997E+02  0.45594000000E+02  0.51100000000E-03 0. -1.
    9900012    2    1    2    0    0  0.16306548072E+02  0.34575636990E+02  0.20548587391E+02  0.47787278496E+02  0.20000033976E+02 0.  0.
         12    1    1    2    0    0 -0.16306548072E+02 -0.34575636990E+02 -0.20548587391E+02  0.43400721504E+02  0.00000000000E+00 0. -1.
         11    1    3    3    0    0  0.46498222732E+01  0.12204175508E+02  0.17067386111E+02  0.21490891464E+02  0.51100000000E-03 0.  1.
        -11    1    3    3    0    0  0.18796897404E+01  0.77168726765E+01 -0.12863379699E+01  0.80459942245E+01  0.51100000000E-03 0. -1.
        -12    1    3    3    0    0  0.97770360584E+01  0.14654588806E+02  0.47675392503E+01  0.18250392808E+02  0.00000000000E+00 0.  1.
</event>
<event>
 7    1  0.5646756E-010  0.4778726E+02  0.7816164E-02  0.1312668E+00
        -11   -1    0    0    0    0  0.00000000000E+00  0.00000000000E+00  0.45593999997E+02  0.45594000000E+02  0.51100000000E-03 0. -1.
         11   -1    0    0    0    0 -0.00000000000E+00 -0.00000000000E+00 -0.45593999997E+02  0.45594000000E+02  0.51100000000E-03 0.  1.
    9900012    2    1    2    0    0 -0.38420553270E+02 -0.20149628914E+02 -0.12157390866E+01  0.47787257144E+02  0.19999936622E+02 0.  0.
         12    1    1    2    0    0  0.38420553270E+02  0.20149628914E+02  0.12157390866E+01  0.43400742856E+02  0.00000000000E+00 0. -1.
         11    1    3    3    0    0 -0.47060925490E+01 -0.21645074287E+01 -0.49443431802E+01  0.71609307519E+01  0.51100000000E-03 0. -1.
        -11    1    3    3    0    0 -0.14235080658E+02 -0.13781264415E+02  0.56583223907E+01  0.20605275605E+02  0.51100000000E-03 0.  1.
        -12    1    3    3    0    0 -0.19479380063E+02 -0.42038570696E+01 -0.19297182971E+01  0.20021050787E+02  0.00000000000E+00 0.  1.
</event>
<event>
 7    1  0.5646756E-010  0.4778727E+02  0.7816164E-02  0.1312668E+00
        -11   -1    0    0    0    0  0.00000000000E+00  0.00000000000E+00  0.45593999997E+02  0.45594000000E+02  0.51100000000E-03 0.  1.
         11   -1    0    0    0    0 -0.00000000000E+00 -0.00000000000E+00 -0.45593999997E+02  0.45594000000E+02  0.51100000000E-03 0. -1.
    9900012    2    1    2    0    0 -0.31902556074E+02 -0.83930529242E+01  0.28202952237E+02  0.47787274933E+02  0.20000017730E+02 0.  0.
         12    1    1    2    0    0  0.31902556074E+02  0.83930529242E+01 -0.28202952237E+02  0.43400725067E+02  0.00000000000E+00 0. -1.
         11    1    3    3    0    0 -0.76765760894E+01  0.70430376893E-01  0.16106308643E+02  0.17842308125E+02  0.51100000000E-03 0. -1.
        -11    1    3    3    0    0 -0.53385877032E+01  0.19101188709E+01  0.39385189448E+01  0.69036949893E+01  0.51100000000E-03 0.  1.
         12    1    3    3    0    0 -0.18887392281E+02 -0.10373602172E+02  0.81581246498E+01  0.23041271818E+02  0.00000000000E+00 0. -1.
</event>
<event>
 7    1  0.5646756E-010  0.4778729E+02  0.7816164E-02  0.1312668E+00
        -11   -1    0    0    0    0  0.00000000000E+00  0.00000000000E+00  0.45593999997E+02  0.45594000000E+02  0.51100000000E-03 0.  1.
         11   -1    0    0    0    0 -0.00000000000E+00 -0.00000000000E+00 -0.45593999997E+02  0.45594000000E+02  0.51100000000E-03 0. -1.
    9900012    2    1    2    0    0  0.41604614786E+02 -0.87618855013E+01  0.87124479227E+01  0.47787293119E+02  0.20000100645E+02 0.  0.
         12    1    1    2    0    0 -0.41604614786E+02  0.87618855013E+01 -0.87124479227E+01  0.43400706881E+02  0.00000000000E+00 0. -1.
         11    1    3    3    0    0 -0.22354259240E+00  0.97159603137E+00 -0.14535703441E+01  0.17626222355E+01  0.51100000000E-03 0. -1.
        -11    1    3    3    0    0  0.33061391731E+02 -0.56978068583E+01  0.23954928651E+01  0.33634194097E+02  0.51100000000E-03 0.  1.
        -12    1    3    3    0    0  0.87667656467E+01 -0.40356746744E+01  0.77705254016E+01  0.12390476787E+02  0.00000000000E+00 0.  1.
</event>
<event>
 7    1  0.5646756E-010  0.4778727E+02  0.7816164E-02  0.1312668E+00
        -11   -1    0    0    0    0  0.00000000000E+00  0.00000000000E+00  0.45593999997E+02  0.45594000000E+02  0.51100000000E-03 0.  1.
         11   -1    0    0    0    0 -0.00000000000E+00 -0.00000000000E+00 -0.45593999997E+02  0.45594000000E+02  0.51100000000E-03 0. -1.
    9900012    2    1    2    0    0  0.13656449109E+02 -0.34808334072E+02  0.22034171555E+02  0.47787269139E+02  0.19999991313E+02 0.  0.
         12    1    1    2    0    0 -0.13656449109E+02  0.34808334072E+02 -0.22034171555E+02  0.43400730861E+02  0.00000000000E+00 0. -1.
         11    1    3    3    0    0  0.53303996155E+01 -0.47533320094E+01  0.41108435970E+01  0.82405315722E+01  0.51100000000E-03 0. -1.
        -11    1    3    3    0    0  0.54711741071E+01 -0.39490210671E+01 -0.14635457313E+01  0.69043812081E+01  0.51100000000E-03 0.  1.
        -12    1    3    3    0    0  0.28548753867E+01 -0.26105980996E+02  0.19386873689E+02  0.32642356359E+02  0.00000000000E+00 0.  1.
</event>
<event>
 7    1  0.5646756E-010  0.4778727E+02  0.7816164E-02  0.1312668E+00
        -11   -1    0    0    0    0  0.00000000000E+00  0.00000000000E+00  0.45593999997E+02  0.45594000000E+02  0.51100000000E-03 0. -1.
         11   -1    0    0    0    0 -0.00000000000E+00 -0.00000000000E+00 -0.45593999997E+02  0.45594000000E+02  0.51100000000E-03 0.  1.
    9900012    2    1    2    0    0  0.37980102406E+02  0.65692242804E+01 -0.19949444657E+02  0.47787271567E+02  0.20000002383E+02 0.  0.
         12    1    1    2    0    0 -0.37980102406E+02 -0.65692242804E+01  0.19949444657E+02  0.43400728433E+02  0.00000000000E+00 0. -1.
         11    1    3    3    0    0  0.79239480474E+01  0.81078785016E+01 -0.10341215423E+02  0.15344946502E+02  0.51100000000E-03 0. -1.
        -11    1    3    3    0    0  0.16337585631E+02 -0.22816243163E+01 -0.16832450182E+01  0.16581792057E+02  0.51100000000E-03 0.  1.
        -12    1    3    3    0    0  0.13718568727E+02  0.74297009511E+00 -0.79249842161E+01  0.15860533009E+02  0.00000000000E+00 0.  1.
</event>
<event>
 7    1  0.5646756E-010  0.4778729E+02  0.7816164E-02  0.1312668E+00
        -11   -1    0    0    0    0  0.00000000000E+00  0.00000000000E+00  0.45593999997E+02  0.45594000000E+02  0.51100000000E-03 0. -1.
         11   -1    0    0    0    0 -0.00000000000E+00 -0.00000000000E+00 -0.45593999997E+02  0.45594000000E+02  0.51100000000E-03 0.  1.
    9900012    2    1    2    0    0  0.70309777746E+01 -0.34170493348E+02 -0.25817910791E+02  0.47787288235E+02  0.20000078378E+02 0.  0.
         12    1    1    2    0    0 -0.70309777746E+01  0.34170493348E+02  0.25817910791E+02  0.43400711765E+02  0.00000000000E+00 0. -1.
         11    1    3    3    0    0 -0.13425945765E+01 -0.69952409673E+01 -0.54549525470E+01  0.89717592443E+01  0.51100000000E-03 0. -1.
        -11    1    3    3    0    0 -0.34226120918E+01 -0.17152258046E+02 -0.12109233697E+02  0.21273170206E+02  0.51100000000E-03 0.  1.
        -12    1    3    3    0    0  0.11796184443E+02 -0.10022994334E+02 -0.82537245465E+01  0.17542358785E+02  0.00000000000E+00 0.  1.
</event>
<event>
 7    1  0.5646756E-010  0.4778730E+02  0.7816164E-02  0.1312668E+00
        -11   -1    0    0    0    0  0.00000000000E+00  0.00000000000E+00  0.45593999997E+02  0.45594000000E+02  0.51100000000E-03 0.  1.
         11   -1    0    0    0    0 -0.00000000000E+00 -0.00000000000E+00 -0.45593999997E+02  0.45594000000E+02  0.51100000000E-03 0. -1.
    9900012    2    1    2    0    0 -0.28750695121E+01  0.39052769075E+02  0.18714598181E+02  0.47787297446E+02  0.20000120375E+02 0.  0.
         12    1    1    2    0    0  0.28750695121E+01 -0.39052769075E+02 -0.18714598181E+02  0.43400702554E+02  0.00000000000E+00 0. -1.
         11    1    3    3    0    0  0.69751429502E-01  0.83391115500E+01  0.12157294867E+02  0.14742641061E+02  0.51100000000E-03 0. -1.
        -11    1    3    3    0    0  0.27228680516E+01  0.17371141960E+02  0.13257784220E+01  0.17633158314E+02  0.51100000000E-03 0.  1.
         12    1    3    3    0    0 -0.56676889931E+01  0.13342515564E+02  0.52315248922E+01  0.15411498071E+02  0.00000000000E+00 0. -1.
</event>
<event>
 7    1  0.5646756E-010  0.4778727E+02  0.7816164E-02  0.1312668E+00
        -11   -1    0    0    0    0  0.00000000000E+00  0.00000000000E+00  0.45593999997E+02  0.45594000000E+02  0.51100000000E-03 0.  1.
         11   -1    0    0    0    0 -0.00000000000E+00 -0.00000000000E+00 -0.45593999997E+02  0.45594000000E+02  0.51100000000E-03 0. -1.
    9900012    2    1    2    0    0 -0.15431098786E+02  0.39722468072E+02 -0.82237513147E+01  0.47787269993E+02  0.19999995206E+02 0.  0.
         12    1    1    2    0    0  0.15431098786E+02 -0.39722468072E+02  0.82237513147E+01  0.43400730007E+02  0.00000000000E+00 0. -1.
         11    1    3    3    0    0 -0.11044078385E+02  0.27115087120E+02 -0.52127277927E+00  0.29282611606E+02  0.51100000000E-03 0. -1.
        -11    1    3    3    0    0 -0.15972675800E+01  0.51635502340E+01  0.21745346769E+01  0.58259862739E+01  0.51100000000E-03 0.  1.
         12    1    3    3    0    0 -0.27897528210E+01  0.74438307179E+01 -0.98770132124E+01  0.12678672113E+02  0.00000000000E+00 0. -1.
</event>
<event>
 7    1  0.5646756E-010  0.4778728E+02  0.7816164E-02  0.1312668E+00
        -11   -1    0    0    0    0  0.00000000000E+00  0.00000000000E+00  0.45593999997E+02  0.45594000000E+02  0.51100000000E-03 0.  1.
         11   -1    0    0    0    0 -0.00000000000E+00 -0.00000000000E+00 -0.45593999997E+02  0.45594000000E+02  0.51100000000E-03 0. -1.
    9900012    2    1    2    0    0 -0.17707259295E+01 -0.42984446536E+02 -0.57292942121E+01  0.47787275047E+02  0.20000018248E+02 0.  0.
         12    1    1    2    0    0  0.17707259295E+01  0.42984446536E+02  0.57292942121E+01  0.43400724953E+02  0.00000000000E+00 0. -1.
         11    1    3    3    0    0  0.35938797777E+01 -0.54152533422E+01 -0.51240785322E+01  0.82762987912E+01  0.51100000000E-03 0. -1.
        -11    1    3    3    0    0 -0.24917024712E+01 -0.19884337874E+02  0.51529146136E+01  0.20691737558E+02  0.51100000000E-03 0.  1.
         12    1    3    3    0    0 -0.28729032360E+01 -0.17684855319E+02 -0.57581302936E+01  0.18819238697E+02  0.00000000000E+00 0. -1.
</event>
<event>
 7    1  0.5646756E-010  0.4778727E+02  0.7816164E-02  0.1312668E+00
        -11   -1    0    0    0    0  0.00000000000E+00  0.00000000000E+00  0.45593999997E+02  0.45594000000E+02  0.51100000000E-03 0.  1.
         11   -1    0    0    0    0 -0.00000000000E+00 -0.00000000000E+00 -0.45593999997E+02  0.45594000000E+02  0.51100000000E-03 0. -1.
    9900012    2    1    2    0    0  0.20353157638E+02 -0.10685050301E+02  0.36813068027E+02  0.47787270705E+02  0.19999998453E+02 0.  0.
         12    1    1    2    0    0 -0.20353157638E+02  0.10685050301E+02 -0.36813068027E+02  0.43400729295E+02  0.00000000000E+00 0. -1.
         11    1    3    3    0    0  0.92546487592E-01 -0.56490238146E+00  0.91914471642E+01  0.92092551701E+01  0.51100000000E-03 0. -1.
        -11    1    3    3    0    0  0.16760204808E+02 -0.81762206829E+01  0.28883079596E+02  0.34380042715E+02  0.51100000000E-03 0.  1.
        -12    1    3    3    0    0  0.35004063425E+01 -0.19439272371E+01 -0.12614587332E+01  0.41979728205E+01  0.00000000000E+00 0.  1.
</event>
<event>
 7    1  0.5646756E-010  0.4778726E+02  0.7816164E-02  0.1312668E+00
        -11   -1    0    0    0    0  0.00000000000E+00  0.00000000000E+00  0.45593999997E+02  0.45594000000E+02  0.51100000000E-03 0.  1.
         11   -1    0    0    0    0 -0.00000000000E+00 -0.00000000000E+00 -0.45593999997E+02  0.45594000000E+02  0.51100000000E-03 0. -1.
    9900012    2    1    2    0    0  0.12447156023E+02  0.39696184197E+02  0.12365482832E+02  0.47787263848E+02  0.19999967187E+02 0.  0.
         12    1    1    2    0    0 -0.12447156023E+02 -0.39696184197E+02 -0.12365482832E+02  0.43400736152E+02  0.00000000000E+00 0. -1.
         11    1    3    3    0    0  0.53362052054E+01  0.85867573631E+01 -0.82309498776E+00  0.10143223039E+02  0.51100000000E-03 0. -1.
        -11    1    3    3    0    0 -0.46500055596E+01  0.67917604044E+01  0.26237292052E+01  0.86391270565E+01  0.51100000000E-03 0.  1.
        -12    1    3    3    0    0  0.11760956377E+02  0.24317666430E+02  0.10564848615E+02  0.29004913752E+02  0.00000000000E+00 0.  1.
</event>
<event>
 7    1  0.5646756E-010  0.4778724E+02  0.7816164E-02  0.1312668E+00
        -11   -1    0    0    0    0  0.00000000000E+00  0.00000000000E+00  0.45593999997E+02  0.45594000000E+02  0.51100000000E-03 0.  1.
         11   -1    0    0    0    0 -0.00000000000E+00 -0.00000000000E+00 -0.45593999997E+02  0.45594000000E+02  0.51100000000E-03 0. -1.
    9900012    2    1    2    0    0  0.24558277682E+02 -0.18530083659E+02  0.30612959441E+02  0.47787236311E+02  0.19999841635E+02 0.  0.
         12    1    1    2    0    0 -0.24558277682E+02  0.18530083659E+02 -0.30612959441E+02  0.43400763689E+02  0.00000000000E+00 0. -1.
         11    1    3    3    0    0  0.60946085588E+01  0.25778946230E+01  0.12580370573E+02  0.14214623393E+02  0.51100000000E-03 0. -1.
        -11    1    3    3    0    0  0.61748232569E+01 -0.99599279044E+01  0.78560621741E+01  0.14108377627E+02  0.51100000000E-03 0.  1.
         12    1    3    3    0    0  0.12288845866E+02 -0.11148050377E+02  0.10176526693E+02  0.19464235291E+02  0.00000000000E+00 0. -1.
</event>
<event>
 7    1  0.5646756E-010  0.4778727E+02  0.7816164E-02  0.1312668E+00
        -11   -1    0    0    0    0  0.00000000000E+00  0.00000000000E+00  0.45593999997E+02  0.45594000000E+02  0.51100000000E-03 0.  1.
         11   -1    0    0    0    0 -0.00000000000E+00 -0.00000000000E+00 -0.45593999997E+02  0.45594000000E+02  0.51100000000E-03 0. -1.
    9900012    2    1    2    0    0 -0.18009876747E+02  0.15463924299E+02  0.36333659717E+02  0.47787269089E+02  0.19999991086E+02 0.  0.
         12    1    1    2    0    0  0.18009876747E+02 -0.15463924299E+02 -0.36333659717E+02  0.43400730911E+02  0.00000000000E+00 0. -1.
         11    1    3    3    0    0 -0.11940343838E+02  0.11505805682E+01  0.18063279403E+02  0.21683581569E+02  0.51100000000E-03 0.  1.
        -11    1    3    3    0    0 -0.83948223498E+01  0.13786415798E+02  0.14841500858E+02  0.21927344819E+02  0.51100000000E-03 0. -1.
         12    1    3    3    0    0  0.23252894410E+01  0.52692793258E+00  0.34288794567E+01  0.41763427013E+01  0.00000000000E+00 0. -1.
</event>
<event>
 7    1  0.5646756E-010  0.4778727E+02  0.7816164E-02  0.1312668E+00
        -11   -1    0    0    0    0  0.00000000000E+00  0.00000000000E+00  0.45593999997E+02  0.45594000000E+02  0.51100000000E-03 0.  1.
         11   -1    0    0    0    0 -0.00000000000E+00 -0.00000000000E+00 -0.45593999997E+02  0.45594000000E+02  0.51100000000E-03 0. -1.
    9900012    2    1    2    0    0  0.28688027295E+02  0.32024396019E+02  0.59209930530E+01  0.47787274094E+02  0.20000013905E+02 0.  0.
         12    1    1    2    0    0 -0.28688027295E+02 -0.32024396019E+02 -0.59209930530E+01  0.43400725906E+02  0.00000000000E+00 0. -1.
         11    1    3    3    0    0  0.99365202327E+01  0.23603112820E+02  0.25213975435E+00  0.25610641223E+02  0.51100000000E-03 0. -1.
        -11    1    3    3    0    0  0.15278796996E+02  0.82417299200E+01  0.66073845807E+01  0.18574856150E+02  0.51100000000E-03 0.  1.
         12    1    3    3    0    0  0.34727100658E+01  0.17955327817E+00 -0.93853128211E+00  0.36017767211E+01  0.00000000000E+00 0. -1.
</event>
<event>
 7    1  0.5646756E-010  0.4778727E+02  0.7816164E-02  0.1312668E+00
        -11   -1    0    0    0    0  0.00000000000E+00  0.00000000000E+00  0.45593999997E+02  0.45594000000E+02  0.51100000000E-03 0.  1.
         11   -1    0    0    0    0 -0.00000000000E+00 -0.00000000000E+00 -0.45593999997E+02  0.45594000000E+02  0.51100000000E-03 0. -1.
    9900012    2    1    2    0    0 -0.30252581096E+02  0.11818392769E+02  0.28787669971E+02  0.47787274050E+02  0.20000013702E+02 0.  0.
         12    1    1    2    0    0  0.30252581096E+02 -0.11818392769E+02 -0.28787669971E+02  0.43400725950E+02  0.00000000000E+00 0. -1.
         11    1    3    3    0    0 -0.10974984731E+02 -0.12348058763E+01  0.86696915022E+01  0.14040604916E+02  0.51100000000E-03 0. -1.
        -11    1    3    3    0    0 -0.18057691428E+02  0.13587106171E+02  0.21935362303E+02  0.31493646874E+02  0.51100000000E-03 0.  1.
        -12    1    3    3    0    0 -0.12199049373E+01 -0.53390752547E+00 -0.18173838340E+01  0.22530222595E+01  0.00000000000E+00 0.  1.
</event>
<event>
 7    1  0.5646756E-010  0.4778727E+02  0.7816164E-02  0.1312668E+00
        -11   -1    0    0    0    0  0.00000000000E+00  0.00000000000E+00  0.45593999997E+02  0.45594000000E+02  0.51100000000E-03 0.  1.
         11   -1    0    0    0    0 -0.00000000000E+00 -0.00000000000E+00 -0.45593999997E+02  0.45594000000E+02  0.51100000000E-03 0. -1.
    9900012    2    1    2    0    0 -0.26145742760E+02 -0.32651289073E+02  0.11572236271E+02  0.47787271954E+02  0.20000004148E+02 0.  0.
         12    1    1    2    0    0  0.26145742760E+02  0.32651289073E+02 -0.11572236271E+02  0.43400728046E+02  0.00000000000E+00 0. -1.
         11    1    3    3    0    0 -0.10977874783E+02 -0.58472412600E+01 -0.23674566239E+01  0.12661311790E+02  0.51100000000E-03 0. -1.
        -11    1    3    3    0    0 -0.15507939062E+02 -0.21136397350E+02  0.93766673735E+01  0.27841791577E+02  0.51100000000E-03 0.  1.
         12    1    3    3    0    0  0.34007108526E+00 -0.56676504624E+01  0.45630255210E+01  0.72841685876E+01  0.00000000000E+00 0. -1.
</event>
<event>
 7    1  0.5646756E-010  0.4778727E+02  0.7816164E-02  0.1312668E+00
        -11   -1    0    0    0    0  0.00000000000E+00  0.00000000000E+00  0.45593999997E+02  0.45594000000E+02  0.51100000000E-03 0.  1.
         11   -1    0    0    0    0 -0.00000000000E+00 -0.00000000000E+00 -0.45593999997E+02  0.45594000000E+02  0.51100000000E-03 0. -1.
    9900012    2    1    2    0    0 -0.26741681296E+02  0.30689033911E+02  0.15056188342E+02  0.47787272721E+02  0.20000007645E+02 0.  0.
         12    1    1    2    0    0  0.26741681296E+02 -0.30689033911E+02 -0.15056188342E+02  0.43400727279E+02  0.00000000000E+00 0. -1.
         11    1    3    3    0    0 -0.79280259357E+01  0.80991187519E+01  0.12683807867E+01  0.11404302253E+02  0.51100000000E-03 0. -1.
        -11    1    3    3    0    0 -0.62554000730E+01  0.15948730203E+02  0.14077902623E+02  0.22173844224E+02  0.51100000000E-03 0.  1.
        -12    1    3    3    0    0 -0.12558255287E+02  0.66411849567E+01 -0.29009506719E+00  0.14209126244E+02  0.00000000000E+00 0.  1.
</event>
<event>
 7    1  0.5646756E-010  0.4778727E+02  0.7816164E-02  0.1312668E+00
        -11   -1    0    0    0    0  0.00000000000E+00  0.00000000000E+00  0.45593999997E+02  0.45594000000E+02  0.51100000000E-03 0. -1.
         11   -1    0    0    0    0 -0.00000000000E+00 -0.00000000000E+00 -0.45593999997E+02  0.45594000000E+02  0.51100000000E-03 0.  1.
    9900012    2    1    2    0    0 -0.33523205386E+02 -0.27561727315E+02  0.41116827385E+00  0.47787272227E+02  0.20000005391E+02 0.  0.
         12    1    1    2    0    0  0.33523205386E+02  0.27561727315E+02 -0.41116827385E+00  0.43400727773E+02  0.00000000000E+00 0. -1.
         11    1    3    3    0    0 -0.81251347804E+01  0.10721071272E+01  0.94813868744E+00  0.82502240045E+01  0.51100000000E-03 0. -1.
        -11    1    3    3    0    0 -0.12496941125E+02 -0.92361919482E+01  0.34088734877E+01  0.15909154531E+02  0.51100000000E-03 0.  1.
         12    1    3    3    0    0 -0.12901129481E+02 -0.19397642494E+02 -0.39458439013E+01  0.23627893691E+02  0.00000000000E+00 0. -1.
</event>
<event>
 7    1  0.5646756E-010  0.4778727E+02  0.7816164E-02  0.1312668E+00
        -11   -1    0    0    0    0  0.00000000000E+00  0.00000000000E+00  0.45593999997E+02  0.45594000000E+02  0.51100000000E-03 0.  1.
         11   -1    0    0    0    0 -0.00000000000E+00 -0.00000000000E+00 -0.45593999997E+02  0.45594000000E+02  0.51100000000E-03 0. -1.
    9900012    2    1    2    0    0  0.24872006587E+02  0.34997903538E+02  0.63366443875E+01  0.47787273902E+02  0.20000013028E+02 0.  0.
         12    1    1    2    0    0 -0.24872006587E+02 -0.34997903538E+02 -0.63366443875E+01  0.43400726098E+02  0.00000000000E+00 0. -1.
         11    1    3    3    0    0  0.42291196078E+01  0.10527691181E+02  0.10479676080E+02  0.15444783756E+02  0.51100000000E-03 0. -1.
        -11    1    3    3    0    0  0.33523466285E+01  0.41612640648E+01  0.41892625252E-01  0.53437909566E+01  0.51100000000E-03 0.  1.
         12    1    3    3    0    0  0.17290540351E+02  0.20308948293E+02 -0.41849243175E+01  0.26998699190E+02  0.00000000000E+00 0. -1.
</event>
<event>
 7    1  0.5646756E-010  0.4778727E+02  0.7816164E-02  0.1312668E+00
        -11   -1    0    0    0    0  0.00000000000E+00  0.00000000000E+00  0.45593999997E+02  0.45594000000E+02  0.51100000000E-03 0.  1.
         11   -1    0    0    0    0 -0.00000000000E+00 -0.00000000000E+00 -0.45593999997E+02  0.45594000000E+02  0.51100000000E-03 0. -1.
    9900012    2    1    2    0    0  0.37804727006E+02 -0.20466801743E+02  0.59612068888E+01  0.47787270223E+02  0.19999996256E+02 0.  0.
         12    1    1    2    0    0 -0.37804727006E+02  0.20466801743E+02 -0.59612068888E+01  0.43400729777E+02  0.00000000000E+00 0. -1.
         11    1    3    3    0    0  0.22556749137E+02 -0.41557240350E+01  0.57310800505E+01  0.23641536597E+02  0.51100000000E-03 0. -1.
        -11    1    3    3    0    0  0.52891431712E+01 -0.10936466723E+02  0.29617777341E+01  0.12504138014E+02  0.51100000000E-03 0.  1.
         12    1    3    3    0    0  0.99588346976E+01 -0.53746109856E+01 -0.27316508958E+01  0.11641595612E+02  0.00000000000E+00 0. -1.
</event>
<event>
 7    1  0.5646756E-010  0.4778727E+02  0.7816164E-02  0.1312668E+00
        -11   -1    0    0    0    0  0.00000000000E+00  0.00000000000E+00  0.45593999997E+02  0.45594000000E+02  0.51100000000E-03 0. -1.
         11   -1    0    0    0    0 -0.00000000000E+00 -0.00000000000E+00 -0.45593999997E+02  0.45594000000E+02  0.51100000000E-03 0.  1.
    9900012    2    1    2    0    0 -0.20663322343E+02  0.23193247916E+02 -0.30310454097E+02  0.47787271127E+02  0.20000000377E+02 0.  0.
         12    1    1    2    0    0  0.20663322343E+02 -0.23193247916E+02  0.30310454097E+02  0.43400728873E+02  0.00000000000E+00 0. -1.
         11    1    3    3    0    0 -0.36972210638E+01  0.11673173897E+02 -0.96543568337E+01  0.15592916294E+02  0.51100000000E-03 0. -1.
        -11    1    3    3    0    0 -0.17106661269E+02  0.55424713791E+01 -0.11797521054E+02  0.21506704816E+02  0.51100000000E-03 0.  1.
        -12    1    3    3    0    0  0.14055998953E+00  0.59776026396E+01 -0.88585762096E+01  0.10687650017E+02  0.00000000000E+00 0.  1.
</event>
<event>
 7    1  0.5646756E-010  0.4778727E+02  0.7816164E-02  0.1312668E+00
        -11   -1    0    0    0    0  0.00000000000E+00  0.00000000000E+00  0.45593999997E+02  0.45594000000E+02  0.51100000000E-03 0.  1.
         11   -1    0    0    0    0 -0.00000000000E+00 -0.00000000000E+00 -0.45593999997E+02  0.45594000000E+02  0.51100000000E-03 0. -1.
    9900012    2    1    2    0    0  0.33344628912E+02  0.27436521345E+02  0.43585129461E+01  0.47787267104E+02  0.19999982033E+02 0.  0.
         12    1    1    2    0    0 -0.33344628912E+02 -0.27436521345E+02 -0.43585129461E+01  0.43400732896E+02  0.00000000000E+00 0. -1.
         11    1    3    3    0    0  0.21236909506E+02  0.16667158725E+02  0.16796419617E+01  0.27048506479E+02  0.51100000000E-03 0.  1.
        -11    1    3    3    0    0  0.30609293241E+01  0.67675618413E+00  0.60128240571E+01  0.67809542590E+01  0.51100000000E-03 0. -1.
         12    1    3    3    0    0  0.90467900820E+01  0.10092606436E+02 -0.33339530726E+01  0.13957806366E+02  0.00000000000E+00 0. -1.
</event>
<event>
 7    1  0.5646756E-010  0.4778732E+02  0.7816164E-02  0.1312668E+00
        -11   -1    0    0    0    0  0.00000000000E+00  0.00000000000E+00  0.45593999997E+02  0.45594000000E+02  0.51100000000E-03 0.  1.
         11   -1    0    0    0    0 -0.00000000000E+00 -0.00000000000E+00 -0.45593999997E+02  0.45594000000E+02  0.51100000000E-03 0. -1.
    9900012    2    1    2    0    0 -0.18759932298E+02 -0.39042509917E+02  0.27140330495E+01  0.47787324707E+02  0.20000244669E+02 0.  0.
         12    1    1    2    0    0  0.18759932298E+02  0.39042509917E+02 -0.27140330495E+01  0.43400675293E+02  0.00000000000E+00 0. -1.
         11    1    3    3    0    0 -0.14702656571E+02 -0.20162391056E+02  0.53036308489E+01  0.25511147050E+02  0.51100000000E-03 0. -1.
        -11    1    3    3    0    0 -0.47922942699E+01 -0.12391506975E+02 -0.63664348018E+01  0.14732515801E+02  0.51100000000E-03 0.  1.
         12    1    3    3    0    0  0.73501854249E+00 -0.64886118856E+01  0.37768370024E+01  0.75436618563E+01  0.00000000000E+00 0. -1.
</event>
<event>
 7    1  0.5646756E-010  0.4778727E+02  0.7816164E-02  0.1312668E+00
        -11   -1    0    0    0    0  0.00000000000E+00  0.00000000000E+00  0.45593999997E+02  0.45594000000E+02  0.51100000000E-03 0.  1.
         11   -1    0    0    0    0 -0.00000000000E+00 -0.00000000000E+00 -0.45593999997E+02  0.45594000000E+02  0.51100000000E-03 0. -1.
    9900012    2    1    2    0    0 -0.31482778735E+02  0.17347509318E+02  0.24321224999E+02  0.47787269339E+02  0.19999992225E+02 0.  0.
         12    1    1    2    0    0  0.31482778735E+02 -0.17347509318E+02 -0.24321224999E+02  0.43400730661E+02  0.00000000000E+00 0. -1.
         11    1    3    3    0    0 -0.15113451301E+02  0.29416794220E+01  0.19283273305E+01  0.15517355916E+02  0.51100000000E-03 0. -1.
        -11    1    3    3    0    0 -0.13013839020E+02  0.12790148861E+02  0.13714599526E+02  0.22826260191E+02  0.51100000000E-03 0.  1.
         12    1    3    3    0    0 -0.33554884136E+01  0.16156810355E+01  0.86782981431E+01  0.94436532318E+01  0.00000000000E+00 0. -1.
</event>
<event>
 7    1  0.5646756E-010  0.4778727E+02  0.7816164E-02  0.1312668E+00
        -11   -1    0    0    0    0  0.00000000000E+00  0.00000000000E+00  0.45593999997E+02  0.45594000000E+02  0.51100000000E-03 0. -1.
         11   -1    0    0    0    0 -0.00000000000E+00 -0.00000000000E+00 -0.45593999997E+02  0.45594000000E+02  0.51100000000E-03 0.  1.
    9900012    2    1    2    0    0  0.22332012323E+02 -0.36660595457E+02 -0.63957276885E+01  0.47787269979E+02  0.19999995143E+02 0.  0.
         12    1    1    2    0    0 -0.22332012323E+02  0.36660595457E+02  0.63957276885E+01  0.43400730021E+02  0.00000000000E+00 0. -1.
         11    1    3    3    0    0  0.16851657215E+02 -0.30143429104E+02 -0.34844363182E+01  0.34709450669E+02  0.51100000000E-03 0. -1.
        -11    1    3    3    0    0 -0.24016906198E+01 -0.82011324554E-01 -0.14268037255E+01  0.27947473630E+01  0.51100000000E-03 0.  1.
         12    1    3    3    0    0  0.78820457277E+01 -0.64351550285E+01 -0.14844876448E+01  0.10283071947E+02  0.00000000000E+00 0. -1.
</event>
<event>
 7    1  0.5646756E-010  0.4778729E+02  0.7816164E-02  0.1312668E+00
        -11   -1    0    0    0    0  0.00000000000E+00  0.00000000000E+00  0.45593999997E+02  0.45594000000E+02  0.51100000000E-03 0. -1.
         11   -1    0    0    0    0 -0.00000000000E+00 -0.00000000000E+00 -0.45593999997E+02  0.45594000000E+02  0.51100000000E-03 0.  1.
    9900012    2    1    2    0    0  0.85067957749E+01 -0.40110235779E+02 -0.14227600185E+02  0.47787294987E+02  0.20000109164E+02 0.  0.
         12    1    1    2    0    0 -0.85067957749E+01  0.40110235779E+02  0.14227600185E+02  0.43400705013E+02  0.00000000000E+00 0. -1.
         11    1    3    3    0    0  0.58885919034E+01 -0.31556954109E+01  0.47569188547E+00  0.66977765835E+01  0.51100000000E-03 0. -1.
        -11    1    3    3    0    0  0.44761975660E+01 -0.76412002297E+01 -0.19488395880E+01  0.90676491772E+01  0.51100000000E-03 0.  1.
         12    1    3    3    0    0 -0.18579936945E+01 -0.29313340138E+02 -0.12754452482E+02  0.32021869226E+02  0.00000000000E+00 0. -1.
</event>
<event>
 7    1  0.5646756E-010  0.4778727E+02  0.7816164E-02  0.1312668E+00
        -11   -1    0    0    0    0  0.00000000000E+00  0.00000000000E+00  0.45593999997E+02  0.45594000000E+02  0.51100000000E-03 0.  1.
         11   -1    0    0    0    0 -0.00000000000E+00 -0.00000000000E+00 -0.45593999997E+02  0.45594000000E+02  0.51100000000E-03 0. -1.
    9900012    2    1    2    0    0  0.24161097599E+02  0.28404332029E+01  0.35941572450E+02  0.47787270419E+02  0.19999997147E+02 0.  0.
         12    1    1    2    0    0 -0.24161097599E+02 -0.28404332029E+01 -0.35941572450E+02  0.43400729581E+02  0.00000000000E+00 0. -1.
         11    1    3    3    0    0  0.27400835712E+02  0.20937164291E+01  0.34435461851E+02  0.44056673494E+02  0.51100000000E-03 0. -1.
        -11    1    3    3    0    0 -0.14811075883E+01  0.21755503281E-01  0.90423299340E+00  0.17354511107E+01  0.51100000000E-03 0.  1.
         12    1    3    3    0    0 -0.17586305247E+01  0.72496127053E+00  0.60187760611E+00  0.19951458140E+01  0.00000000000E+00 0. -1.
</event>
<event>
 7    1  0.5646756E-010  0.4778727E+02  0.7816164E-02  0.1312668E+00
        -11   -1    0    0    0    0  0.00000000000E+00  0.00000000000E+00  0.45593999997E+02  0.45594000000E+02  0.51100000000E-03 0.  1.
         11   -1    0    0    0    0 -0.00000000000E+00 -0.00000000000E+00 -0.45593999997E+02  0.45594000000E+02  0.51100000000E-03 0. -1.
    9900012    2    1    2    0    0 -0.74445913893E+01 -0.33755859772E+02  0.26243917766E+02  0.47787271554E+02  0.20000002325E+02 0.  0.
         12    1    1    2    0    0  0.74445913893E+01  0.33755859772E+02 -0.26243917766E+02  0.43400728446E+02  0.00000000000E+00 0. -1.
         11    1    3    3    0    0  0.38133958084E+00 -0.27803135114E+02  0.18698544807E+02  0.33508138119E+02  0.51100000000E-03 0. -1.
        -11    1    3    3    0    0 -0.70249150546E+01 -0.18801630552E+01  0.23777262469E+01  0.76510147696E+01  0.51100000000E-03 0.  1.
        -12    1    3    3    0    0 -0.80101591560E+00 -0.40725616028E+01  0.51676467121E+01  0.66281186657E+01  0.00000000000E+00 0.  1.
</event>
<event>
 7    1  0.5646756E-010  0.4778727E+02  0.7816164E-02  0.1312668E+00
        -11   -1    0    0    0    0  0.00000000000E+00  0.00000000000E+00  0.45593999997E+02  0.45594000000E+02  0.51100000000E-03 0. -1.
         11   -1    0    0    0    0 -0.00000000000E+00 -0.00000000000E+00 -0.45593999997E+02  0.45594000000E+02  0.51100000000E-03 0.  1.
    9900012    2    1    2    0    0  0.40549956065E+02 -0.51137216670E+01 -0.14600488626E+02  0.47787270118E+02  0.19999995777E+02 0.  0.
         12    1    1    2    0    0 -0.40549956065E+02  0.51137216670E+01  0.14600488626E+02  0.43400729882E+02  0.00000000000E+00 0. -1.
         11    1    3    3    0    0  0.14781786959E+02 -0.10133323821E+02 -0.22872591945E+01  0.18067015034E+02  0.51100000000E-03 0. -1.
        -11    1    3    3    0    0  0.12006128560E+02  0.35636451837E+01 -0.91884683738E+01  0.15533017779E+02  0.51100000000E-03 0.  1.
        -12    1    3    3    0    0  0.13762040546E+02  0.14559569704E+01 -0.31247610582E+01  0.14187237305E+02  0.00000000000E+00 0.  1.
</event>
<event>
 7    1  0.5646756E-010  0.4778727E+02  0.7816164E-02  0.1312668E+00
        -11   -1    0    0    0    0  0.00000000000E+00  0.00000000000E+00  0.45593999997E+02  0.45594000000E+02  0.51100000000E-03 0. -1.
         11   -1    0    0    0    0 -0.00000000000E+00 -0.00000000000E+00 -0.45593999997E+02  0.45594000000E+02  0.51100000000E-03 0.  1.
    9900012    2    1    2    0    0  0.17404773235E+02 -0.37002857819E+02 -0.14542548582E+02  0.47787270313E+02  0.19999996664E+02 0.  0.
         12    1    1    2    0    0 -0.17404773235E+02  0.37002857819E+02  0.14542548582E+02  0.43400729687E+02  0.00000000000E+00 0. -1.
         11    1    3    3    0    0  0.14812097349E+02 -0.11955355670E+02 -0.10224956560E+02  0.21607371288E+02  0.51100000000E-03 0. -1.
        -11    1    3    3    0    0  0.20186559988E+01 -0.17200873470E+02 -0.24485546603E+00  0.17320651681E+02  0.51100000000E-03 0.  1.
         12    1    3    3    0    0  0.57401988741E+00 -0.78466286780E+01 -0.40727365558E+01  0.88592473435E+01  0.00000000000E+00 0. -1.
</event>
<event>
 7    1  0.5646756E-010  0.4778727E+02  0.7816164E-02  0.1312668E+00
        -11   -1    0    0    0    0  0.00000000000E+00  0.00000000000E+00  0.45593999997E+02  0.45594000000E+02  0.51100000000E-03 0.  1.
         11   -1    0    0    0    0 -0.00000000000E+00 -0.00000000000E+00 -0.45593999997E+02  0.45594000000E+02  0.51100000000E-03 0. -1.
    9900012    2    1    2    0    0  0.24007653547E+02  0.35825494732E+02 -0.48775003253E+01  0.47787268312E+02  0.19999987543E+02 0.  0.
         12    1    1    2    0    0 -0.24007653547E+02 -0.35825494732E+02  0.48775003253E+01  0.43400731688E+02  0.00000000000E+00 0. -1.
         11    1    3    3    0    0  0.13725396985E+02  0.29901332928E+02  0.35071701049E+01  0.33087406603E+02  0.51100000000E-03 0.  1.
        -11    1    3    3    0    0  0.72062352304E+01  0.48154452125E+01 -0.70336191456E+01  0.11161995222E+02  0.51100000000E-03 0. -1.
        -12    1    3    3    0    0  0.30760213309E+01  0.11087165912E+01 -0.13510512847E+01  0.35378664873E+01  0.00000000000E+00 0.  1.
</event>
<event>
 7    1  0.5646756E-010  0.4778728E+02  0.7816164E-02  0.1312668E+00
        -11   -1    0    0    0    0  0.00000000000E+00  0.00000000000E+00  0.45593999997E+02  0.45594000000E+02  0.51100000000E-03 0. -1.
         11   -1    0    0    0    0 -0.00000000000E+00 -0.00000000000E+00 -0.45593999997E+02  0.45594000000E+02  0.51100000000E-03 0.  1.
    9900012    2    1    2    0    0 -0.28972261169E+02 -0.32244356547E+02  0.21289259344E+01  0.47787276826E+02  0.20000026360E+02 0.  0.
         12    1    1    2    0    0  0.28972261169E+02  0.32244356547E+02 -0.21289259344E+01  0.43400723174E+02  0.00000000000E+00 0. -1.
         11    1    3    3    0    0 -0.76504176889E+01 -0.22405638180E+01 -0.20923092272E+01  0.82417701497E+01  0.51100000000E-03 0. -1.
        -11    1    3    3    0    0 -0.18264626448E+02 -0.28920365760E+02  0.74084361477E+01  0.34998129399E+02  0.51100000000E-03 0.  1.
        -12    1    3    3    0    0 -0.30572170317E+01 -0.10834269693E+01 -0.31872009862E+01  0.45473772774E+01  0.00000000000E+00 0.  1.
</event>
<event>
 7    1  0.5646756E-010  0.4778727E+02  0.7816164E-02  0.1312668E+00
        -11   -1    0    0    0    0  0.00000000000E+00  0.00000000000E+00  0.45593999997E+02  0.45594000000E+02  0.51100000000E-03 0.  1.
         11   -1    0    0    0    0 -0.00000000000E+00 -0.00000000000E+00 -0.45593999997E+02  0.45594000000E+02  0.51100000000E-03 0. -1.
    9900012    2    1    2    0    0  0.37831413426E+02 -0.16375782324E+02 -0.13573558055E+02  0.47787267669E+02  0.19999984611E+02 0.  0.
         12    1    1    2    0    0 -0.37831413426E+02  0.16375782324E+02  0.13573558055E+02  0.43400732331E+02  0.00000000000E+00 0. -1.
         11    1    3    3    0    0  0.65130354029E+01 -0.90089384988E+01 -0.94635779224E+01  0.14599311983E+02  0.51100000000E-03 0. -1.
        -11    1    3    3    0    0  0.27382046723E+02 -0.70256956771E+01 -0.58545011246E+01  0.28868877120E+02  0.51100000000E-03 0.  1.
         12    1    3    3    0    0  0.39363313005E+01 -0.34114814830E+00  0.17445209920E+01  0.43190785658E+01  0.00000000000E+00 0. -1.
</event>
<event>
 7    1  0.5646756E-010  0.4778727E+02  0.7816164E-02  0.1312668E+00
        -11   -1    0    0    0    0  0.00000000000E+00  0.00000000000E+00  0.45593999997E+02  0.45594000000E+02  0.51100000000E-03 0. -1.
         11   -1    0    0    0    0 -0.00000000000E+00 -0.00000000000E+00 -0.45593999997E+02  0.45594000000E+02  0.51100000000E-03 0.  1.
    9900012    2    1    2    0    0  0.26880759473E+02 -0.12888577780E+02 -0.31542553545E+02  0.47787270154E+02  0.19999995941E+02 0.  0.
         12    1    1    2    0    0 -0.26880759473E+02  0.12888577780E+02  0.31542553545E+02  0.43400729846E+02  0.00000000000E+00 0. -1.
         11    1    3    3    0    0 -0.82505155354E+00 -0.20725825484E+00 -0.15281075725E+00  0.86430170591E+00  0.51100000000E-03 0. -1.
        -11    1    3    3    0    0  0.16084380126E+02 -0.13246401891E+02 -0.27808929621E+02  0.34749259187E+02  0.51100000000E-03 0.  1.
        -12    1    3    3    0    0  0.11621430900E+02  0.56508236612E+00 -0.35808131668E+01  0.12173709261E+02  0.00000000000E+00 0.  1.
</event>
<event>
 7    1  0.5646756E-010  0.4778727E+02  0.7816164E-02  0.1312668E+00
        -11   -1    0    0    0    0  0.00000000000E+00  0.00000000000E+00  0.45593999997E+02  0.45594000000E+02  0.51100000000E-03 0.  1.
         11   -1    0    0    0    0 -0.00000000000E+00 -0.00000000000E+00 -0.45593999997E+02  0.45594000000E+02  0.51100000000E-03 0. -1.
    9900012    2    1    2    0    0  0.20796238569E+02  0.29038968522E+02  0.24655184674E+02  0.47787270020E+02  0.19999995331E+02 0.  0.
         12    1    1    2    0    0 -0.20796238569E+02 -0.29038968522E+02 -0.24655184674E+02  0.43400729980E+02  0.00000000000E+00 0. -1.
         11    1    3    3    0    0  0.57036273681E+01 -0.17276378820E+01  0.57555666300E+01  0.82850857146E+01  0.51100000000E-03 0. -1.
        -11    1    3    3    0    0  0.88071636876E+01  0.23351029297E+02  0.14022639332E+02  0.28626405914E+02  0.51100000000E-03 0.  1.
         12    1    3    3    0    0  0.62854475136E+01  0.74155771063E+01  0.48769787123E+01  0.10875778392E+02  0.00000000000E+00 0. -1.
</event>
<event>
 7    1  0.5646756E-010  0.4778726E+02  0.7816164E-02  0.1312668E+00
        -11   -1    0    0    0    0  0.00000000000E+00  0.00000000000E+00  0.45593999997E+02  0.45594000000E+02  0.51100000000E-03 0.  1.
         11   -1    0    0    0    0 -0.00000000000E+00 -0.00000000000E+00 -0.45593999997E+02  0.45594000000E+02  0.51100000000E-03 0. -1.
    9900012    2    1    2    0    0 -0.40496957499E-01 -0.60762959636E+01  0.42973257065E+02  0.47787264575E+02  0.19999970503E+02 0.  0.
         12    1    1    2    0    0  0.40496957499E-01  0.60762959636E+01 -0.42973257065E+02  0.43400735425E+02  0.00000000000E+00 0. -1.
         11    1    3    3    0    0  0.41604210782E+01 -0.27902446599E+01  0.86851652358E+00  0.50841803688E+01  0.51100000000E-03 0. -1.
        -11    1    3    3    0    0 -0.49609828107E+01 -0.30247566065E+01  0.29150362760E+02  0.29723797744E+02  0.51100000000E-03 0.  1.
         12    1    3    3    0    0  0.76006477495E+00 -0.26129469722E+00  0.12954377781E+02  0.12979286463E+02  0.00000000000E+00 0. -1.
</event>
<event>
 7    1  0.5646756E-010  0.4778727E+02  0.7816164E-02  0.1312668E+00
        -11   -1    0    0    0    0  0.00000000000E+00  0.00000000000E+00  0.45593999997E+02  0.45594000000E+02  0.51100000000E-03 0.  1.
         11   -1    0    0    0    0 -0.00000000000E+00 -0.00000000000E+00 -0.45593999997E+02  0.45594000000E+02  0.51100000000E-03 0. -1.
    9900012    2    1    2    0    0 -0.57136185687E+01  0.23014830834E+02 -0.36349629541E+02  0.47787269094E+02  0.19999991107E+02 0.  0.
         12    1    1    2    0    0  0.57136185687E+01 -0.23014830834E+02  0.36349629541E+02  0.43400730906E+02  0.00000000000E+00 0. -1.
         11    1    3    3    0    0 -0.11121564572E+00  0.16297076307E+01 -0.77614437365E+01  0.79314768497E+01  0.51100000000E-03 0. -1.
        -11    1    3    3    0    0  0.34853215030E+01  0.13810468805E+02 -0.22292615570E+02  0.26454436751E+02  0.51100000000E-03 0.  1.
        -12    1    3    3    0    0 -0.90877244260E+01  0.75746543978E+01 -0.62955702344E+01  0.13401355494E+02  0.00000000000E+00 0.  1.
</event>
<event>
 7    1  0.5646756E-010  0.4778727E+02  0.7816164E-02  0.1312668E+00
        -11   -1    0    0    0    0  0.00000000000E+00  0.00000000000E+00  0.45593999997E+02  0.45594000000E+02  0.51100000000E-03 0.  1.
         11   -1    0    0    0    0 -0.00000000000E+00 -0.00000000000E+00 -0.45593999997E+02  0.45594000000E+02  0.51100000000E-03 0. -1.
    9900012    2    1    2    0    0 -0.18395417131E+02 -0.38707770268E+02  0.68513101436E+01  0.47787270730E+02  0.19999998565E+02 0.  0.
         12    1    1    2    0    0  0.18395417131E+02  0.38707770268E+02 -0.68513101436E+01  0.43400729270E+02  0.00000000000E+00 0. -1.
         11    1    3    3    0    0 -0.51647506855E+01 -0.13781080084E+02 -0.59177965160E+01  0.15862318046E+02  0.51100000000E-03 0. -1.
        -11    1    3    3    0    0 -0.52289460771E+01 -0.11827932725E+02  0.99541756439E+01  0.16319542966E+02  0.51100000000E-03 0.  1.
         12    1    3    3    0    0 -0.80017203687E+01 -0.13098757459E+02  0.28149310157E+01  0.15605409718E+02  0.00000000000E+00 0. -1.
</event>
<event>
 7    1  0.5646756E-010  0.4778728E+02  0.7816164E-02  0.1312668E+00
        -11   -1    0    0    0    0  0.00000000000E+00  0.00000000000E+00  0.45593999997E+02  0.45594000000E+02  0.51100000000E-03 0.  1.
         11   -1    0    0    0    0 -0.00000000000E+00 -0.00000000000E+00 -0.45593999997E+02  0.45594000000E+02  0.51100000000E-03 0. -1.
    9900012    2    1    2    0    0 -0.85907289715E+01  0.15688806577E+02  0.39543434250E+02  0.47787280324E+02  0.20000042311E+02 0.  0.
         12    1    1    2    0    0  0.85907289715E+01 -0.15688806577E+02 -0.39543434250E+02  0.43400719676E+02  0.00000000000E+00 0. -1.
         11    1    3    3    0    0  0.11532813017E+01  0.10753629389E+02  0.88860670710E+01  0.13997599474E+02  0.51100000000E-03 0. -1.
        -11    1    3    3    0    0 -0.85354296344E+01  0.12077928771E+01  0.12308122853E+02  0.15026716578E+02  0.51100000000E-03 0.  1.
         12    1    3    3    0    0 -0.12085806389E+01  0.37273843112E+01  0.18349244326E+02  0.18762964272E+02  0.00000000000E+00 0. -1.
</event>
<event>
 7    1  0.5646756E-010  0.4778727E+02  0.7816164E-02  0.1312668E+00
        -11   -1    0    0    0    0  0.00000000000E+00  0.00000000000E+00  0.45593999997E+02  0.45594000000E+02  0.51100000000E-03 0. -1.
         11   -1    0    0    0    0 -0.00000000000E+00 -0.00000000000E+00 -0.45593999997E+02  0.45594000000E+02  0.51100000000E-03 0.  1.
    9900012    2    1    2    0    0  0.15819598030E+02 -0.21734661960E+02 -0.34072981877E+02  0.47787270670E+02  0.19999998293E+02 0.  0.
         12    1    1    2    0    0 -0.15819598030E+02  0.21734661960E+02  0.34072981877E+02  0.43400729330E+02  0.00000000000E+00 0. -1.
         11    1    3    3    0    0  0.18336131362E+02 -0.10785077178E+02 -0.20441489348E+02  0.29502306522E+02  0.51100000000E-03 0. -1.
        -11    1    3    3    0    0  0.21944872303E-01 -0.89436142552E+01 -0.10297549580E+02  0.13639217175E+02  0.51100000000E-03 0.  1.
         12    1    3    3    0    0 -0.25384782049E+01 -0.20059705276E+01 -0.33339429491E+01  0.46457469736E+01  0.00000000000E+00 0. -1.
</event>
<event>
 7    1  0.5646756E-010  0.4778727E+02  0.7816164E-02  0.1312668E+00
        -11   -1    0    0    0    0  0.00000000000E+00  0.00000000000E+00  0.45593999997E+02  0.45594000000E+02  0.51100000000E-03 0.  1.
         11   -1    0    0    0    0 -0.00000000000E+00 -0.00000000000E+00 -0.45593999997E+02  0.45594000000E+02  0.51100000000E-03 0. -1.
    9900012    2    1    2    0    0 -0.12145960683E+02  0.25900740805E+02  0.32638177342E+02  0.47787270106E+02  0.19999995720E+02 0.  0.
         12    1    1    2    0    0  0.12145960683E+02 -0.25900740805E+02 -0.32638177342E+02  0.43400729894E+02  0.00000000000E+00 0. -1.
         11    1    3    3    0    0  0.15045524010E+01  0.45549297711E+00 -0.45544804315E+00  0.16366383109E+01  0.51100000000E-03 0. -1.
        -11    1    3    3    0    0  0.20145591439E+01  0.19423910671E+01  0.76114786664E+01  0.81096201730E+01  0.51100000000E-03 0.  1.
        -12    1    3    3    0    0 -0.15665072228E+02  0.23502856761E+02  0.25482146718E+02  0.38041011622E+02  0.00000000000E+00 0.  1.
</event>
<event>
 7    1  0.5646756E-010  0.4778727E+02  0.7816164E-02  0.1312668E+00
        -11   -1    0    0    0    0  0.00000000000E+00  0.00000000000E+00  0.45593999997E+02  0.45594000000E+02  0.51100000000E-03 0.  1.
         11   -1    0    0    0    0 -0.00000000000E+00 -0.00000000000E+00 -0.45593999997E+02  0.45594000000E+02  0.51100000000E-03 0. -1.
    9900012    2    1    2    0    0  0.40526575273E+02 -0.48886617737E+01  0.14741804158E+02  0.47787272965E+02  0.20000008757E+02 0.  0.
         12    1    1    2    0    0 -0.40526575273E+02  0.48886617737E+01 -0.14741804158E+02  0.43400727035E+02  0.00000000000E+00 0. -1.
         11    1    3    3    0    0  0.44453869225E+01 -0.44634196376E+01 -0.42123426821E+00  0.63135582932E+01  0.51100000000E-03 0. -1.
        -11    1    3    3    0    0  0.22325193403E+02  0.73309449624E+00  0.16255394270E+02  0.27625885165E+02  0.51100000000E-03 0.  1.
        -12    1    3    3    0    0  0.13755994948E+02 -0.11583366323E+01 -0.10923558439E+01  0.13847829507E+02  0.00000000000E+00 0.  1.
</event>
<event>
 7    1  0.5646756E-010  0.4778727E+02  0.7816164E-02  0.1312668E+00
        -11   -1    0    0    0    0  0.00000000000E+00  0.00000000000E+00  0.45593999997E+02  0.45594000000E+02  0.51100000000E-03 0. -1.
         11   -1    0    0    0    0 -0.00000000000E+00 -0.00000000000E+00 -0.45593999997E+02  0.45594000000E+02  0.51100000000E-03 0.  1.
    9900012    2    1    2    0    0  0.30589526872E+01  0.27104073003E+02 -0.33758484248E+02  0.47787271624E+02  0.20000002643E+02 0.  0.
         12    1    1    2    0    0 -0.30589526872E+01 -0.27104073003E+02  0.33758484248E+02  0.43400728376E+02  0.00000000000E+00 0. -1.
         11    1    3    3    0    0  0.38041871131E+00 -0.26851206167E+01 -0.66432987435E+01  0.71755145863E+01  0.51100000000E-03 0. -1.
        -11    1    3    3    0    0 -0.28543847661E+00  0.19914186979E+02 -0.18287674856E+02  0.27038775306E+02  0.51100000000E-03 0.  1.
         12    1    3    3    0    0  0.29639724525E+01  0.98750066405E+01 -0.88275106481E+01  0.13572981732E+02  0.00000000000E+00 0. -1.
</event>
<event>
 7    1  0.5646756E-010  0.4778727E+02  0.7816164E-02  0.1312668E+00
        -11   -1    0    0    0    0  0.00000000000E+00  0.00000000000E+00  0.45593999997E+02  0.45594000000E+02  0.51100000000E-03 0. -1.
         11   -1    0    0    0    0 -0.00000000000E+00 -0.00000000000E+00 -0.45593999997E+02  0.45594000000E+02  0.51100000000E-03 0.  1.
    9900012    2    1    2    0    0 -0.24652435735E+02 -0.34210919617E+02 -0.10271014802E+02  0.47787270124E+02  0.19999995803E+02 0.  0.
         12    1    1    2    0    0  0.24652435735E+02  0.34210919617E+02  0.10271014802E+02  0.43400729876E+02  0.00000000000E+00 0. -1.
         11    1    3    3    0    0 -0.15804098436E+02 -0.97253189653E+01 -0.68652747713E+01  0.19785938297E+02  0.51100000000E-03 0. -1.
        -11    1    3    3    0    0 -0.71344222182E+01 -0.16148977066E+02  0.22278782901E+01  0.17794743117E+02  0.51100000000E-03 0.  1.
        -12    1    3    3    0    0 -0.17139150811E+01 -0.83366235862E+01 -0.56336183207E+01  0.10206588711E+02  0.00000000000E+00 0.  1.
</event>
<event>
 7    1  0.5646756E-010  0.4778727E+02  0.7816164E-02  0.1312668E+00
        -11   -1    0    0    0    0  0.00000000000E+00  0.00000000000E+00  0.45593999997E+02  0.45594000000E+02  0.51100000000E-03 0. -1.
         11   -1    0    0    0    0 -0.00000000000E+00 -0.00000000000E+00 -0.45593999997E+02  0.45594000000E+02  0.51100000000E-03 0.  1.
    9900012    2    1    2    0    0  0.41958138065E+02  0.90653009187E+01 -0.63998796942E+01  0.47787268547E+02  0.19999988611E+02 0.  0.
         12    1    1    2    0    0 -0.41958138065E+02 -0.90653009187E+01  0.63998796942E+01  0.43400731453E+02  0.00000000000E+00 0. -1.
         11    1    3    3    0    0  0.37394820038E+02  0.69174786976E+01 -0.11031592132E+01  0.38045249871E+02  0.51100000000E-03 0. -1.
        -11    1    3    3    0    0 -0.12809167789E+01 -0.17688728858E+00  0.29484513987E+00  0.13262619745E+01  0.51100000000E-03 0.  1.
        -12    1    3    3    0    0  0.58442348050E+01  0.23247095097E+01 -0.55915656209E+01  0.84157567011E+01  0.00000000000E+00 0.  1.
</event>
<event>
 7    1  0.5646756E-010  0.4778727E+02  0.7816164E-02  0.1312668E+00
        -11   -1    0    0    0    0  0.00000000000E+00  0.00000000000E+00  0.45593999997E+02  0.45594000000E+02  0.51100000000E-03 0.  1.
         11   -1    0    0    0    0 -0.00000000000E+00 -0.00000000000E+00 -0.45593999997E+02  0.45594000000E+02  0.51100000000E-03 0. -1.
    9900012    2    1    2    0    0 -0.34717219915E+02 -0.25800741776E+02  0.35580131748E+01  0.47787273133E+02  0.20000009524E+02 0.  0.
         12    1    1    2    0    0  0.34717219915E+02  0.25800741776E+02 -0.35580131748E+01  0.43400726867E+02  0.00000000000E+00 0. -1.
         11    1    3    3    0    0  0.78564401154E+00 -0.61885310720E-01  0.14030979056E+01  0.16092701135E+01  0.51100000000E-03 0. -1.
        -11    1    3    3    0    0 -0.26935206738E+02 -0.26124667554E+02  0.23792571559E+01  0.37598729789E+02  0.51100000000E-03 0.  1.
        -12    1    3    3    0    0 -0.85676571879E+01  0.38581108884E+00 -0.22434188667E+00  0.85792732308E+01  0.00000000000E+00 0.  1.
</event>
<event>
 7    1  0.5646756E-010  0.4778728E+02  0.7816164E-02  0.1312668E+00
        -11   -1    0    0    0    0  0.00000000000E+00  0.00000000000E+00  0.45593999997E+02  0.45594000000E+02  0.51100000000E-03 0.  1.
         11   -1    0    0    0    0 -0.00000000000E+00 -0.00000000000E+00 -0.45593999997E+02  0.45594000000E+02  0.51100000000E-03 0. -1.
    9900012    2    1    2    0    0 -0.25864718797E+00 -0.21072531314E+02  0.37940796251E+02  0.47787280023E+02  0.20000040938E+02 0.  0.
         12    1    1    2    0    0  0.25864718797E+00  0.21072531314E+02 -0.37940796251E+02  0.43400719977E+02  0.00000000000E+00 0. -1.
         11    1    3    3    0    0 -0.74141956848E+01 -0.94964464963E+01  0.13330873229E+02  0.17968443867E+02  0.51100000000E-03 0. -1.
        -11    1    3    3    0    0  0.36106869554E+01 -0.10467420768E+02  0.23441761349E+02  0.25925279810E+02  0.51100000000E-03 0.  1.
        -12    1    3    3    0    0  0.35448615414E+01 -0.11086640497E+01  0.11681616729E+01  0.38935563456E+01  0.00000000000E+00 0.  1.
</event>
<event>
 7    1  0.5646756E-010  0.4778727E+02  0.7816164E-02  0.1312668E+00
        -11   -1    0    0    0    0  0.00000000000E+00  0.00000000000E+00  0.45593999997E+02  0.45594000000E+02  0.51100000000E-03 0. -1.
         11   -1    0    0    0    0 -0.00000000000E+00 -0.00000000000E+00 -0.45593999997E+02  0.45594000000E+02  0.51100000000E-03 0.  1.
    9900012    2    1    2    0    0  0.15087210853E+02  0.34019383479E+02 -0.22331160385E+02  0.47787272958E+02  0.20000008726E+02 0.  0.
         12    1    1    2    0    0 -0.15087210853E+02 -0.34019383479E+02  0.22331160385E+02  0.43400727042E+02  0.00000000000E+00 0. -1.
         11    1    3    3    0    0  0.84846505897E+01  0.25501340905E+01 -0.77445446550E+01  0.11767346841E+02  0.51100000000E-03 0. -1.
        -11    1    3    3    0    0  0.88158551718E+00  0.12820138668E+02 -0.91321141283E+01  0.15764791696E+02  0.51100000000E-03 0.  1.
         12    1    3    3    0    0  0.57209747464E+01  0.18649110720E+02 -0.54545016014E+01  0.20255134421E+02  0.00000000000E+00 0. -1.
</event>
<event>
 7    1  0.5646756E-010  0.4778727E+02  0.7816164E-02  0.1312668E+00
        -11   -1    0    0    0    0  0.00000000000E+00  0.00000000000E+00  0.45593999997E+02  0.45594000000E+02  0.51100000000E-03 0. -1.
         11   -1    0    0    0    0 -0.00000000000E+00 -0.00000000000E+00 -0.45593999997E+02  0.45594000000E+02  0.51100000000E-03 0.  1.
    9900012    2    1    2    0    0 -0.36331563216E+02 -0.16751948147E+02 -0.16822985672E+02  0.47787273055E+02  0.20000009166E+02 0.  0.
         12    1    1    2    0    0  0.36331563216E+02  0.16751948147E+02  0.16822985672E+02  0.43400726945E+02  0.00000000000E+00 0. -1.
         11    1    3    3    0    0 -0.25101253566E+02 -0.49023706408E+01 -0.86085815229E+01  0.26985437640E+02  0.51100000000E-03 0. -1.
        -11    1    3    3    0    0 -0.86095013983E+01 -0.12931363921E+02 -0.88736194472E+01  0.17890914161E+02  0.51100000000E-03 0.  1.
         12    1    3    3    0    0 -0.26208082515E+01  0.10817864139E+01  0.65921529853E+00  0.29109212538E+01  0.00000000000E+00 0. -1.
</event>
<event>
 7    1  0.5646756E-010  0.4778726E+02  0.7816164E-02  0.1312668E+00
        -11   -1    0    0    0    0  0.00000000000E+00  0.00000000000E+00  0.45593999997E+02  0.45594000000E+02  0.51100000000E-03 0.  1.
         11   -1    0    0    0    0 -0.00000000000E+00 -0.00000000000E+00 -0.45593999997E+02  0.45594000000E+02  0.51100000000E-03 0. -1.
    9900012    2    1    2    0    0  0.16309488335E+02  0.33036792564E+02  0.22938949829E+02  0.47787257012E+02  0.19999936021E+02 0.  0.
         12    1    1    2    0    0 -0.16309488335E+02 -0.33036792564E+02 -0.22938949829E+02  0.43400742988E+02  0.00000000000E+00 0. -1.
         11    1    3    3    0    0 -0.14448144717E+01  0.11239867858E+02  0.24416184064E+01  0.11592394879E+02  0.51100000000E-03 0. -1.
        -11    1    3    3    0    0 -0.11110838852E+01  0.19806131319E+00  0.10780279948E+01  0.15607306950E+01  0.51100000000E-03 0.  1.
         12    1    3    3    0    0  0.18865386692E+02  0.21598863393E+02  0.19419303428E+02  0.34634131439E+02  0.00000000000E+00 0. -1.
</event>
<event>
 7    1  0.5646756E-010  0.4778727E+02  0.7816164E-02  0.1312668E+00
        -11   -1    0    0    0    0  0.00000000000E+00  0.00000000000E+00  0.45593999997E+02  0.45594000000E+02  0.51100000000E-03 0.  1.
         11   -1    0    0    0    0 -0.00000000000E+00 -0.00000000000E+00 -0.45593999997E+02  0.45594000000E+02  0.51100000000E-03 0. -1.
    9900012    2    1    2    0    0  0.50834017607E+01 -0.11381292834E+02  0.41572212431E+02  0.47787266753E+02  0.19999980432E+02 0.  0.
         12    1    1    2    0    0 -0.50834017607E+01  0.11381292834E+02 -0.41572212431E+02  0.43400733247E+02  0.00000000000E+00 0. -1.
         11    1    3    3    0    0 -0.10640365861E+01 -0.42751101804E+01 -0.11971951191E+00  0.44071616641E+01  0.51100000000E-03 0. -1.
        -11    1    3    3    0    0  0.17649490892E+01 -0.70307177220E+01  0.30751379024E+02  0.31594198029E+02  0.51100000000E-03 0.  1.
         12    1    3    3    0    0  0.43824892575E+01 -0.75464931385E-01  0.10940552918E+02  0.11785907059E+02  0.00000000000E+00 0. -1.
</event>
<event>
 7    1  0.5646756E-010  0.4778727E+02  0.7816164E-02  0.1312668E+00
        -11   -1    0    0    0    0  0.00000000000E+00  0.00000000000E+00  0.45593999997E+02  0.45594000000E+02  0.51100000000E-03 0. -1.
         11   -1    0    0    0    0 -0.00000000000E+00 -0.00000000000E+00 -0.45593999997E+02  0.45594000000E+02  0.51100000000E-03 0.  1.
    9900012    2    1    2    0    0  0.37156284258E+02 -0.11935639552E+02  0.18988798062E+02  0.47787269554E+02  0.19999993206E+02 0.  0.
         12    1    1    2    0    0 -0.37156284258E+02  0.11935639552E+02 -0.18988798062E+02  0.43400730446E+02  0.00000000000E+00 0. -1.
         11    1    3    3    0    0  0.27340996364E+02 -0.13736174081E+02  0.15389368897E+02  0.34249747968E+02  0.51100000000E-03 0. -1.
        -11    1    3    3    0    0  0.17121546989E+01  0.38298152955E+01  0.30102793177E+01  0.51634039879E+01  0.51100000000E-03 0.  1.
         12    1    3    3    0    0  0.81031331953E+01 -0.20292807665E+01  0.58914984718E+00  0.83741175985E+01  0.00000000000E+00 0. -1.
</event>
<event>
 7    1  0.5646756E-010  0.4778727E+02  0.7816164E-02  0.1312668E+00
        -11   -1    0    0    0    0  0.00000000000E+00  0.00000000000E+00  0.45593999997E+02  0.45594000000E+02  0.51100000000E-03 0. -1.
         11   -1    0    0    0    0 -0.00000000000E+00 -0.00000000000E+00 -0.45593999997E+02  0.45594000000E+02  0.51100000000E-03 0.  1.
    9900012    2    1    2    0    0 -0.32757009811E+02 -0.79484128939E+01 -0.27339065423E+02  0.47787268929E+02  0.19999990354E+02 0.  0.
         12    1    1    2    0    0  0.32757009811E+02  0.79484128939E+01  0.27339065423E+02  0.43400731071E+02  0.00000000000E+00 0. -1.
         11    1    3    3    0    0 -0.76813393609E+01 -0.63449672217E+01 -0.83357332179E+01  0.12990228326E+02  0.51100000000E-03 0. -1.
        -11    1    3    3    0    0 -0.20321819163E+02 -0.25561571742E+00 -0.64757501433E+01  0.21330190193E+02  0.51100000000E-03 0.  1.
        -12    1    3    3    0    0 -0.47538512873E+01 -0.13478299548E+01 -0.12527582062E+02  0.13466850410E+02  0.00000000000E+00 0.  1.
</event>
<event>
 7    1  0.5646756E-010  0.4778727E+02  0.7816164E-02  0.1312668E+00
        -11   -1    0    0    0    0  0.00000000000E+00  0.00000000000E+00  0.45593999997E+02  0.45594000000E+02  0.51100000000E-03 0. -1.
         11   -1    0    0    0    0 -0.00000000000E+00 -0.00000000000E+00 -0.45593999997E+02  0.45594000000E+02  0.51100000000E-03 0.  1.
    9900012    2    1    2    0    0 -0.38865047900E+02  0.19314854998E+02  0.25998760173E+00  0.47787272294E+02  0.20000005698E+02 0.  0.
         12    1    1    2    0    0  0.38865047900E+02 -0.19314854998E+02 -0.25998760173E+00  0.43400727706E+02  0.00000000000E+00 0. -1.
         11    1    3    3    0    0 -0.77987934405E+00  0.48947999596E+01  0.38465787480E+01  0.62740295474E+01  0.51100000000E-03 0. -1.
        -11    1    3    3    0    0 -0.34435920056E+02  0.13606865864E+02 -0.11383784737E+01  0.37044234295E+02  0.51100000000E-03 0.  1.
        -12    1    3    3    0    0 -0.36492485002E+01  0.81318917466E+00 -0.24482126726E+01  0.44690084516E+01  0.00000000000E+00 0.  1.
</event>
<event>
 7    1  0.5646756E-010  0.4778728E+02  0.7816164E-02  0.1312668E+00
        -11   -1    0    0    0    0  0.00000000000E+00  0.00000000000E+00  0.45593999997E+02  0.45594000000E+02  0.51100000000E-03 0.  1.
         11   -1    0    0    0    0 -0.00000000000E+00 -0.00000000000E+00 -0.45593999997E+02  0.45594000000E+02  0.51100000000E-03 0. -1.
    9900012    2    1    2    0    0 -0.17779901189E+02  0.39523336079E+02 -0.23246158771E+01  0.47787276272E+02  0.20000023837E+02 0.  0.
         12    1    1    2    0    0  0.17779901189E+02 -0.39523336079E+02  0.23246158771E+01  0.43400723728E+02  0.00000000000E+00 0. -1.
         11    1    3    3    0    0 -0.39948592518E+01  0.36390328609E+01  0.63513240474E+01  0.83391113448E+01  0.51100000000E-03 0. -1.
        -11    1    3    3    0    0 -0.51888638638E+01  0.15840721690E+02 -0.40474859037E+01  0.17153277070E+02  0.51100000000E-03 0.  1.
         12    1    3    3    0    0 -0.85961780730E+01  0.20043581529E+02 -0.46284540208E+01  0.22294887858E+02  0.00000000000E+00 0. -1.
</event>
<event>
 7    1  0.5646756E-010  0.4778727E+02  0.7816164E-02  0.1312668E+00
        -11   -1    0    0    0    0  0.00000000000E+00  0.00000000000E+00  0.45593999997E+02  0.45594000000E+02  0.51100000000E-03 0.  1.
         11   -1    0    0    0    0 -0.00000000000E+00 -0.00000000000E+00 -0.45593999997E+02  0.45594000000E+02  0.51100000000E-03 0. -1.
    9900012    2    1    2    0    0  0.30773590295E+02 -0.18842776121E+02  0.24115535958E+02  0.47787272516E+02  0.20000006711E+02 0.  0.
         12    1    1    2    0    0 -0.30773590295E+02  0.18842776121E+02 -0.24115535958E+02  0.43400727484E+02  0.00000000000E+00 0. -1.
         11    1    3    3    0    0  0.17088251239E+02 -0.27083502967E+01  0.84763494682E+01  0.19266343512E+02  0.51100000000E-03 0. -1.
        -11    1    3    3    0    0  0.88411781616E+01 -0.28486554480E+01  0.36460095548E+01  0.99787100910E+01  0.51100000000E-03 0.  1.
         12    1    3    3    0    0  0.48441608944E+01 -0.13285770376E+02  0.11993176935E+02  0.18542218914E+02  0.00000000000E+00 0. -1.
</event>
<event>
 7    1  0.5646756E-010  0.4778727E+02  0.7816164E-02  0.1312668E+00
        -11   -1    0    0    0    0  0.00000000000E+00  0.00000000000E+00  0.45593999997E+02  0.45594000000E+02  0.51100000000E-03 0.  1.
         11   -1    0    0    0    0 -0.00000000000E+00 -0.00000000000E+00 -0.45593999997E+02  0.45594000000E+02  0.51100000000E-03 0. -1.
    9900012    2    1    2    0    0  0.24682702204E+02 -0.25798772960E+02  0.24674093892E+02  0.47787269779E+02  0.19999994232E+02 0.  0.
         12    1    1    2    0    0 -0.24682702204E+02  0.25798772960E+02 -0.24674093892E+02  0.43400730221E+02  0.00000000000E+00 0. -1.
         11    1    3    3    0    0  0.10783718078E+02 -0.67779383504E+01  0.15382695093E+02  0.19971387845E+02  0.51100000000E-03 0. -1.
        -11    1    3    3    0    0  0.38808252737E+01 -0.28741976734E+01 -0.25148182444E+01  0.54448258130E+01  0.51100000000E-03 0.  1.
         12    1    3    3    0    0  0.10018158852E+02 -0.16146636936E+02  0.11806217043E+02  0.22371056121E+02  0.00000000000E+00 0. -1.
</event>
<event>
 7    1  0.5646756E-010  0.4778727E+02  0.7816164E-02  0.1312668E+00
        -11   -1    0    0    0    0  0.00000000000E+00  0.00000000000E+00  0.45593999997E+02  0.45594000000E+02  0.51100000000E-03 0.  1.
         11   -1    0    0    0    0 -0.00000000000E+00 -0.00000000000E+00 -0.45593999997E+02  0.45594000000E+02  0.51100000000E-03 0. -1.
    9900012    2    1    2    0    0  0.37198335933E+02  0.87463158537E+01  0.20576903467E+02  0.47787271970E+02  0.20000004221E+02 0.  0.
         12    1    1    2    0    0 -0.37198335933E+02 -0.87463158537E+01 -0.20576903467E+02  0.43400728030E+02  0.00000000000E+00 0. -1.
         11    1    3    3    0    0  0.19840256447E+02  0.98843149790E+00  0.18542752798E+02  0.27174371277E+02  0.51100000000E-03 0. -1.
        -11    1    3    3    0    0  0.80613999530E+01  0.71319796279E+01 -0.10095107153E+01  0.10810662087E+02  0.51100000000E-03 0.  1.
        -12    1    3    3    0    0  0.92966795329E+01  0.62590472790E+00  0.30436613849E+01  0.98022386062E+01  0.00000000000E+00 0.  1.
</event>
<event>
 7    1  0.5646756E-010  0.4778727E+02  0.7816164E-02  0.1312668E+00
        -11   -1    0    0    0    0  0.00000000000E+00  0.00000000000E+00  0.45593999997E+02  0.45594000000E+02  0.51100000000E-03 0.  1.
         11   -1    0    0    0    0 -0.00000000000E+00 -0.00000000000E+00 -0.45593999997E+02  0.45594000000E+02  0.51100000000E-03 0. -1.
    9900012    2    1    2    0    0  0.31434931242E+02 -0.22814204258E+02  0.19364403827E+02  0.47787274733E+02  0.20000016819E+02 0.  0.
         12    1    1    2    0    0 -0.31434931242E+02  0.22814204258E+02 -0.19364403827E+02  0.43400725267E+02  0.00000000000E+00 0. -1.
         11    1    3    3    0    0  0.12709553333E+02 -0.22375420579E+00  0.39105349031E+01  0.13299439663E+02  0.51100000000E-03 0. -1.
        -11    1    3    3    0    0  0.64973265166E+01 -0.24873876552E+01  0.14523094504E+01  0.71071479661E+01  0.51100000000E-03 0.  1.
         12    1    3    3    0    0  0.12228051392E+02 -0.20103062397E+02  0.14001559473E+02  0.27380687104E+02  0.00000000000E+00 0. -1.
</event>
<event>
 7    1  0.5646756E-010  0.4778727E+02  0.7816164E-02  0.1312668E+00
        -11   -1    0    0    0    0  0.00000000000E+00  0.00000000000E+00  0.45593999997E+02  0.45594000000E+02  0.51100000000E-03 0.  1.
         11   -1    0    0    0    0 -0.00000000000E+00 -0.00000000000E+00 -0.45593999997E+02  0.45594000000E+02  0.51100000000E-03 0. -1.
    9900012    2    1    2    0    0 -0.10431396813E+02  0.40323763923E+02  0.12198499035E+02  0.47787270109E+02  0.19999995735E+02 0.  0.
         12    1    1    2    0    0  0.10431396813E+02 -0.40323763923E+02 -0.12198499035E+02  0.43400729891E+02  0.00000000000E+00 0. -1.
         11    1    3    3    0    0 -0.67188558569E+01  0.75048956124E+01 -0.75244214253E+00  0.10101121305E+02  0.51100000000E-03 0. -1.
        -11    1    3    3    0    0  0.24411559883E+00  0.29056925727E+02  0.13787157913E+02  0.32162870654E+02  0.51100000000E-03 0.  1.
        -12    1    3    3    0    0 -0.39566565552E+01  0.37619425833E+01 -0.83621673558E+00  0.55232781502E+01  0.00000000000E+00 0.  1.
</event>
<event>
 7    1  0.5646756E-010  0.4778727E+02  0.7816164E-02  0.1312668E+00
        -11   -1    0    0    0    0  0.00000000000E+00  0.00000000000E+00  0.45593999997E+02  0.45594000000E+02  0.51100000000E-03 0.  1.
         11   -1    0    0    0    0 -0.00000000000E+00 -0.00000000000E+00 -0.45593999997E+02  0.45594000000E+02  0.51100000000E-03 0. -1.
    9900012    2    1    2    0    0 -0.26652802525E+02  0.88284996670E+01  0.33095453824E+02  0.47787270137E+02  0.19999995863E+02 0.  0.
         12    1    1    2    0    0  0.26652802525E+02 -0.88284996670E+01 -0.33095453824E+02  0.43400729863E+02  0.00000000000E+00 0. -1.
         11    1    3    3    0    0 -0.14542613777E+02  0.88348947108E+01  0.26455216317E+02  0.31455070349E+02  0.51100000000E-03 0. -1.
        -11    1    3    3    0    0 -0.94586785330E+01  0.49774997426E-01  0.30442416170E+00  0.94637070682E+01  0.51100000000E-03 0.  1.
        -12    1    3    3    0    0 -0.26515102152E+01 -0.56170041232E-01  0.63358133451E+01  0.68684927196E+01  0.00000000000E+00 0.  1.
</event>
<event>
 7    1  0.5646756E-010  0.4778727E+02  0.7816164E-02  0.1312668E+00
        -11   -1    0    0    0    0  0.00000000000E+00  0.00000000000E+00  0.45593999997E+02  0.45594000000E+02  0.51100000000E-03 0.  1.
         11   -1    0    0    0    0 -0.00000000000E+00 -0.00000000000E+00 -0.45593999997E+02  0.45594000000E+02  0.51100000000E-03 0. -1.
    9900012    2    1    2    0    0 -0.72089676007E+01 -0.25305839691E+02  0.34514759786E+02  0.47787269828E+02  0.19999994455E+02 0.  0.
         12    1    1    2    0    0  0.72089676007E+01  0.25305839691E+02 -0.34514759786E+02  0.43400730172E+02  0.00000000000E+00 0. -1.
         11    1    3    3    0    0 -0.20186775936E+01  0.20217100002E+01  0.49264565366E+01  0.56949402824E+01  0.51100000000E-03 0. -1.
        -11    1    3    3    0    0 -0.85994951215E+00 -0.22009326009E+02  0.26797578285E+02  0.34688040399E+02  0.51100000000E-03 0.  1.
        -12    1    3    3    0    0 -0.43303404949E+01 -0.53182236825E+01  0.27907249647E+01  0.74042891467E+01  0.00000000000E+00 0.  1.
</event>
<event>
 7    1  0.5646756E-010  0.4778727E+02  0.7816164E-02  0.1312668E+00
        -11   -1    0    0    0    0  0.00000000000E+00  0.00000000000E+00  0.45593999997E+02  0.45594000000E+02  0.51100000000E-03 0. -1.
         11   -1    0    0    0    0 -0.00000000000E+00 -0.00000000000E+00 -0.45593999997E+02  0.45594000000E+02  0.51100000000E-03 0.  1.
    9900012    2    1    2    0    0  0.14771205987E+02  0.19264954336E+02 -0.35976328345E+02  0.47787271975E+02  0.20000004245E+02 0.  0.
         12    1    1    2    0    0 -0.14771205987E+02 -0.19264954336E+02  0.35976328345E+02  0.43400728025E+02  0.00000000000E+00 0. -1.
         11    1    3    3    0    0  0.12796437102E+01  0.25474362735E+01 -0.85267037665E+01  0.89906394086E+01  0.51100000000E-03 0. -1.
        -11    1    3    3    0    0  0.55174034489E+01  0.17519027401E+02 -0.13821970424E+02  0.22987060025E+02  0.51100000000E-03 0.  1.
        -12    1    3    3    0    0  0.79741588274E+01 -0.80150933847E+00 -0.13627654154E+02  0.15809572542E+02  0.00000000000E+00 0.  1.
</event>
<event>
 7    1  0.5646756E-010  0.4778727E+02  0.7816164E-02  0.1312668E+00
        -11   -1    0    0    0    0  0.00000000000E+00  0.00000000000E+00  0.45593999997E+02  0.45594000000E+02  0.51100000000E-03 0.  1.
         11   -1    0    0    0    0 -0.00000000000E+00 -0.00000000000E+00 -0.45593999997E+02  0.45594000000E+02  0.51100000000E-03 0. -1.
    9900012    2    1    2    0    0 -0.24309180095E+02  0.69618394140E+00  0.35947219572E+02  0.47787268393E+02  0.19999987913E+02 0.  0.
         12    1    1    2    0    0  0.24309180095E+02 -0.69618394140E+00 -0.35947219572E+02  0.43400731607E+02  0.00000000000E+00 0. -1.
         11    1    3    3    0    0 -0.21335615451E+01  0.42267723484E+01  0.11895298964E+02  0.12802961652E+02  0.51100000000E-03 0. -1.
        -11    1    3    3    0    0 -0.14638873732E+02 -0.63950155629E+01  0.10189911603E+02  0.18948011688E+02  0.51100000000E-03 0.  1.
        -12    1    3    3    0    0 -0.75367448188E+01  0.28644271558E+01  0.13862009005E+02  0.16036295054E+02  0.00000000000E+00 0.  1.
</event>
<event>
 7    1  0.5646756E-010  0.4778727E+02  0.7816164E-02  0.1312668E+00
        -11   -1    0    0    0    0  0.00000000000E+00  0.00000000000E+00  0.45593999997E+02  0.45594000000E+02  0.51100000000E-03 0.  1.
         11   -1    0    0    0    0 -0.00000000000E+00 -0.00000000000E+00 -0.45593999997E+02  0.45594000000E+02  0.51100000000E-03 0. -1.
    9900012    2    1    2    0    0 -0.11829292882E+02  0.22265575373E+02  0.35326133112E+02  0.47787266165E+02  0.19999977752E+02 0.  0.
         12    1    1    2    0    0  0.11829292882E+02 -0.22265575373E+02 -0.35326133112E+02  0.43400733835E+02  0.00000000000E+00 0. -1.
         11    1    3    3    0    0 -0.11227168572E+02  0.75457778117E+01  0.20316400043E+02  0.24407871433E+02  0.51100000000E-03 0. -1.
        -11    1    3    3    0    0  0.59897107680E+00  0.66926439405E+01  0.48020834742E+00  0.67365309754E+01  0.51100000000E-03 0.  1.
        -12    1    3    3    0    0 -0.12010953868E+01  0.80271536209E+01  0.14529524722E+02  0.16642863757E+02  0.00000000000E+00 0.  1.
</event>
<event>
 7    1  0.5646756E-010  0.4778727E+02  0.7816164E-02  0.1312668E+00
        -11   -1    0    0    0    0  0.00000000000E+00  0.00000000000E+00  0.45593999997E+02  0.45594000000E+02  0.51100000000E-03 0.  1.
         11   -1    0    0    0    0 -0.00000000000E+00 -0.00000000000E+00 -0.45593999997E+02  0.45594000000E+02  0.51100000000E-03 0. -1.
    9900012    2    1    2    0    0 -0.31129464451E+02  0.29568149904E+02 -0.63485601076E+01  0.47787271191E+02  0.20000000666E+02 0.  0.
         12    1    1    2    0    0  0.31129464451E+02 -0.29568149904E+02  0.63485601076E+01  0.43400728809E+02  0.00000000000E+00 0. -1.
         11    1    3    3    0    0  0.21841965522E+01  0.11548402723E+01 -0.43301438272E+00  0.25083604904E+01  0.51100000000E-03 0. -1.
        -11    1    3    3    0    0 -0.18925491305E+02  0.12768120469E+02  0.12076402406E+01  0.22861704150E+02  0.51100000000E-03 0.  1.
         12    1    3    3    0    0 -0.14388169698E+02  0.15645189162E+02 -0.71231859655E+01  0.22417206550E+02  0.00000000000E+00 0. -1.
</event>
<event>
 7    1  0.5646756E-010  0.4778727E+02  0.7816164E-02  0.1312668E+00
        -11   -1    0    0    0    0  0.00000000000E+00  0.00000000000E+00  0.45593999997E+02  0.45594000000E+02  0.51100000000E-03 0. -1.
         11   -1    0    0    0    0 -0.00000000000E+00 -0.00000000000E+00 -0.45593999997E+02  0.45594000000E+02  0.51100000000E-03 0.  1.
    9900012    2    1    2    0    0  0.77156923651E+01 -0.12887536861E+02 -0.40718579903E+02  0.47787271155E+02  0.20000000502E+02 0.  0.
         12    1    1    2    0    0 -0.77156923651E+01  0.12887536861E+02  0.40718579903E+02  0.43400728845E+02  0.00000000000E+00 0. -1.
         11    1    3    3    0    0  0.15803060648E+01 -0.57730995393E+01 -0.28019701644E+02  0.28651871248E+02  0.51100000000E-03 0. -1.
        -11    1    3    3    0    0  0.11938091630E+01 -0.69013154749E+01 -0.18988833636E+01  0.72566585900E+01  0.51100000000E-03 0.  1.
         12    1    3    3    0    0  0.49415771373E+01 -0.21312184698E+00 -0.10799994895E+02  0.11878741316E+02  0.00000000000E+00 0. -1.
</event>
<event>
 7    1  0.5646756E-010  0.4778727E+02  0.7816164E-02  0.1312668E+00
        -11   -1    0    0    0    0  0.00000000000E+00  0.00000000000E+00  0.45593999997E+02  0.45594000000E+02  0.51100000000E-03 0.  1.
         11   -1    0    0    0    0 -0.00000000000E+00 -0.00000000000E+00 -0.45593999997E+02  0.45594000000E+02  0.51100000000E-03 0. -1.
    9900012    2    1    2    0    0 -0.24743427650E+02  0.28436069873E+02  0.21512227794E+02  0.47787271592E+02  0.20000002495E+02 0.  0.
         12    1    1    2    0    0  0.24743427650E+02 -0.28436069873E+02 -0.21512227794E+02  0.43400728408E+02  0.00000000000E+00 0. -1.
         11    1    3    3    0    0  0.13717034758E+01  0.56066973279E+01 -0.13540080575E+01  0.59287404592E+01  0.51100000000E-03 0. -1.
        -11    1    3    3    0    0 -0.23012897013E+02  0.21664127922E+02  0.19513052461E+02  0.37144139298E+02  0.51100000000E-03 0.  1.
         12    1    3    3    0    0 -0.31022341129E+01  0.11652446233E+01  0.33531833903E+01  0.47143918348E+01  0.00000000000E+00 0. -1.
</event>
<event>
 7    1  0.5646756E-010  0.4778728E+02  0.7816164E-02  0.1312668E+00
        -11   -1    0    0    0    0  0.00000000000E+00  0.00000000000E+00  0.45593999997E+02  0.45594000000E+02  0.51100000000E-03 0. -1.
         11   -1    0    0    0    0 -0.00000000000E+00 -0.00000000000E+00 -0.45593999997E+02  0.45594000000E+02  0.51100000000E-03 0.  1.
    9900012    2    1    2    0    0  0.10450213300E+02 -0.21031838091E+02 -0.36497632281E+02  0.47787281876E+02  0.20000049386E+02 0.  0.
         12    1    1    2    0    0 -0.10450213300E+02  0.21031838091E+02  0.36497632281E+02  0.43400718124E+02  0.00000000000E+00 0. -1.
         11    1    3    3    0    0 -0.80300336698E+00 -0.64616573135E+01 -0.85443721100E+00  0.65671830226E+01  0.51100000000E-03 0. -1.
        -11    1    3    3    0    0  0.82655567989E+01 -0.12693544277E+02 -0.34207144900E+02  0.37410884218E+02  0.51100000000E-03 0.  1.
         12    1    3    3    0    0  0.29876598682E+01 -0.18766365007E+01 -0.14360501701E+01  0.38092146349E+01  0.00000000000E+00 0. -1.
</event>
<event>
 7    1  0.5646756E-010  0.4778727E+02  0.7816164E-02  0.1312668E+00
        -11   -1    0    0    0    0  0.00000000000E+00  0.00000000000E+00  0.45593999997E+02  0.45594000000E+02  0.51100000000E-03 0.  1.
         11   -1    0    0    0    0 -0.00000000000E+00 -0.00000000000E+00 -0.45593999997E+02  0.45594000000E+02  0.51100000000E-03 0. -1.
    9900012    2    1    2    0    0 -0.22043778785E+02 -0.15258991319E+01  0.37354605028E+02  0.47787273415E+02  0.20000010807E+02 0.  0.
         12    1    1    2    0    0  0.22043778785E+02  0.15258991319E+01 -0.37354605028E+02  0.43400726585E+02  0.00000000000E+00 0. -1.
         11    1    3    3    0    0 -0.17620340637E+02  0.24713448132E+01  0.18819441803E+02  0.25898944755E+02  0.51100000000E-03 0.  1.
        -11    1    3    3    0    0  0.29241658350E+01 -0.25519204641E+01  0.42235532041E+01  0.57359781917E+01  0.51100000000E-03 0. -1.
        -12    1    3    3    0    0 -0.73476039830E+01 -0.14453234809E+01  0.14311610021E+02  0.16152350469E+02  0.00000000000E+00 0.  1.
</event>
<event>
 7    1  0.5646756E-010  0.4778726E+02  0.7816164E-02  0.1312668E+00
        -11   -1    0    0    0    0  0.00000000000E+00  0.00000000000E+00  0.45593999997E+02  0.45594000000E+02  0.51100000000E-03 0.  1.
         11   -1    0    0    0    0 -0.00000000000E+00 -0.00000000000E+00 -0.45593999997E+02  0.45594000000E+02  0.51100000000E-03 0. -1.
    9900012    2    1    2    0    0  0.23080891765E+01 -0.27065362936E+02  0.33849124622E+02  0.47787258253E+02  0.19999941679E+02 0.  0.
         12    1    1    2    0    0 -0.23080891765E+01  0.27065362936E+02 -0.33849124622E+02  0.43400741747E+02  0.00000000000E+00 0. -1.
         11    1    3    3    0    0  0.64437061951E+01 -0.10784581574E+02  0.66010632064E+01  0.14191637854E+02  0.51100000000E-03 0. -1.
        -11    1    3    3    0    0 -0.29343630359E+01 -0.17202376166E+02  0.26862575840E+02  0.32033267289E+02  0.51100000000E-03 0.  1.
         12    1    3    3    0    0 -0.12012539826E+01  0.92159480378E+00  0.38548557584E+00  0.15623531106E+01  0.00000000000E+00 0. -1.
</event>
<event>
 7    1  0.5646756E-010  0.4778727E+02  0.7816164E-02  0.1312668E+00
        -11   -1    0    0    0    0  0.00000000000E+00  0.00000000000E+00  0.45593999997E+02  0.45594000000E+02  0.51100000000E-03 0.  1.
         11   -1    0    0    0    0 -0.00000000000E+00 -0.00000000000E+00 -0.45593999997E+02  0.45594000000E+02  0.51100000000E-03 0. -1.
    9900012    2    1    2    0    0 -0.17861418168E+00  0.42183006918E+02  0.10207130461E+02  0.47787268578E+02  0.19999988756E+02 0.  0.
         12    1    1    2    0    0  0.17861418168E+00 -0.42183006918E+02 -0.10207130461E+02  0.43400731422E+02  0.00000000000E+00 0. -1.
         11    1    3    3    0    0  0.60329225452E+01  0.24719411894E+02  0.95512150257E+01  0.27178505985E+02  0.51100000000E-03 0. -1.
        -11    1    3    3    0    0  0.13053994443E+01  0.37270392731E+01  0.27476843402E+01  0.48108896212E+01  0.51100000000E-03 0.  1.
         12    1    3    3    0    0 -0.75169361712E+01  0.13736555751E+02 -0.20917689052E+01  0.15797872972E+02  0.00000000000E+00 0. -1.
</event>
<event>
 7    1  0.5646756E-010  0.4778727E+02  0.7816164E-02  0.1312668E+00
        -11   -1    0    0    0    0  0.00000000000E+00  0.00000000000E+00  0.45593999997E+02  0.45594000000E+02  0.51100000000E-03 0. -1.
         11   -1    0    0    0    0 -0.00000000000E+00 -0.00000000000E+00 -0.45593999997E+02  0.45594000000E+02  0.51100000000E-03 0.  1.
    9900012    2    1    2    0    0  0.12059413921E+00 -0.43346398690E+02  0.21676231974E+01  0.47787269445E+02  0.19999992708E+02 0.  0.
         12    1    1    2    0    0 -0.12059413921E+00  0.43346398690E+02 -0.21676231974E+01  0.43400730555E+02  0.00000000000E+00 0. -1.
         11    1    3    3    0    0  0.26037433653E+01 -0.30833940436E+02  0.75568662955E+01  0.31853062503E+02  0.51100000000E-03 0.  1.
        -11    1    3    3    0    0 -0.24886466854E+01 -0.13634721724E+02 -0.51560216459E+01  0.14787953147E+02  0.51100000000E-03 0. -1.
         12    1    3    3    0    0  0.54974593207E-02  0.11222634696E+01 -0.23322145219E+00  0.11462537952E+01  0.00000000000E+00 0. -1.
</event>
<event>
 7    1  0.5646756E-010  0.4778727E+02  0.7816164E-02  0.1312668E+00
        -11   -1    0    0    0    0  0.00000000000E+00  0.00000000000E+00  0.45593999997E+02  0.45594000000E+02  0.51100000000E-03 0.  1.
         11   -1    0    0    0    0 -0.00000000000E+00 -0.00000000000E+00 -0.45593999997E+02  0.45594000000E+02  0.51100000000E-03 0. -1.
    9900012    2    1    2    0    0 -0.14554713229E+02  0.30782014075E+02  0.26911918927E+02  0.47787269038E+02  0.19999990852E+02 0.  0.
         12    1    1    2    0    0  0.14554713229E+02 -0.30782014075E+02 -0.26911918927E+02  0.43400730962E+02  0.00000000000E+00 0. -1.
         11    1    3    3    0    0 -0.76465758695E+01  0.27342634132E+02  0.23068586530E+02  0.36582091910E+02  0.51100000000E-03 0. -1.
        -11    1    3    3    0    0 -0.29024256699E+01  0.51701848715E+01  0.33595432757E+01  0.68147940290E+01  0.51100000000E-03 0.  1.
         12    1    3    3    0    0 -0.40057116896E+01 -0.17308049279E+01  0.48378912103E+00  0.43903830985E+01  0.00000000000E+00 0. -1.
</event>
<event>
 7    1  0.5646756E-010  0.4778727E+02  0.7816164E-02  0.1312668E+00
        -11   -1    0    0    0    0  0.00000000000E+00  0.00000000000E+00  0.45593999997E+02  0.45594000000E+02  0.51100000000E-03 0.  1.
         11   -1    0    0    0    0 -0.00000000000E+00 -0.00000000000E+00 -0.45593999997E+02  0.45594000000E+02  0.51100000000E-03 0. -1.
    9900012    2    1    2    0    0  0.13737023612E+02 -0.11172768523E+02  0.39624318311E+02  0.47787272175E+02  0.20000005153E+02 0.  0.
         12    1    1    2    0    0 -0.13737023612E+02  0.11172768523E+02 -0.39624318311E+02  0.43400727825E+02  0.00000000000E+00 0. -1.
         11    1    3    3    0    0 -0.18616805890E+01 -0.78893994079E+01  0.10635830525E+02  0.13372709854E+02  0.51100000000E-03 0. -1.
        -11    1    3    3    0    0  0.13493607201E+02 -0.58883376821E+01  0.20092608512E+02  0.24909092176E+02  0.51100000000E-03 0.  1.
        -12    1    3    3    0    0  0.21050970004E+01  0.26049685670E+01  0.88958792737E+01  0.95054701445E+01  0.00000000000E+00 0.  1.
</event>
<event>
 7    1  0.5646756E-010  0.4778727E+02  0.7816164E-02  0.1312668E+00
        -11   -1    0    0    0    0  0.00000000000E+00  0.00000000000E+00  0.45593999997E+02  0.45594000000E+02  0.51100000000E-03 0.  1.
         11   -1    0    0    0    0 -0.00000000000E+00 -0.00000000000E+00 -0.45593999997E+02  0.45594000000E+02  0.51100000000E-03 0. -1.
    9900012    2    1    2    0    0 -0.32241278389E+02  0.23593598684E+02  0.16954808808E+02  0.47787268753E+02  0.19999989553E+02 0.  0.
         12    1    1    2    0    0  0.32241278389E+02 -0.23593598684E+02 -0.16954808808E+02  0.43400731247E+02  0.00000000000E+00 0. -1.
         11    1    3    3    0    0 -0.28831523840E+01  0.97864614402E+01  0.12084106348E+00  0.10203038666E+02  0.51100000000E-03 0. -1.
        -11    1    3    3    0    0 -0.93718453235E+01  0.34570844293E+00  0.62192273631E+01  0.11252990196E+02  0.51100000000E-03 0.  1.
         12    1    3    3    0    0 -0.19986280682E+02  0.13461428801E+02  0.10614740381E+02  0.26331239891E+02  0.00000000000E+00 0. -1.
</event>
<event>
 7    1  0.5646756E-010  0.4778727E+02  0.7816164E-02  0.1312668E+00
        -11   -1    0    0    0    0  0.00000000000E+00  0.00000000000E+00  0.45593999997E+02  0.45594000000E+02  0.51100000000E-03 0.  1.
         11   -1    0    0    0    0 -0.00000000000E+00 -0.00000000000E+00 -0.45593999997E+02  0.45594000000E+02  0.51100000000E-03 0. -1.
    9900012    2    1    2    0    0  0.14298478918E+01 -0.34060584732E+02  0.26859929391E+02  0.47787266087E+02  0.19999977397E+02 0.  0.
         12    1    1    2    0    0 -0.14298478918E+01  0.34060584732E+02 -0.26859929391E+02  0.43400733913E+02  0.00000000000E+00 0. -1.
         11    1    3    3    0    0  0.80494045094E+01 -0.12778034131E+02  0.41810133818E+01  0.15670097076E+02  0.51100000000E-03 0. -1.
        -11    1    3    3    0    0 -0.15004973593E+01 -0.26905075887E+01  0.13507853824E+01  0.33637694363E+01  0.51100000000E-03 0.  1.
         12    1    3    3    0    0 -0.51190592583E+01 -0.18592043012E+02  0.21328130627E+02  0.28753399575E+02  0.00000000000E+00 0. -1.
</event>
<event>
 7    1  0.5646756E-010  0.4778727E+02  0.7816164E-02  0.1312668E+00
        -11   -1    0    0    0    0  0.00000000000E+00  0.00000000000E+00  0.45593999997E+02  0.45594000000E+02  0.51100000000E-03 0.  1.
         11   -1    0    0    0    0 -0.00000000000E+00 -0.00000000000E+00 -0.45593999997E+02  0.45594000000E+02  0.51100000000E-03 0. -1.
    9900012    2    1    2    0    0 -0.14297888472E+02  0.25905895798E+02  0.31750242355E+02  0.47787274874E+02  0.20000017462E+02 0.  0.
         12    1    1    2    0    0  0.14297888472E+02 -0.25905895798E+02 -0.31750242355E+02  0.43400725126E+02  0.00000000000E+00 0. -1.
         11    1    3    3    0    0 -0.18615140012E+01  0.35370087163E+01 -0.55921733275E-01  0.39973481881E+01  0.51100000000E-03 0. -1.
        -11    1    3    3    0    0 -0.35601329563E+01  0.20391063086E+02  0.19103511359E+02  0.28167608115E+02  0.51100000000E-03 0.  1.
        -12    1    3    3    0    0 -0.88762415146E+01  0.19778239961E+01  0.12702652729E+02  0.15622318571E+02  0.00000000000E+00 0.  1.
</event>
<event>
 7    1  0.5646756E-010  0.4778727E+02  0.7816164E-02  0.1312668E+00
        -11   -1    0    0    0    0  0.00000000000E+00  0.00000000000E+00  0.45593999997E+02  0.45594000000E+02  0.51100000000E-03 0.  1.
         11   -1    0    0    0    0 -0.00000000000E+00 -0.00000000000E+00 -0.45593999997E+02  0.45594000000E+02  0.51100000000E-03 0. -1.
    9900012    2    1    2    0    0 -0.23681362758E+02 -0.19639081586E+02  0.30612457342E+02  0.47787274060E+02  0.20000013748E+02 0.  0.
         12    1    1    2    0    0  0.23681362758E+02  0.19639081586E+02 -0.30612457342E+02  0.43400725940E+02  0.00000000000E+00 0. -1.
         11    1    3    3    0    0 -0.38636456540E+01  0.23943062483E+01  0.71908602399E+01  0.85069930881E+01  0.51100000000E-03 0. -1.
        -11    1    3    3    0    0 -0.15283592321E+02 -0.22132455597E+02  0.21099737143E+02  0.34185270114E+02  0.51100000000E-03 0.  1.
         12    1    3    3    0    0 -0.45341247830E+01  0.99067763029E-01  0.23218599592E+01  0.50950108576E+01  0.00000000000E+00 0. -1.
</event>
<event>
 7    1  0.5646756E-010  0.4778726E+02  0.7816164E-02  0.1312668E+00
        -11   -1    0    0    0    0  0.00000000000E+00  0.00000000000E+00  0.45593999997E+02  0.45594000000E+02  0.51100000000E-03 0.  1.
         11   -1    0    0    0    0 -0.00000000000E+00 -0.00000000000E+00 -0.45593999997E+02  0.45594000000E+02  0.51100000000E-03 0. -1.
    9900012    2    1    2    0    0  0.29581275368E+02 -0.13296836703E+02  0.28840356024E+02  0.47787264357E+02  0.19999969510E+02 0.  0.
         12    1    1    2    0    0 -0.29581275368E+02  0.13296836703E+02 -0.28840356024E+02  0.43400735643E+02  0.00000000000E+00 0. -1.
         11    1    3    3    0    0  0.19762539027E+02 -0.97331889787E+01  0.26780596000E+02  0.34676984282E+02  0.51100000000E-03 0. -1.
        -11    1    3    3    0    0  0.38240600820E+01  0.67136371096E+00  0.39421131472E+01  0.55330300080E+01  0.51100000000E-03 0.  1.
         12    1    3    3    0    0  0.59946762588E+01 -0.42350114357E+01 -0.18823531226E+01  0.75772500676E+01  0.00000000000E+00 0. -1.
</event>
<event>
 7    1  0.5646756E-010  0.4778727E+02  0.7816164E-02  0.1312668E+00
        -11   -1    0    0    0    0  0.00000000000E+00  0.00000000000E+00  0.45593999997E+02  0.45594000000E+02  0.51100000000E-03 0. -1.
         11   -1    0    0    0    0 -0.00000000000E+00 -0.00000000000E+00 -0.45593999997E+02  0.45594000000E+02  0.51100000000E-03 0.  1.
    9900012    2    1    2    0    0  0.35985349839E+02 -0.24194323486E+02  0.18200789248E+01  0.47787269830E+02  0.19999994464E+02 0.  0.
         12    1    1    2    0    0 -0.35985349839E+02  0.24194323486E+02 -0.18200789248E+01  0.43400730170E+02  0.00000000000E+00 0. -1.
         11    1    3    3    0    0  0.46366998290E+01 -0.38393245079E+01 -0.45952660993E+01  0.75733657488E+01  0.51100000000E-03 0. -1.
        -11    1    3    3    0    0  0.32198355842E+02 -0.20116130238E+02  0.46618916109E+01  0.38250830688E+02  0.51100000000E-03 0.  1.
        -12    1    3    3    0    0 -0.84970583203E+00 -0.23886874043E+00  0.17534534132E+01  0.19630733935E+01  0.00000000000E+00 0.  1.
</event>
<event>
 7    1  0.5646756E-010  0.4778727E+02  0.7816164E-02  0.1312668E+00
        -11   -1    0    0    0    0  0.00000000000E+00  0.00000000000E+00  0.45593999997E+02  0.45594000000E+02  0.51100000000E-03 0. -1.
         11   -1    0    0    0    0 -0.00000000000E+00 -0.00000000000E+00 -0.45593999997E+02  0.45594000000E+02  0.51100000000E-03 0.  1.
    9900012    2    1    2    0    0 -0.25148480420E+02  0.25369294401E+02 -0.24649058205E+02  0.47787271478E+02  0.20000001978E+02 0.  0.
         12    1    1    2    0    0  0.25148480420E+02 -0.25369294401E+02  0.24649058205E+02  0.43400728522E+02  0.00000000000E+00 0. -1.
         11    1    3    3    0    0 -0.94980917061E+01  0.74791880665E+01 -0.19868614266E+02  0.23257554328E+02  0.51100000000E-03 0. -1.
        -11    1    3    3    0    0 -0.79994100320E+01  0.10820543364E+02 -0.41992853642E+01  0.14096407960E+02  0.51100000000E-03 0.  1.
         12    1    3    3    0    0 -0.76509786815E+01  0.70695629707E+01 -0.58115857522E+00  0.10433309191E+02  0.00000000000E+00 0. -1.
</event>
<event>
 7    1  0.5646756E-010  0.4778728E+02  0.7816164E-02  0.1312668E+00
        -11   -1    0    0    0    0  0.00000000000E+00  0.00000000000E+00  0.45593999997E+02  0.45594000000E+02  0.51100000000E-03 0.  1.
         11   -1    0    0    0    0 -0.00000000000E+00 -0.00000000000E+00 -0.45593999997E+02  0.45594000000E+02  0.51100000000E-03 0. -1.
    9900012    2    1    2    0    0  0.38708811974E+02  0.55132488702E+01  0.18837590905E+02  0.47787275713E+02  0.20000021286E+02 0.  0.
         12    1    1    2    0    0 -0.38708811974E+02 -0.55132488702E+01 -0.18837590905E+02  0.43400724287E+02  0.00000000000E+00 0. -1.
         11    1    3    3    0    0  0.97021738398E+01  0.23235898313E+01  0.10260982257E+02  0.14311499015E+02  0.51100000000E-03 0. -1.
        -11    1    3    3    0    0  0.17046462310E+02  0.23726721921E+00 -0.20960057781E+01  0.17176478495E+02  0.51100000000E-03 0.  1.
        -12    1    3    3    0    0  0.11960175824E+02  0.29523918197E+01  0.10672614427E+02  0.16299298203E+02  0.00000000000E+00 0.  1.
</event>
<event>
 7    1  0.5646756E-010  0.4778727E+02  0.7816164E-02  0.1312668E+00
        -11   -1    0    0    0    0  0.00000000000E+00  0.00000000000E+00  0.45593999997E+02  0.45594000000E+02  0.51100000000E-03 0.  1.
         11   -1    0    0    0    0 -0.00000000000E+00 -0.00000000000E+00 -0.45593999997E+02  0.45594000000E+02  0.51100000000E-03 0. -1.
    9900012    2    1    2    0    0  0.29904744095E+01 -0.32620070476E+01  0.43174524713E+02  0.47787271765E+02  0.20000003285E+02 0.  0.
         12    1    1    2    0    0 -0.29904744095E+01  0.32620070476E+01 -0.43174524713E+02  0.43400728235E+02  0.00000000000E+00 0. -1.
         11    1    3    3    0    0  0.14779511378E+01  0.55411351849E+00  0.18939415817E+01  0.24654403933E+01  0.51100000000E-03 0. -1.
        -11    1    3    3    0    0  0.71690077997E+01 -0.69662598255E+01  0.13507431153E+02  0.16803991949E+02  0.51100000000E-03 0.  1.
        -12    1    3    3    0    0 -0.56564845280E+01  0.31501392594E+01  0.27773151978E+02  0.28517839423E+02  0.00000000000E+00 0.  1.
</event>
<event>
 7    1  0.5646756E-010  0.4778727E+02  0.7816164E-02  0.1312668E+00
        -11   -1    0    0    0    0  0.00000000000E+00  0.00000000000E+00  0.45593999997E+02  0.45594000000E+02  0.51100000000E-03 0.  1.
         11   -1    0    0    0    0 -0.00000000000E+00 -0.00000000000E+00 -0.45593999997E+02  0.45594000000E+02  0.51100000000E-03 0. -1.
    9900012    2    1    2    0    0  0.68290765609E+01 -0.73646755553E+01  0.42222607462E+02  0.47787270587E+02  0.19999997913E+02 0.  0.
         12    1    1    2    0    0 -0.68290765609E+01  0.73646755553E+01 -0.42222607462E+02  0.43400729413E+02  0.00000000000E+00 0. -1.
         11    1    3    3    0    0  0.10601452594E+02 -0.14657672668E+01  0.14641723539E+02  0.18136133525E+02  0.51100000000E-03 0. -1.
        -11    1    3    3    0    0 -0.50206562539E+01 -0.73702794372E+01  0.21668406792E+02  0.23431770342E+02  0.51100000000E-03 0.  1.
         12    1    3    3    0    0  0.12482802212E+01  0.14713711487E+01  0.59124771310E+01  0.62193667196E+01  0.00000000000E+00 0. -1.
</event>
<event>
 7    1  0.5646756E-010  0.4778727E+02  0.7816164E-02  0.1312668E+00
        -11   -1    0    0    0    0  0.00000000000E+00  0.00000000000E+00  0.45593999997E+02  0.45594000000E+02  0.51100000000E-03 0.  1.
         11   -1    0    0    0    0 -0.00000000000E+00 -0.00000000000E+00 -0.45593999997E+02  0.45594000000E+02  0.51100000000E-03 0. -1.
    9900012    2    1    2    0    0  0.50073877443E+01 -0.32667053294E+01  0.42986949938E+02  0.47787272349E+02  0.20000005946E+02 0.  0.
         12    1    1    2    0    0 -0.50073877443E+01  0.32667053294E+01 -0.42986949938E+02  0.43400727651E+02  0.00000000000E+00 0. -1.
         11    1    3    3    0    0  0.51980469304E+01 -0.52710038348E-01  0.37948448810E+02  0.38302835895E+02  0.51100000000E-03 0.  1.
        -11    1    3    3    0    0  0.10949782444E+01 -0.32556637155E+01 -0.78261138243E+00  0.35228971630E+01  0.51100000000E-03 0. -1.
         12    1    3    3    0    0 -0.12856374305E+01  0.41668424353E-01  0.58211125096E+01  0.59615392903E+01  0.00000000000E+00 0. -1.
</event>
<event>
 7    1  0.5646756E-010  0.4778727E+02  0.7816164E-02  0.1312668E+00
        -11   -1    0    0    0    0  0.00000000000E+00  0.00000000000E+00  0.45593999997E+02  0.45594000000E+02  0.51100000000E-03 0. -1.
         11   -1    0    0    0    0 -0.00000000000E+00 -0.00000000000E+00 -0.45593999997E+02  0.45594000000E+02  0.51100000000E-03 0.  1.
    9900012    2    1    2    0    0  0.87760611313E+01  0.39624210740E+02  0.15379402308E+02  0.47787270270E+02  0.19999996467E+02 0.  0.
         12    1    1    2    0    0 -0.87760611313E+01 -0.39624210740E+02 -0.15379402308E+02  0.43400729730E+02  0.00000000000E+00 0. -1.
         11    1    3    3    0    0  0.79050669794E+01  0.91947854500E+01 -0.53473511606E+00  0.12137549395E+02  0.51100000000E-03 0. -1.
        -11    1    3    3    0    0  0.41235976624E+01  0.18447815320E+02  0.62267605559E+01  0.19902223369E+02  0.51100000000E-03 0.  1.
         12    1    3    3    0    0 -0.32526035105E+01  0.11981609971E+02  0.96873768687E+01  0.15747497505E+02  0.00000000000E+00 0. -1.
</event>
<event>
 7    1  0.5646756E-010  0.4778727E+02  0.7816164E-02  0.1312668E+00
        -11   -1    0    0    0    0  0.00000000000E+00  0.00000000000E+00  0.45593999997E+02  0.45594000000E+02  0.51100000000E-03 0.  1.
         11   -1    0    0    0    0 -0.00000000000E+00 -0.00000000000E+00 -0.45593999997E+02  0.45594000000E+02  0.51100000000E-03 0. -1.
    9900012    2    1    2    0    0  0.24974471247E+02 -0.58516823848E+01  0.35009382079E+02  0.47787271500E+02  0.20000002075E+02 0.  0.
         12    1    1    2    0    0 -0.24974471247E+02  0.58516823848E+01 -0.35009382079E+02  0.43400728500E+02  0.00000000000E+00 0. -1.
         11    1    3    3    0    0  0.22004435917E+01 -0.53177203506E+01  0.40712489834E+01  0.70494801420E+01  0.51100000000E-03 0. -1.
        -11    1    3    3    0    0  0.10606831272E+02  0.30686097544E+01  0.23659198567E+02  0.26108981454E+02  0.51100000000E-03 0.  1.
        -12    1    3    3    0    0  0.12167196383E+02 -0.36025717886E+01  0.72789345288E+01  0.14628809904E+02  0.00000000000E+00 0.  1.
</event>
<event>
 7    1  0.5646756E-010  0.4778726E+02  0.7816164E-02  0.1312668E+00
        -11   -1    0    0    0    0  0.00000000000E+00  0.00000000000E+00  0.45593999997E+02  0.45594000000E+02  0.51100000000E-03 0.  1.
         11   -1    0    0    0    0 -0.00000000000E+00 -0.00000000000E+00 -0.45593999997E+02  0.45594000000E+02  0.51100000000E-03 0. -1.
    9900012    2    1    2    0    0  0.31902559976E+02 -0.10412796624E+02  0.27521344199E+02  0.47787262067E+02  0.19999959069E+02 0.  0.
         12    1    1    2    0    0 -0.31902559976E+02  0.10412796624E+02 -0.27521344199E+02  0.43400737933E+02  0.00000000000E+00 0. -1.
         11    1    3    3    0    0  0.17839899359E+00  0.12344065002E+01 -0.41536531591E+00  0.13145775806E+01  0.51100000000E-03 0. -1.
        -11    1    3    3    0    0  0.95776733574E+01 -0.51613536280E+01  0.18662124247E+02  0.21601997127E+02  0.51100000000E-03 0.  1.
        -12    1    3    3    0    0  0.22146487625E+02 -0.64858494963E+01  0.92745852679E+01  0.24870687359E+02  0.00000000000E+00 0.  1.
</event>
<event>
 7    1  0.5646756E-010  0.4778728E+02  0.7816164E-02  0.1312668E+00
        -11   -1    0    0    0    0  0.00000000000E+00  0.00000000000E+00  0.45593999997E+02  0.45594000000E+02  0.51100000000E-03 0.  1.
         11   -1    0    0    0    0 -0.00000000000E+00 -0.00000000000E+00 -0.45593999997E+02  0.45594000000E+02  0.51100000000E-03 0. -1.
    9900012    2    1    2    0    0  0.26763494583E+02 -0.31050671092E+02  0.14254605608E+02  0.47787278824E+02  0.20000035470E+02 0.  0.
         12    1    1    2    0    0 -0.26763494583E+02  0.31050671092E+02 -0.14254605608E+02  0.43400721176E+02  0.00000000000E+00 0. -1.
         11    1    3    3    0    0 -0.18831505071E+01  0.79734427925E+00 -0.35879691405E-01  0.20453120411E+01  0.51100000000E-03 0. -1.
        -11    1    3    3    0    0  0.13316585007E+02 -0.13832445044E+02  0.10179172955E+02  0.21732085369E+02  0.51100000000E-03 0.  1.
         12    1    3    3    0    0  0.15330060083E+02 -0.18015570327E+02  0.41113123448E+01  0.24009881414E+02  0.00000000000E+00 0. -1.
</event>
<event>
 7    1  0.5646756E-010  0.4778728E+02  0.7816164E-02  0.1312668E+00
        -11   -1    0    0    0    0  0.00000000000E+00  0.00000000000E+00  0.45593999997E+02  0.45594000000E+02  0.51100000000E-03 0.  1.
         11   -1    0    0    0    0 -0.00000000000E+00 -0.00000000000E+00 -0.45593999997E+02  0.45594000000E+02  0.51100000000E-03 0. -1.
    9900012    2    1    2    0    0 -0.30550803133E+02  0.23469640441E+02  0.19986167193E+02  0.47787280264E+02  0.20000042036E+02 0.  0.
         12    1    1    2    0    0  0.30550803133E+02 -0.23469640441E+02 -0.19986167193E+02  0.43400719736E+02  0.00000000000E+00 0. -1.
         11    1    3    3    0    0 -0.42409842906E+01  0.10025971903E+02  0.65333456616E+01  0.12696088616E+02  0.51100000000E-03 0. -1.
        -11    1    3    3    0    0 -0.25724705054E+02  0.10773814807E+02  0.80367830877E+01  0.29024565772E+02  0.51100000000E-03 0.  1.
        -12    1    3    3    0    0 -0.58511378894E+00  0.26698537319E+01  0.54160384439E+01  0.60666258762E+01  0.00000000000E+00 0.  1.
</event>
<event>
 7    1  0.5646756E-010  0.4778727E+02  0.7816164E-02  0.1312668E+00
        -11   -1    0    0    0    0  0.00000000000E+00  0.00000000000E+00  0.45593999997E+02  0.45594000000E+02  0.51100000000E-03 0.  1.
         11   -1    0    0    0    0 -0.00000000000E+00 -0.00000000000E+00 -0.45593999997E+02  0.45594000000E+02  0.51100000000E-03 0. -1.
    9900012    2    1    2    0    0  0.13573730062E+02 -0.39640462897E+02  0.11314182355E+02  0.47787272254E+02  0.20000005516E+02 0.  0.
         12    1    1    2    0    0 -0.13573730062E+02  0.39640462897E+02 -0.11314182355E+02  0.43400727746E+02  0.00000000000E+00 0. -1.
         11    1    3    3    0    0  0.76594898729E+01 -0.44005746254E+01  0.33850965182E+01  0.94600063872E+01  0.51100000000E-03 0.  1.
        -11    1    3    3    0    0  0.18363872219E+01 -0.14970670645E+01  0.32446694696E+01  0.40176371230E+01  0.51100000000E-03 0. -1.
         12    1    3    3    0    0  0.40778529671E+01 -0.33742821207E+02  0.46844163671E+01  0.34309628744E+02  0.00000000000E+00 0. -1.
</event>
<event>
 7    1  0.5646756E-010  0.4778727E+02  0.7816164E-02  0.1312668E+00
        -11   -1    0    0    0    0  0.00000000000E+00  0.00000000000E+00  0.45593999997E+02  0.45594000000E+02  0.51100000000E-03 0.  1.
         11   -1    0    0    0    0 -0.00000000000E+00 -0.00000000000E+00 -0.45593999997E+02  0.45594000000E+02  0.51100000000E-03 0. -1.
    9900012    2    1    2    0    0 -0.38404466067E+02 -0.17691841529E+02 -0.97836042251E+01  0.47787272101E+02  0.20000004816E+02 0.  0.
         12    1    1    2    0    0  0.38404466067E+02  0.17691841529E+02  0.97836042251E+01  0.43400727899E+02  0.00000000000E+00 0. -1.
         11    1    3    3    0    0 -0.11243510729E+00 -0.55786756748E+01  0.16508047196E+01  0.58188848091E+01  0.51100000000E-03 0. -1.
        -11    1    3    3    0    0 -0.25574949421E+02 -0.10109836707E+02 -0.74475713998E+01  0.28491282108E+02  0.51100000000E-03 0.  1.
         12    1    3    3    0    0 -0.12717081539E+02 -0.20033291469E+01 -0.39868375448E+01  0.13477105184E+02  0.00000000000E+00 0. -1.
</event>
<event>
 7    1  0.5646756E-010  0.4778727E+02  0.7816164E-02  0.1312668E+00
        -11   -1    0    0    0    0  0.00000000000E+00  0.00000000000E+00  0.45593999997E+02  0.45594000000E+02  0.51100000000E-03 0. -1.
         11   -1    0    0    0    0 -0.00000000000E+00 -0.00000000000E+00 -0.45593999997E+02  0.45594000000E+02  0.51100000000E-03 0.  1.
    9900012    2    1    2    0    0 -0.33810522762E+02  0.19035508170E+02 -0.19445336423E+02  0.47787272709E+02  0.20000007590E+02 0.  0.
         12    1    1    2    0    0  0.33810522762E+02 -0.19035508170E+02  0.19445336423E+02  0.43400727291E+02  0.00000000000E+00 0. -1.
         11    1    3    3    0    0 -0.47859451618E+01 -0.24936493982E+01 -0.61710824126E+01  0.81979153946E+01  0.51100000000E-03 0. -1.
        -11    1    3    3    0    0 -0.15943888671E+02  0.99858189046E+01 -0.22370732507E+01  0.18945412694E+02  0.51100000000E-03 0.  1.
        -12    1    3    3    0    0 -0.13080688929E+02  0.11543338664E+02 -0.11037180760E+02  0.20643944621E+02  0.00000000000E+00 0.  1.
</event>
<event>
 7    1  0.5730995E-010  0.4778727E+02  0.7816164E-02  0.1312668E+00
        -11   -1    0    0    0    0  0.00000000000E+00  0.00000000000E+00  0.45593999997E+02  0.45594000000E+02  0.51100000000E-03 0.  1.
         11   -1    0    0    0    0 -0.00000000000E+00 -0.00000000000E+00 -0.45593999997E+02  0.45594000000E+02  0.51100000000E-03 0. -1.
    9900012    2    1    2    0    0  0.13281171445E+02  0.38607080867E+02  0.14721651594E+02  0.47787271507E+02  0.20000002109E+02 0.  0.
         12    1    1    2    0    0 -0.13281171445E+02 -0.38607080867E+02 -0.14721651594E+02  0.43400728493E+02  0.00000000000E+00 0. -1.
         11    1    3    3    0    0 -0.18036774199E+01  0.53166622576E+01  0.64096524794E+01  0.85207860532E+01  0.51100000000E-03 0.  1.
        -11    1    3    3    0    0  0.16664927403E+02  0.26490558627E+02  0.78735946790E+01  0.32271705799E+02  0.51100000000E-03 0. -1.
        -12    1    3    3    0    0 -0.15800785385E+01  0.67998599830E+01  0.43840443604E+00  0.69947796552E+01  0.00000000000E+00 0.  1.
</event>
<event>
 7    1  0.5646756E-010  0.4778727E+02  0.7816164E-02  0.1312668E+00
        -11   -1    0    0    0    0  0.00000000000E+00  0.00000000000E+00  0.45593999997E+02  0.45594000000E+02  0.51100000000E-03 0. -1.
         11   -1    0    0    0    0 -0.00000000000E+00 -0.00000000000E+00 -0.45593999997E+02  0.45594000000E+02  0.51100000000E-03 0.  1.
    9900012    2    1    2    0    0 -0.36870106774E+02 -0.30781352262E+01 -0.22687960924E+02  0.47787271194E+02  0.20000000684E+02 0.  0.
         12    1    1    2    0    0  0.36870106774E+02  0.30781352262E+01  0.22687960924E+02  0.43400728806E+02  0.00000000000E+00 0. -1.
         11    1    3    3    0    0 -0.64513029581E+01  0.55723824854E+01 -0.10775518467E+01  0.85925476236E+01  0.51100000000E-03 0.  1.
        -11    1    3    3    0    0 -0.23564780361E+02 -0.98747647142E+01 -0.15194101938E+02  0.29726597275E+02  0.51100000000E-03 0. -1.
         12    1    3    3    0    0 -0.68540234550E+01  0.12242470025E+01 -0.64163071393E+01  0.94681262957E+01  0.00000000000E+00 0. -1.
</event>
<event>
 7    1  0.5646756E-010  0.4778727E+02  0.7816164E-02  0.1312668E+00
        -11   -1    0    0    0    0  0.00000000000E+00  0.00000000000E+00  0.45593999997E+02  0.45594000000E+02  0.51100000000E-03 0.  1.
         11   -1    0    0    0    0 -0.00000000000E+00 -0.00000000000E+00 -0.45593999997E+02  0.45594000000E+02  0.51100000000E-03 0. -1.
    9900012    2    1    2    0    0 -0.13860940378E+01 -0.17915119855E+02  0.39506338597E+02  0.47787267686E+02  0.19999984687E+02 0.  0.
         12    1    1    2    0    0  0.13860940378E+01  0.17915119855E+02 -0.39506338597E+02  0.43400732314E+02  0.00000000000E+00 0. -1.
         11    1    3    3    0    0 -0.42522943047E+00 -0.62026164598E+01  0.19845157391E+01  0.65262220309E+01  0.51100000000E-03 0. -1.
        -11    1    3    3    0    0 -0.30533032251E+01 -0.13653582530E+02  0.33718606198E+02  0.36505991025E+02  0.51100000000E-03 0.  1.
        -12    1    3    3    0    0  0.20924386177E+01  0.19410791352E+01  0.38032166594E+01  0.47550546302E+01  0.00000000000E+00 0.  1.
</event>
<event>
 7    1  0.5646756E-010  0.4778727E+02  0.7816164E-02  0.1312668E+00
        -11   -1    0    0    0    0  0.00000000000E+00  0.00000000000E+00  0.45593999997E+02  0.45594000000E+02  0.51100000000E-03 0.  1.
         11   -1    0    0    0    0 -0.00000000000E+00 -0.00000000000E+00 -0.45593999997E+02  0.45594000000E+02  0.51100000000E-03 0. -1.
    9900012    2    1    2    0    0 -0.36412770655E+02 -0.31913593854E+01  0.23399753015E+02  0.47787273248E+02  0.20000010046E+02 0.  0.
         12    1    1    2    0    0  0.36412770655E+02  0.31913593854E+01 -0.23399753015E+02  0.43400726752E+02  0.00000000000E+00 0. -1.
         11    1    3    3    0    0 -0.18902897428E+02 -0.52461876400E+01  0.75274364718E+01  0.21012004094E+02  0.51100000000E-03 0. -1.
        -11    1    3    3    0    0 -0.41194851531E+01  0.59501272819E+01  0.31295283768E+01  0.78846763231E+01  0.51100000000E-03 0.  1.
        -12    1    3    3    0    0 -0.13390388073E+02 -0.38952990274E+01  0.12742788166E+02  0.18890592831E+02  0.00000000000E+00 0.  1.
</event>
<event>
 7    1  0.5646756E-010  0.4778727E+02  0.7816164E-02  0.1312668E+00
        -11   -1    0    0    0    0  0.00000000000E+00  0.00000000000E+00  0.45593999997E+02  0.45594000000E+02  0.51100000000E-03 0.  1.
         11   -1    0    0    0    0 -0.00000000000E+00 -0.00000000000E+00 -0.45593999997E+02  0.45594000000E+02  0.51100000000E-03 0. -1.
    9900012    2    1    2    0    0 -0.39196796087E+02  0.23349760562E+01  0.18487354624E+02  0.47787271692E+02  0.20000002952E+02 0.  0.
         12    1    1    2    0    0  0.39196796087E+02 -0.23349760562E+01 -0.18487354624E+02  0.43400728308E+02  0.00000000000E+00 0. -1.
         11    1    3    3    0    0 -0.99292612158E+01 -0.13574975385E+01 -0.20900518136E+01  0.10237252791E+02  0.51100000000E-03 0. -1.
        -11    1    3    3    0    0 -0.17140748733E+02  0.74813306269E+01  0.12016132404E+02  0.22229777625E+02  0.51100000000E-03 0.  1.
         12    1    3    3    0    0 -0.12126786138E+02 -0.37888570321E+01  0.85612740343E+01  0.15320241276E+02  0.00000000000E+00 0. -1.
</event>
<event>
 7    1  0.5646756E-010  0.4778727E+02  0.7816164E-02  0.1312668E+00
        -11   -1    0    0    0    0  0.00000000000E+00  0.00000000000E+00  0.45593999997E+02  0.45594000000E+02  0.51100000000E-03 0.  1.
         11   -1    0    0    0    0 -0.00000000000E+00 -0.00000000000E+00 -0.45593999997E+02  0.45594000000E+02  0.51100000000E-03 0. -1.
    9900012    2    1    2    0    0  0.28041656652E+02 -0.14438240824E+02  0.29813190292E+02  0.47787267043E+02  0.19999981754E+02 0.  0.
         12    1    1    2    0    0 -0.28041656652E+02  0.14438240824E+02 -0.29813190292E+02  0.43400732957E+02  0.00000000000E+00 0. -1.
         11    1    3    3    0    0  0.16595087771E+02 -0.21785141531E+01  0.60395442131E+01  0.17793789833E+02  0.51100000000E-03 0. -1.
        -11    1    3    3    0    0  0.74380420171E+00 -0.21420536250E+01  0.30745367098E+00  0.22882671269E+01  0.51100000000E-03 0.  1.
         12    1    3    3    0    0  0.10702764679E+02 -0.10117673046E+02  0.23466192407E+02  0.27705210083E+02  0.00000000000E+00 0. -1.
</event>
<event>
 7    1  0.5646756E-010  0.4778722E+02  0.7816164E-02  0.1312668E+00
        -11   -1    0    0    0    0  0.00000000000E+00  0.00000000000E+00  0.45593999997E+02  0.45594000000E+02  0.51100000000E-03 0.  1.
         11   -1    0    0    0    0 -0.00000000000E+00 -0.00000000000E+00 -0.45593999997E+02  0.45594000000E+02  0.51100000000E-03 0. -1.
    9900012    2    1    2    0    0  0.21003825004E+02  0.36353566864E+02  0.10994775072E+02  0.47787221581E+02  0.19999774473E+02 0.  0.
         12    1    1    2    0    0 -0.21003825004E+02 -0.36353566864E+02 -0.10994775072E+02  0.43400778419E+02  0.00000000000E+00 0. -1.
         11    1    3    3    0    0  0.18161962500E+02  0.17861127362E+02  0.13517493134E+02  0.28837464753E+02  0.51100000000E-03 0. -1.
        -11    1    3    3    0    0  0.74426018879E+00  0.73713526179E+01 -0.29041289115E+00  0.74145197116E+01  0.51100000000E-03 0.  1.
         12    1    3    3    0    0  0.20976023149E+01  0.11121086884E+02 -0.22323051702E+01  0.11535237116E+02  0.00000000000E+00 0. -1.
</event>
<event>
 7    1  0.5646756E-010  0.4778728E+02  0.7816164E-02  0.1312668E+00
        -11   -1    0    0    0    0  0.00000000000E+00  0.00000000000E+00  0.45593999997E+02  0.45594000000E+02  0.51100000000E-03 0.  1.
         11   -1    0    0    0    0 -0.00000000000E+00 -0.00000000000E+00 -0.45593999997E+02  0.45594000000E+02  0.51100000000E-03 0. -1.
    9900012    2    1    2    0    0 -0.67988420209E+00  0.17528058345E+02  0.39697957178E+02  0.47787275629E+02  0.20000020902E+02 0.  0.
         12    1    1    2    0    0  0.67988420209E+00 -0.17528058345E+02 -0.39697957178E+02  0.43400724371E+02  0.00000000000E+00 0. -1.
         11    1    3    3    0    0  0.39089358541E+01  0.59759805436E+01  0.14016640667E+01  0.72771412922E+01  0.51100000000E-03 0. -1.
        -11    1    3    3    0    0 -0.91859723127E+00  0.73032362816E+01  0.17878995679E+02  0.19334931286E+02  0.51100000000E-03 0.  1.
         12    1    3    3    0    0 -0.36702228249E+01  0.42488415194E+01  0.20417297432E+02  0.21175203051E+02  0.00000000000E+00 0. -1.
</event>
<event>
 7    1  0.5646756E-010  0.4778727E+02  0.7816164E-02  0.1312668E+00
        -11   -1    0    0    0    0  0.00000000000E+00  0.00000000000E+00  0.45593999997E+02  0.45594000000E+02  0.51100000000E-03 0.  1.
         11   -1    0    0    0    0 -0.00000000000E+00 -0.00000000000E+00 -0.45593999997E+02  0.45594000000E+02  0.51100000000E-03 0. -1.
    9900012    2    1    2    0    0  0.41372330238E+02 -0.50926055673E+01  0.12083825392E+02  0.47787272162E+02  0.20000005096E+02 0.  0.
         12    1    1    2    0    0 -0.41372330238E+02  0.50926055673E+01 -0.12083825392E+02  0.43400727838E+02  0.00000000000E+00 0. -1.
         11    1    3    3    0    0  0.23009348772E+02  0.17306853839E+01  0.15010390835E+02  0.27527027375E+02  0.51100000000E-03 0. -1.
        -11    1    3    3    0    0  0.66255177233E+01 -0.13105566179E+01 -0.27476959595E+01  0.72914249017E+01  0.51100000000E-03 0.  1.
         12    1    3    3    0    0  0.11737463743E+02 -0.55127343333E+01 -0.17886948390E+00  0.12968819886E+02  0.00000000000E+00 0. -1.
</event>
<event>
 7    1  0.5646756E-010  0.4778727E+02  0.7816164E-02  0.1312668E+00
        -11   -1    0    0    0    0  0.00000000000E+00  0.00000000000E+00  0.45593999997E+02  0.45594000000E+02  0.51100000000E-03 0.  1.
         11   -1    0    0    0    0 -0.00000000000E+00 -0.00000000000E+00 -0.45593999997E+02  0.45594000000E+02  0.51100000000E-03 0. -1.
    9900012    2    1    2    0    0  0.28143182386E+02  0.21976052128E+01  0.32965967161E+02  0.47787272191E+02  0.20000005227E+02 0.  0.
         12    1    1    2    0    0 -0.28143182386E+02 -0.21976052128E+01 -0.32965967161E+02  0.43400727809E+02  0.00000000000E+00 0. -1.
         11    1    3    3    0    0  0.46671790406E+01 -0.44891284388E+01  0.17693515474E+02  0.18841319604E+02  0.51100000000E-03 0. -1.
        -11    1    3    3    0    0  0.10235601513E+02  0.17235335061E+01  0.53989464600E+01  0.11699860222E+02  0.51100000000E-03 0.  1.
         12    1    3    3    0    0  0.13240401832E+02  0.49632001455E+01  0.98735052275E+01  0.17246092364E+02  0.00000000000E+00 0. -1.
</event>
<event>
 7    1  0.5646756E-010  0.4778725E+02  0.7816164E-02  0.1312668E+00
        -11   -1    0    0    0    0  0.00000000000E+00  0.00000000000E+00  0.45593999997E+02  0.45594000000E+02  0.51100000000E-03 0.  1.
         11   -1    0    0    0    0 -0.00000000000E+00 -0.00000000000E+00 -0.45593999997E+02  0.45594000000E+02  0.51100000000E-03 0. -1.
    9900012    2    1    2    0    0  0.15815462396E+02 -0.13112606899E+02  0.38230302654E+02  0.47787247108E+02  0.19999890865E+02 0.  0.
         12    1    1    2    0    0 -0.15815462396E+02  0.13112606899E+02 -0.38230302654E+02  0.43400752892E+02  0.00000000000E+00 0. -1.
         11    1    3    3    0    0  0.39036128120E+01 -0.58952742304E-02  0.15751345436E+02  0.16227849859E+02  0.51100000000E-03 0. -1.
        -11    1    3    3    0    0  0.13442851825E+02 -0.11659767420E+02  0.13499093193E+02  0.22335755165E+02  0.51100000000E-03 0.  1.
        -12    1    3    3    0    0 -0.15310022404E+01 -0.14469442050E+01  0.89798640253E+01  0.92236420847E+01  0.00000000000E+00 0.  1.
</event>
<event>
 7    1  0.5646756E-010  0.4778728E+02  0.7816164E-02  0.1312668E+00
        -11   -1    0    0    0    0  0.00000000000E+00  0.00000000000E+00  0.45593999997E+02  0.45594000000E+02  0.51100000000E-03 0.  1.
         11   -1    0    0    0    0 -0.00000000000E+00 -0.00000000000E+00 -0.45593999997E+02  0.45594000000E+02  0.51100000000E-03 0. -1.
    9900012    2    1    2    0    0 -0.31553276358E+02 -0.23053734560E+02  0.18882239831E+02  0.47787275269E+02  0.20000019263E+02 0.  0.
         12    1    1    2    0    0  0.31553276358E+02  0.23053734560E+02 -0.18882239831E+02  0.43400724731E+02  0.00000000000E+00 0. -1.
         11    1    3    3    0    0 -0.58524266797E+01 -0.23609763827E+01 -0.23251026929E+01  0.67254152522E+01  0.51100000000E-03 0. -1.
        -11    1    3    3    0    0 -0.15358917741E+02 -0.13645169798E+02  0.19687498863E+02  0.28454957824E+02  0.51100000000E-03 0.  1.
        -12    1    3    3    0    0 -0.10341931937E+02 -0.70475883795E+01  0.15198436608E+01  0.12606902193E+02  0.00000000000E+00 0.  1.
</event>
<event>
 7    1  0.5646756E-010  0.4778727E+02  0.7816164E-02  0.1312668E+00
        -11   -1    0    0    0    0  0.00000000000E+00  0.00000000000E+00  0.45593999997E+02  0.45594000000E+02  0.51100000000E-03 0.  1.
         11   -1    0    0    0    0 -0.00000000000E+00 -0.00000000000E+00 -0.45593999997E+02  0.45594000000E+02  0.51100000000E-03 0. -1.
    9900012    2    1    2    0    0 -0.35461187948E+02  0.94073870668E+01  0.23186815016E+02  0.47787272210E+02  0.20000005315E+02 0.  0.
         12    1    1    2    0    0  0.35461187948E+02 -0.94073870668E+01 -0.23186815016E+02  0.43400727790E+02  0.00000000000E+00 0. -1.
         11    1    3    3    0    0 -0.18525289361E+02 -0.29274857695E+00  0.17286900141E+02  0.25339869069E+02  0.51100000000E-03 0. -1.
        -11    1    3    3    0    0 -0.13710912049E+02  0.11517897591E+02  0.54525180909E+01  0.18718467563E+02  0.51100000000E-03 0.  1.
        -12    1    3    3    0    0 -0.32249865381E+01 -0.18177619471E+01  0.44739678329E+00  0.37289355785E+01  0.00000000000E+00 0.  1.
</event>
<event>
 7    1  0.5646756E-010  0.4778727E+02  0.7816164E-02  0.1312668E+00
        -11   -1    0    0    0    0  0.00000000000E+00  0.00000000000E+00  0.45593999997E+02  0.45594000000E+02  0.51100000000E-03 0. -1.
         11   -1    0    0    0    0 -0.00000000000E+00 -0.00000000000E+00 -0.45593999997E+02  0.45594000000E+02  0.51100000000E-03 0.  1.
    9900012    2    1    2    0    0 -0.41774469742E+02 -0.73233932921E+01 -0.92132923533E+01  0.47787272270E+02  0.20000005587E+02 0.  0.
         12    1    1    2    0    0  0.41774469742E+02  0.73233932921E+01  0.92132923533E+01  0.43400727730E+02  0.00000000000E+00 0. -1.
         11    1    3    3    0    0 -0.37861628745E+02 -0.32215472198E+01 -0.87348889216E+01  0.38989480408E+02  0.51100000000E-03 0.  1.
        -11    1    3    3    0    0 -0.46946544620E+01 -0.69804720356E+00  0.12398843394E+01  0.49055441953E+01  0.51100000000E-03 0. -1.
         12    1    3    3    0    0  0.78181346542E+00 -0.34037988687E+01 -0.17182877711E+01  0.38922476665E+01  0.00000000000E+00 0. -1.
</event>
<event>
 7    1  0.5646756E-010  0.4778726E+02  0.7816164E-02  0.1312668E+00
        -11   -1    0    0    0    0  0.00000000000E+00  0.00000000000E+00  0.45593999997E+02  0.45594000000E+02  0.51100000000E-03 0. -1.
         11   -1    0    0    0    0 -0.00000000000E+00 -0.00000000000E+00 -0.45593999997E+02  0.45594000000E+02  0.51100000000E-03 0.  1.
    9900012    2    1    2    0    0 -0.13023048498E+01  0.42142735641E+02 -0.10291638596E+02  0.47787262791E+02  0.19999962371E+02 0.  0.
         12    1    1    2    0    0  0.13023048498E+01 -0.42142735641E+02  0.10291638596E+02  0.43400737209E+02  0.00000000000E+00 0. -1.
         11    1    3    3    0    0 -0.83172695203E+01  0.23425517875E+02 -0.21973546308E+00  0.24859206421E+02  0.51100000000E-03 0. -1.
        -11    1    3    3    0    0  0.11460037616E+00  0.69643152815E+01 -0.36004672430E+01  0.78408025875E+01  0.51100000000E-03 0.  1.
         12    1    3    3    0    0  0.69003642944E+01  0.11752902485E+02 -0.64714358896E+01  0.15087253782E+02  0.00000000000E+00 0. -1.
</event>
<event>
 7    1  0.5646756E-010  0.4778727E+02  0.7816164E-02  0.1312668E+00
        -11   -1    0    0    0    0  0.00000000000E+00  0.00000000000E+00  0.45593999997E+02  0.45594000000E+02  0.51100000000E-03 0. -1.
         11   -1    0    0    0    0 -0.00000000000E+00 -0.00000000000E+00 -0.45593999997E+02  0.45594000000E+02  0.51100000000E-03 0.  1.
    9900012    2    1    2    0    0  0.10396129673E+02 -0.26975044244E+02 -0.32371139877E+02  0.47787271653E+02  0.20000002775E+02 0.  0.
         12    1    1    2    0    0 -0.10396129673E+02  0.26975044244E+02  0.32371139877E+02  0.43400728347E+02  0.00000000000E+00 0. -1.
         11    1    3    3    0    0  0.17312840555E+01 -0.39959263312E+01 -0.14720712102E+01  0.45969300227E+01  0.51100000000E-03 0. -1.
        -11    1    3    3    0    0  0.55258654009E+01  0.45850035443E+00 -0.10863679487E+02  0.12196923516E+02  0.51100000000E-03 0.  1.
        -12    1    3    3    0    0  0.31389802162E+01 -0.23437618267E+02 -0.20035389180E+02  0.30993418114E+02  0.00000000000E+00 0.  1.
</event>
<event>
 7    1  0.5646756E-010  0.4778726E+02  0.7816164E-02  0.1312668E+00
        -11   -1    0    0    0    0  0.00000000000E+00  0.00000000000E+00  0.45593999997E+02  0.45594000000E+02  0.51100000000E-03 0. -1.
         11   -1    0    0    0    0 -0.00000000000E+00 -0.00000000000E+00 -0.45593999997E+02  0.45594000000E+02  0.51100000000E-03 0.  1.
    9900012    2    1    2    0    0  0.18143144201E+02  0.39425492216E+02 -0.28545160383E+00  0.47787255760E+02  0.19999930311E+02 0.  0.
         12    1    1    2    0    0 -0.18143144201E+02 -0.39425492216E+02  0.28545160383E+00  0.43400744240E+02  0.00000000000E+00 0. -1.
         11    1    3    3    0    0 -0.22575119090E+01  0.70898204382E+01  0.33262768042E+01  0.81502166538E+01  0.51100000000E-03 0. -1.
        -11    1    3    3    0    0  0.14739208372E+02  0.19664943837E+02  0.20232900706E+01  0.24658628967E+02  0.51100000000E-03 0.  1.
        -12    1    3    3    0    0  0.56614477381E+01  0.12670727941E+02 -0.56350184786E+01  0.14978410139E+02  0.00000000000E+00 0.  1.
</event>
<event>
 7    1  0.5646756E-010  0.4778727E+02  0.7816164E-02  0.1312668E+00
        -11   -1    0    0    0    0  0.00000000000E+00  0.00000000000E+00  0.45593999997E+02  0.45594000000E+02  0.51100000000E-03 0.  1.
         11   -1    0    0    0    0 -0.00000000000E+00 -0.00000000000E+00 -0.45593999997E+02  0.45594000000E+02  0.51100000000E-03 0. -1.
    9900012    2    1    2    0    0  0.41119425795E+01  0.34806196031E+02  0.25597732431E+02  0.47787271210E+02  0.20000000753E+02 0.  0.
         12    1    1    2    0    0 -0.41119425795E+01 -0.34806196031E+02 -0.25597732431E+02  0.43400728790E+02  0.00000000000E+00 0. -1.
         11    1    3    3    0    0  0.85542403504E+01  0.12720848048E+02  0.56458331397E+01  0.16336169537E+02  0.51100000000E-03 0. -1.
        -11    1    3    3    0    0 -0.65876120430E+01  0.19344604518E+02  0.14792711925E+02  0.25227657100E+02  0.51100000000E-03 0.  1.
        -12    1    3    3    0    0  0.21453142722E+01  0.27407434643E+01  0.51591873667E+01  0.62234445726E+01  0.00000000000E+00 0.  1.
</event>
<event>
 7    1  0.5646756E-010  0.4778727E+02  0.7816164E-02  0.1312668E+00
        -11   -1    0    0    0    0  0.00000000000E+00  0.00000000000E+00  0.45593999997E+02  0.45594000000E+02  0.51100000000E-03 0.  1.
         11   -1    0    0    0    0 -0.00000000000E+00 -0.00000000000E+00 -0.45593999997E+02  0.45594000000E+02  0.51100000000E-03 0. -1.
    9900012    2    1    2    0    0 -0.74281164771E+01 -0.18235604665E+02  0.38676980833E+02  0.47787273759E+02  0.20000012375E+02 0.  0.
         12    1    1    2    0    0  0.74281164771E+01  0.18235604665E+02 -0.38676980833E+02  0.43400726241E+02  0.00000000000E+00 0. -1.
         11    1    3    3    0    0  0.96902527834E+00 -0.28643596469E+00  0.10431334335E+02  0.10480161822E+02  0.51100000000E-03 0. -1.
        -11    1    3    3    0    0 -0.11367567173E+02 -0.16135574360E+02  0.18871386191E+02  0.27307646555E+02  0.51100000000E-03 0.  1.
        -12    1    3    3    0    0  0.29704254179E+01 -0.18135943406E+01  0.93742603073E+01  0.99994653809E+01  0.00000000000E+00 0.  1.
</event>
<event>
 7    1  0.5646756E-010  0.4778728E+02  0.7816164E-02  0.1312668E+00
        -11   -1    0    0    0    0  0.00000000000E+00  0.00000000000E+00  0.45593999997E+02  0.45594000000E+02  0.51100000000E-03 0. -1.
         11   -1    0    0    0    0 -0.00000000000E+00 -0.00000000000E+00 -0.45593999997E+02  0.45594000000E+02  0.51100000000E-03 0.  1.
    9900012    2    1    2    0    0 -0.25360956202E+02 -0.18305270766E+02 -0.30089227279E+02  0.47787278399E+02  0.20000033530E+02 0.  0.
         12    1    1    2    0    0  0.25360956202E+02  0.18305270766E+02  0.30089227279E+02  0.43400721601E+02  0.00000000000E+00 0. -1.
         11    1    3    3    0    0 -0.27010817264E+02 -0.13039721168E+02 -0.27993932605E+02  0.41027781324E+02  0.51100000000E-03 0.  1.
        -11    1    3    3    0    0  0.18791035637E+01 -0.10198552826E+01 -0.10453920551E+01  0.23799117233E+01  0.51100000000E-03 0. -1.
        -12    1    3    3    0    0 -0.22924250131E+00 -0.42456943149E+01 -0.10499026191E+01  0.43795853513E+01  0.00000000000E+00 0.  1.
</event>
<event>
 7    1  0.5646756E-010  0.4778727E+02  0.7816164E-02  0.1312668E+00
        -11   -1    0    0    0    0  0.00000000000E+00  0.00000000000E+00  0.45593999997E+02  0.45594000000E+02  0.51100000000E-03 0.  1.
         11   -1    0    0    0    0 -0.00000000000E+00 -0.00000000000E+00 -0.45593999997E+02  0.45594000000E+02  0.51100000000E-03 0. -1.
    9900012    2    1    2    0    0  0.13918318890E+02  0.13865306348E+02  0.38699578043E+02  0.47787266578E+02  0.19999979635E+02 0.  0.
         12    1    1    2    0    0 -0.13918318890E+02 -0.13865306348E+02 -0.38699578043E+02  0.43400733422E+02  0.00000000000E+00 0. -1.
         11    1    3    3    0    0  0.44031418410E+01  0.11867764984E+02  0.92686043604E+01  0.15688802721E+02  0.51100000000E-03 0. -1.
        -11    1    3    3    0    0  0.91586003671E+01  0.87409860864E+00  0.14843782767E+02  0.17463730877E+02  0.51100000000E-03 0.  1.
         12    1    3    3    0    0  0.35657668171E+00  0.11234427557E+01  0.14587190916E+02  0.14634732979E+02  0.00000000000E+00 0. -1.
</event>
<event>
 7    1  0.5646756E-010  0.4778727E+02  0.7816164E-02  0.1312668E+00
        -11   -1    0    0    0    0  0.00000000000E+00  0.00000000000E+00  0.45593999997E+02  0.45594000000E+02  0.51100000000E-03 0.  1.
         11   -1    0    0    0    0 -0.00000000000E+00 -0.00000000000E+00 -0.45593999997E+02  0.45594000000E+02  0.51100000000E-03 0. -1.
    9900012    2    1    2    0    0  0.21795998300E+02 -0.33804403524E+02  0.16303993214E+02  0.47787269197E+02  0.19999991578E+02 0.  0.
         12    1    1    2    0    0 -0.21795998300E+02  0.33804403524E+02 -0.16303993214E+02  0.43400730803E+02  0.00000000000E+00 0. -1.
         11    1    3    3    0    0  0.13925034806E+02 -0.18261133787E+02  0.16880508683E+02  0.28501353918E+02  0.51100000000E-03 0. -1.
        -11    1    3    3    0    0  0.94116690828E+01 -0.12397310969E+02  0.63850430583E+00  0.15578206642E+02  0.51100000000E-03 0.  1.
         12    1    3    3    0    0 -0.15407055888E+01 -0.31459587684E+01 -0.12150197743E+01  0.37077086369E+01  0.00000000000E+00 0. -1.
</event>
<event>
 7    1  0.5646756E-010  0.4778727E+02  0.7816164E-02  0.1312668E+00
        -11   -1    0    0    0    0  0.00000000000E+00  0.00000000000E+00  0.45593999997E+02  0.45594000000E+02  0.51100000000E-03 0.  1.
         11   -1    0    0    0    0 -0.00000000000E+00 -0.00000000000E+00 -0.45593999997E+02  0.45594000000E+02  0.51100000000E-03 0. -1.
    9900012    2    1    2    0    0 -0.28290123268E+02  0.32567670882E+02  0.47580447119E+01  0.47787271312E+02  0.20000001220E+02 0.  0.
         12    1    1    2    0    0  0.28290123268E+02 -0.32567670882E+02 -0.47580447119E+01  0.43400728688E+02  0.00000000000E+00 0. -1.
         11    1    3    3    0    0 -0.91827799311E+01  0.11885785652E+02 -0.48599186961E+01  0.15786518230E+02  0.51100000000E-03 0. -1.
        -11    1    3    3    0    0 -0.12933946144E+02  0.17456498086E+02  0.11771792103E+02  0.24710147265E+02  0.51100000000E-03 0.  1.
        -12    1    3    3    0    0 -0.61733971928E+01  0.32253871440E+01 -0.21538286955E+01  0.72906058170E+01  0.00000000000E+00 0.  1.
</event>
<event>
 7    1  0.5646756E-010  0.4778727E+02  0.7816164E-02  0.1312668E+00
        -11   -1    0    0    0    0  0.00000000000E+00  0.00000000000E+00  0.45593999997E+02  0.45594000000E+02  0.51100000000E-03 0.  1.
         11   -1    0    0    0    0 -0.00000000000E+00 -0.00000000000E+00 -0.45593999997E+02  0.45594000000E+02  0.51100000000E-03 0. -1.
    9900012    2    1    2    0    0  0.14609955458E+02 -0.15850278212E+02  0.37668835785E+02  0.47787270660E+02  0.19999998245E+02 0.  0.
         12    1    1    2    0    0 -0.14609955458E+02  0.15850278212E+02 -0.37668835785E+02  0.43400729340E+02  0.00000000000E+00 0. -1.
         11    1    3    3    0    0 -0.19025156167E+01 -0.38758696738E+01  0.16336708101E+02  0.16897631883E+02  0.51100000000E-03 0. -1.
        -11    1    3    3    0    0  0.33759969668E+01 -0.39677346632E+01  0.11518580476E+02  0.12641913239E+02  0.51100000000E-03 0.  1.
         12    1    3    3    0    0  0.13136474108E+02 -0.80066738749E+01  0.98135472074E+01  0.18247725538E+02  0.00000000000E+00 0. -1.
</event>
<event>
 7    1  0.5646756E-010  0.4778727E+02  0.7816164E-02  0.1312668E+00
        -11   -1    0    0    0    0  0.00000000000E+00  0.00000000000E+00  0.45593999997E+02  0.45594000000E+02  0.51100000000E-03 0.  1.
         11   -1    0    0    0    0 -0.00000000000E+00 -0.00000000000E+00 -0.45593999997E+02  0.45594000000E+02  0.51100000000E-03 0. -1.
    9900012    2    1    2    0    0 -0.26011604202E+02  0.23210858827E+02  0.25851026148E+02  0.47787273352E+02  0.20000010522E+02 0.  0.
         12    1    1    2    0    0  0.26011604202E+02 -0.23210858827E+02 -0.25851026148E+02  0.43400726648E+02  0.00000000000E+00 0. -1.
         11    1    3    3    0    0 -0.93741769795E+01 -0.43437484390E+00  0.40559906903E+01  0.10223254682E+02  0.51100000000E-03 0. -1.
        -11    1    3    3    0    0 -0.10403246762E+02  0.17659849252E+02  0.96408615180E+01  0.22650475268E+02  0.51100000000E-03 0.  1.
        -12    1    3    3    0    0 -0.62341804597E+01  0.59853844193E+01  0.12154173940E+02  0.14913543402E+02  0.00000000000E+00 0.  1.
</event>
<event>
 7    1  0.5646756E-010  0.4778727E+02  0.7816164E-02  0.1312668E+00
        -11   -1    0    0    0    0  0.00000000000E+00  0.00000000000E+00  0.45593999997E+02  0.45594000000E+02  0.51100000000E-03 0.  1.
         11   -1    0    0    0    0 -0.00000000000E+00 -0.00000000000E+00 -0.45593999997E+02  0.45594000000E+02  0.51100000000E-03 0. -1.
    9900012    2    1    2    0    0  0.26287491785E+02 -0.66172108807E+01  0.33894011887E+02  0.47787265606E+02  0.19999975203E+02 0.  0.
         12    1    1    2    0    0 -0.26287491785E+02  0.66172108807E+01 -0.33894011887E+02  0.43400734394E+02  0.00000000000E+00 0. -1.
         11    1    3    3    0    0  0.17710753759E+02 -0.42687704314E+01  0.11072450600E+02  0.21318826474E+02  0.51100000000E-03 0. -1.
        -11    1    3    3    0    0  0.46598326503E+01 -0.65103822050E+00  0.21486556767E+02  0.21995681692E+02  0.51100000000E-03 0.  1.
         12    1    3    3    0    0  0.39169053756E+01 -0.16974022288E+01  0.13350045196E+01  0.44727574398E+01  0.00000000000E+00 0. -1.
</event>
<event>
 7    1  0.5646756E-010  0.4778727E+02  0.7816164E-02  0.1312668E+00
        -11   -1    0    0    0    0  0.00000000000E+00  0.00000000000E+00  0.45593999997E+02  0.45594000000E+02  0.51100000000E-03 0.  1.
         11   -1    0    0    0    0 -0.00000000000E+00 -0.00000000000E+00 -0.45593999997E+02  0.45594000000E+02  0.51100000000E-03 0. -1.
    9900012    2    1    2    0    0 -0.44892312923E+01  0.31601188550E+02  0.29408072352E+02  0.47787273799E+02  0.20000012557E+02 0.  0.
         12    1    1    2    0    0  0.44892312923E+01 -0.31601188550E+02 -0.29408072352E+02  0.43400726201E+02  0.00000000000E+00 0. -1.
         11    1    3    3    0    0  0.51746178889E+01  0.57309030348E+01  0.42178341852E+01  0.87982978676E+01  0.51100000000E-03 0. -1.
        -11    1    3    3    0    0 -0.59255522035E+01  0.11634115353E+02  0.18926065968E+02  0.22992624519E+02  0.51100000000E-03 0.  1.
        -12    1    3    3    0    0 -0.37382969777E+01  0.14236170162E+02  0.62641721985E+01  0.15996351412E+02  0.00000000000E+00 0.  1.
</event>
<event>
 7    1  0.5646756E-010  0.4778727E+02  0.7816164E-02  0.1312668E+00
        -11   -1    0    0    0    0  0.00000000000E+00  0.00000000000E+00  0.45593999997E+02  0.45594000000E+02  0.51100000000E-03 0.  1.
         11   -1    0    0    0    0 -0.00000000000E+00 -0.00000000000E+00 -0.45593999997E+02  0.45594000000E+02  0.51100000000E-03 0. -1.
    9900012    2    1    2    0    0  0.29390182150E+02  0.31072331572E+02  0.73723253029E+01  0.47787265253E+02  0.19999973597E+02 0.  0.
         12    1    1    2    0    0 -0.29390182150E+02 -0.31072331572E+02 -0.73723253029E+01  0.43400734747E+02  0.00000000000E+00 0. -1.
         11    1    3    3    0    0 -0.28169993949E+00  0.30001879290E+00 -0.94400938429E+00  0.10298155712E+01  0.51100000000E-03 0. -1.
        -11    1    3    3    0    0  0.14528795096E+02  0.95505536328E+01 -0.41265138893E+01  0.17869725202E+02  0.51100000000E-03 0.  1.
        -12    1    3    3    0    0  0.15143086993E+02  0.21221759146E+02  0.12442848577E+02  0.28887724481E+02  0.00000000000E+00 0.  1.
</event>
<event>
 7    1  0.5646756E-010  0.4778727E+02  0.7816164E-02  0.1312668E+00
        -11   -1    0    0    0    0  0.00000000000E+00  0.00000000000E+00  0.45593999997E+02  0.45594000000E+02  0.51100000000E-03 0.  1.
         11   -1    0    0    0    0 -0.00000000000E+00 -0.00000000000E+00 -0.45593999997E+02  0.45594000000E+02  0.51100000000E-03 0. -1.
    9900012    2    1    2    0    0 -0.90547702246E+01  0.32567182598E+02  0.27221555288E+02  0.47787270530E+02  0.19999997655E+02 0.  0.
         12    1    1    2    0    0  0.90547702246E+01 -0.32567182598E+02 -0.27221555288E+02  0.43400729470E+02  0.00000000000E+00 0. -1.
         11    1    3    3    0    0  0.36690634248E+01  0.39245860916E+01  0.41437199294E+01  0.67848962793E+01  0.51100000000E-03 0. -1.
        -11    1    3    3    0    0 -0.93959447613E+01  0.27514618618E+02  0.16210861483E+02  0.33288587323E+02  0.51100000000E-03 0.  1.
        -12    1    3    3    0    0 -0.33278888881E+01  0.11279778889E+01  0.68669738752E+01  0.77137869282E+01  0.00000000000E+00 0.  1.
</event>
<event>
 7    1  0.5646756E-010  0.4778727E+02  0.7816164E-02  0.1312668E+00
        -11   -1    0    0    0    0  0.00000000000E+00  0.00000000000E+00  0.45593999997E+02  0.45594000000E+02  0.51100000000E-03 0. -1.
         11   -1    0    0    0    0 -0.00000000000E+00 -0.00000000000E+00 -0.45593999997E+02  0.45594000000E+02  0.51100000000E-03 0.  1.
    9900012    2    1    2    0    0 -0.29877843990E+02  0.12037969742E+02  0.29086509678E+02  0.47787270487E+02  0.19999997459E+02 0.  0.
         12    1    1    2    0    0  0.29877843990E+02 -0.12037969742E+02 -0.29086509678E+02  0.43400729513E+02  0.00000000000E+00 0. -1.
         11    1    3    3    0    0 -0.12958178695E+02  0.48254913397E+01  0.62699232465E+01  0.15182611749E+02  0.51100000000E-03 0.  1.
        -11    1    3    3    0    0 -0.21356361471E+01  0.16328342484E+01  0.14501443902E+02  0.14748524161E+02  0.51100000000E-03 0. -1.
         12    1    3    3    0    0 -0.14784029148E+02  0.55796441535E+01  0.83151425301E+01  0.17856134577E+02  0.00000000000E+00 0. -1.
</event>
<event>
 7    1  0.5646756E-010  0.4778727E+02  0.7816164E-02  0.1312668E+00
        -11   -1    0    0    0    0  0.00000000000E+00  0.00000000000E+00  0.45593999997E+02  0.45594000000E+02  0.51100000000E-03 0.  1.
         11   -1    0    0    0    0 -0.00000000000E+00 -0.00000000000E+00 -0.45593999997E+02  0.45594000000E+02  0.51100000000E-03 0. -1.
    9900012    2    1    2    0    0 -0.14232599986E+02  0.15194687123E+02  0.38081202254E+02  0.47787269773E+02  0.19999994203E+02 0.  0.
         12    1    1    2    0    0  0.14232599986E+02 -0.15194687123E+02 -0.38081202254E+02  0.43400730227E+02  0.00000000000E+00 0. -1.
         11    1    3    3    0    0  0.90314742285E+00  0.27103123445E+01  0.15029066414E+02  0.15298179820E+02  0.51100000000E-03 0. -1.
        -11    1    3    3    0    0 -0.14909733410E+02  0.57291996651E+01  0.14362805458E+02  0.21480550739E+02  0.51100000000E-03 0.  1.
        -12    1    3    3    0    0 -0.22601399903E+00  0.67551751132E+01  0.86893303821E+01  0.11008539214E+02  0.00000000000E+00 0.  1.
</event>
<event>
 7    1  0.5646756E-010  0.4778727E+02  0.7816164E-02  0.1312668E+00
        -11   -1    0    0    0    0  0.00000000000E+00  0.00000000000E+00  0.45593999997E+02  0.45594000000E+02  0.51100000000E-03 0.  1.
         11   -1    0    0    0    0 -0.00000000000E+00 -0.00000000000E+00 -0.45593999997E+02  0.45594000000E+02  0.51100000000E-03 0. -1.
    9900012    2    1    2    0    0  0.32293246471E+02 -0.17302129393E+02  0.23268125559E+02  0.47787272860E+02  0.20000008279E+02 0.  0.
         12    1    1    2    0    0 -0.32293246471E+02  0.17302129393E+02 -0.23268125559E+02  0.43400727140E+02  0.00000000000E+00 0. -1.
         11    1    3    3    0    0  0.14071111269E+02 -0.12059004807E+02  0.20948066425E+01  0.18649503597E+02  0.51100000000E-03 0. -1.
        -11    1    3    3    0    0  0.15757021429E+02 -0.38357345092E+01  0.14003512251E+02  0.21426500861E+02  0.51100000000E-03 0.  1.
         12    1    3    3    0    0  0.24651137736E+01 -0.14073900775E+01  0.71698066660E+01  0.77112684025E+01  0.00000000000E+00 0. -1.
</event>
<event>
 7    1  0.5646756E-010  0.4778726E+02  0.7816164E-02  0.1312668E+00
        -11   -1    0    0    0    0  0.00000000000E+00  0.00000000000E+00  0.45593999997E+02  0.45594000000E+02  0.51100000000E-03 0.  1.
         11   -1    0    0    0    0 -0.00000000000E+00 -0.00000000000E+00 -0.45593999997E+02  0.45594000000E+02  0.51100000000E-03 0. -1.
    9900012    2    1    2    0    0 -0.20568785251E+01  0.39317374789E+02 -0.18262999956E+02  0.47787264097E+02  0.19999968323E+02 0.  0.
         12    1    1    2    0    0  0.20568785251E+01 -0.39317374789E+02  0.18262999956E+02  0.43400735903E+02  0.00000000000E+00 0. -1.
         11    1    3    3    0    0 -0.70732981578E+01  0.21172783488E+02 -0.93450778066E+01  0.24200181547E+02  0.51100000000E-03 0. -1.
        -11    1    3    3    0    0  0.76348514079E+01  0.14322008523E+02 -0.37718574266E+01  0.16662466590E+02  0.51100000000E-03 0.  1.
        -12    1    3    3    0    0 -0.26184317751E+01  0.38225827784E+01 -0.51460647231E+01  0.69246159599E+01  0.00000000000E+00 0.  1.
</event>
<event>
 7    1  0.5646756E-010  0.4778727E+02  0.7816164E-02  0.1312668E+00
        -11   -1    0    0    0    0  0.00000000000E+00  0.00000000000E+00  0.45593999997E+02  0.45594000000E+02  0.51100000000E-03 0.  1.
         11   -1    0    0    0    0 -0.00000000000E+00 -0.00000000000E+00 -0.45593999997E+02  0.45594000000E+02  0.51100000000E-03 0. -1.
    9900012    2    1    2    0    0  0.15997674034E+02 -0.11961168184E+01  0.40327001296E+02  0.47787270703E+02  0.19999998445E+02 0.  0.
         12    1    1    2    0    0 -0.15997674034E+02  0.11961168184E+01 -0.40327001296E+02  0.43400729297E+02  0.00000000000E+00 0. -1.
         11    1    3    3    0    0  0.48190248680E+01 -0.84766551160E+01  0.16594165311E+02  0.19246895990E+02  0.51100000000E-03 0. -1.
        -11    1    3    3    0    0  0.15210938614E+01  0.46999751475E+01  0.12831650073E+02  0.13749717699E+02  0.51100000000E-03 0.  1.
         12    1    3    3    0    0  0.96575553052E+01  0.25805631501E+01  0.10901185912E+02  0.14790657015E+02  0.00000000000E+00 0. -1.
</event>
<event>
 7    1  0.5646756E-010  0.4778728E+02  0.7816164E-02  0.1312668E+00
        -11   -1    0    0    0    0  0.00000000000E+00  0.00000000000E+00  0.45593999997E+02  0.45594000000E+02  0.51100000000E-03 0. -1.
         11   -1    0    0    0    0 -0.00000000000E+00 -0.00000000000E+00 -0.45593999997E+02  0.45594000000E+02  0.51100000000E-03 0.  1.
    9900012    2    1    2    0    0 -0.22590006035E+02  0.36938347280E+02 -0.29786999168E+01  0.47787279664E+02  0.20000039300E+02 0.  0.
         12    1    1    2    0    0  0.22590006035E+02 -0.36938347280E+02  0.29786999168E+01  0.43400720336E+02  0.00000000000E+00 0. -1.
         11    1    3    3    0    0 -0.53180972706E+01  0.13265856004E+02  0.71458866777E+01  0.15979010944E+02  0.51100000000E-03 0. -1.
        -11    1    3    3    0    0 -0.56257391456E+01  0.11880645551E+02 -0.71696917996E+01  0.14973415122E+02  0.51100000000E-03 0.  1.
        -12    1    3    3    0    0 -0.11646169619E+02  0.11791845726E+02 -0.29548947948E+01  0.16834853598E+02  0.00000000000E+00 0.  1.
</event>
<event>
 7    1  0.5646756E-010  0.4778727E+02  0.7816164E-02  0.1312668E+00
        -11   -1    0    0    0    0  0.00000000000E+00  0.00000000000E+00  0.45593999997E+02  0.45594000000E+02  0.51100000000E-03 0.  1.
         11   -1    0    0    0    0 -0.00000000000E+00 -0.00000000000E+00 -0.45593999997E+02  0.45594000000E+02  0.51100000000E-03 0. -1.
    9900012    2    1    2    0    0 -0.12363005407E+01 -0.23271181041E+02  0.36613477693E+02  0.47787273568E+02  0.20000011504E+02 0.  0.
         12    1    1    2    0    0  0.12363005407E+01  0.23271181041E+02 -0.36613477693E+02  0.43400726432E+02  0.00000000000E+00 0. -1.
         11    1    3    3    0    0 -0.37159199398E-01 -0.38579463670E+00  0.11691786252E+02  0.11698208595E+02  0.51100000000E-03 0. -1.
        -11    1    3    3    0    0 -0.97306608761E-01 -0.23640586163E+02  0.19926896402E+02  0.30918731914E+02  0.51100000000E-03 0.  1.
        -12    1    3    3    0    0 -0.11018347325E+01  0.75519975868E+00  0.49947950390E+01  0.51703330584E+01  0.00000000000E+00 0.  1.
</event>
<event>
 7    1  0.5646756E-010  0.4778726E+02  0.7816164E-02  0.1312668E+00
        -11   -1    0    0    0    0  0.00000000000E+00  0.00000000000E+00  0.45593999997E+02  0.45594000000E+02  0.51100000000E-03 0. -1.
         11   -1    0    0    0    0 -0.00000000000E+00 -0.00000000000E+00 -0.45593999997E+02  0.45594000000E+02  0.51100000000E-03 0.  1.
    9900012    2    1    2    0    0  0.16288865449E+02 -0.31112534348E+02 -0.25501116885E+02  0.47787263906E+02  0.19999967453E+02 0.  0.
         12    1    1    2    0    0 -0.16288865449E+02  0.31112534348E+02  0.25501116885E+02  0.43400736094E+02  0.00000000000E+00 0. -1.
         11    1    3    3    0    0  0.44055223744E+01 -0.46504497253E+01 -0.21570914296E+01  0.67593160701E+01  0.51100000000E-03 0. -1.
        -11    1    3    3    0    0 -0.10485223342E+01 -0.92743597687E+01 -0.65796558429E-01  0.93336743919E+01  0.51100000000E-03 0.  1.
        -12    1    3    3    0    0  0.12931865408E+02 -0.17187724854E+02 -0.23278228897E+02  0.31694273444E+02  0.00000000000E+00 0.  1.
</event>
<event>
 7    1  0.5646756E-010  0.4778728E+02  0.7816164E-02  0.1312668E+00
        -11   -1    0    0    0    0  0.00000000000E+00  0.00000000000E+00  0.45593999997E+02  0.45594000000E+02  0.51100000000E-03 0.  1.
         11   -1    0    0    0    0 -0.00000000000E+00 -0.00000000000E+00 -0.45593999997E+02  0.45594000000E+02  0.51100000000E-03 0. -1.
    9900012    2    1    2    0    0 -0.17295519765E+02 -0.20721658578E+02  0.33986772702E+02  0.47787275849E+02  0.20000021904E+02 0.  0.
         12    1    1    2    0    0  0.17295519765E+02  0.20721658578E+02 -0.33986772702E+02  0.43400724151E+02  0.00000000000E+00 0. -1.
         11    1    3    3    0    0 -0.14692964442E+02 -0.82986446109E+01  0.20971999924E+02  0.26917939882E+02  0.51100000000E-03 0. -1.
        -11    1    3    3    0    0  0.87295344864E-01 -0.50161435934E+01 -0.68642606850E+00  0.50636447383E+01  0.51100000000E-03 0.  1.
         12    1    3    3    0    0 -0.26898506682E+01 -0.74068703734E+01  0.13701198847E+02  0.15805691228E+02  0.00000000000E+00 0. -1.
</event>
<event>
 7    1  0.5646756E-010  0.4778727E+02  0.7816164E-02  0.1312668E+00
        -11   -1    0    0    0    0  0.00000000000E+00  0.00000000000E+00  0.45593999997E+02  0.45594000000E+02  0.51100000000E-03 0. -1.
         11   -1    0    0    0    0 -0.00000000000E+00 -0.00000000000E+00 -0.45593999997E+02  0.45594000000E+02  0.51100000000E-03 0.  1.
    9900012    2    1    2    0    0 -0.36390971932E+02  0.15401842373E+01 -0.23599746500E+02  0.47787273733E+02  0.20000012256E+02 0.  0.
         12    1    1    2    0    0  0.36390971932E+02 -0.15401842373E+01  0.23599746500E+02  0.43400726267E+02  0.00000000000E+00 0. -1.
         11    1    3    3    0    0 -0.14052191877E+02 -0.62732226032E+01 -0.16330677402E+01  0.15475281222E+02  0.51100000000E-03 0. -1.
        -11    1    3    3    0    0 -0.14096743511E+02  0.45507632446E+01 -0.14368106531E+02  0.20636620587E+02  0.51100000000E-03 0.  1.
         12    1    3    3    0    0 -0.82420365440E+01  0.32626435959E+01 -0.75985722290E+01  0.11675371923E+02  0.00000000000E+00 0. -1.
</event>
<event>
 7    1  0.5646756E-010  0.4778727E+02  0.7816164E-02  0.1312668E+00
        -11   -1    0    0    0    0  0.00000000000E+00  0.00000000000E+00  0.45593999997E+02  0.45594000000E+02  0.51100000000E-03 0.  1.
         11   -1    0    0    0    0 -0.00000000000E+00 -0.00000000000E+00 -0.45593999997E+02  0.45594000000E+02  0.51100000000E-03 0. -1.
    9900012    2    1    2    0    0 -0.41827815921E+02  0.11118429152E+02  0.32307722972E+01  0.47787267965E+02  0.19999985959E+02 0.  0.
         12    1    1    2    0    0  0.41827815921E+02 -0.11118429152E+02 -0.32307722972E+01  0.43400732035E+02  0.00000000000E+00 0. -1.
         11    1    3    3    0    0 -0.94211327229E+01 -0.33814223829E+01 -0.29168336824E+01  0.10425913778E+02  0.51100000000E-03 0. -1.
        -11    1    3    3    0    0 -0.32369456092E+02  0.12317772748E+02  0.61679180362E+01  0.35178863346E+02  0.51100000000E-03 0.  1.
        -12    1    3    3    0    0 -0.37227106185E-01  0.21820787866E+01 -0.20312056607E-01  0.21824908403E+01  0.00000000000E+00 0.  1.
</event>
<event>
 7    1  0.5646756E-010  0.4778727E+02  0.7816164E-02  0.1312668E+00
        -11   -1    0    0    0    0  0.00000000000E+00  0.00000000000E+00  0.45593999997E+02  0.45594000000E+02  0.51100000000E-03 0.  1.
         11   -1    0    0    0    0 -0.00000000000E+00 -0.00000000000E+00 -0.45593999997E+02  0.45594000000E+02  0.51100000000E-03 0. -1.
    9900012    2    1    2    0    0 -0.10401369906E+02 -0.21458438147E+02  0.36262515472E+02  0.47787273140E+02  0.20000009553E+02 0.  0.
         12    1    1    2    0    0  0.10401369906E+02  0.21458438147E+02 -0.36262515472E+02  0.43400726860E+02  0.00000000000E+00 0. -1.
         11    1    3    3    0    0  0.34864668408E+01 -0.46765101396E+01  0.84404722049E+01  0.10259959523E+02  0.51100000000E-03 0. -1.
        -11    1    3    3    0    0 -0.11974451416E+02 -0.16942795359E+02  0.28701793682E+02  0.35415233475E+02  0.51100000000E-03 0.  1.
        -12    1    3    3    0    0 -0.19133853315E+01  0.16086735132E+00 -0.87975041458E+00  0.21120801414E+01  0.00000000000E+00 0.  1.
</event>
<event>
 7    1  0.5646756E-010  0.4778728E+02  0.7816164E-02  0.1312668E+00
        -11   -1    0    0    0    0  0.00000000000E+00  0.00000000000E+00  0.45593999997E+02  0.45594000000E+02  0.51100000000E-03 0. -1.
         11   -1    0    0    0    0 -0.00000000000E+00 -0.00000000000E+00 -0.45593999997E+02  0.45594000000E+02  0.51100000000E-03 0.  1.
    9900012    2    1    2    0    0 -0.18798783559E+02 -0.20947283063E+01 -0.39062011258E+02  0.47787275657E+02  0.20000021031E+02 0.  0.
         12    1    1    2    0    0  0.18798783559E+02  0.20947283063E+01  0.39062011258E+02  0.43400724343E+02  0.00000000000E+00 0. -1.
         11    1    3    3    0    0 -0.20197447074E+01 -0.68329180886E+01 -0.79052298640E+01  0.10642405637E+02  0.51100000000E-03 0.  1.
        -11    1    3    3    0    0 -0.10475499417E+02  0.65314517071E+01 -0.26082445667E+02  0.28856367091E+02  0.51100000000E-03 0. -1.
        -12    1    3    3    0    0 -0.63035394342E+01 -0.17932619249E+01 -0.50743357269E+01  0.82885029287E+01  0.00000000000E+00 0.  1.
</event>
<event>
 7    1  0.5646756E-010  0.4778727E+02  0.7816164E-02  0.1312668E+00
        -11   -1    0    0    0    0  0.00000000000E+00  0.00000000000E+00  0.45593999997E+02  0.45594000000E+02  0.51100000000E-03 0.  1.
         11   -1    0    0    0    0 -0.00000000000E+00 -0.00000000000E+00 -0.45593999997E+02  0.45594000000E+02  0.51100000000E-03 0. -1.
    9900012    2    1    2    0    0  0.23505324411E+02 -0.12791896169E+02 -0.34168558153E+02  0.47787271325E+02  0.20000001280E+02 0.  0.
         12    1    1    2    0    0 -0.23505324411E+02  0.12791896169E+02  0.34168558153E+02  0.43400728675E+02  0.00000000000E+00 0. -1.
         11    1    3    3    0    0  0.87219410852E+00 -0.51179577378E+01 -0.49054645556E+00  0.52148681723E+01  0.51100000000E-03 0. -1.
        -11    1    3    3    0    0  0.16773350494E+02 -0.83201825199E+01 -0.18639824031E+02  0.26419950116E+02  0.51100000000E-03 0.  1.
         12    1    3    3    0    0  0.58597798081E+01  0.64624408852E+00 -0.15038187666E+02  0.16152453037E+02  0.00000000000E+00 0. -1.
</event>
<event>
 7    1  0.5646756E-010  0.4778733E+02  0.7816164E-02  0.1312668E+00
        -11   -1    0    0    0    0  0.00000000000E+00  0.00000000000E+00  0.45593999997E+02  0.45594000000E+02  0.51100000000E-03 0. -1.
         11   -1    0    0    0    0 -0.00000000000E+00 -0.00000000000E+00 -0.45593999997E+02  0.45594000000E+02  0.51100000000E-03 0.  1.
    9900012    2    1    2    0    0 -0.33318788124E+02  0.27802552588E+02  0.70336489970E+00  0.47787328408E+02  0.20000261543E+02 0.  0.
         12    1    1    2    0    0  0.33318788124E+02 -0.27802552588E+02 -0.70336489970E+00  0.43400671592E+02  0.00000000000E+00 0. -1.
         11    1    3    3    0    0 -0.41142851516E+01  0.35160867352E+01  0.71494832040E+01  0.89669012810E+01  0.51100000000E-03 0. -1.
        -11    1    3    3    0    0 -0.28198917377E+01  0.44641549261E+01 -0.84419602840E+00  0.53472549792E+01  0.51100000000E-03 0.  1.
         12    1    3    3    0    0 -0.26384611235E+02  0.19822310926E+02 -0.56019222759E+01  0.33473172148E+02  0.00000000000E+00 0. -1.
</event>
<event>
 7    1 -0.5646756E-010  0.4778727E+02  0.7816164E-02  0.1312668E+00
        -11   -1    0    0    0    0  0.00000000000E+00  0.00000000000E+00  0.45593999997E+02  0.45594000000E+02  0.51100000000E-03 0.  1.
         11   -1    0    0    0    0 -0.00000000000E+00 -0.00000000000E+00 -0.45593999997E+02  0.45594000000E+02  0.51100000000E-03 0. -1.
    9900012    2    1    2    0    0  0.34158317516E+02 -0.17042886292E+02  0.20648793371E+02  0.47787270785E+02  0.19999998819E+02 0.  0.
         12    1    1    2    0    0 -0.34158317516E+02  0.17042886292E+02 -0.20648793371E+02  0.43400729215E+02  0.00000000000E+00 0. -1.
         11    1    3    3    0    0  0.18018870513E+01 -0.58180557196E+01 -0.11490447156E+01  0.61981346646E+01  0.51100000000E-03 0. -1.
        -11    1    3    3    0    0  0.13709228888E+02 -0.47064369160E+01  0.40905601174E+01  0.15060749898E+02  0.51100000000E-03 0.  1.
         12    1    3    3    0    0  0.18647201576E+02 -0.65183936568E+01  0.17707277970E+02  0.26528386222E+02  0.00000000000E+00 0. -1.
</event>
<event>
 7    1  0.5646756E-010  0.4778727E+02  0.7816164E-02  0.1312668E+00
        -11   -1    0    0    0    0  0.00000000000E+00  0.00000000000E+00  0.45593999997E+02  0.45594000000E+02  0.51100000000E-03 0.  1.
         11   -1    0    0    0    0 -0.00000000000E+00 -0.00000000000E+00 -0.45593999997E+02  0.45594000000E+02  0.51100000000E-03 0. -1.
    9900012    2    1    2    0    0 -0.64725015270E+01 -0.13277130490E+02  0.40809896421E+02  0.47787272863E+02  0.20000008293E+02 0.  0.
         12    1    1    2    0    0  0.64725015270E+01  0.13277130490E+02 -0.40809896421E+02  0.43400727137E+02  0.00000000000E+00 0. -1.
         11    1    3    3    0    0 -0.49349172651E+01 -0.16824084418E+01  0.49246339416E+01  0.71718844315E+01  0.51100000000E-03 0. -1.
        -11    1    3    3    0    0 -0.28527467776E+01 -0.31142925014E+01  0.29793312766E+02  0.30091169266E+02  0.51100000000E-03 0.  1.
        -12    1    3    3    0    0  0.13151625156E+01 -0.84804295469E+01  0.60919497140E+01  0.10524219166E+02  0.00000000000E+00 0.  1.
</event>
<event>
 7    1  0.5646756E-010  0.4778727E+02  0.7816164E-02  0.1312668E+00
        -11   -1    0    0    0    0  0.00000000000E+00  0.00000000000E+00  0.45593999997E+02  0.45594000000E+02  0.51100000000E-03 0. -1.
         11   -1    0    0    0    0 -0.00000000000E+00 -0.00000000000E+00 -0.45593999997E+02  0.45594000000E+02  0.51100000000E-03 0.  1.
    9900012    2    1    2    0    0 -0.14137237500E+01 -0.24528410474E+01 -0.43308292206E+02  0.47787271690E+02  0.20000002942E+02 0.  0.
         12    1    1    2    0    0  0.14137237500E+01  0.24528410474E+01  0.43308292206E+02  0.43400728310E+02  0.00000000000E+00 0. -1.
         11    1    3    3    0    0  0.24667455462E+01 -0.65822233158E+00 -0.18286923219E+01  0.31404149562E+01  0.51100000000E-03 0. -1.
        -11    1    3    3    0    0  0.34179138005E+01 -0.38644387425E+01 -0.43441524771E+01  0.67444556895E+01  0.51100000000E-03 0.  1.
        -12    1    3    3    0    0 -0.72983830967E+01  0.20698200267E+01 -0.37135447407E+02  0.37902401044E+02  0.00000000000E+00 0.  1.
</event>
<event>
 7    1  0.5646756E-010  0.4778728E+02  0.7816164E-02  0.1312668E+00
        -11   -1    0    0    0    0  0.00000000000E+00  0.00000000000E+00  0.45593999997E+02  0.45594000000E+02  0.51100000000E-03 0.  1.
         11   -1    0    0    0    0 -0.00000000000E+00 -0.00000000000E+00 -0.45593999997E+02  0.45594000000E+02  0.51100000000E-03 0. -1.
    9900012    2    1    2    0    0  0.37153417460E+01  0.20523313640E+01  0.43192672783E+02  0.47787276383E+02  0.20000024340E+02 0.  0.
         12    1    1    2    0    0 -0.37153417460E+01 -0.20523313640E+01 -0.43192672783E+02  0.43400723617E+02  0.00000000000E+00 0. -1.
         11    1    3    3    0    0 -0.85496453773E+00 -0.26528183907E+01  0.16052865476E+02  0.16293032254E+02  0.51100000000E-03 0. -1.
        -11    1    3    3    0    0  0.30019161082E+01 -0.15858816928E+01 -0.19535194941E+00  0.34006887111E+01  0.51100000000E-03 0.  1.
        -12    1    3    3    0    0  0.15683901755E+01  0.62910314476E+01  0.27335159256E+02  0.28093555417E+02  0.00000000000E+00 0.  1.
</event>
<event>
 7    1  0.5646756E-010  0.4778727E+02  0.7816164E-02  0.1312668E+00
        -11   -1    0    0    0    0  0.00000000000E+00  0.00000000000E+00  0.45593999997E+02  0.45594000000E+02  0.51100000000E-03 0.  1.
         11   -1    0    0    0    0 -0.00000000000E+00 -0.00000000000E+00 -0.45593999997E+02  0.45594000000E+02  0.51100000000E-03 0. -1.
    9900012    2    1    2    0    0  0.34650698143E+02  0.32291889316E+01  0.25933087283E+02  0.47787267760E+02  0.19999985024E+02 0.  0.
         12    1    1    2    0    0 -0.34650698143E+02 -0.32291889316E+01 -0.25933087283E+02  0.43400732240E+02  0.00000000000E+00 0. -1.
         11    1    3    3    0    0  0.23737156202E+02  0.20198077548E+01  0.15567562349E+02  0.28458411861E+02  0.51100000000E-03 0. -1.
        -11    1    3    3    0    0  0.18056254125E+01  0.34565902420E+01  0.90519685484E+01  0.98562890630E+01  0.51100000000E-03 0.  1.
         12    1    3    3    0    0  0.91079165288E+01 -0.22472090653E+01  0.13135563862E+01  0.94725668358E+01  0.00000000000E+00 0. -1.
</event>
<event>
 7    1  0.5646756E-010  0.4778728E+02  0.7816164E-02  0.1312668E+00
        -11   -1    0    0    0    0  0.00000000000E+00  0.00000000000E+00  0.45593999997E+02  0.45594000000E+02  0.51100000000E-03 0.  1.
         11   -1    0    0    0    0 -0.00000000000E+00 -0.00000000000E+00 -0.45593999997E+02  0.45594000000E+02  0.51100000000E-03 0. -1.
    9900012    2    1    2    0    0  0.15737577201E+02 -0.40443787704E+02  0.50140196743E+00  0.47787277610E+02  0.20000029936E+02 0.  0.
         12    1    1    2    0    0 -0.15737577201E+02  0.40443787704E+02 -0.50140196743E+00  0.43400722390E+02  0.00000000000E+00 0. -1.
         11    1    3    3    0    0  0.25875157812E+00 -0.48678615705E+01  0.52544186995E+01  0.71674224642E+01  0.51100000000E-03 0. -1.
        -11    1    3    3    0    0  0.79062526264E+01 -0.29506725041E+02 -0.24496436067E+01  0.30645658866E+02  0.51100000000E-03 0.  1.
        -12    1    3    3    0    0  0.75725729960E+01 -0.60692010925E+01 -0.23033731254E+01  0.99741962802E+01  0.00000000000E+00 0.  1.
</event>
<event>
 7    1  0.5646756E-010  0.4778729E+02  0.7816164E-02  0.1312668E+00
        -11   -1    0    0    0    0  0.00000000000E+00  0.00000000000E+00  0.45593999997E+02  0.45594000000E+02  0.51100000000E-03 0.  1.
         11   -1    0    0    0    0 -0.00000000000E+00 -0.00000000000E+00 -0.45593999997E+02  0.45594000000E+02  0.51100000000E-03 0. -1.
    9900012    2    1    2    0    0  0.23285007113E+02 -0.12597906001E+02  0.34390739160E+02  0.47787288810E+02  0.20000080999E+02 0.  0.
         12    1    1    2    0    0 -0.23285007113E+02  0.12597906001E+02 -0.34390739160E+02  0.43400711190E+02  0.00000000000E+00 0. -1.
         11    1    3    3    0    0  0.11232757901E+02 -0.18977542411E+01  0.22277275502E+02  0.25021057638E+02  0.51100000000E-03 0. -1.
        -11    1    3    3    0    0  0.12553278379E+02 -0.52304732561E+01  0.10003527034E+02  0.16882334019E+02  0.51100000000E-03 0.  1.
         12    1    3    3    0    0 -0.50102916685E+00 -0.54696785037E+01  0.21099366230E+01  0.58838971535E+01  0.00000000000E+00 0. -1.
</event>
<event>
 7    1  0.5646756E-010  0.4778726E+02  0.7816164E-02  0.1312668E+00
        -11   -1    0    0    0    0  0.00000000000E+00  0.00000000000E+00  0.45593999997E+02  0.45594000000E+02  0.51100000000E-03 0.  1.
         11   -1    0    0    0    0 -0.00000000000E+00 -0.00000000000E+00 -0.45593999997E+02  0.45594000000E+02  0.51100000000E-03 0. -1.
    9900012    2    1    2    0    0  0.27705722465E+02 -0.20628124649E+02  0.26277323951E+02  0.47787258786E+02  0.19999944110E+02 0.  0.
         12    1    1    2    0    0 -0.27705722465E+02  0.20628124649E+02 -0.26277323951E+02  0.43400741214E+02  0.00000000000E+00 0. -1.
         11    1    3    3    0    0  0.82245480241E+01  0.12074437081E+01  0.11815187333E+01  0.83962549561E+01  0.51100000000E-03 0. -1.
        -11    1    3    3    0    0  0.10090612450E+02 -0.14710073235E+02  0.10764718330E+02  0.20834727624E+02  0.51100000000E-03 0.  1.
         12    1    3    3    0    0  0.93905619917E+01 -0.71254951230E+01  0.14331086888E+02  0.18556276207E+02  0.00000000000E+00 0. -1.
</event>
<event>
 7    1  0.5646756E-010  0.4778727E+02  0.7816164E-02  0.1312668E+00
        -11   -1    0    0    0    0  0.00000000000E+00  0.00000000000E+00  0.45593999997E+02  0.45594000000E+02  0.51100000000E-03 0. -1.
         11   -1    0    0    0    0 -0.00000000000E+00 -0.00000000000E+00 -0.45593999997E+02  0.45594000000E+02  0.51100000000E-03 0.  1.
    9900012    2    1    2    0    0  0.43368725388E+02  0.92614482264E+00 -0.13854018652E+01  0.47787269311E+02  0.19999992096E+02 0.  0.
         12    1    1    2    0    0 -0.43368725388E+02 -0.92614482264E+00  0.13854018652E+01  0.43400730689E+02  0.00000000000E+00 0. -1.
         11    1    3    3    0    0  0.23961898902E+02  0.58887100858E+01  0.42640284388E+01  0.25040595924E+02  0.51100000000E-03 0. -1.
        -11    1    3    3    0    0  0.19707261834E+02 -0.47026137223E+01 -0.34997842060E+01  0.20560623399E+02  0.51100000000E-03 0.  1.
         12    1    3    3    0    0 -0.30043534736E+00 -0.25995154082E+00 -0.21496460979E+01  0.21860499875E+01  0.00000000000E+00 0. -1.
</event>
<event>
 7    1  0.5646756E-010  0.4778727E+02  0.7816164E-02  0.1312668E+00
        -11   -1    0    0    0    0  0.00000000000E+00  0.00000000000E+00  0.45593999997E+02  0.45594000000E+02  0.51100000000E-03 0.  1.
         11   -1    0    0    0    0 -0.00000000000E+00 -0.00000000000E+00 -0.45593999997E+02  0.45594000000E+02  0.51100000000E-03 0. -1.
    9900012    2    1    2    0    0 -0.39036979342E+02  0.18924884922E+02 -0.12593673782E+01  0.47787273835E+02  0.20000012723E+02 0.  0.
         12    1    1    2    0    0  0.39036979342E+02 -0.18924884922E+02  0.12593673782E+01  0.43400726165E+02  0.00000000000E+00 0. -1.
         11    1    3    3    0    0 -0.29443230120E+02  0.15517686438E+02 -0.28618724981E+01  0.33404980269E+02  0.51100000000E-03 0. -1.
        -11    1    3    3    0    0 -0.84765472943E+01  0.67064309077E+01  0.12763116189E+01  0.10883797185E+02  0.51100000000E-03 0.  1.
         12    1    3    3    0    0 -0.11172019277E+01 -0.32992324235E+01  0.32619350094E+00  0.34984963815E+01  0.00000000000E+00 0. -1.
</event>
<event>
 7    1  0.5646756E-010  0.4778728E+02  0.7816164E-02  0.1312668E+00
        -11   -1    0    0    0    0  0.00000000000E+00  0.00000000000E+00  0.45593999997E+02  0.45594000000E+02  0.51100000000E-03 0. -1.
         11   -1    0    0    0    0 -0.00000000000E+00 -0.00000000000E+00 -0.45593999997E+02  0.45594000000E+02  0.51100000000E-03 0.  1.
    9900012    2    1    2    0    0  0.18745825110E+02  0.30721442278E+02 -0.24257162084E+02  0.47787275501E+02  0.20000020319E+02 0.  0.
         12    1    1    2    0    0 -0.18745825110E+02 -0.30721442278E+02  0.24257162084E+02  0.43400724499E+02  0.00000000000E+00 0. -1.
         11    1    3    3    0    0  0.15057918979E+01 -0.25479291007E+01 -0.95145268486E+00  0.31087962967E+01  0.51100000000E-03 0. -1.
        -11    1    3    3    0    0  0.13613929976E+02  0.30672600364E+02 -0.19479044914E+02  0.38801813019E+02  0.51100000000E-03 0.  1.
        -12    1    3    3    0    0  0.36261032359E+01  0.25967710140E+01 -0.38266644851E+01  0.58766661857E+01  0.00000000000E+00 0.  1.
</event>
<event>
 7    1  0.5646756E-010  0.4778727E+02  0.7816164E-02  0.1312668E+00
        -11   -1    0    0    0    0  0.00000000000E+00  0.00000000000E+00  0.45593999997E+02  0.45594000000E+02  0.51100000000E-03 0. -1.
         11   -1    0    0    0    0 -0.00000000000E+00 -0.00000000000E+00 -0.45593999997E+02  0.45594000000E+02  0.51100000000E-03 0.  1.
    9900012    2    1    2    0    0 -0.37165237320E+02  0.20569309560E+02 -0.89035019423E+01  0.47787266047E+02  0.19999977212E+02 0.  0.
         12    1    1    2    0    0  0.37165237320E+02 -0.20569309560E+02  0.89035019423E+01  0.43400733953E+02  0.00000000000E+00 0. -1.
         11    1    3    3    0    0 -0.70826576489E+01  0.27232677976E+01 -0.67000038619E+01  0.10122760438E+02  0.51100000000E-03 0. -1.
        -11    1    3    3    0    0 -0.31470912813E+02  0.16377250509E+02 -0.27110791229E+01  0.35580649766E+02  0.51100000000E-03 0.  1.
        -12    1    3    3    0    0  0.13883331414E+01  0.14687912533E+01  0.50758104258E+00  0.20838558425E+01  0.00000000000E+00 0.  1.
</event>
<event>
 7    1  0.5646756E-010  0.4778727E+02  0.7816164E-02  0.1312668E+00
        -11   -1    0    0    0    0  0.00000000000E+00  0.00000000000E+00  0.45593999997E+02  0.45594000000E+02  0.51100000000E-03 0.  1.
         11   -1    0    0    0    0 -0.00000000000E+00 -0.00000000000E+00 -0.45593999997E+02  0.45594000000E+02  0.51100000000E-03 0. -1.
    9900012    2    1    2    0    0  0.16510469553E+02  0.68357801649E+01  0.39551229034E+02  0.47787271741E+02  0.20000003177E+02 0.  0.
         12    1    1    2    0    0 -0.16510469553E+02 -0.68357801649E+01 -0.39551229034E+02  0.43400728259E+02  0.00000000000E+00 0. -1.
         11    1    3    3    0    0 -0.22329447455E+01 -0.19287383763E+01  0.16461060617E+01  0.33787186015E+01  0.51100000000E-03 0.  1.
        -11    1    3    3    0    0 -0.22563964407E+00 -0.39053461736E+00  0.69647018819E+01  0.69792910171E+01  0.51100000000E-03 0. -1.
         12    1    3    3    0    0  0.18969053943E+02  0.91550531585E+01  0.30940421090E+02  0.37429262123E+02  0.00000000000E+00 0. -1.
</event>
<event>
 7    1  0.5646756E-010  0.4778727E+02  0.7816164E-02  0.1312668E+00
        -11   -1    0    0    0    0  0.00000000000E+00  0.00000000000E+00  0.45593999997E+02  0.45594000000E+02  0.51100000000E-03 0. -1.
         11   -1    0    0    0    0 -0.00000000000E+00 -0.00000000000E+00 -0.45593999997E+02  0.45594000000E+02  0.51100000000E-03 0.  1.
    9900012    2    1    2    0    0 -0.13368979327E+02  0.95177794252E+01 -0.40178420791E+02  0.47787271542E+02  0.20000002270E+02 0.  0.
         12    1    1    2    0    0  0.13368979327E+02 -0.95177794252E+01  0.40178420791E+02  0.43400728458E+02  0.00000000000E+00 0. -1.
         11    1    3    3    0    0 -0.12096757516E+02 -0.18689771292E+01 -0.13472100684E+02  0.18202255768E+02  0.51100000000E-03 0. -1.
        -11    1    3    3    0    0 -0.16467227428E-01  0.10235865191E+02 -0.25555847077E+02  0.27529521018E+02  0.51100000000E-03 0.  1.
        -12    1    3    3    0    0 -0.12557545834E+01  0.11508913636E+01 -0.11504730292E+01  0.20554947568E+01  0.00000000000E+00 0.  1.
</event>
<event>
 7    1  0.5646756E-010  0.4778728E+02  0.7816164E-02  0.1312668E+00
        -11   -1    0    0    0    0  0.00000000000E+00  0.00000000000E+00  0.45593999997E+02  0.45594000000E+02  0.51100000000E-03 0.  1.
         11   -1    0    0    0    0 -0.00000000000E+00 -0.00000000000E+00 -0.45593999997E+02  0.45594000000E+02  0.51100000000E-03 0. -1.
    9900012    2    1    2    0    0 -0.16951303683E+02 -0.38575768648E+02 -0.10401263268E+02  0.47787275342E+02  0.20000019592E+02 0.  0.
         12    1    1    2    0    0  0.16951303683E+02  0.38575768648E+02  0.10401263268E+02  0.43400724658E+02  0.00000000000E+00 0. -1.
         11    1    3    3    0    0 -0.89795500697E+01 -0.64905864594E+01  0.24574633244E+01  0.11348971684E+02  0.51100000000E-03 0. -1.
        -11    1    3    3    0    0 -0.64299221628E+01 -0.17697588888E+02 -0.11110714999E+02  0.21863131969E+02  0.51100000000E-03 0.  1.
         12    1    3    3    0    0 -0.15418314509E+01 -0.14387593300E+02 -0.17480115932E+01  0.14575171688E+02  0.00000000000E+00 0. -1.
</event>
<event>
 7    1  0.5646756E-010  0.4778727E+02  0.7816164E-02  0.1312668E+00
        -11   -1    0    0    0    0  0.00000000000E+00  0.00000000000E+00  0.45593999997E+02  0.45594000000E+02  0.51100000000E-03 0. -1.
         11   -1    0    0    0    0 -0.00000000000E+00 -0.00000000000E+00 -0.45593999997E+02  0.45594000000E+02  0.51100000000E-03 0.  1.
    9900012    2    1    2    0    0 -0.39473415156E+02 -0.14080101669E+02 -0.11279336172E+02  0.47787271993E+02  0.20000004323E+02 0.  0.
         12    1    1    2    0    0  0.39473415156E+02  0.14080101669E+02  0.11279336172E+02  0.43400728007E+02  0.00000000000E+00 0. -1.
         11    1    3    3    0    0 -0.23805205417E+02 -0.60216957947E+01 -0.90995576940E+01  0.26186839742E+02  0.51100000000E-03 0. -1.
        -11    1    3    3    0    0 -0.16692309512E+02 -0.46591221213E+01 -0.37289117634E+01  0.17726968127E+02  0.51100000000E-03 0.  1.
         12    1    3    3    0    0  0.10240997726E+01 -0.33992837533E+01  0.15491332856E+01  0.38734641236E+01  0.00000000000E+00 0. -1.
</event>
<event>
 7    1  0.5646756E-010  0.4778727E+02  0.7816164E-02  0.1312668E+00
        -11   -1    0    0    0    0  0.00000000000E+00  0.00000000000E+00  0.45593999997E+02  0.45594000000E+02  0.51100000000E-03 0.  1.
         11   -1    0    0    0    0 -0.00000000000E+00 -0.00000000000E+00 -0.45593999997E+02  0.45594000000E+02  0.51100000000E-03 0. -1.
    9900012    2    1    2    0    0  0.17114803596E+02 -0.28458512306E+02  0.27943150883E+02  0.47787272977E+02  0.20000008813E+02 0.  0.
         12    1    1    2    0    0 -0.17114803596E+02  0.28458512306E+02 -0.27943150883E+02  0.43400727023E+02  0.00000000000E+00 0. -1.
         11    1    3    3    0    0  0.12063129332E+02 -0.10498001643E+02  0.11549977268E+02  0.19726355541E+02  0.51100000000E-03 0.  1.
        -11    1    3    3    0    0 -0.35088825121E+01 -0.32479477957E+01  0.56056790936E+00  0.48141103030E+01  0.51100000000E-03 0. -1.
        -12    1    3    3    0    0  0.85605567754E+01 -0.14712562868E+02  0.15832605706E+02  0.23246807133E+02  0.00000000000E+00 0.  1.
</event>
<event>
 7    1  0.6744232E-010  0.4778727E+02  0.7816164E-02  0.1312668E+00
        -11   -1    0    0    0    0  0.00000000000E+00  0.00000000000E+00  0.45593999997E+02  0.45594000000E+02  0.51100000000E-03 0. -1.
         11   -1    0    0    0    0 -0.00000000000E+00 -0.00000000000E+00 -0.45593999997E+02  0.45594000000E+02  0.51100000000E-03 0.  1.
    9900012    2    1    2    0    0  0.20926928410E+02  0.29505125119E+02 -0.23981961723E+02  0.47787271561E+02  0.20000002354E+02 0.  0.
         12    1    1    2    0    0 -0.20926928410E+02 -0.29505125119E+02  0.23981961723E+02  0.43400728439E+02  0.00000000000E+00 0. -1.
         11    1    3    3    0    0 -0.11694801090E+01  0.55442329250E+01 -0.34369396250E+00  0.56766476245E+01  0.51100000000E-03 0. -1.
        -11    1    3    3    0    0  0.19864306799E+02  0.13226592666E+02 -0.15506496669E+02  0.28460233263E+02  0.51100000000E-03 0.  1.
        -12    1    3    3    0    0  0.22321017200E+01  0.10734299529E+02 -0.81317710910E+01  0.13650390673E+02  0.00000000000E+00 0.  1.
</event>
<event>
 7    1  0.5646756E-010  0.4778727E+02  0.7816164E-02  0.1312668E+00
        -11   -1    0    0    0    0  0.00000000000E+00  0.00000000000E+00  0.45593999997E+02  0.45594000000E+02  0.51100000000E-03 0.  1.
         11   -1    0    0    0    0 -0.00000000000E+00 -0.00000000000E+00 -0.45593999997E+02  0.45594000000E+02  0.51100000000E-03 0. -1.
    9900012    2    1    2    0    0 -0.15808873218E+01 -0.63252158918E+01  0.42908225409E+02  0.47787269954E+02  0.19999995026E+02 0.  0.
         12    1    1    2    0    0  0.15808873218E+01  0.63252158918E+01 -0.42908225409E+02  0.43400730046E+02  0.00000000000E+00 0. -1.
         11    1    3    3    0    0  0.23499022142E+01  0.82773236905E+00 -0.50742733249E+00  0.25425703628E+01  0.51100000000E-03 0. -1.
        -11    1    3    3    0    0  0.18705776992E+01 -0.66501138044E+01  0.23063491294E+02  0.24075873929E+02  0.51100000000E-03 0.  1.
         12    1    3    3    0    0 -0.58013672352E+01 -0.50283445641E+00  0.20352161448E+02  0.21168825662E+02  0.00000000000E+00 0. -1.
</event>
<event>
 7    1  0.5646756E-010  0.4778727E+02  0.7816164E-02  0.1312668E+00
        -11   -1    0    0    0    0  0.00000000000E+00  0.00000000000E+00  0.45593999997E+02  0.45594000000E+02  0.51100000000E-03 0.  1.
         11   -1    0    0    0    0 -0.00000000000E+00 -0.00000000000E+00 -0.45593999997E+02  0.45594000000E+02  0.51100000000E-03 0. -1.
    9900012    2    1    2    0    0 -0.43243227479E+02  0.32067088976E+01  0.18339506021E+01  0.47787273283E+02  0.20000010206E+02 0.  0.
         12    1    1    2    0    0  0.43243227479E+02 -0.32067088976E+01 -0.18339506021E+01  0.43400726717E+02  0.00000000000E+00 0. -1.
         11    1    3    3    0    0 -0.67758301562E+01 -0.59477052652E+01  0.18221164045E+01  0.91982161684E+01  0.51100000000E-03 0. -1.
        -11    1    3    3    0    0 -0.32200483306E+02  0.77790958883E+01  0.29042582876E+01  0.33253874578E+02  0.51100000000E-03 0.  1.
        -12    1    3    3    0    0 -0.42669140166E+01  0.13753182744E+01 -0.28924240900E+01  0.53351825365E+01  0.00000000000E+00 0.  1.
</event>
<event>
 7    1  0.5646756E-010  0.4778727E+02  0.7816164E-02  0.1312668E+00
        -11   -1    0    0    0    0  0.00000000000E+00  0.00000000000E+00  0.45593999997E+02  0.45594000000E+02  0.51100000000E-03 0.  1.
         11   -1    0    0    0    0 -0.00000000000E+00 -0.00000000000E+00 -0.45593999997E+02  0.45594000000E+02  0.51100000000E-03 0. -1.
    9900012    2    1    2    0    0 -0.31061003121E+02 -0.19807412090E+02 -0.22945668732E+02  0.47787271871E+02  0.20000003767E+02 0.  0.
         12    1    1    2    0    0  0.31061003121E+02  0.19807412090E+02  0.22945668732E+02  0.43400728129E+02  0.00000000000E+00 0. -1.
         11    1    3    3    0    0 -0.26404693106E+02 -0.11039507157E+02 -0.13932537196E+02  0.31830710474E+02  0.51100000000E-03 0.  1.
        -11    1    3    3    0    0 -0.70205796241E+00 -0.91645142045E+00 -0.67918731041E+01  0.68892894490E+01  0.51100000000E-03 0. -1.
        -12    1    3    3    0    0 -0.39542520530E+01 -0.78514535126E+01 -0.22212584319E+01  0.90672719480E+01  0.00000000000E+00 0.  1.
</event>
<event>
 7    1  0.5646756E-010  0.4778727E+02  0.7816164E-02  0.1312668E+00
        -11   -1    0    0    0    0  0.00000000000E+00  0.00000000000E+00  0.45593999997E+02  0.45594000000E+02  0.51100000000E-03 0. -1.
         11   -1    0    0    0    0 -0.00000000000E+00 -0.00000000000E+00 -0.45593999997E+02  0.45594000000E+02  0.51100000000E-03 0.  1.
    9900012    2    1    2    0    0  0.64164235746E+01  0.13088722714E+02 -0.40879559328E+02  0.47787268156E+02  0.19999986828E+02 0.  0.
         12    1    1    2    0    0 -0.64164235746E+01 -0.13088722714E+02  0.40879559328E+02  0.43400731844E+02  0.00000000000E+00 0. -1.
         11    1    3    3    0    0  0.50863037111E+01 -0.11917648365E-01 -0.20607271494E+02  0.21225698249E+02  0.51100000000E-03 0. -1.
        -11    1    3    3    0    0  0.63230691554E+00  0.66018964976E+01 -0.16624362504E+01  0.68372906877E+01  0.51100000000E-03 0.  1.
        -12    1    3    3    0    0  0.69781294798E+00  0.64987438649E+01 -0.18609851584E+02  0.19724279219E+02  0.00000000000E+00 0.  1.
</event>
<event>
 7    1  0.5646756E-010  0.4778727E+02  0.7816164E-02  0.1312668E+00
        -11   -1    0    0    0    0  0.00000000000E+00  0.00000000000E+00  0.45593999997E+02  0.45594000000E+02  0.51100000000E-03 0.  1.
         11   -1    0    0    0    0 -0.00000000000E+00 -0.00000000000E+00 -0.45593999997E+02  0.45594000000E+02  0.51100000000E-03 0. -1.
    9900012    2    1    2    0    0  0.83174054673E+01 -0.33907029528E+02  0.25782890209E+02  0.47787270598E+02  0.19999997966E+02 0.  0.
         12    1    1    2    0    0 -0.83174054673E+01  0.33907029528E+02 -0.25782890209E+02  0.43400729402E+02  0.00000000000E+00 0. -1.
         11    1    3    3    0    0  0.95693386804E+01 -0.26418642451E+02  0.16918273986E+02  0.32798550374E+02  0.51100000000E-03 0.  1.
        -11    1    3    3    0    0  0.31735762947E+01 -0.68550813369E+01  0.48259074883E+01  0.89639896241E+01  0.51100000000E-03 0. -1.
         12    1    3    3    0    0 -0.44255095078E+01 -0.63330573998E+00  0.40387087344E+01  0.60247306002E+01  0.00000000000E+00 0. -1.
</event>
<event>
 7    1  0.5646756E-010  0.4778727E+02  0.7816164E-02  0.1312668E+00
        -11   -1    0    0    0    0  0.00000000000E+00  0.00000000000E+00  0.45593999997E+02  0.45594000000E+02  0.51100000000E-03 0.  1.
         11   -1    0    0    0    0 -0.00000000000E+00 -0.00000000000E+00 -0.45593999997E+02  0.45594000000E+02  0.51100000000E-03 0. -1.
    9900012    2    1    2    0    0  0.13551051235E+02 -0.26846404045E+02  0.31293173667E+02  0.47787272842E+02  0.20000008195E+02 0.  0.
         12    1    1    2    0    0 -0.13551051235E+02  0.26846404045E+02 -0.31293173667E+02  0.43400727158E+02  0.00000000000E+00 0. -1.
         11    1    3    3    0    0 -0.15638179743E+01 -0.13909301485E+02  0.91945299314E+01  0.16746748203E+02  0.51100000000E-03 0. -1.
        -11    1    3    3    0    0  0.13437745811E+02 -0.14143148757E+02  0.18471035276E+02  0.26865978741E+02  0.51100000000E-03 0.  1.
         12    1    3    3    0    0  0.16771233983E+01  0.12060461975E+01  0.36276084589E+01  0.41745458980E+01  0.00000000000E+00 0. -1.
</event>
<event>
 7    1  0.5646756E-010  0.4778728E+02  0.7816164E-02  0.1312668E+00
        -11   -1    0    0    0    0  0.00000000000E+00  0.00000000000E+00  0.45593999997E+02  0.45594000000E+02  0.51100000000E-03 0.  1.
         11   -1    0    0    0    0 -0.00000000000E+00 -0.00000000000E+00 -0.45593999997E+02  0.45594000000E+02  0.51100000000E-03 0. -1.
    9900012    2    1    2    0    0 -0.36851695876E+02 -0.22231432874E+02  0.55981095321E+01  0.47787275042E+02  0.20000018226E+02 0.  0.
         12    1    1    2    0    0  0.36851695876E+02  0.22231432874E+02 -0.55981095321E+01  0.43400724958E+02  0.00000000000E+00 0. -1.
         11    1    3    3    0    0 -0.16969936746E+02 -0.12913330630E+02 -0.50144412541E+01  0.21906106055E+02  0.51100000000E-03 0.  1.
        -11    1    3    3    0    0 -0.12666691402E+02 -0.57736768080E+01  0.11134241220E+02  0.17825592354E+02  0.51100000000E-03 0. -1.
         12    1    3    3    0    0 -0.72150677276E+01 -0.35444254360E+01 -0.52169043375E+00  0.80555766332E+01  0.00000000000E+00 0. -1.
</event>
<event>
 7    1  0.5646756E-010  0.4778722E+02  0.7816164E-02  0.1312668E+00
        -11   -1    0    0    0    0  0.00000000000E+00  0.00000000000E+00  0.45593999997E+02  0.45594000000E+02  0.51100000000E-03 0.  1.
         11   -1    0    0    0    0 -0.00000000000E+00 -0.00000000000E+00 -0.45593999997E+02  0.45594000000E+02  0.51100000000E-03 0. -1.
    9900012    2    1    2    0    0  0.24301381640E+02 -0.30486258657E+02  0.19069824351E+02  0.47787224462E+02  0.19999787612E+02 0.  0.
         12    1    1    2    0    0 -0.24301381640E+02  0.30486258657E+02 -0.19069824351E+02  0.43400775538E+02  0.00000000000E+00 0. -1.
         11    1    3    3    0    0  0.10153541890E+02 -0.75376590577E+01  0.38280075868E+01  0.13212280626E+02  0.51100000000E-03 0. -1.
        -11    1    3    3    0    0  0.12059218725E+02 -0.19462156524E+02  0.48318182313E+01  0.23399717103E+02  0.51100000000E-03 0.  1.
        -12    1    3    3    0    0  0.20886210251E+01 -0.34864430754E+01  0.10409998533E+02  0.11175226734E+02  0.00000000000E+00 0.  1.
</event>
<event>
 7    1  0.5646756E-010  0.4778727E+02  0.7816164E-02  0.1312668E+00
        -11   -1    0    0    0    0  0.00000000000E+00  0.00000000000E+00  0.45593999997E+02  0.45594000000E+02  0.51100000000E-03 0.  1.
         11   -1    0    0    0    0 -0.00000000000E+00 -0.00000000000E+00 -0.45593999997E+02  0.45594000000E+02  0.51100000000E-03 0. -1.
    9900012    2    1    2    0    0 -0.17825155622E+02 -0.29310462617E+01  0.39462591824E+02  0.47787270068E+02  0.19999995549E+02 0.  0.
         12    1    1    2    0    0  0.17825155622E+02  0.29310462617E+01 -0.39462591824E+02  0.43400729932E+02  0.00000000000E+00 0. -1.
         11    1    3    3    0    0  0.78481946695E+00  0.46808308392E+01  0.59025075632E+01  0.75740157602E+01  0.51100000000E-03 0. -1.
        -11    1    3    3    0    0 -0.19103043669E+02 -0.64332020360E+01  0.33274950739E+02  0.38904173463E+02  0.51100000000E-03 0.  1.
         12    1    3    3    0    0  0.49306858054E+00 -0.11786750649E+01  0.28513352181E+00  0.13090808451E+01  0.00000000000E+00 0. -1.
</event>
<event>
 7    1  0.5646756E-010  0.4778727E+02  0.7816164E-02  0.1312668E+00
        -11   -1    0    0    0    0  0.00000000000E+00  0.00000000000E+00  0.45593999997E+02  0.45594000000E+02  0.51100000000E-03 0. -1.
         11   -1    0    0    0    0 -0.00000000000E+00 -0.00000000000E+00 -0.45593999997E+02  0.45594000000E+02  0.51100000000E-03 0.  1.
    9900012    2    1    2    0    0  0.14879459671E+02 -0.34702679084E+02 -0.21399741719E+02  0.47787271880E+02  0.20000003807E+02 0.  0.
         12    1    1    2    0    0 -0.14879459671E+02  0.34702679084E+02  0.21399741719E+02  0.43400728120E+02  0.00000000000E+00 0. -1.
         11    1    3    3    0    0  0.10608729298E+02 -0.18023517617E+02 -0.56189620888E+01  0.21655601119E+02  0.51100000000E-03 0. -1.
        -11    1    3    3    0    0 -0.65291616472E+00 -0.14105457800E+01 -0.82751921655E+01  0.84199016949E+01  0.51100000000E-03 0.  1.
        -12    1    3    3    0    0  0.49236465381E+01 -0.15268615687E+02 -0.75055874649E+01  0.17711769066E+02  0.00000000000E+00 0.  1.
</event>
<event>
 7    1  0.5646756E-010  0.4778727E+02  0.7816164E-02  0.1312668E+00
        -11   -1    0    0    0    0  0.00000000000E+00  0.00000000000E+00  0.45593999997E+02  0.45594000000E+02  0.51100000000E-03 0. -1.
         11   -1    0    0    0    0 -0.00000000000E+00 -0.00000000000E+00 -0.45593999997E+02  0.45594000000E+02  0.51100000000E-03 0.  1.
    9900012    2    1    2    0    0  0.14676876851E+02  0.34282054584E+02 -0.22202547229E+02  0.47787273232E+02  0.20000009973E+02 0.  0.
         12    1    1    2    0    0 -0.14676876851E+02 -0.34282054584E+02  0.22202547229E+02  0.43400726768E+02  0.00000000000E+00 0. -1.
         11    1    3    3    0    0  0.81925279877E+01  0.30267503592E+02 -0.17746295350E+02  0.36030130272E+02  0.51100000000E-03 0. -1.
        -11    1    3    3    0    0  0.82263781377E+01  0.36771414296E+01 -0.42750790244E+01  0.99735132869E+01  0.51100000000E-03 0.  1.
         12    1    3    3    0    0 -0.17420292746E+01  0.33740956181E+00 -0.18117285482E+00  0.17836296727E+01  0.00000000000E+00 0. -1.
</event>
<event>
 7    1  0.5646756E-010  0.4778727E+02  0.7816164E-02  0.1312668E+00
        -11   -1    0    0    0    0  0.00000000000E+00  0.00000000000E+00  0.45593999997E+02  0.45594000000E+02  0.51100000000E-03 0. -1.
         11   -1    0    0    0    0 -0.00000000000E+00 -0.00000000000E+00 -0.45593999997E+02  0.45594000000E+02  0.51100000000E-03 0.  1.
    9900012    2    1    2    0    0 -0.12467425576E+02  0.11271913694E+02 -0.40014127852E+02  0.47787272281E+02  0.20000005636E+02 0.  0.
         12    1    1    2    0    0  0.12467425576E+02 -0.11271913694E+02  0.40014127852E+02  0.43400727719E+02  0.00000000000E+00 0. -1.
         11    1    3    3    0    0 -0.60222725376E+01 -0.13162423666E+01 -0.74558522984E+01  0.96741921751E+01  0.51100000000E-03 0. -1.
        -11    1    3    3    0    0 -0.29857423964E+01  0.14924808837E+02 -0.28396170989E+02  0.32218117629E+02  0.51100000000E-03 0.  1.
        -12    1    3    3    0    0 -0.34594106418E+01 -0.23366527765E+01 -0.41621045648E+01  0.58949624761E+01  0.00000000000E+00 0.  1.
</event>
<event>
 7    1  0.5646756E-010  0.4778727E+02  0.7816164E-02  0.1312668E+00
        -11   -1    0    0    0    0  0.00000000000E+00  0.00000000000E+00  0.45593999997E+02  0.45594000000E+02  0.51100000000E-03 0. -1.
         11   -1    0    0    0    0 -0.00000000000E+00 -0.00000000000E+00 -0.45593999997E+02  0.45594000000E+02  0.51100000000E-03 0.  1.
    9900012    2    1    2    0    0  0.88796834606E+00  0.43173253159E+02 -0.43479849983E+01  0.47787271323E+02  0.20000001271E+02 0.  0.
         12    1    1    2    0    0 -0.88796834606E+00 -0.43173253159E+02  0.43479849983E+01  0.43400728677E+02  0.00000000000E+00 0. -1.
         11    1    3    3    0    0 -0.43810034192E+01  0.46166054063E+01  0.17059371786E+01  0.65891166597E+01  0.51100000000E-03 0. -1.
        -11    1    3    3    0    0  0.61536114056E+01  0.13161131123E+02  0.17067272578E+01  0.14628575596E+02  0.51100000000E-03 0.  1.
        -12    1    3    3    0    0 -0.88463964031E+00  0.25395516630E+02 -0.77606494347E+01  0.26569579068E+02  0.00000000000E+00 0.  1.
</event>
<event>
 7    1  0.5646756E-010  0.4778729E+02  0.7816164E-02  0.1312668E+00
        -11   -1    0    0    0    0  0.00000000000E+00  0.00000000000E+00  0.45593999997E+02  0.45594000000E+02  0.51100000000E-03 0.  1.
         11   -1    0    0    0    0 -0.00000000000E+00 -0.00000000000E+00 -0.45593999997E+02  0.45594000000E+02  0.51100000000E-03 0. -1.
    9900012    2    1    2    0    0  0.26474329799E+01  0.12750137195E+02  0.41401051355E+02  0.47787286260E+02  0.20000069372E+02 0.  0.
         12    1    1    2    0    0 -0.26474329799E+01 -0.12750137195E+02 -0.41401051355E+02  0.43400713740E+02  0.00000000000E+00 0. -1.
         11    1    3    3    0    0  0.37896453163E+01  0.40715985405E+01  0.41087640724E+01  0.69152923844E+01  0.51100000000E-03 0. -1.
        -11    1    3    3    0    0 -0.29029312062E+01  0.10723189051E+02  0.36356731314E+02  0.38016124278E+02  0.51100000000E-03 0.  1.
        -12    1    3    3    0    0  0.17607188698E+01 -0.20446503970E+01  0.93555596853E+00  0.28558695970E+01  0.00000000000E+00 0.  1.
</event>
<event>
 7    1  0.5646756E-010  0.4778727E+02  0.7816164E-02  0.1312668E+00
        -11   -1    0    0    0    0  0.00000000000E+00  0.00000000000E+00  0.45593999997E+02  0.45594000000E+02  0.51100000000E-03 0.  1.
         11   -1    0    0    0    0 -0.00000000000E+00 -0.00000000000E+00 -0.45593999997E+02  0.45594000000E+02  0.51100000000E-03 0. -1.
    9900012    2    1    2    0    0 -0.16666274106E+02 -0.40026839178E+02 -0.19263256503E+01  0.47787271001E+02  0.19999999802E+02 0.  0.
         12    1    1    2    0    0  0.16666274106E+02  0.40026839178E+02  0.19263256503E+01  0.43400728999E+02  0.00000000000E+00 0. -1.
         11    1    3    3    0    0 -0.47587673825E+01 -0.72231048553E+01 -0.60099853748E+01  0.10532760095E+02  0.51100000000E-03 0. -1.
        -11    1    3    3    0    0 -0.20428152655E+01 -0.23078218726E+02  0.29494322006E+01  0.23355436719E+02  0.51100000000E-03 0.  1.
        -12    1    3    3    0    0 -0.98646914584E+01 -0.97255155967E+01  0.11342275240E+01  0.13899074187E+02  0.00000000000E+00 0.  1.
</event>
<event>
 7    1  0.5646756E-010  0.4778725E+02  0.7816164E-02  0.1312668E+00
        -11   -1    0    0    0    0  0.00000000000E+00  0.00000000000E+00  0.45593999997E+02  0.45594000000E+02  0.51100000000E-03 0. -1.
         11   -1    0    0    0    0 -0.00000000000E+00 -0.00000000000E+00 -0.45593999997E+02  0.45594000000E+02  0.51100000000E-03 0.  1.
    9900012    2    1    2    0    0  0.86726776225E+00  0.23009292527E+01 -0.43331032710E+02  0.47787253180E+02  0.19999918551E+02 0.  0.
         12    1    1    2    0    0 -0.86726776225E+00 -0.23009292527E+01  0.43331032710E+02  0.43400746820E+02  0.00000000000E+00 0. -1.
         11    1    3    3    0    0  0.50574641964E+01  0.28227261846E+01 -0.63371848427E+01  0.85851988447E+01  0.51100000000E-03 0. -1.
        -11    1    3    3    0    0 -0.83045905227E+01 -0.12756833672E+01 -0.19843281656E+02  0.21548768386E+02  0.51100000000E-03 0.  1.
        -12    1    3    3    0    0  0.41143940885E+01  0.75388643528E+00 -0.17150566211E+02  0.17653285950E+02  0.00000000000E+00 0.  1.
</event>
<event>
 7    1  0.5646756E-010  0.4778727E+02  0.7816164E-02  0.1312668E+00
        -11   -1    0    0    0    0  0.00000000000E+00  0.00000000000E+00  0.45593999997E+02  0.45594000000E+02  0.51100000000E-03 0.  1.
         11   -1    0    0    0    0 -0.00000000000E+00 -0.00000000000E+00 -0.45593999997E+02  0.45594000000E+02  0.51100000000E-03 0. -1.
    9900012    2    1    2    0    0  0.38877608968E+02 -0.84406608767E+00  0.19272842330E+02  0.47787269844E+02  0.19999994525E+02 0.  0.
         12    1    1    2    0    0 -0.38877608968E+02  0.84406608767E+00 -0.19272842330E+02  0.43400730156E+02  0.00000000000E+00 0. -1.
         11    1    3    3    0    0  0.24872485270E+02 -0.41515095278E+01  0.18836528811E+02  0.31475234277E+02  0.51100000000E-03 0. -1.
        -11    1    3    3    0    0  0.12643558989E+02  0.48116646078E+01  0.20974824173E+01  0.13689818588E+02  0.51100000000E-03 0.  1.
         12    1    3    3    0    0  0.13615647086E+01 -0.15042211677E+01 -0.16611688980E+01  0.26222169789E+01  0.00000000000E+00 0. -1.
</event>
<event>
 7    1  0.5646756E-010  0.4778727E+02  0.7816164E-02  0.1312668E+00
        -11   -1    0    0    0    0  0.00000000000E+00  0.00000000000E+00  0.45593999997E+02  0.45594000000E+02  0.51100000000E-03 0. -1.
         11   -1    0    0    0    0 -0.00000000000E+00 -0.00000000000E+00 -0.45593999997E+02  0.45594000000E+02  0.51100000000E-03 0.  1.
    9900012    2    1    2    0    0  0.79340047959E+01 -0.42350053834E+02 -0.52103656901E+01  0.47787269563E+02  0.19999993245E+02 0.  0.
         12    1    1    2    0    0 -0.79340047959E+01  0.42350053834E+02  0.52103656901E+01  0.43400730437E+02  0.00000000000E+00 0. -1.
         11    1    3    3    0    0 -0.13897768677E+01 -0.84865223062E+01 -0.28409790066E+01  0.90566937992E+01  0.51100000000E-03 0. -1.
        -11    1    3    3    0    0 -0.68320187707E+00 -0.19631782116E+01 -0.47782504832E+01  0.52108071771E+01  0.51100000000E-03 0.  1.
        -12    1    3    3    0    0  0.10006983541E+02 -0.31900353316E+02  0.24088637996E+01  0.33519768587E+02  0.00000000000E+00 0.  1.
</event>
<event>
 7    1  0.5646756E-010  0.4778727E+02  0.7816164E-02  0.1312668E+00
        -11   -1    0    0    0    0  0.00000000000E+00  0.00000000000E+00  0.45593999997E+02  0.45594000000E+02  0.51100000000E-03 0.  1.
         11   -1    0    0    0    0 -0.00000000000E+00 -0.00000000000E+00 -0.45593999997E+02  0.45594000000E+02  0.51100000000E-03 0. -1.
    9900012    2    1    2    0    0  0.39855679558E+00  0.27972910398E+01  0.43308654734E+02  0.47787271210E+02  0.20000000755E+02 0.  0.
         12    1    1    2    0    0 -0.39855679558E+00 -0.27972910398E+01 -0.43308654734E+02  0.43400728790E+02  0.00000000000E+00 0. -1.
         11    1    3    3    0    0 -0.51992384003E+01  0.29584810968E+01  0.43255874142E+01  0.73820997746E+01  0.51100000000E-03 0. -1.
        -11    1    3    3    0    0  0.28059886353E+01  0.28901128685E+01  0.32269564939E+02  0.32520011474E+02  0.51100000000E-03 0.  1.
         12    1    3    3    0    0  0.27918065605E+01 -0.30513029255E+01  0.67135023799E+01  0.78851599616E+01  0.00000000000E+00 0. -1.
</event>
<event>
 7    1  0.5646756E-010  0.4778728E+02  0.7816164E-02  0.1312668E+00
        -11   -1    0    0    0    0  0.00000000000E+00  0.00000000000E+00  0.45593999997E+02  0.45594000000E+02  0.51100000000E-03 0.  1.
         11   -1    0    0    0    0 -0.00000000000E+00 -0.00000000000E+00 -0.45593999997E+02  0.45594000000E+02  0.51100000000E-03 0. -1.
    9900012    2    1    2    0    0 -0.18608881306E+01 -0.43140381106E+02  0.43665839738E+01  0.47787280626E+02  0.20000043687E+02 0.  0.
         12    1    1    2    0    0  0.18608881306E+01  0.43140381106E+02 -0.43665839738E+01  0.43400719374E+02  0.00000000000E+00 0. -1.
         11    1    3    3    0    0 -0.33820162690E+01 -0.23581655930E+02 -0.34062261331E+01  0.24065221943E+02  0.51100000000E-03 0. -1.
        -11    1    3    3    0    0  0.56347119826E+01 -0.15800906183E+02  0.66074065441E+01  0.18029876229E+02  0.51100000000E-03 0.  1.
        -12    1    3    3    0    0 -0.41135838442E+01 -0.37578189924E+01  0.11654035629E+01  0.56921824538E+01  0.00000000000E+00 0.  1.
</event>
<event>
 7    1  0.5646756E-010  0.4778728E+02  0.7816164E-02  0.1312668E+00
        -11   -1    0    0    0    0  0.00000000000E+00  0.00000000000E+00  0.45593999997E+02  0.45594000000E+02  0.51100000000E-03 0.  1.
         11   -1    0    0    0    0 -0.00000000000E+00 -0.00000000000E+00 -0.45593999997E+02  0.45594000000E+02  0.51100000000E-03 0. -1.
    9900012    2    1    2    0    0 -0.14034999691E+01  0.17699325926E+02  0.39602862733E+02  0.47787277805E+02  0.20000030823E+02 0.  0.
         12    1    1    2    0    0  0.14034999691E+01 -0.17699325926E+02 -0.39602862733E+02  0.43400722195E+02  0.00000000000E+00 0. -1.
         11    1    3    3    0    0  0.20872201031E+01  0.23378936163E+01  0.31704825766E+01  0.44580482668E+01  0.51100000000E-03 0. -1.
        -11    1    3    3    0    0  0.31097370718E+01 -0.26832474207E+01  0.47876415133E+01  0.63080736281E+01  0.51100000000E-03 0.  1.
        -12    1    3    3    0    0 -0.66004571439E+01  0.18044679730E+02  0.31644738644E+02  0.37021155910E+02  0.00000000000E+00 0.  1.
</event>
<event>
 7    1  0.5646756E-010  0.4778731E+02  0.7816164E-02  0.1312668E+00
        -11   -1    0    0    0    0  0.00000000000E+00  0.00000000000E+00  0.45593999997E+02  0.45594000000E+02  0.51100000000E-03 0. -1.
         11   -1    0    0    0    0 -0.00000000000E+00 -0.00000000000E+00 -0.45593999997E+02  0.45594000000E+02  0.51100000000E-03 0.  1.
    9900012    2    1    2    0    0  0.23423810292E+02 -0.21049592242E+02 -0.29864019652E+02  0.47787310006E+02  0.20000177641E+02 0.  0.
         12    1    1    2    0    0 -0.23423810292E+02  0.21049592242E+02  0.29864019652E+02  0.43400689994E+02  0.00000000000E+00 0. -1.
         11    1    3    3    0    0  0.18386125823E+02 -0.13187729115E+02 -0.23971171854E+02  0.32963356963E+02  0.51100000000E-03 0. -1.
        -11    1    3    3    0    0  0.41128939066E+01 -0.41349041925E+00 -0.60375113213E+01  0.73169948634E+01  0.51100000000E-03 0.  1.
         12    1    3    3    0    0  0.92479056319E+00 -0.74483727079E+01  0.14466352278E+00  0.75069581800E+01  0.00000000000E+00 0. -1.
</event>
<event>
 7    1  0.5646756E-010  0.4778727E+02  0.7816164E-02  0.1312668E+00
        -11   -1    0    0    0    0  0.00000000000E+00  0.00000000000E+00  0.45593999997E+02  0.45594000000E+02  0.51100000000E-03 0.  1.
         11   -1    0    0    0    0 -0.00000000000E+00 -0.00000000000E+00 -0.45593999997E+02  0.45594000000E+02  0.51100000000E-03 0. -1.
    9900012    2    1    2    0    0 -0.13798125231E+02  0.16261767796E+02  0.37799339078E+02  0.47787269747E+02  0.19999994086E+02 0.  0.
         12    1    1    2    0    0  0.13798125231E+02 -0.16261767796E+02 -0.37799339078E+02  0.43400730253E+02  0.00000000000E+00 0. -1.
         11    1    3    3    0    0 -0.53275179451E+01  0.13286150485E+01  0.13574888260E+01  0.56560093331E+01  0.51100000000E-03 0. -1.
        -11    1    3    3    0    0 -0.63646030559E+01  0.16546779230E+02  0.34673045132E+02  0.38942574825E+02  0.51100000000E-03 0.  1.
         12    1    3    3    0    0 -0.21060042296E+01 -0.16136264822E+01  0.17688051194E+01  0.31886855897E+01  0.00000000000E+00 0. -1.
</event>
<event>
 7    1  0.5646756E-010  0.4778727E+02  0.7816164E-02  0.1312668E+00
        -11   -1    0    0    0    0  0.00000000000E+00  0.00000000000E+00  0.45593999997E+02  0.45594000000E+02  0.51100000000E-03 0.  1.
         11   -1    0    0    0    0 -0.00000000000E+00 -0.00000000000E+00 -0.45593999997E+02  0.45594000000E+02  0.51100000000E-03 0. -1.
    9900012    2    1    2    0    0  0.23226808975E+02 -0.23882815524E+02  0.27816354718E+02  0.47787272790E+02  0.20000007960E+02 0.  0.
         12    1    1    2    0    0 -0.23226808975E+02  0.23882815524E+02 -0.27816354718E+02  0.43400727210E+02  0.00000000000E+00 0. -1.
         11    1    3    3    0    0  0.18560581455E+01 -0.46749829812E+01  0.13314707918E+02  0.14233125620E+02  0.51100000000E-03 0. -1.
        -11    1    3    3    0    0  0.24549590251E+01 -0.38795037217E+01  0.64369895058E+01  0.79064661576E+01  0.51100000000E-03 0.  1.
         12    1    3    3    0    0  0.18915791804E+02 -0.15328328821E+02  0.80646572944E+01  0.25647681012E+02  0.00000000000E+00 0. -1.
</event>
<event>
 7    1  0.5646756E-010  0.4778729E+02  0.7816164E-02  0.1312668E+00
        -11   -1    0    0    0    0  0.00000000000E+00  0.00000000000E+00  0.45593999997E+02  0.45594000000E+02  0.51100000000E-03 0.  1.
         11   -1    0    0    0    0 -0.00000000000E+00 -0.00000000000E+00 -0.45593999997E+02  0.45594000000E+02  0.51100000000E-03 0. -1.
    9900012    2    1    2    0    0 -0.25332813511E+02 -0.46678501496E+01  0.34929665340E+02  0.47787288184E+02  0.20000078145E+02 0.  0.
         12    1    1    2    0    0  0.25332813511E+02  0.46678501496E+01 -0.34929665340E+02  0.43400711816E+02  0.00000000000E+00 0. -1.
         11    1    3    3    0    0 -0.63206413314E+00  0.14717449400E+01  0.20143413048E+01  0.25735402445E+01  0.51100000000E-03 0. -1.
        -11    1    3    3    0    0 -0.50101036677E+01  0.61452838382E+00  0.20199151455E+02  0.20820290672E+02  0.51100000000E-03 0.  1.
        -12    1    3    3    0    0 -0.19690645710E+02 -0.67541234735E+01  0.12716172580E+02  0.24393457267E+02  0.00000000000E+00 0.  1.
</event>
<event>
 7    1  0.5646756E-010  0.4778727E+02  0.7816164E-02  0.1312668E+00
        -11   -1    0    0    0    0  0.00000000000E+00  0.00000000000E+00  0.45593999997E+02  0.45594000000E+02  0.51100000000E-03 0.  1.
         11   -1    0    0    0    0 -0.00000000000E+00 -0.00000000000E+00 -0.45593999997E+02  0.45594000000E+02  0.51100000000E-03 0. -1.
    9900012    2    1    2    0    0 -0.23789020892E+02 -0.36232105765E+02 -0.22226919799E+01  0.47787270020E+02  0.19999995330E+02 0.  0.
         12    1    1    2    0    0  0.23789020892E+02  0.36232105765E+02  0.22226919799E+01  0.43400729980E+02  0.00000000000E+00 0. -1.
         11    1    3    3    0    0 -0.47455963871E+01 -0.53245372184E+01 -0.21410774902E+01  0.74468513306E+01  0.51100000000E-03 0. -1.
        -11    1    3    3    0    0 -0.15497521520E+02 -0.30694188770E+02 -0.44925310234E+01  0.34676926518E+02  0.51100000000E-03 0.  1.
        -12    1    3    3    0    0 -0.35459029846E+01 -0.21337977658E+00  0.44109165337E+01  0.56634921711E+01  0.00000000000E+00 0.  1.
</event>
<event>
 7    1  0.5646756E-010  0.4778728E+02  0.7816164E-02  0.1312668E+00
        -11   -1    0    0    0    0  0.00000000000E+00  0.00000000000E+00  0.45593999997E+02  0.45594000000E+02  0.51100000000E-03 0. -1.
         11   -1    0    0    0    0 -0.00000000000E+00 -0.00000000000E+00 -0.45593999997E+02  0.45594000000E+02  0.51100000000E-03 0.  1.
    9900012    2    1    2    0    0 -0.31106682794E+02 -0.22039611549E+02 -0.20742531963E+02  0.47787276228E+02  0.20000023634E+02 0.  0.
         12    1    1    2    0    0  0.31106682794E+02  0.22039611549E+02  0.20742531963E+02  0.43400723772E+02  0.00000000000E+00 0. -1.
         11    1    3    3    0    0 -0.12901471177E+02 -0.10283960374E+02 -0.13314736987E+02  0.21201179703E+02  0.51100000000E-03 0. -1.
        -11    1    3    3    0    0 -0.13339082735E+02 -0.60423874128E+00 -0.35591198737E+01  0.13818956806E+02  0.51100000000E-03 0.  1.
        -12    1    3    3    0    0 -0.48661288821E+01 -0.11151412433E+02 -0.38686751025E+01  0.12767139719E+02  0.00000000000E+00 0.  1.
</event>
<event>
 7    1  0.5646756E-010  0.4778728E+02  0.7816164E-02  0.1312668E+00
        -11   -1    0    0    0    0  0.00000000000E+00  0.00000000000E+00  0.45593999997E+02  0.45594000000E+02  0.51100000000E-03 0. -1.
         11   -1    0    0    0    0 -0.00000000000E+00 -0.00000000000E+00 -0.45593999997E+02  0.45594000000E+02  0.51100000000E-03 0.  1.
    9900012    2    1    2    0    0 -0.41997192732E+02  0.36201805292E+01  0.10332127931E+02  0.47787276826E+02  0.20000026359E+02 0.  0.
         12    1    1    2    0    0  0.41997192732E+02 -0.36201805292E+01 -0.10332127931E+02  0.43400723174E+02  0.00000000000E+00 0. -1.
         11    1    3    3    0    0 -0.74969473359E+01  0.49325639389E+01  0.47878122768E+01  0.10171408606E+02  0.51100000000E-03 0. -1.
        -11    1    3    3    0    0 -0.34786439087E+02 -0.15984055371E+00  0.72531490150E+01  0.35534913314E+02  0.51100000000E-03 0.  1.
        -12    1    3    3    0    0  0.28619369069E+00 -0.11525428559E+01 -0.17088333608E+01  0.20809549054E+01  0.00000000000E+00 0.  1.
</event>
<event>
 7    1  0.5646756E-010  0.4778727E+02  0.7816164E-02  0.1312668E+00
        -11   -1    0    0    0    0  0.00000000000E+00  0.00000000000E+00  0.45593999997E+02  0.45594000000E+02  0.51100000000E-03 0.  1.
         11   -1    0    0    0    0 -0.00000000000E+00 -0.00000000000E+00 -0.45593999997E+02  0.45594000000E+02  0.51100000000E-03 0. -1.
    9900012    2    1    2    0    0 -0.28711348314E+01 -0.41925493356E+02  0.10845881287E+02  0.47787267871E+02  0.19999985533E+02 0.  0.
         12    1    1    2    0    0  0.28711348314E+01  0.41925493356E+02 -0.10845881287E+02  0.43400732129E+02  0.00000000000E+00 0. -1.
         11    1    3    3    0    0 -0.37590969324E+01 -0.35127666807E+01 -0.26686075424E+01  0.57958438537E+01  0.51100000000E-03 0. -1.
        -11    1    3    3    0    0 -0.20328905943E+01 -0.35614571396E+02  0.11558143082E+02  0.37498280116E+02  0.51100000000E-03 0.  1.
        -12    1    3    3    0    0  0.29208526953E+01 -0.27981552793E+01  0.19563457476E+01  0.44931439014E+01  0.00000000000E+00 0.  1.
</event>
<event>
 7    1  0.5646756E-010  0.4778727E+02  0.7816164E-02  0.1312668E+00
        -11   -1    0    0    0    0  0.00000000000E+00  0.00000000000E+00  0.45593999997E+02  0.45594000000E+02  0.51100000000E-03 0.  1.
         11   -1    0    0    0    0 -0.00000000000E+00 -0.00000000000E+00 -0.45593999997E+02  0.45594000000E+02  0.51100000000E-03 0. -1.
    9900012    2    1    2    0    0 -0.13007665574E+02  0.20510199783E+02  0.35968813333E+02  0.47787271995E+02  0.20000004333E+02 0.  0.
         12    1    1    2    0    0  0.13007665574E+02 -0.20510199783E+02 -0.35968813333E+02  0.43400728005E+02  0.00000000000E+00 0. -1.
         11    1    3    3    0    0 -0.33300388885E+01  0.60486239509E+00 -0.12593006514E+01  0.36112125260E+01  0.51100000000E-03 0. -1.
        -11    1    3    3    0    0 -0.48725514024E+01  0.16566010528E+02  0.22757105974E+02  0.28566769761E+02  0.51100000000E-03 0.  1.
        -12    1    3    3    0    0 -0.48050752829E+01  0.33393268596E+01  0.14471008011E+02  0.15609289708E+02  0.00000000000E+00 0.  1.
</event>
<event>
 7    1  0.5646756E-010  0.4778728E+02  0.7816164E-02  0.1312668E+00
        -11   -1    0    0    0    0  0.00000000000E+00  0.00000000000E+00  0.45593999997E+02  0.45594000000E+02  0.51100000000E-03 0.  1.
         11   -1    0    0    0    0 -0.00000000000E+00 -0.00000000000E+00 -0.45593999997E+02  0.45594000000E+02  0.51100000000E-03 0. -1.
    9900012    2    1    2    0    0  0.19414332579E+01 -0.11424165661E+02  0.41825135228E+02  0.47787278105E+02  0.20000032191E+02 0.  0.
         12    1    1    2    0    0 -0.19414332579E+01  0.11424165661E+02 -0.41825135228E+02  0.43400721895E+02  0.00000000000E+00 0. -1.
         11    1    3    3    0    0  0.84697997223E+00  0.30449564758E+01 -0.28959403931E+00  0.31737989825E+01  0.51100000000E-03 0. -1.
        -11    1    3    3    0    0  0.73134275333E+00 -0.61640842428E+01  0.21721008605E+02  0.22590551384E+02  0.51100000000E-03 0.  1.
         12    1    3    3    0    0  0.36311053233E+00 -0.83050378938E+01  0.20393720663E+02  0.22022927738E+02  0.00000000000E+00 0. -1.
</event>
<event>
 7    1  0.5646756E-010  0.4778727E+02  0.7816164E-02  0.1312668E+00
        -11   -1    0    0    0    0  0.00000000000E+00  0.00000000000E+00  0.45593999997E+02  0.45594000000E+02  0.51100000000E-03 0.  1.
         11   -1    0    0    0    0 -0.00000000000E+00 -0.00000000000E+00 -0.45593999997E+02  0.45594000000E+02  0.51100000000E-03 0. -1.
    9900012    2    1    2    0    0  0.11705726888E+02  0.41335118075E+02  0.61650157382E+01  0.47787269046E+02  0.19999990889E+02 0.  0.
         12    1    1    2    0    0 -0.11705726888E+02 -0.41335118075E+02 -0.61650157382E+01  0.43400730954E+02  0.00000000000E+00 0. -1.
         11    1    3    3    0    0  0.11703318281E+02  0.86168060950E+01  0.76823525288E+00  0.14553597210E+02  0.51100000000E-03 0. -1.
        -11    1    3    3    0    0 -0.95881654828E+00  0.19823612815E+02  0.27712479392E+01  0.20039330568E+02  0.51100000000E-03 0.  1.
         12    1    3    3    0    0  0.96122515545E+00  0.12894699166E+02  0.26255325461E+01  0.13194341269E+02  0.00000000000E+00 0. -1.
</event>
<event>
 7    1  0.5646756E-010  0.4778733E+02  0.7816164E-02  0.1312667E+00
        -11   -1    0    0    0    0  0.00000000000E+00  0.00000000000E+00  0.45593999997E+02  0.45594000000E+02  0.51100000000E-03 0.  1.
         11   -1    0    0    0    0 -0.00000000000E+00 -0.00000000000E+00 -0.45593999997E+02  0.45594000000E+02  0.51100000000E-03 0. -1.
    9900012    2    1    2    0    0  0.94235870612E+01  0.12002746420E+02  0.40629399706E+02  0.47787331397E+02  0.20000275171E+02 0.  0.
         12    1    1    2    0    0 -0.94235870612E+01 -0.12002746420E+02 -0.40629399706E+02  0.43400668603E+02  0.00000000000E+00 0. -1.
         11    1    3    3    0    0 -0.35114514768E+01 -0.11391567465E+01  0.32674953658E+01  0.49299590052E+01  0.51100000000E-03 0. -1.
        -11    1    3    3    0    0  0.41054882864E+01  0.12368103936E+00  0.30638459670E+01  0.51242056399E+01  0.51100000000E-03 0.  1.
         12    1    3    3    0    0  0.88295502516E+01  0.13018222127E+02  0.34298058373E+02  0.37733166752E+02  0.00000000000E+00 0. -1.
</event>
<event>
 7    1  0.5646756E-010  0.4778727E+02  0.7816164E-02  0.1312668E+00
        -11   -1    0    0    0    0  0.00000000000E+00  0.00000000000E+00  0.45593999997E+02  0.45594000000E+02  0.51100000000E-03 0.  1.
         11   -1    0    0    0    0 -0.00000000000E+00 -0.00000000000E+00 -0.45593999997E+02  0.45594000000E+02  0.51100000000E-03 0. -1.
    9900012    2    1    2    0    0  0.25040021082E+02  0.35330195599E+02  0.28979170633E+01  0.47787270741E+02  0.19999998618E+02 0.  0.
         12    1    1    2    0    0 -0.25040021082E+02 -0.35330195599E+02 -0.28979170633E+01  0.43400729259E+02  0.00000000000E+00 0. -1.
         11    1    3    3    0    0  0.68221254916E+00  0.36419541684E+00 -0.47108042685E+00  0.90552155886E+00  0.51100000000E-03 0. -1.
        -11    1    3    3    0    0  0.34292494535E+01  0.75470414714E+01 -0.70146171144E+01  0.10859209930E+02  0.51100000000E-03 0.  1.
        -12    1    3    3    0    0  0.20928559079E+02  0.27418958711E+02  0.10383614604E+02  0.36022539252E+02  0.00000000000E+00 0.  1.
</event>
<event>
 7    1  0.5646756E-010  0.4778727E+02  0.7816164E-02  0.1312668E+00
        -11   -1    0    0    0    0  0.00000000000E+00  0.00000000000E+00  0.45593999997E+02  0.45594000000E+02  0.51100000000E-03 0. -1.
         11   -1    0    0    0    0 -0.00000000000E+00 -0.00000000000E+00 -0.45593999997E+02  0.45594000000E+02  0.51100000000E-03 0.  1.
    9900012    2    1    2    0    0  0.10854300242E+02  0.11684395357E+02 -0.40364369836E+02  0.47787270964E+02  0.19999999633E+02 0.  0.
         12    1    1    2    0    0 -0.10854300242E+02 -0.11684395357E+02  0.40364369836E+02  0.43400729036E+02  0.00000000000E+00 0. -1.
         11    1    3    3    0    0  0.51575013387E+00  0.73410295481E+01 -0.60970012147E+01  0.95566802343E+01  0.51100000000E-03 0. -1.
        -11    1    3    3    0    0  0.76805539627E+01 -0.33907458885E+01 -0.21356743007E+02  0.22947734943E+02  0.51100000000E-03 0.  1.
        -12    1    3    3    0    0  0.26579961451E+01  0.77341116975E+01 -0.12910625614E+02  0.15282855787E+02  0.00000000000E+00 0.  1.
</event>
<event>
 7    1  0.5646756E-010  0.4778727E+02  0.7816164E-02  0.1312668E+00
        -11   -1    0    0    0    0  0.00000000000E+00  0.00000000000E+00  0.45593999997E+02  0.45594000000E+02  0.51100000000E-03 0.  1.
         11   -1    0    0    0    0 -0.00000000000E+00 -0.00000000000E+00 -0.45593999997E+02  0.45594000000E+02  0.51100000000E-03 0. -1.
    9900012    2    1    2    0    0  0.18431262768E+02 -0.20432281912E+02  0.33562380852E+02  0.47787274202E+02  0.20000014394E+02 0.  0.
         12    1    1    2    0    0 -0.18431262768E+02  0.20432281912E+02 -0.33562380852E+02  0.43400725798E+02  0.00000000000E+00 0. -1.
         11    1    3    3    0    0  0.11130807864E+01 -0.72042667135E+01  0.82054868957E+00  0.73357827210E+01  0.51100000000E-03 0. -1.
        -11    1    3    3    0    0  0.16095494094E+02 -0.83208828086E+01  0.28859389423E+02  0.34075891462E+02  0.51100000000E-03 0.  1.
        -12    1    3    3    0    0  0.12226878883E+01 -0.49071323897E+01  0.38824427397E+01  0.63756000180E+01  0.00000000000E+00 0.  1.
</event>
<event>
 7    1  0.5646756E-010  0.4778727E+02  0.7816164E-02  0.1312668E+00
        -11   -1    0    0    0    0  0.00000000000E+00  0.00000000000E+00  0.45593999997E+02  0.45594000000E+02  0.51100000000E-03 0.  1.
         11   -1    0    0    0    0 -0.00000000000E+00 -0.00000000000E+00 -0.45593999997E+02  0.45594000000E+02  0.51100000000E-03 0. -1.
    9900012    2    1    2    0    0 -0.10322650002E+02 -0.37982275966E+02 -0.18286960412E+02  0.47787270608E+02  0.19999998012E+02 0.  0.
         12    1    1    2    0    0  0.10322650002E+02  0.37982275966E+02  0.18286960412E+02  0.43400729392E+02  0.00000000000E+00 0. -1.
         11    1    3    3    0    0  0.31615415422E+01 -0.52184730196E+01  0.11098803174E+00  0.61024686958E+01  0.51100000000E-03 0. -1.
        -11    1    3    3    0    0 -0.15721909280E+02 -0.29026591607E+02 -0.15633603462E+02  0.36525758161E+02  0.51100000000E-03 0.  1.
        -12    1    3    3    0    0  0.22377177356E+01 -0.37372113391E+01 -0.27643449812E+01  0.51590437518E+01  0.00000000000E+00 0.  1.
</event>
<event>
 7    1  0.5646756E-010  0.4778727E+02  0.7816164E-02  0.1312668E+00
        -11   -1    0    0    0    0  0.00000000000E+00  0.00000000000E+00  0.45593999997E+02  0.45594000000E+02  0.51100000000E-03 0.  1.
         11   -1    0    0    0    0 -0.00000000000E+00 -0.00000000000E+00 -0.45593999997E+02  0.45594000000E+02  0.51100000000E-03 0. -1.
    9900012    2    1    2    0    0  0.23035293115E+02 -0.33569366351E+02 -0.15036491503E+02  0.47787272324E+02  0.20000005835E+02 0.  0.
         12    1    1    2    0    0 -0.23035293115E+02  0.33569366351E+02  0.15036491503E+02  0.43400727676E+02  0.00000000000E+00 0. -1.
         11    1    3    3    0    0  0.19342906634E+02 -0.22295901704E+02 -0.84442124240E+01  0.30701139940E+02  0.51100000000E-03 0.  1.
        -11    1    3    3    0    0 -0.97844772765E-02 -0.11867374204E+02 -0.59732441595E+01  0.13285868895E+02  0.51100000000E-03 0. -1.
         12    1    3    3    0    0  0.37021709574E+01  0.59390955755E+00 -0.61903491928E+00  0.38002634898E+01  0.00000000000E+00 0. -1.
</event>
<event>
 7    1  0.5646756E-010  0.4778727E+02  0.7816164E-02  0.1312668E+00
        -11   -1    0    0    0    0  0.00000000000E+00  0.00000000000E+00  0.45593999997E+02  0.45594000000E+02  0.51100000000E-03 0.  1.
         11   -1    0    0    0    0 -0.00000000000E+00 -0.00000000000E+00 -0.45593999997E+02  0.45594000000E+02  0.51100000000E-03 0. -1.
    9900012    2    1    2    0    0 -0.65477830530E+00 -0.35787211786E+02  0.24545265239E+02  0.47787270655E+02  0.19999998223E+02 0.  0.
         12    1    1    2    0    0  0.65477830530E+00  0.35787211786E+02 -0.24545265239E+02  0.43400729345E+02  0.00000000000E+00 0. -1.
         11    1    3    3    0    0  0.12186173350E+01 -0.26786777472E+01 -0.19472174391E+01  0.35287389672E+01  0.51100000000E-03 0. -1.
        -11    1    3    3    0    0 -0.59807223911E+01 -0.24788665629E+02  0.15369287820E+02  0.29773511589E+02  0.51100000000E-03 0.  1.
        -12    1    3    3    0    0  0.41073267508E+01 -0.83198684102E+01  0.11123194858E+02  0.14485020099E+02  0.00000000000E+00 0.  1.
</event>
<event>
 7    1  0.5646756E-010  0.4778727E+02  0.7816164E-02  0.1312668E+00
        -11   -1    0    0    0    0  0.00000000000E+00  0.00000000000E+00  0.45593999997E+02  0.45594000000E+02  0.51100000000E-03 0.  1.
         11   -1    0    0    0    0 -0.00000000000E+00 -0.00000000000E+00 -0.45593999997E+02  0.45594000000E+02  0.51100000000E-03 0. -1.
    9900012    2    1    2    0    0  0.94139000178E+01  0.40918398131E+02  0.10985733604E+02  0.47787272333E+02  0.20000005876E+02 0.  0.
         12    1    1    2    0    0 -0.94139000178E+01 -0.40918398131E+02 -0.10985733604E+02  0.43400727667E+02  0.00000000000E+00 0. -1.
         11    1    3    3    0    0  0.65271069868E+01  0.78618273861E+01  0.98319426408E+01  0.14180216917E+02  0.51100000000E-03 0. -1.
        -11    1    3    3    0    0 -0.84651105998E+00  0.54307798165E+01  0.16070029086E+01  0.57264656638E+01  0.51100000000E-03 0.  1.
         12    1    3    3    0    0  0.37333040910E+01  0.27625790929E+02 -0.45321194490E+00  0.27880589752E+02  0.00000000000E+00 0. -1.
</event>
<event>
 7    1  0.5646756E-010  0.4778728E+02  0.7816164E-02  0.1312668E+00
        -11   -1    0    0    0    0  0.00000000000E+00  0.00000000000E+00  0.45593999997E+02  0.45594000000E+02  0.51100000000E-03 0.  1.
         11   -1    0    0    0    0 -0.00000000000E+00 -0.00000000000E+00 -0.45593999997E+02  0.45594000000E+02  0.51100000000E-03 0. -1.
    9900012    2    1    2    0    0 -0.81352481532E+00 -0.15665507992E+02  0.40466683997E+02  0.47787280225E+02  0.20000041858E+02 0.  0.
         12    1    1    2    0    0  0.81352481532E+00  0.15665507992E+02 -0.40466683997E+02  0.43400719775E+02  0.00000000000E+00 0. -1.
         11    1    3    3    0    0 -0.31174791586E+01  0.66181871598E+00 -0.71350828801E+00  0.32658497601E+01  0.51100000000E-03 0. -1.
        -11    1    3    3    0    0  0.30220216449E+01 -0.91032588165E+01  0.25425494064E+02  0.27174577909E+02  0.51100000000E-03 0.  1.
         12    1    3    3    0    0 -0.71806730159E+00 -0.72240678919E+01  0.15754698221E+02  0.17346852556E+02  0.00000000000E+00 0. -1.
</event>
<event>
 7    1  0.5646756E-010  0.4778727E+02  0.7816164E-02  0.1312668E+00
        -11   -1    0    0    0    0  0.00000000000E+00  0.00000000000E+00  0.45593999997E+02  0.45594000000E+02  0.51100000000E-03 0.  1.
         11   -1    0    0    0    0 -0.00000000000E+00 -0.00000000000E+00 -0.45593999997E+02  0.45594000000E+02  0.51100000000E-03 0. -1.
    9900012    2    1    2    0    0  0.14636828271E+02  0.40399469801E+02  0.61048925427E+01  0.47787267115E+02  0.19999982082E+02 0.  0.
         12    1    1    2    0    0 -0.14636828271E+02 -0.40399469801E+02 -0.61048925427E+01  0.43400732885E+02  0.00000000000E+00 0. -1.
         11    1    3    3    0    0  0.94632466107E+01  0.40331463473E+01  0.31573453474E+01  0.10760489570E+02  0.51100000000E-03 0. -1.
        -11    1    3    3    0    0  0.25575098141E+01  0.26175688562E+02  0.32564900498E+01  0.26501174612E+02  0.51100000000E-03 0.  1.
         12    1    3    3    0    0  0.26160718462E+01  0.10190634892E+02 -0.30894285453E+00  0.10525602933E+02  0.00000000000E+00 0. -1.
</event>
<event>
 7    1  0.5646756E-010  0.4778727E+02  0.7816164E-02  0.1312668E+00
        -11   -1    0    0    0    0  0.00000000000E+00  0.00000000000E+00  0.45593999997E+02  0.45594000000E+02  0.51100000000E-03 0.  1.
         11   -1    0    0    0    0 -0.00000000000E+00 -0.00000000000E+00 -0.45593999997E+02  0.45594000000E+02  0.51100000000E-03 0. -1.
    9900012    2    1    2    0    0 -0.35107755016E+02 -0.53512420706E+01  0.24948610656E+02  0.47787269273E+02  0.19999991925E+02 0.  0.
         12    1    1    2    0    0  0.35107755016E+02  0.53512420706E+01 -0.24948610656E+02  0.43400730727E+02  0.00000000000E+00 0. -1.
         11    1    3    3    0    0  0.19341156071E+00  0.49128997923E+00  0.43421444945E+00  0.68360538671E+00  0.51100000000E-03 0. -1.
        -11    1    3    3    0    0 -0.47729259983E+00  0.39961025728E+01  0.21377655214E+01  0.45570479133E+01  0.51100000000E-03 0.  1.
        -12    1    3    3    0    0 -0.34823873976E+02 -0.98386346227E+01  0.22376630685E+02  0.42546615973E+02  0.00000000000E+00 0.  1.
</event>
<event>
 7    1  0.5646756E-010  0.4778726E+02  0.7816164E-02  0.1312668E+00
        -11   -1    0    0    0    0  0.00000000000E+00  0.00000000000E+00  0.45593999997E+02  0.45594000000E+02  0.51100000000E-03 0.  1.
         11   -1    0    0    0    0 -0.00000000000E+00 -0.00000000000E+00 -0.45593999997E+02  0.45594000000E+02  0.51100000000E-03 0. -1.
    9900012    2    1    2    0    0  0.58007774562E+01 -0.42707549229E+02  0.51029590869E+01  0.47787263005E+02  0.19999963344E+02 0.  0.
         12    1    1    2    0    0 -0.58007774562E+01  0.42707549229E+02 -0.51029590869E+01  0.43400736995E+02  0.00000000000E+00 0. -1.
         11    1    3    3    0    0  0.20402537891E+01 -0.20338536121E+02  0.10410943299E+02  0.22939189779E+02  0.51100000000E-03 0. -1.
        -11    1    3    3    0    0  0.39906094404E+01 -0.22699602173E+02 -0.62019392897E+01  0.23867571174E+02  0.51100000000E-03 0.  1.
         12    1    3    3    0    0 -0.23008577322E+00  0.33058906535E+00  0.89395507706E+00  0.98050205148E+00  0.00000000000E+00 0. -1.
</event>
<event>
 7    1  0.5646756E-010  0.4778728E+02  0.7816164E-02  0.1312668E+00
        -11   -1    0    0    0    0  0.00000000000E+00  0.00000000000E+00  0.45593999997E+02  0.45594000000E+02  0.51100000000E-03 0. -1.
         11   -1    0    0    0    0 -0.00000000000E+00 -0.00000000000E+00 -0.45593999997E+02  0.45594000000E+02  0.51100000000E-03 0.  1.
    9900012    2    1    2    0    0 -0.36764078880E+02  0.21377233262E+02 -0.86625100591E+01  0.47787277905E+02  0.20000031282E+02 0.  0.
         12    1    1    2    0    0  0.36764078880E+02 -0.21377233262E+02  0.86625100591E+01  0.43400722095E+02  0.00000000000E+00 0. -1.
         11    1    3    3    0    0 -0.54854001438E+01  0.23167114156E+00 -0.30721109929E+00  0.54988785380E+01  0.51100000000E-03 0. -1.
        -11    1    3    3    0    0 -0.23904838320E+02  0.12487037420E+02  0.18157686276E+01  0.27030804920E+02  0.51100000000E-03 0.  1.
        -12    1    3    3    0    0 -0.73738404162E+01  0.86585247000E+01 -0.10171067587E+02  0.15257594448E+02  0.00000000000E+00 0.  1.
</event>
<event>
 7    1  0.5646756E-010  0.4778727E+02  0.7816164E-02  0.1312668E+00
        -11   -1    0    0    0    0  0.00000000000E+00  0.00000000000E+00  0.45593999997E+02  0.45594000000E+02  0.51100000000E-03 0.  1.
         11   -1    0    0    0    0 -0.00000000000E+00 -0.00000000000E+00 -0.45593999997E+02  0.45594000000E+02  0.51100000000E-03 0. -1.
    9900012    2    1    2    0    0  0.32935107608E+02 -0.27983302738E+02 -0.39795415112E+01  0.47787270791E+02  0.19999998843E+02 0.  0.
         12    1    1    2    0    0 -0.32935107608E+02  0.27983302738E+02  0.39795415112E+01  0.43400729209E+02  0.00000000000E+00 0. -1.
         11    1    3    3    0    0 -0.21842292951E+00  0.22582518789E+01 -0.22611279106E+00  0.22800301270E+01  0.51100000000E-03 0. -1.
        -11    1    3    3    0    0  0.11813362506E+02 -0.14682290080E+02 -0.30332601291E+01  0.19087321524E+02  0.51100000000E-03 0.  1.
         12    1    3    3    0    0  0.21340168032E+02 -0.15559264537E+02 -0.72016859107E+00  0.26419919140E+02  0.00000000000E+00 0. -1.
</event>
<event>
 7    1  0.5646756E-010  0.4778727E+02  0.7816164E-02  0.1312668E+00
        -11   -1    0    0    0    0  0.00000000000E+00  0.00000000000E+00  0.45593999997E+02  0.45594000000E+02  0.51100000000E-03 0. -1.
         11   -1    0    0    0    0 -0.00000000000E+00 -0.00000000000E+00 -0.45593999997E+02  0.45594000000E+02  0.51100000000E-03 0.  1.
    9900012    2    1    2    0    0 -0.16700293691E+02  0.20023184193E+02 -0.34695753982E+02  0.47787273521E+02  0.20000011290E+02 0.  0.
         12    1    1    2    0    0  0.16700293691E+02 -0.20023184193E+02  0.34695753982E+02  0.43400726479E+02  0.00000000000E+00 0. -1.
         11    1    3    3    0    0 -0.15132194591E+02  0.52459469310E+01 -0.16633269290E+02  0.23090450837E+02  0.51100000000E-03 0.  1.
        -11    1    3    3    0    0  0.26147116591E+01  0.50167500435E+01 -0.34253323764E+01  0.66134257544E+01  0.51100000000E-03 0. -1.
        -12    1    3    3    0    0 -0.41828107594E+01  0.97604872185E+01 -0.14637152315E+02  0.18083396929E+02  0.00000000000E+00 0.  1.
</event>
<event>
 7    1  0.5646756E-010  0.4778727E+02  0.7816164E-02  0.1312668E+00
        -11   -1    0    0    0    0  0.00000000000E+00  0.00000000000E+00  0.45593999997E+02  0.45594000000E+02  0.51100000000E-03 0.  1.
         11   -1    0    0    0    0 -0.00000000000E+00 -0.00000000000E+00 -0.45593999997E+02  0.45594000000E+02  0.51100000000E-03 0. -1.
    9900012    2    1    2    0    0 -0.15358893544E+02  0.15996102014E+02  0.37307538936E+02  0.47787270144E+02  0.19999995897E+02 0.  0.
         12    1    1    2    0    0  0.15358893544E+02 -0.15996102014E+02 -0.37307538936E+02  0.43400729856E+02  0.00000000000E+00 0. -1.
         11    1    3    3    0    0  0.30223167726E+01  0.10013183187E+01  0.12138019766E+01  0.34073967408E+01  0.51100000000E-03 0. -1.
        -11    1    3    3    0    0 -0.99605849563E+01  0.10854483124E+02  0.29300212671E+02  0.32795358199E+02  0.51100000000E-03 0.  1.
        -12    1    3    3    0    0 -0.84206253600E+01  0.41403005715E+01  0.67935242885E+01  0.11584515205E+02  0.00000000000E+00 0.  1.
</event>
<event>
 7    1  0.5646756E-010  0.4778726E+02  0.7816164E-02  0.1312668E+00
        -11   -1    0    0    0    0  0.00000000000E+00  0.00000000000E+00  0.45593999997E+02  0.45594000000E+02  0.51100000000E-03 0.  1.
         11   -1    0    0    0    0 -0.00000000000E+00 -0.00000000000E+00 -0.45593999997E+02  0.45594000000E+02  0.51100000000E-03 0. -1.
    9900012    2    1    2    0    0  0.15837037436E+02 -0.40407939889E+02 -0.10398424090E+00  0.47787260680E+02  0.19999952743E+02 0.  0.
         12    1    1    2    0    0 -0.15837037436E+02  0.40407939889E+02  0.10398424090E+00  0.43400739320E+02  0.00000000000E+00 0. -1.
         11    1    3    3    0    0  0.14281338670E+02 -0.27301344110E+02  0.52988908329E+01  0.31263369440E+02  0.51100000000E-03 0. -1.
        -11    1    3    3    0    0  0.68150620181E-01 -0.48515402695E+01  0.20839451176E+01  0.52806169155E+01  0.51100000000E-03 0.  1.
         12    1    3    3    0    0  0.14875481453E+01 -0.82550555095E+01 -0.74868201914E+01  0.11243274324E+02  0.00000000000E+00 0. -1.
</event>
<event>
 7    1  0.5646756E-010  0.4778727E+02  0.7816164E-02  0.1312668E+00
        -11   -1    0    0    0    0  0.00000000000E+00  0.00000000000E+00  0.45593999997E+02  0.45594000000E+02  0.51100000000E-03 0. -1.
         11   -1    0    0    0    0 -0.00000000000E+00 -0.00000000000E+00 -0.45593999997E+02  0.45594000000E+02  0.51100000000E-03 0.  1.
    9900012    2    1    2    0    0  0.35541056078E+02 -0.22520723643E+02 -0.10642999734E+02  0.47787273003E+02  0.20000008932E+02 0.  0.
         12    1    1    2    0    0 -0.35541056078E+02  0.22520723643E+02  0.10642999734E+02  0.43400726997E+02  0.00000000000E+00 0. -1.
         11    1    3    3    0    0  0.91024880501E+01 -0.14504331530E+02 -0.35437261050E+00  0.17127653139E+02  0.51100000000E-03 0. -1.
        -11    1    3    3    0    0  0.73868786476E+01 -0.44094343025E+01 -0.67826863157E+01  0.10955086533E+02  0.51100000000E-03 0.  1.
         12    1    3    3    0    0  0.19051689380E+02 -0.36069578098E+01 -0.35059408082E+01  0.19704533332E+02  0.00000000000E+00 0. -1.
</event>
<event>
 7    1  0.5646756E-010  0.4778726E+02  0.7816164E-02  0.1312668E+00
        -11   -1    0    0    0    0  0.00000000000E+00  0.00000000000E+00  0.45593999997E+02  0.45594000000E+02  0.51100000000E-03 0.  1.
         11   -1    0    0    0    0 -0.00000000000E+00 -0.00000000000E+00 -0.45593999997E+02  0.45594000000E+02  0.51100000000E-03 0. -1.
    9900012    2    1    2    0    0  0.12813974714E+02  0.12259128054E+02  0.39612370435E+02  0.47787261987E+02  0.19999958705E+02 0.  0.
         12    1    1    2    0    0 -0.12813974714E+02 -0.12259128054E+02 -0.39612370435E+02  0.43400738013E+02  0.00000000000E+00 0. -1.
         11    1    3    3    0    0  0.29894881820E+01  0.76422356388E+00 -0.17127369029E+01  0.35290997727E+01  0.51100000000E-03 0. -1.
        -11    1    3    3    0    0  0.12539267239E+01  0.40174328996E+01  0.15040011256E+02  0.15617747539E+02  0.51100000000E-03 0.  1.
         12    1    3    3    0    0  0.85705598078E+01  0.74774715903E+01  0.26285096081E+02  0.28640414676E+02  0.00000000000E+00 0. -1.
</event>
<event>
 7    1  0.5646756E-010  0.4778727E+02  0.7816164E-02  0.1312668E+00
        -11   -1    0    0    0    0  0.00000000000E+00  0.00000000000E+00  0.45593999997E+02  0.45594000000E+02  0.51100000000E-03 0.  1.
         11   -1    0    0    0    0 -0.00000000000E+00 -0.00000000000E+00 -0.45593999997E+02  0.45594000000E+02  0.51100000000E-03 0. -1.
    9900012    2    1    2    0    0 -0.48513705188E+01 -0.16755559501E+02  0.39740895406E+02  0.47787270309E+02  0.19999996645E+02 0.  0.
         12    1    1    2    0    0  0.48513705188E+01  0.16755559501E+02 -0.39740895406E+02  0.43400729691E+02  0.00000000000E+00 0. -1.
         11    1    3    3    0    0 -0.18992766066E+01 -0.91557925489E+01  0.38089118732E+02  0.39220106513E+02  0.51100000000E-03 0. -1.
        -11    1    3    3    0    0 -0.18862955409E-01 -0.18498343595E+00  0.47093819674E+00  0.50631781416E+00  0.51100000000E-03 0.  1.
         12    1    3    3    0    0 -0.29332309567E+01 -0.74147835158E+01  0.11808384771E+01  0.80608459817E+01  0.00000000000E+00 0. -1.
</event>
<event>
 7    1  0.5646756E-010  0.4778727E+02  0.7816164E-02  0.1312668E+00
        -11   -1    0    0    0    0  0.00000000000E+00  0.00000000000E+00  0.45593999997E+02  0.45594000000E+02  0.51100000000E-03 0.  1.
         11   -1    0    0    0    0 -0.00000000000E+00 -0.00000000000E+00 -0.45593999997E+02  0.45594000000E+02  0.51100000000E-03 0. -1.
    9900012    2    1    2    0    0 -0.28762513466E+02 -0.35826038550E+00  0.32499427655E+02  0.47787270406E+02  0.19999997088E+02 0.  0.
         12    1    1    2    0    0  0.28762513466E+02  0.35826038550E+00 -0.32499427655E+02  0.43400729594E+02  0.00000000000E+00 0. -1.
         11    1    3    3    0    0 -0.77067102013E+01 -0.79259158155E+01  0.62807072195E+01  0.12714590323E+02  0.51100000000E-03 0. -1.
        -11    1    3    3    0    0 -0.14906732509E+02  0.68017333550E+01  0.22540574242E+02  0.27866677917E+02  0.51100000000E-03 0.  1.
         12    1    3    3    0    0 -0.61490707561E+01  0.76592207500E+00  0.36781461938E+01  0.72060021656E+01  0.00000000000E+00 0. -1.
</event>
<event>
 7    1  0.5646756E-010  0.4778727E+02  0.7816164E-02  0.1312668E+00
        -11   -1    0    0    0    0  0.00000000000E+00  0.00000000000E+00  0.45593999997E+02  0.45594000000E+02  0.51100000000E-03 0.  1.
         11   -1    0    0    0    0 -0.00000000000E+00 -0.00000000000E+00 -0.45593999997E+02  0.45594000000E+02  0.51100000000E-03 0. -1.
    9900012    2    1    2    0    0 -0.16293877882E+02 -0.40207633457E+02  0.12162609140E+01  0.47787268034E+02  0.19999986272E+02 0.  0.
         12    1    1    2    0    0  0.16293877882E+02  0.40207633457E+02 -0.12162609140E+01  0.43400731966E+02  0.00000000000E+00 0. -1.
         11    1    3    3    0    0 -0.37743923906E+01  0.81695535116E-01  0.24646330976E+01  0.45085617047E+01  0.51100000000E-03 0. -1.
        -11    1    3    3    0    0 -0.11889828307E+02 -0.25267195362E+02 -0.32393088886E+01  0.28112137966E+02  0.51100000000E-03 0.  1.
         12    1    3    3    0    0 -0.62965718365E+00 -0.15022133629E+02  0.19909367050E+01  0.15166568363E+02  0.00000000000E+00 0. -1.
</event>
<event>
 7    1  0.5646756E-010  0.4778727E+02  0.7816164E-02  0.1312668E+00
        -11   -1    0    0    0    0  0.00000000000E+00  0.00000000000E+00  0.45593999997E+02  0.45594000000E+02  0.51100000000E-03 0. -1.
         11   -1    0    0    0    0 -0.00000000000E+00 -0.00000000000E+00 -0.45593999997E+02  0.45594000000E+02  0.51100000000E-03 0.  1.
    9900012    2    1    2    0    0  0.32411440388E+02  0.25248861739E+02 -0.13986312977E+02  0.47787269156E+02  0.19999991388E+02 0.  0.
         12    1    1    2    0    0 -0.32411440388E+02 -0.25248861739E+02  0.13986312977E+02  0.43400730844E+02  0.00000000000E+00 0. -1.
         11    1    3    3    0    0  0.43817161744E+01  0.37834142776E+01  0.37488573681E+01  0.68969262760E+01  0.51100000000E-03 0. -1.
        -11    1    3    3    0    0  0.11495886936E+02  0.59788778542E+01 -0.11670750697E+02  0.17438716092E+02  0.51100000000E-03 0.  1.
        -12    1    3    3    0    0  0.16533837278E+02  0.15486569607E+02 -0.60644196476E+01  0.23451626787E+02  0.00000000000E+00 0.  1.
</event>
<event>
 7    1  0.5646756E-010  0.4778726E+02  0.7816164E-02  0.1312668E+00
        -11   -1    0    0    0    0  0.00000000000E+00  0.00000000000E+00  0.45593999997E+02  0.45594000000E+02  0.51100000000E-03 0.  1.
         11   -1    0    0    0    0 -0.00000000000E+00 -0.00000000000E+00 -0.45593999997E+02  0.45594000000E+02  0.51100000000E-03 0. -1.
    9900012    2    1    2    0    0  0.49151572496E+01  0.24058539874E+02  0.35786198777E+02  0.47787261129E+02  0.19999954790E+02 0.  0.
         12    1    1    2    0    0 -0.49151572496E+01 -0.24058539874E+02 -0.35786198777E+02  0.43400738871E+02  0.00000000000E+00 0. -1.
         11    1    3    3    0    0  0.59252658746E+01  0.21072694427E+02  0.15277979061E+02  0.26694266624E+02  0.51100000000E-03 0. -1.
        -11    1    3    3    0    0 -0.20196317677E+01  0.32162268434E+01  0.14139464175E+02  0.14640610472E+02  0.51100000000E-03 0.  1.
         12    1    3    3    0    0  0.10095231427E+01 -0.23038139703E+00  0.63687555415E+01  0.64523840331E+01  0.00000000000E+00 0. -1.
</event>
<event>
 7    1  0.5646756E-010  0.4778726E+02  0.7816164E-02  0.1312668E+00
        -11   -1    0    0    0    0  0.00000000000E+00  0.00000000000E+00  0.45593999997E+02  0.45594000000E+02  0.51100000000E-03 0.  1.
         11   -1    0    0    0    0 -0.00000000000E+00 -0.00000000000E+00 -0.45593999997E+02  0.45594000000E+02  0.51100000000E-03 0. -1.
    9900012    2    1    2    0    0 -0.35848832917E+02 -0.14527250703E+01  0.24420781617E+02  0.47787264909E+02  0.19999972027E+02 0.  0.
         12    1    1    2    0    0  0.35848832917E+02  0.14527250703E+01 -0.24420781617E+02  0.43400735091E+02  0.00000000000E+00 0. -1.
         11    1    3    3    0    0  0.84394902767E+00 -0.32864370909E+01  0.20078869694E+01  0.39426550771E+01  0.51100000000E-03 0. -1.
        -11    1    3    3    0    0 -0.28383514276E+02  0.38066910768E+01  0.20129134208E+02  0.35004240084E+02  0.51100000000E-03 0.  1.
         12    1    3    3    0    0 -0.83092676682E+01 -0.19729790562E+01  0.22837604398E+01  0.88403697482E+01  0.00000000000E+00 0. -1.
</event>
<event>
 7    1  0.5646756E-010  0.4778727E+02  0.7816164E-02  0.1312668E+00
        -11   -1    0    0    0    0  0.00000000000E+00  0.00000000000E+00  0.45593999997E+02  0.45594000000E+02  0.51100000000E-03 0. -1.
         11   -1    0    0    0    0 -0.00000000000E+00 -0.00000000000E+00 -0.45593999997E+02  0.45594000000E+02  0.51100000000E-03 0.  1.
    9900012    2    1    2    0    0  0.44156022011E+01 -0.43175239453E+02 -0.15740071496E+00  0.47787267061E+02  0.19999981838E+02 0.  0.
         12    1    1    2    0    0 -0.44156022011E+01  0.43175239453E+02  0.15740071496E+00  0.43400732939E+02  0.00000000000E+00 0. -1.
         11    1    3    3    0    0  0.59835924618E+00 -0.13752881622E+02  0.27156845298E+01  0.14031205559E+02  0.51100000000E-03 0. -1.
        -11    1    3    3    0    0  0.77456307070E+01 -0.10707475867E+02  0.33731814514E+01  0.13639031779E+02  0.51100000000E-03 0.  1.
        -12    1    3    3    0    0 -0.39283877521E+01 -0.18714881964E+02 -0.62462666961E+01  0.20117029723E+02  0.00000000000E+00 0.  1.
</event>
<event>
 7    1  0.5646756E-010  0.4778727E+02  0.7816164E-02  0.1312668E+00
        -11   -1    0    0    0    0  0.00000000000E+00  0.00000000000E+00  0.45593999997E+02  0.45594000000E+02  0.51100000000E-03 0.  1.
         11   -1    0    0    0    0 -0.00000000000E+00 -0.00000000000E+00 -0.45593999997E+02  0.45594000000E+02  0.51100000000E-03 0. -1.
    9900012    2    1    2    0    0 -0.30208900217E+02 -0.28715372557E+02 -0.12102592478E+02  0.47787273992E+02  0.20000013437E+02 0.  0.
         12    1    1    2    0    0  0.30208900217E+02  0.28715372557E+02  0.12102592478E+02  0.43400726008E+02  0.00000000000E+00 0. -1.
         11    1    3    3    0    0 -0.15649676194E+02 -0.10443523561E+02  0.16564352132E+01  0.18887120671E+02  0.51100000000E-03 0. -1.
        -11    1    3    3    0    0 -0.49453078967E+01 -0.49196654613E+01  0.68129626868E+00  0.70088046992E+01  0.51100000000E-03 0.  1.
         12    1    3    3    0    0 -0.96139161260E+01 -0.13352183534E+02 -0.14440323960E+02  0.21891348622E+02  0.00000000000E+00 0. -1.
</event>
<event>
 7    1  0.5646756E-010  0.4778726E+02  0.7816164E-02  0.1312668E+00
        -11   -1    0    0    0    0  0.00000000000E+00  0.00000000000E+00  0.45593999997E+02  0.45594000000E+02  0.51100000000E-03 0. -1.
         11   -1    0    0    0    0 -0.00000000000E+00 -0.00000000000E+00 -0.45593999997E+02  0.45594000000E+02  0.51100000000E-03 0.  1.
    9900012    2    1    2    0    0 -0.58731784113E+01 -0.23283508438E+02 -0.36152563609E+02  0.47787264461E+02  0.19999969982E+02 0.  0.
         12    1    1    2    0    0  0.58731784113E+01  0.23283508438E+02  0.36152563609E+02  0.43400735539E+02  0.00000000000E+00 0. -1.
         11    1    3    3    0    0 -0.46159274069E+01 -0.96353754811E+01 -0.28408001636E+02  0.30350647500E+02  0.51100000000E-03 0.  1.
        -11    1    3    3    0    0 -0.71834690705E+00 -0.11629855856E+02 -0.26772969798E+01  0.11955646736E+02  0.51100000000E-03 0. -1.
         12    1    3    3    0    0 -0.53890409737E+00 -0.20182771013E+01 -0.50672649934E+01  0.54809702241E+01  0.00000000000E+00 0. -1.
</event>
<event>
 7    1  0.5646756E-010  0.4778727E+02  0.7816164E-02  0.1312668E+00
        -11   -1    0    0    0    0  0.00000000000E+00  0.00000000000E+00  0.45593999997E+02  0.45594000000E+02  0.51100000000E-03 0.  1.
         11   -1    0    0    0    0 -0.00000000000E+00 -0.00000000000E+00 -0.45593999997E+02  0.45594000000E+02  0.51100000000E-03 0. -1.
    9900012    2    1    2    0    0 -0.88696148316E+01  0.42447777257E+02  0.17718654777E+01  0.47787269953E+02  0.19999995024E+02 0.  0.
         12    1    1    2    0    0  0.88696148316E+01 -0.42447777257E+02 -0.17718654777E+01  0.43400730047E+02  0.00000000000E+00 0. -1.
         11    1    3    3    0    0  0.37037517447E+01  0.54385342570E+01  0.47175030239E+01  0.80963119316E+01  0.51100000000E-03 0. -1.
        -11    1    3    3    0    0 -0.67988547756E+01  0.19811050287E+02  0.15436285070E+01  0.21002022021E+02  0.51100000000E-03 0.  1.
         12    1    3    3    0    0 -0.57745118007E+01  0.17198192713E+02 -0.44892660532E+01  0.18688936001E+02  0.00000000000E+00 0. -1.
</event>
<event>
 7    1  0.5646756E-010  0.4778727E+02  0.7816164E-02  0.1312668E+00
        -11   -1    0    0    0    0  0.00000000000E+00  0.00000000000E+00  0.45593999997E+02  0.45594000000E+02  0.51100000000E-03 0.  1.
         11   -1    0    0    0    0 -0.00000000000E+00 -0.00000000000E+00 -0.45593999997E+02  0.45594000000E+02  0.51100000000E-03 0. -1.
    9900012    2    1    2    0    0 -0.41764230778E+02 -0.11122275816E+02  0.39582075100E+01  0.47787269609E+02  0.19999993455E+02 0.  0.
         12    1    1    2    0    0  0.41764230778E+02  0.11122275816E+02 -0.39582075100E+01  0.43400730391E+02  0.00000000000E+00 0. -1.
         11    1    3    3    0    0 -0.59924282504E+01  0.45052543422E+01  0.36896642459E+00  0.75061740926E+01  0.51100000000E-03 0. -1.
        -11    1    3    3    0    0 -0.22452914049E+02 -0.10653818313E+02 -0.21586472894E+01  0.24945880468E+02  0.51100000000E-03 0.  1.
        -12    1    3    3    0    0 -0.13318888479E+02 -0.49737118449E+01  0.57478883748E+01  0.15335215049E+02  0.00000000000E+00 0.  1.
</event>
<event>
 7    1  0.5646756E-010  0.4778727E+02  0.7816164E-02  0.1312668E+00
        -11   -1    0    0    0    0  0.00000000000E+00  0.00000000000E+00  0.45593999997E+02  0.45594000000E+02  0.51100000000E-03 0.  1.
         11   -1    0    0    0    0 -0.00000000000E+00 -0.00000000000E+00 -0.45593999997E+02  0.45594000000E+02  0.51100000000E-03 0. -1.
    9900012    2    1    2    0    0 -0.87236062702E+01 -0.32890521662E+02  0.26939476350E+02  0.47787272960E+02  0.20000008734E+02 0.  0.
         12    1    1    2    0    0  0.87236062702E+01  0.32890521662E+02 -0.26939476350E+02  0.43400727040E+02  0.00000000000E+00 0. -1.
         11    1    3    3    0    0 -0.95573924676E+01 -0.68505487326E+01  0.65403514409E+01  0.13455480889E+02  0.51100000000E-03 0. -1.
        -11    1    3    3    0    0 -0.10399281008E+01 -0.64139174115E+01  0.82507466882E+00  0.65498500354E+01  0.51100000000E-03 0.  1.
         12    1    3    3    0    0  0.18737142982E+01 -0.19626055518E+02  0.19574050240E+02  0.27781942036E+02  0.00000000000E+00 0. -1.
</event>
<event>
 7    1  0.5646756E-010  0.4778727E+02  0.7816164E-02  0.1312668E+00
        -11   -1    0    0    0    0  0.00000000000E+00  0.00000000000E+00  0.45593999997E+02  0.45594000000E+02  0.51100000000E-03 0.  1.
         11   -1    0    0    0    0 -0.00000000000E+00 -0.00000000000E+00 -0.45593999997E+02  0.45594000000E+02  0.51100000000E-03 0. -1.
    9900012    2    1    2    0    0  0.35714569474E+02 -0.20005842336E+01  0.24578251258E+02  0.47787271378E+02  0.20000001523E+02 0.  0.
         12    1    1    2    0    0 -0.35714569474E+02  0.20005842336E+01 -0.24578251258E+02  0.43400728622E+02  0.00000000000E+00 0. -1.
         11    1    3    3    0    0  0.10593683928E+01 -0.42011643860E+00 -0.56856542355E+00  0.12735878908E+01  0.51100000000E-03 0. -1.
        -11    1    3    3    0    0  0.32022765724E+02  0.43135107092E+01  0.23176721661E+02  0.39764611484E+02  0.51100000000E-03 0.  1.
        -12    1    3    3    0    0  0.26324353570E+01 -0.58939785042E+01  0.19700950199E+01  0.67490720032E+01  0.00000000000E+00 0.  1.
</event>
<event>
 7    1  0.5646756E-010  0.4778727E+02  0.7816164E-02  0.1312668E+00
        -11   -1    0    0    0    0  0.00000000000E+00  0.00000000000E+00  0.45593999997E+02  0.45594000000E+02  0.51100000000E-03 0. -1.
         11   -1    0    0    0    0 -0.00000000000E+00 -0.00000000000E+00 -0.45593999997E+02  0.45594000000E+02  0.51100000000E-03 0.  1.
    9900012    2    1    2    0    0  0.38848944325E+01 -0.14407412529E+01 -0.43202486181E+02  0.47787274748E+02  0.20000016888E+02 0.  0.
         12    1    1    2    0    0 -0.38848944325E+01  0.14407412529E+01  0.43202486181E+02  0.43400725252E+02  0.00000000000E+00 0. -1.
         11    1    3    3    0    0 -0.59613963225E+01 -0.45703212845E+01 -0.13423112786E+02  0.15382003767E+02  0.51100000000E-03 0. -1.
        -11    1    3    3    0    0  0.98823989569E+01  0.42888555853E+01 -0.21530614893E+02  0.24075370595E+02  0.51100000000E-03 0.  1.
        -12    1    3    3    0    0 -0.36108201988E-01 -0.11592755537E+01 -0.82487585026E+01  0.83299003863E+01  0.00000000000E+00 0.  1.
</event>
<event>
 7    1  0.5646756E-010  0.4778727E+02  0.7816164E-02  0.1312668E+00
        -11   -1    0    0    0    0  0.00000000000E+00  0.00000000000E+00  0.45593999997E+02  0.45594000000E+02  0.51100000000E-03 0.  1.
         11   -1    0    0    0    0 -0.00000000000E+00 -0.00000000000E+00 -0.45593999997E+02  0.45594000000E+02  0.51100000000E-03 0. -1.
    9900012    2    1    2    0    0  0.26394483059E+02 -0.23715864473E+02  0.24990245204E+02  0.47787270524E+02  0.19999997629E+02 0.  0.
         12    1    1    2    0    0 -0.26394483059E+02  0.23715864473E+02 -0.24990245204E+02  0.43400729476E+02  0.00000000000E+00 0. -1.
         11    1    3    3    0    0  0.57768014928E+01 -0.15949591174E+02  0.15453456605E+02  0.22947117802E+02  0.51100000000E-03 0. -1.
        -11    1    3    3    0    0  0.14921561640E+02 -0.24200579224E+01  0.65960105174E+01  0.16492939008E+02  0.51100000000E-03 0.  1.
         12    1    3    3    0    0  0.56961199263E+01 -0.53462153774E+01  0.29407780808E+01  0.83472137146E+01  0.00000000000E+00 0. -1.
</event>
<event>
 7    1  0.5646756E-010  0.4778728E+02  0.7816164E-02  0.1312668E+00
        -11   -1    0    0    0    0  0.00000000000E+00  0.00000000000E+00  0.45593999997E+02  0.45594000000E+02  0.51100000000E-03 0.  1.
         11   -1    0    0    0    0 -0.00000000000E+00 -0.00000000000E+00 -0.45593999997E+02  0.45594000000E+02  0.51100000000E-03 0. -1.
    9900012    2    1    2    0    0  0.22169428741E+02  0.14544802593E+02  0.34359685424E+02  0.47787276094E+02  0.20000023022E+02 0.  0.
         12    1    1    2    0    0 -0.22169428741E+02 -0.14544802593E+02 -0.34359685424E+02  0.43400723906E+02  0.00000000000E+00 0. -1.
         11    1    3    3    0    0  0.20186347970E+01 -0.34376184859E+01  0.63166709512E+01  0.74694336777E+01  0.51100000000E-03 0. -1.
        -11    1    3    3    0    0  0.99386943725E+01  0.13167357879E+02  0.22041501494E+02  0.27531522801E+02  0.51100000000E-03 0.  1.
        -12    1    3    3    0    0  0.10212099572E+02  0.48150631995E+01  0.60015129781E+01  0.12786319615E+02  0.00000000000E+00 0.  1.
</event>
<event>
 7    1  0.5646756E-010  0.4778727E+02  0.7816164E-02  0.1312668E+00
        -11   -1    0    0    0    0  0.00000000000E+00  0.00000000000E+00  0.45593999997E+02  0.45594000000E+02  0.51100000000E-03 0. -1.
         11   -1    0    0    0    0 -0.00000000000E+00 -0.00000000000E+00 -0.45593999997E+02  0.45594000000E+02  0.51100000000E-03 0.  1.
    9900012    2    1    2    0    0  0.35312472972E+02  0.22020144312E+02  0.12319312047E+02  0.47787274750E+02  0.20000016895E+02 0.  0.
         12    1    1    2    0    0 -0.35312472972E+02 -0.22020144312E+02 -0.12319312047E+02  0.43400725250E+02  0.00000000000E+00 0. -1.
         11    1    3    3    0    0  0.53999080315E+01  0.29716449200E+00  0.64336230931E+01  0.84046903482E+01  0.51100000000E-03 0. -1.
        -11    1    3    3    0    0  0.74694601724E+01  0.12655394520E+02  0.13668003081E+01  0.14758725861E+02  0.51100000000E-03 0.  1.
        -12    1    3    3    0    0  0.22443104768E+02  0.90675853007E+01  0.45188886455E+01  0.24623858540E+02  0.00000000000E+00 0.  1.
</event>
<event>
 7    1  0.5646756E-010  0.4778728E+02  0.7816164E-02  0.1312668E+00
        -11   -1    0    0    0    0  0.00000000000E+00  0.00000000000E+00  0.45593999997E+02  0.45594000000E+02  0.51100000000E-03 0.  1.
         11   -1    0    0    0    0 -0.00000000000E+00 -0.00000000000E+00 -0.45593999997E+02  0.45594000000E+02  0.51100000000E-03 0. -1.
    9900012    2    1    2    0    0  0.72106910227E+01 -0.42770449581E+02 -0.15223238206E+01  0.47787275442E+02  0.20000020049E+02 0.  0.
         12    1    1    2    0    0 -0.72106910227E+01  0.42770449581E+02  0.15223238206E+01  0.43400724558E+02  0.00000000000E+00 0. -1.
         11    1    3    3    0    0  0.18534910590E+01 -0.29193685359E+02  0.63636495410E+01  0.29936645265E+02  0.51100000000E-03 0.  1.
        -11    1    3    3    0    0  0.29373318305E+01 -0.29593175542E+01 -0.51428044374E+01  0.66207187232E+01  0.51100000000E-03 0. -1.
        -12    1    3    3    0    0  0.24198681332E+01 -0.10617446667E+02 -0.27431689242E+01  0.11229911454E+02  0.00000000000E+00 0.  1.
</event>
<event>
 7    1  0.5646756E-010  0.4778727E+02  0.7816164E-02  0.1312668E+00
        -11   -1    0    0    0    0  0.00000000000E+00  0.00000000000E+00  0.45593999997E+02  0.45594000000E+02  0.51100000000E-03 0.  1.
         11   -1    0    0    0    0 -0.00000000000E+00 -0.00000000000E+00 -0.45593999997E+02  0.45594000000E+02  0.51100000000E-03 0. -1.
    9900012    2    1    2    0    0  0.17476076368E+02  0.26800282082E+02  0.29324983366E+02  0.47787274035E+02  0.20000013634E+02 0.  0.
         12    1    1    2    0    0 -0.17476076368E+02 -0.26800282082E+02 -0.29324983366E+02  0.43400725965E+02  0.00000000000E+00 0. -1.
         11    1    3    3    0    0 -0.20439871550E+01  0.40950665605E+01 -0.13995965827E+01  0.47860552107E+01  0.51100000000E-03 0. -1.
        -11    1    3    3    0    0  0.66273919770E+01  0.98831608371E+01  0.12413453852E+02  0.17195727067E+02  0.51100000000E-03 0.  1.
         12    1    3    3    0    0  0.12892671546E+02  0.12822054685E+02  0.18311126096E+02  0.25805491757E+02  0.00000000000E+00 0. -1.
</event>
<event>
 7    1  0.5646756E-010  0.4778727E+02  0.7816164E-02  0.1312668E+00
        -11   -1    0    0    0    0  0.00000000000E+00  0.00000000000E+00  0.45593999997E+02  0.45594000000E+02  0.51100000000E-03 0.  1.
         11   -1    0    0    0    0 -0.00000000000E+00 -0.00000000000E+00 -0.45593999997E+02  0.45594000000E+02  0.51100000000E-03 0. -1.
    9900012    2    1    2    0    0 -0.23615027944E+02  0.28760765381E+02  0.22333206310E+02  0.47787271041E+02  0.19999999984E+02 0.  0.
         12    1    1    2    0    0  0.23615027944E+02 -0.28760765381E+02 -0.22333206310E+02  0.43400728959E+02  0.00000000000E+00 0. -1.
         11    1    3    3    0    0 -0.17797269542E+02  0.17243031605E+02  0.21884949914E+02  0.33060792112E+02  0.51100000000E-03 0.  1.
        -11    1    3    3    0    0  0.16478657224E+01  0.25738521869E+01 -0.15995680649E+00  0.30603534045E+01  0.51100000000E-03 0. -1.
         12    1    3    3    0    0 -0.74656241242E+01  0.89438815893E+01  0.60821320252E+00  0.11666125524E+02  0.00000000000E+00 0. -1.
</event>
<event>
 7    1  0.5646756E-010  0.4778727E+02  0.7816164E-02  0.1312668E+00
        -11   -1    0    0    0    0  0.00000000000E+00  0.00000000000E+00  0.45593999997E+02  0.45594000000E+02  0.51100000000E-03 0. -1.
         11   -1    0    0    0    0 -0.00000000000E+00 -0.00000000000E+00 -0.45593999997E+02  0.45594000000E+02  0.51100000000E-03 0.  1.
    9900012    2    1    2    0    0 -0.38391433055E+02 -0.14614859745E+02  0.14004528349E+02  0.47787273374E+02  0.20000010621E+02 0.  0.
         12    1    1    2    0    0  0.38391433055E+02  0.14614859745E+02 -0.14004528349E+02  0.43400726626E+02  0.00000000000E+00 0. -1.
         11    1    3    3    0    0 -0.24049802761E+02 -0.58073092765E+01  0.12470366977E+02  0.27706098728E+02  0.51100000000E-03 0.  1.
        -11    1    3    3    0    0 -0.96966585796E+01 -0.32553698667E+01  0.57198744541E+01  0.11719197268E+02  0.51100000000E-03 0. -1.
         12    1    3    3    0    0 -0.46449717143E+01 -0.55521806016E+01 -0.41857130826E+01  0.83619773780E+01  0.00000000000E+00 0. -1.
</event>
<event>
 7    1  0.5646756E-010  0.4778727E+02  0.7816164E-02  0.1312668E+00
        -11   -1    0    0    0    0  0.00000000000E+00  0.00000000000E+00  0.45593999997E+02  0.45594000000E+02  0.51100000000E-03 0.  1.
         11   -1    0    0    0    0 -0.00000000000E+00 -0.00000000000E+00 -0.45593999997E+02  0.45594000000E+02  0.51100000000E-03 0. -1.
    9900012    2    1    2    0    0  0.18633156990E+02  0.27474372377E+02  0.27956887572E+02  0.47787271439E+02  0.20000001798E+02 0.  0.
         12    1    1    2    0    0 -0.18633156990E+02 -0.27474372377E+02 -0.27956887572E+02  0.43400728561E+02  0.00000000000E+00 0. -1.
         11    1    3    3    0    0  0.72129058807E+01  0.36568362217E+01  0.18642182751E+01  0.82990223782E+01  0.51100000000E-03 0. -1.
        -11    1    3    3    0    0  0.22797516044E+01  0.13304689717E+02  0.20350466498E+02  0.24420350587E+02  0.51100000000E-03 0.  1.
        -12    1    3    3    0    0  0.91404995051E+01  0.10512846438E+02  0.57422027992E+01  0.15067898474E+02  0.00000000000E+00 0.  1.
</event>
<event>
 7    1  0.5646756E-010  0.4778727E+02  0.7816164E-02  0.1312668E+00
        -11   -1    0    0    0    0  0.00000000000E+00  0.00000000000E+00  0.45593999997E+02  0.45594000000E+02  0.51100000000E-03 0.  1.
         11   -1    0    0    0    0 -0.00000000000E+00 -0.00000000000E+00 -0.45593999997E+02  0.45594000000E+02  0.51100000000E-03 0. -1.
    9900012    2    1    2    0    0 -0.42621121190E+02 -0.30202979543E+01  0.76118996384E+01  0.47787272041E+02  0.20000004545E+02 0.  0.
         12    1    1    2    0    0  0.42621121190E+02  0.30202979543E+01 -0.76118996384E+01  0.43400727959E+02  0.00000000000E+00 0. -1.
         11    1    3    3    0    0 -0.78592904650E+01  0.59294080654E+01 -0.16916908096E+01  0.99894016175E+01  0.51100000000E-03 0. -1.
        -11    1    3    3    0    0 -0.28066815094E+02 -0.86342771827E+01  0.10088665867E+02  0.31049605975E+02  0.51100000000E-03 0.  1.
        -12    1    3    3    0    0 -0.66950156313E+01 -0.31542883701E+00 -0.78507541867E+00  0.67482644485E+01  0.00000000000E+00 0.  1.
</event>
<event>
 7    1  0.5646756E-010  0.4778727E+02  0.7816164E-02  0.1312668E+00
        -11   -1    0    0    0    0  0.00000000000E+00  0.00000000000E+00  0.45593999997E+02  0.45594000000E+02  0.51100000000E-03 0.  1.
         11   -1    0    0    0    0 -0.00000000000E+00 -0.00000000000E+00 -0.45593999997E+02  0.45594000000E+02  0.51100000000E-03 0. -1.
    9900012    2    1    2    0    0  0.66330425951E+01 -0.61271965005E+01  0.42450955582E+02  0.47787269351E+02  0.19999992279E+02 0.  0.
         12    1    1    2    0    0 -0.66330425951E+01  0.61271965005E+01 -0.42450955582E+02  0.43400730649E+02  0.00000000000E+00 0. -1.
         11    1    3    3    0    0  0.57090681077E+01 -0.32207659154E+00  0.95119038978E+01  0.11098356095E+02  0.51100000000E-03 0. -1.
        -11    1    3    3    0    0 -0.68530508033E+01 -0.46440526254E+01  0.16055069304E+02  0.18063686797E+02  0.51100000000E-03 0.  1.
        -12    1    3    3    0    0  0.77770252907E+01 -0.11610672836E+01  0.16883982381E+02  0.18625226459E+02  0.00000000000E+00 0.  1.
</event>
<event>
 7    1  0.5646756E-010  0.4778727E+02  0.7816164E-02  0.1312668E+00
        -11   -1    0    0    0    0  0.00000000000E+00  0.00000000000E+00  0.45593999997E+02  0.45594000000E+02  0.51100000000E-03 0.  1.
         11   -1    0    0    0    0 -0.00000000000E+00 -0.00000000000E+00 -0.45593999997E+02  0.45594000000E+02  0.51100000000E-03 0. -1.
    9900012    2    1    2    0    0  0.10823440611E+02 -0.41812643100E+02 -0.42637104067E+01  0.47787271710E+02  0.20000003034E+02 0.  0.
         12    1    1    2    0    0 -0.10823440611E+02  0.41812643100E+02  0.42637104067E+01  0.43400728290E+02  0.00000000000E+00 0. -1.
         11    1    3    3    0    0  0.35051190743E+01 -0.15497495779E+02 -0.58324294389E+01  0.16925586210E+02  0.51100000000E-03 0. -1.
        -11    1    3    3    0    0  0.66129955485E+00 -0.12240838456E+02  0.73039641497E+01  0.14269664879E+02  0.51100000000E-03 0.  1.
        -12    1    3    3    0    0  0.66570219820E+01 -0.14074308865E+02 -0.57352451175E+01  0.16592020620E+02  0.00000000000E+00 0.  1.
</event>
<event>
 7    1  0.5646756E-010  0.4778727E+02  0.7816164E-02  0.1312668E+00
        -11   -1    0    0    0    0  0.00000000000E+00  0.00000000000E+00  0.45593999997E+02  0.45594000000E+02  0.51100000000E-03 0.  1.
         11   -1    0    0    0    0 -0.00000000000E+00 -0.00000000000E+00 -0.45593999997E+02  0.45594000000E+02  0.51100000000E-03 0. -1.
    9900012    2    1    2    0    0 -0.96099411960E+01 -0.39826450852E+02  0.14322223519E+02  0.47787271391E+02  0.20000001580E+02 0.  0.
         12    1    1    2    0    0  0.96099411960E+01  0.39826450852E+02 -0.14322223519E+02  0.43400728609E+02  0.00000000000E+00 0. -1.
         11    1    3    3    0    0 -0.60772567942E+01 -0.30307053868E+02  0.21271886386E+01  0.30983471337E+02  0.51100000000E-03 0. -1.
        -11    1    3    3    0    0 -0.44038259266E+01 -0.94826615065E+01  0.11989582550E+02  0.15908005596E+02  0.51100000000E-03 0.  1.
         12    1    3    3    0    0  0.87114152480E+00 -0.36735477186E-01  0.20545233012E+00  0.89579445827E+00  0.00000000000E+00 0. -1.
</event>
<event>
 7    1  0.5646756E-010  0.4778727E+02  0.7816164E-02  0.1312668E+00
        -11   -1    0    0    0    0  0.00000000000E+00  0.00000000000E+00  0.45593999997E+02  0.45594000000E+02  0.51100000000E-03 0.  1.
         11   -1    0    0    0    0 -0.00000000000E+00 -0.00000000000E+00 -0.45593999997E+02  0.45594000000E+02  0.51100000000E-03 0. -1.
    9900012    2    1    2    0    0 -0.69062491808E+01  0.17080508989E+02  0.39296095797E+02  0.47787271781E+02  0.20000003357E+02 0.  0.
         12    1    1    2    0    0  0.69062491808E+01 -0.17080508989E+02 -0.39296095797E+02  0.43400728219E+02  0.00000000000E+00 0. -1.
         11    1    3    3    0    0 -0.97036980780E+01  0.21158661804E+01  0.19646317315E+02  0.22014005324E+02  0.51100000000E-03 0. -1.
        -11    1    3    3    0    0  0.55044674272E+00  0.12622439213E+02  0.11837018937E+02  0.17313115863E+02  0.51100000000E-03 0.  1.
         12    1    3    3    0    0  0.22470021544E+01  0.23422035957E+01  0.78127595453E+01  0.84601505943E+01  0.00000000000E+00 0. -1.
</event>
<event>
 7    1  0.5646756E-010  0.4778727E+02  0.7816164E-02  0.1312668E+00
        -11   -1    0    0    0    0  0.00000000000E+00  0.00000000000E+00  0.45593999997E+02  0.45594000000E+02  0.51100000000E-03 0.  1.
         11   -1    0    0    0    0 -0.00000000000E+00 -0.00000000000E+00 -0.45593999997E+02  0.45594000000E+02  0.51100000000E-03 0. -1.
    9900012    2    1    2    0    0  0.31475263557E+02  0.24453527340E+02 -0.17174284670E+02  0.47787271097E+02  0.20000000240E+02 0.  0.
         12    1    1    2    0    0 -0.31475263557E+02 -0.24453527340E+02  0.17174284670E+02  0.43400728903E+02  0.00000000000E+00 0. -1.
         11    1    3    3    0    0  0.26084936467E+02  0.17568836628E+02 -0.14133018622E+02  0.34479416274E+02  0.51100000000E-03 0. -1.
        -11    1    3    3    0    0  0.51678344100E+01  0.69355690736E+00  0.17242448752E+01  0.54918625551E+01  0.51100000000E-03 0.  1.
         12    1    3    3    0    0  0.22249268042E+00  0.61911338039E+01 -0.47655109239E+01  0.78159922682E+01  0.00000000000E+00 0. -1.
</event>
<event>
 7    1  0.5646756E-010  0.4778727E+02  0.7816164E-02  0.1312668E+00
        -11   -1    0    0    0    0  0.00000000000E+00  0.00000000000E+00  0.45593999997E+02  0.45594000000E+02  0.51100000000E-03 0. -1.
         11   -1    0    0    0    0 -0.00000000000E+00 -0.00000000000E+00 -0.45593999997E+02  0.45594000000E+02  0.51100000000E-03 0.  1.
    9900012    2    1    2    0    0  0.34956031474E+02  0.20281409428E+02 -0.15822893070E+02  0.47787266713E+02  0.19999980249E+02 0.  0.
         12    1    1    2    0    0 -0.34956031474E+02 -0.20281409428E+02  0.15822893070E+02  0.43400733287E+02  0.00000000000E+00 0. -1.
         11    1    3    3    0    0  0.78943067254E+01 -0.27231238544E+01 -0.52239028940E+01  0.98501088272E+01  0.51100000000E-03 0. -1.
        -11    1    3    3    0    0  0.37572825325E+01  0.76343553317E+01 -0.25943876148E+01  0.88955832140E+01  0.51100000000E-03 0.  1.
         12    1    3    3    0    0  0.23304442216E+02  0.15370177951E+02 -0.80046025613E+01  0.29041574671E+02  0.00000000000E+00 0. -1.
</event>
<event>
 7    1  0.5646756E-010  0.4778727E+02  0.7816164E-02  0.1312668E+00
        -11   -1    0    0    0    0  0.00000000000E+00  0.00000000000E+00  0.45593999997E+02  0.45594000000E+02  0.51100000000E-03 0.  1.
         11   -1    0    0    0    0 -0.00000000000E+00 -0.00000000000E+00 -0.45593999997E+02  0.45594000000E+02  0.51100000000E-03 0. -1.
    9900012    2    1    2    0    0 -0.10886196976E+02 -0.17996347671E+01  0.41974699896E+02  0.47787269577E+02  0.19999993310E+02 0.  0.
         12    1    1    2    0    0  0.10886196976E+02  0.17996347671E+01 -0.41974699896E+02  0.43400730423E+02  0.00000000000E+00 0. -1.
         11    1    3    3    0    0 -0.15330273143E+01 -0.22364096639E+01  0.22256415360E+01  0.35078742051E+01  0.51100000000E-03 0. -1.
        -11    1    3    3    0    0 -0.21540951637E+01 -0.69238193749E+01  0.75234200119E+01  0.10448983187E+02  0.51100000000E-03 0.  1.
        -12    1    3    3    0    0 -0.71990744982E+01  0.73605942718E+01  0.32225638348E+02  0.33830412185E+02  0.00000000000E+00 0.  1.
</event>
<event>
 7    1  0.5646756E-010  0.4778727E+02  0.7816164E-02  0.1312668E+00
        -11   -1    0    0    0    0  0.00000000000E+00  0.00000000000E+00  0.45593999997E+02  0.45594000000E+02  0.51100000000E-03 0. -1.
         11   -1    0    0    0    0 -0.00000000000E+00 -0.00000000000E+00 -0.45593999997E+02  0.45594000000E+02  0.51100000000E-03 0.  1.
    9900012    2    1    2    0    0  0.41089055548E+02 -0.69714042898E+01  0.12112487069E+02  0.47787270668E+02  0.19999998283E+02 0.  0.
         12    1    1    2    0    0 -0.41089055548E+02  0.69714042898E+01 -0.12112487069E+02  0.43400729332E+02  0.00000000000E+00 0. -1.
         11    1    3    3    0    0  0.18099381276E+02  0.53608178491E+01  0.20077321700E+01  0.18983070334E+02  0.51100000000E-03 0. -1.
        -11    1    3    3    0    0  0.53311388669E+01 -0.59247765800E+01  0.13677284851E+01  0.80866989934E+01  0.51100000000E-03 0.  1.
         12    1    3    3    0    0  0.17658535405E+02 -0.64074455589E+01  0.87370264135E+01  0.20717501340E+02  0.00000000000E+00 0. -1.
</event>
<event>
 7    1  0.5646756E-010  0.4778727E+02  0.7816164E-02  0.1312668E+00
        -11   -1    0    0    0    0  0.00000000000E+00  0.00000000000E+00  0.45593999997E+02  0.45594000000E+02  0.51100000000E-03 0. -1.
         11   -1    0    0    0    0 -0.00000000000E+00 -0.00000000000E+00 -0.45593999997E+02  0.45594000000E+02  0.51100000000E-03 0.  1.
    9900012    2    1    2    0    0 -0.21015646231E+02  0.25617804782E+02 -0.28030230505E+02  0.47787272696E+02  0.20000007529E+02 0.  0.
         12    1    1    2    0    0  0.21015646231E+02 -0.25617804782E+02  0.28030230505E+02  0.43400727304E+02  0.00000000000E+00 0. -1.
         11    1    3    3    0    0  0.10934131115E+01  0.11122891187E+02 -0.13166444590E+02  0.17270481290E+02  0.51100000000E-03 0. -1.
        -11    1    3    3    0    0 -0.15324346191E+02  0.10322783409E+02 -0.85812233751E+01  0.20372354757E+02  0.51100000000E-03 0.  1.
        -12    1    3    3    0    0 -0.67847131514E+01  0.41721301860E+01 -0.62825625402E+01  0.10144436648E+02  0.00000000000E+00 0.  1.
</event>
<event>
 7    1  0.5646756E-010  0.4778727E+02  0.7816164E-02  0.1312668E+00
        -11   -1    0    0    0    0  0.00000000000E+00  0.00000000000E+00  0.45593999997E+02  0.45594000000E+02  0.51100000000E-03 0. -1.
         11   -1    0    0    0    0 -0.00000000000E+00 -0.00000000000E+00 -0.45593999997E+02  0.45594000000E+02  0.51100000000E-03 0.  1.
    9900012    2    1    2    0    0  0.29477399064E+02 -0.15562901578E+01 -0.31816414434E+02  0.47787270489E+02  0.19999997467E+02 0.  0.
         12    1    1    2    0    0 -0.29477399064E+02  0.15562901578E+01  0.31816414434E+02  0.43400729511E+02  0.00000000000E+00 0. -1.
         11    1    3    3    0    0  0.37799061729E+00 -0.59858558836E-01  0.71721940797E+00  0.81293535666E+00  0.51100000000E-03 0. -1.
        -11    1    3    3    0    0  0.13399960691E+02  0.77425680374E+01 -0.17448225802E+02  0.23322669021E+02  0.51100000000E-03 0.  1.
        -12    1    3    3    0    0  0.15699447755E+02 -0.92389996364E+01 -0.15085408040E+02  0.23651666111E+02  0.00000000000E+00 0.  1.
</event>
<event>
 7    1  0.5646756E-010  0.4778727E+02  0.7816164E-02  0.1312668E+00
        -11   -1    0    0    0    0  0.00000000000E+00  0.00000000000E+00  0.45593999997E+02  0.45594000000E+02  0.51100000000E-03 0. -1.
         11   -1    0    0    0    0 -0.00000000000E+00 -0.00000000000E+00 -0.45593999997E+02  0.45594000000E+02  0.51100000000E-03 0.  1.
    9900012    2    1    2    0    0 -0.22722222447E+02  0.69402849289E+01 -0.36320197567E+02  0.47787266145E+02  0.19999977664E+02 0.  0.
         12    1    1    2    0    0  0.22722222447E+02 -0.69402849289E+01  0.36320197567E+02  0.43400733855E+02  0.00000000000E+00 0. -1.
         11    1    3    3    0    0 -0.20623417522E+01  0.22837885937E+01  0.53297800725E+00  0.31229808935E+01  0.51100000000E-03 0. -1.
        -11    1    3    3    0    0 -0.20800748117E+02  0.19452162927E+01 -0.36316495773E+02  0.41896811981E+02  0.51100000000E-03 0.  1.
        -12    1    3    3    0    0  0.14086742202E+00  0.27112800425E+01 -0.53667980112E+00  0.27674732715E+01  0.00000000000E+00 0.  1.
</event>
<event>
 7    1  0.5646756E-010  0.4778727E+02  0.7816164E-02  0.1312668E+00
        -11   -1    0    0    0    0  0.00000000000E+00  0.00000000000E+00  0.45593999997E+02  0.45594000000E+02  0.51100000000E-03 0.  1.
         11   -1    0    0    0    0 -0.00000000000E+00 -0.00000000000E+00 -0.45593999997E+02  0.45594000000E+02  0.51100000000E-03 0. -1.
    9900012    2    1    2    0    0  0.28931899050E+02 -0.12465821312E+02  0.29852500450E+02  0.47787271126E+02  0.20000000373E+02 0.  0.
         12    1    1    2    0    0 -0.28931899050E+02  0.12465821312E+02 -0.29852500450E+02  0.43400728874E+02  0.00000000000E+00 0. -1.
         11    1    3    3    0    0  0.71010823641E+01  0.12470296958E+01  0.96306033576E+00  0.72737843847E+01  0.51100000000E-03 0. -1.
        -11    1    3    3    0    0  0.15122059767E+02 -0.15034168158E+02  0.24017868327E+02  0.32117921836E+02  0.51100000000E-03 0.  1.
        -12    1    3    3    0    0  0.67087569194E+01  0.13213171496E+01  0.48715717867E+01  0.83955649058E+01  0.00000000000E+00 0.  1.
</event>
<event>
 7    1  0.5646756E-010  0.4778727E+02  0.7816164E-02  0.1312668E+00
        -11   -1    0    0    0    0  0.00000000000E+00  0.00000000000E+00  0.45593999997E+02  0.45594000000E+02  0.51100000000E-03 0. -1.
         11   -1    0    0    0    0 -0.00000000000E+00 -0.00000000000E+00 -0.45593999997E+02  0.45594000000E+02  0.51100000000E-03 0.  1.
    9900012    2    1    2    0    0  0.21885485356E+02 -0.16649621872E+02 -0.33577356703E+02  0.47787271194E+02  0.20000000680E+02 0.  0.
         12    1    1    2    0    0 -0.21885485356E+02  0.16649621872E+02  0.33577356703E+02  0.43400728806E+02  0.00000000000E+00 0. -1.
         11    1    3    3    0    0  0.20216073564E+02 -0.40938964372E+01 -0.22128874101E+02  0.30251226217E+02  0.51100000000E-03 0. -1.
        -11    1    3    3    0    0  0.72546925629E+00 -0.11735529587E+02 -0.90730735990E+01  0.14851586619E+02  0.51100000000E-03 0.  1.
        -12    1    3    3    0    0  0.94394253610E+00 -0.82019584847E+00 -0.23754090030E+01  0.26844583574E+01  0.00000000000E+00 0.  1.
</event>
<event>
 7    1  0.5646756E-010  0.4778726E+02  0.7816164E-02  0.1312668E+00
        -11   -1    0    0    0    0  0.00000000000E+00  0.00000000000E+00  0.45593999997E+02  0.45594000000E+02  0.51100000000E-03 0.  1.
         11   -1    0    0    0    0 -0.00000000000E+00 -0.00000000000E+00 -0.45593999997E+02  0.45594000000E+02  0.51100000000E-03 0. -1.
    9900012    2    1    2    0    0 -0.38979950697E+02 -0.18535078547E+02  0.45429341024E+01  0.47787263332E+02  0.19999964835E+02 0.  0.
         12    1    1    2    0    0  0.38979950697E+02  0.18535078547E+02 -0.45429341024E+01  0.43400736668E+02  0.00000000000E+00 0. -1.
         11    1    3    3    0    0 -0.98298257932E+01 -0.66111098830E+00  0.77467458996E+01  0.12532941201E+02  0.51100000000E-03 0. -1.
        -11    1    3    3    0    0 -0.23835097747E+02 -0.17857385370E+02 -0.24032905543E+01  0.29879322325E+02  0.51100000000E-03 0.  1.
        -12    1    3    3    0    0 -0.53150271565E+01 -0.16582188529E-01 -0.80052124294E+00  0.53749998050E+01  0.00000000000E+00 0.  1.
</event>
<event>
 7    1  0.5646756E-010  0.4778727E+02  0.7816164E-02  0.1312668E+00
        -11   -1    0    0    0    0  0.00000000000E+00  0.00000000000E+00  0.45593999997E+02  0.45594000000E+02  0.51100000000E-03 0.  1.
         11   -1    0    0    0    0 -0.00000000000E+00 -0.00000000000E+00 -0.45593999997E+02  0.45594000000E+02  0.51100000000E-03 0. -1.
    9900012    2    1    2    0    0  0.33056943865E+02 -0.13013471033E+02  0.24930129185E+02  0.47787270660E+02  0.19999998249E+02 0.  0.
         12    1    1    2    0    0 -0.33056943865E+02  0.13013471033E+02 -0.24930129185E+02  0.43400729340E+02  0.00000000000E+00 0. -1.
         11    1    3    3    0    0  0.50207590940E+01 -0.62233586275E+00  0.41141144468E+01  0.65208329030E+01  0.51100000000E-03 0. -1.
        -11    1    3    3    0    0  0.21385847320E+02 -0.39389058559E+01  0.21381752335E+02  0.30496701102E+02  0.51100000000E-03 0.  1.
        -12    1    3    3    0    0  0.66503374514E+01 -0.84522293144E+01 -0.56573759685E+00  0.10769736656E+02  0.00000000000E+00 0.  1.
</event>
<event>
 7    1  0.5682088E-010  0.4778727E+02  0.7816164E-02  0.1312668E+00
        -11   -1    0    0    0    0  0.00000000000E+00  0.00000000000E+00  0.45593999997E+02  0.45594000000E+02  0.51100000000E-03 0.  1.
         11   -1    0    0    0    0 -0.00000000000E+00 -0.00000000000E+00 -0.45593999997E+02  0.45594000000E+02  0.51100000000E-03 0. -1.
    9900012    2    1    2    0    0 -0.24020015527E+02  0.27495648314E+02  0.23465957007E+02  0.47787274656E+02  0.20000016464E+02 0.  0.
         12    1    1    2    0    0  0.24020015527E+02 -0.27495648314E+02 -0.23465957007E+02  0.43400725344E+02  0.00000000000E+00 0. -1.
         11    1    3    3    0    0 -0.29026164732E+01 -0.88730508216E+00  0.72174434659E+00  0.31198409995E+01  0.51100000000E-03 0. -1.
        -11    1    3    3    0    0 -0.18532146415E+01  0.10596456900E+02  0.12565987847E+02  0.16541564441E+02  0.51100000000E-03 0.  1.
        -12    1    3    3    0    0 -0.19264184413E+02  0.17786496497E+02  0.10178224814E+02  0.28125869215E+02  0.00000000000E+00 0.  1.
</event>
<event>
 7    1  0.5646756E-010  0.4778727E+02  0.7816164E-02  0.1312668E+00
        -11   -1    0    0    0    0  0.00000000000E+00  0.00000000000E+00  0.45593999997E+02  0.45594000000E+02  0.51100000000E-03 0. -1.
         11   -1    0    0    0    0 -0.00000000000E+00 -0.00000000000E+00 -0.45593999997E+02  0.45594000000E+02  0.51100000000E-03 0.  1.
    9900012    2    1    2    0    0  0.11243127711E+02  0.29164458142E+02 -0.30110621539E+02  0.47787273405E+02  0.20000010765E+02 0.  0.
         12    1    1    2    0    0 -0.11243127711E+02 -0.29164458142E+02  0.30110621539E+02  0.43400726595E+02  0.00000000000E+00 0. -1.
         11    1    3    3    0    0  0.25469259211E+01  0.22466674850E+01 -0.65611410943E+01  0.73880253895E+01  0.51100000000E-03 0. -1.
        -11    1    3    3    0    0 -0.41906858677E+01  0.18530954968E+01 -0.24759495326E+01  0.52082758482E+01  0.51100000000E-03 0.  1.
        -12    1    3    3    0    0  0.12886887658E+02  0.25064695161E+02 -0.21073530912E+02  0.35190972168E+02  0.00000000000E+00 0.  1.
</event>
<event>
 7    1  0.5646756E-010  0.4778727E+02  0.7816164E-02  0.1312668E+00
        -11   -1    0    0    0    0  0.00000000000E+00  0.00000000000E+00  0.45593999997E+02  0.45594000000E+02  0.51100000000E-03 0.  1.
         11   -1    0    0    0    0 -0.00000000000E+00 -0.00000000000E+00 -0.45593999997E+02  0.45594000000E+02  0.51100000000E-03 0. -1.
    9900012    2    1    2    0    0  0.33783925056E+01 -0.65671694503E+01  0.42767767551E+02  0.47787271990E+02  0.20000004311E+02 0.  0.
         12    1    1    2    0    0 -0.33783925056E+01  0.65671694503E+01 -0.42767767551E+02  0.43400728010E+02  0.00000000000E+00 0. -1.
         11    1    3    3    0    0 -0.71178883057E+00 -0.82717872759E+01  0.94065234239E+01  0.12546385586E+02  0.51100000000E-03 0. -1.
        -11    1    3    3    0    0  0.33942214017E+00  0.50492883991E+01  0.24821920708E+02  0.25332553535E+02  0.51100000000E-03 0.  1.
        -12    1    3    3    0    0  0.37507591960E+01 -0.33446705736E+01  0.85393234191E+01  0.99083328692E+01  0.00000000000E+00 0.  1.
</event>
<event>
 7    1  0.5646756E-010  0.4778727E+02  0.7816164E-02  0.1312668E+00
        -11   -1    0    0    0    0  0.00000000000E+00  0.00000000000E+00  0.45593999997E+02  0.45594000000E+02  0.51100000000E-03 0.  1.
         11   -1    0    0    0    0 -0.00000000000E+00 -0.00000000000E+00 -0.45593999997E+02  0.45594000000E+02  0.51100000000E-03 0. -1.
    9900012    2    1    2    0    0 -0.38382364999E+02 -0.16503609108E+02  0.11749381535E+02  0.47787273935E+02  0.20000013181E+02 0.  0.
         12    1    1    2    0    0  0.38382364999E+02  0.16503609108E+02 -0.11749381535E+02  0.43400726065E+02  0.00000000000E+00 0. -1.
         11    1    3    3    0    0 -0.16361477175E+02 -0.30568663227E+01 -0.26326046121E+01  0.16851497689E+02  0.51100000000E-03 0. -1.
        -11    1    3    3    0    0 -0.48109371169E+01 -0.79870740227E+01  0.45005506226E+01  0.10353425692E+02  0.51100000000E-03 0.  1.
         12    1    3    3    0    0 -0.17209950707E+02 -0.54596687622E+01  0.98814355248E+01  0.20582350555E+02  0.00000000000E+00 0. -1.
</event>
<event>
 7    1  0.5646756E-010  0.4778727E+02  0.7816164E-02  0.1312668E+00
        -11   -1    0    0    0    0  0.00000000000E+00  0.00000000000E+00  0.45593999997E+02  0.45594000000E+02  0.51100000000E-03 0. -1.
         11   -1    0    0    0    0 -0.00000000000E+00 -0.00000000000E+00 -0.45593999997E+02  0.45594000000E+02  0.51100000000E-03 0.  1.
    9900012    2    1    2    0    0  0.18443241728E+02 -0.37863786122E+02 -0.10478721415E+02  0.47787273423E+02  0.20000010844E+02 0.  0.
         12    1    1    2    0    0 -0.18443241728E+02  0.37863786122E+02  0.10478721415E+02  0.43400726577E+02  0.00000000000E+00 0. -1.
         11    1    3    3    0    0  0.49363419670E+01 -0.11088847382E+01  0.33544434028E+01  0.60703696907E+01  0.51100000000E-03 0. -1.
        -11    1    3    3    0    0  0.41831680512E+01 -0.74904824134E+01 -0.20543312853E+01  0.88219328393E+01  0.51100000000E-03 0.  1.
         12    1    3    3    0    0  0.93237317098E+01 -0.29264418970E+02 -0.11778833532E+02  0.32894970893E+02  0.00000000000E+00 0. -1.
</event>
<event>
 7    1  0.5646756E-010  0.4778727E+02  0.7816164E-02  0.1312668E+00
        -11   -1    0    0    0    0  0.00000000000E+00  0.00000000000E+00  0.45593999997E+02  0.45594000000E+02  0.51100000000E-03 0. -1.
         11   -1    0    0    0    0 -0.00000000000E+00 -0.00000000000E+00 -0.45593999997E+02  0.45594000000E+02  0.51100000000E-03 0.  1.
    9900012    2    1    2    0    0 -0.20471241792E+02  0.41631307120E+01 -0.38042341543E+02  0.47787272496E+02  0.20000006616E+02 0.  0.
         12    1    1    2    0    0  0.20471241792E+02 -0.41631307120E+01  0.38042341543E+02  0.43400727504E+02  0.00000000000E+00 0. -1.
         11    1    3    3    0    0  0.36943934121E+01  0.21997591467E+01 -0.88070424399E+01  0.98005856859E+01  0.51100000000E-03 0. -1.
        -11    1    3    3    0    0 -0.16805295007E+02  0.13259692816E+01 -0.19841342687E+02  0.26035648920E+02  0.51100000000E-03 0.  1.
         12    1    3    3    0    0 -0.73603401970E+01  0.63740228368E+00 -0.93939564166E+01  0.11951037890E+02  0.00000000000E+00 0. -1.
</event>
<event>
 7    1  0.5646756E-010  0.4778727E+02  0.7816164E-02  0.1312668E+00
        -11   -1    0    0    0    0  0.00000000000E+00  0.00000000000E+00  0.45593999997E+02  0.45594000000E+02  0.51100000000E-03 0.  1.
         11   -1    0    0    0    0 -0.00000000000E+00 -0.00000000000E+00 -0.45593999997E+02  0.45594000000E+02  0.51100000000E-03 0. -1.
    9900012    2    1    2    0    0  0.15671846531E+02 -0.20072571347E+02  0.35144105646E+02  0.47787273556E+02  0.20000011453E+02 0.  0.
         12    1    1    2    0    0 -0.15671846531E+02  0.20072571347E+02 -0.35144105646E+02  0.43400726444E+02  0.00000000000E+00 0. -1.
         11    1    3    3    0    0  0.71260043635E+01 -0.34057027474E+01  0.56679955868E+01  0.97213642882E+01  0.51100000000E-03 0. -1.
        -11    1    3    3    0    0 -0.98988644824E+00 -0.12113485974E+02  0.21958215273E+02  0.25097402970E+02  0.51100000000E-03 0.  1.
        -12    1    3    3    0    0  0.95357286161E+01 -0.45533826252E+01  0.75178947865E+01  0.12968506298E+02  0.00000000000E+00 0.  1.
</event>
<event>
 7    1  0.6631539E-010  0.4778728E+02  0.7816164E-02  0.1312668E+00
        -11   -1    0    0    0    0  0.00000000000E+00  0.00000000000E+00  0.45593999997E+02  0.45594000000E+02  0.51100000000E-03 0. -1.
         11   -1    0    0    0    0 -0.00000000000E+00 -0.00000000000E+00 -0.45593999997E+02  0.45594000000E+02  0.51100000000E-03 0.  1.
    9900012    2    1    2    0    0 -0.50351590875E+01 -0.15017455048E+02 -0.40407251936E+02  0.47787276594E+02  0.20000025303E+02 0.  0.
         12    1    1    2    0    0  0.50351590875E+01  0.15017455048E+02  0.40407251936E+02  0.43400723406E+02  0.00000000000E+00 0. -1.
         11    1    3    3    0    0 -0.46099009808E+01 -0.92259261094E+00 -0.13762804215E+01  0.48986235044E+01  0.51100000000E-03 0. -1.
        -11    1    3    3    0    0 -0.59594981680E-01 -0.60909259033E+01 -0.30820206025E+02  0.31416365633E+02  0.51100000000E-03 0.  1.
        -12    1    3    3    0    0 -0.36566312497E+00 -0.80039365339E+01 -0.82107654897E+01  0.11472287457E+02  0.00000000000E+00 0.  1.
</event>
<event>
 7    1  0.5646756E-010  0.4778727E+02  0.7816164E-02  0.1312668E+00
        -11   -1    0    0    0    0  0.00000000000E+00  0.00000000000E+00  0.45593999997E+02  0.45594000000E+02  0.51100000000E-03 0. -1.
         11   -1    0    0    0    0 -0.00000000000E+00 -0.00000000000E+00 -0.45593999997E+02  0.45594000000E+02  0.51100000000E-03 0.  1.
    9900012    2    1    2    0    0  0.89609749351E+01  0.41515600544E+02 -0.89319379583E+01  0.47787266411E+02  0.19999978876E+02 0.  0.
         12    1    1    2    0    0 -0.89609749351E+01 -0.41515600544E+02  0.89319379583E+01  0.43400733589E+02  0.00000000000E+00 0. -1.
         11    1    3    3    0    0  0.19783491209E+01 -0.78505496343E+00 -0.17458318895E+00  0.21355692662E+01  0.51100000000E-03 0. -1.
        -11    1    3    3    0    0 -0.26763303101E+00  0.31806957420E+02 -0.83707058828E+01  0.32891076069E+02  0.51100000000E-03 0.  1.
        -12    1    3    3    0    0  0.72502588452E+01  0.10493698088E+02 -0.38664888658E+00  0.12760621076E+02  0.00000000000E+00 0.  1.
</event>
<event>
 7    1  0.5646756E-010  0.4778727E+02  0.7816164E-02  0.1312668E+00
        -11   -1    0    0    0    0  0.00000000000E+00  0.00000000000E+00  0.45593999997E+02  0.45594000000E+02  0.51100000000E-03 0. -1.
         11   -1    0    0    0    0 -0.00000000000E+00 -0.00000000000E+00 -0.45593999997E+02  0.45594000000E+02  0.51100000000E-03 0.  1.
    9900012    2    1    2    0    0 -0.36706807740E+02  0.22205022393E+02  0.65704399359E+01  0.47787269190E+02  0.19999991543E+02 0.  0.
         12    1    1    2    0    0  0.36706807740E+02 -0.22205022393E+02 -0.65704399359E+01  0.43400730810E+02  0.00000000000E+00 0. -1.
         11    1    3    3    0    0  0.21785298176E-01  0.47784301180E+01 -0.22617423634E+01  0.52867142699E+01  0.51100000000E-03 0. -1.
        -11    1    3    3    0    0 -0.33648732591E+02  0.15722688398E+02  0.53053030738E+01  0.37517814121E+02  0.51100000000E-03 0.  1.
        -12    1    3    3    0    0 -0.30798604466E+01  0.17039038773E+01  0.35268792255E+01  0.49827407985E+01  0.00000000000E+00 0.  1.
</event>
<event>
 7    1  0.5646756E-010  0.4778727E+02  0.7816164E-02  0.1312668E+00
        -11   -1    0    0    0    0  0.00000000000E+00  0.00000000000E+00  0.45593999997E+02  0.45594000000E+02  0.51100000000E-03 0.  1.
         11   -1    0    0    0    0 -0.00000000000E+00 -0.00000000000E+00 -0.45593999997E+02  0.45594000000E+02  0.51100000000E-03 0. -1.
    9900012    2    1    2    0    0 -0.20673225801E+02  0.83148523750E+01  0.37243846670E+02  0.47787272474E+02  0.20000006517E+02 0.  0.
         12    1    1    2    0    0  0.20673225801E+02 -0.83148523750E+01 -0.37243846670E+02  0.43400727526E+02  0.00000000000E+00 0. -1.
         11    1    3    3    0    0 -0.14531713252E+01  0.10285811913E+02  0.13288398349E+02  0.16866865878E+02  0.51100000000E-03 0. -1.
        -11    1    3    3    0    0 -0.18294777074E+02 -0.21789864220E+01  0.23519474556E+02  0.29876621858E+02  0.51100000000E-03 0.  1.
         12    1    3    3    0    0 -0.92527740129E+00  0.20802688351E+00  0.43597376550E+00  0.10437847373E+01  0.00000000000E+00 0. -1.
</event>
<event>
 7    1  0.5646756E-010  0.4778728E+02  0.7816164E-02  0.1312668E+00
        -11   -1    0    0    0    0  0.00000000000E+00  0.00000000000E+00  0.45593999997E+02  0.45594000000E+02  0.51100000000E-03 0.  1.
         11   -1    0    0    0    0 -0.00000000000E+00 -0.00000000000E+00 -0.45593999997E+02  0.45594000000E+02  0.51100000000E-03 0. -1.
    9900012    2    1    2    0    0  0.41372126553E+02 -0.89228806873E+01  0.96100016377E+01  0.47787276657E+02  0.20000025588E+02 0.  0.
         12    1    1    2    0    0 -0.41372126553E+02  0.89228806873E+01 -0.96100016377E+01  0.43400723343E+02  0.00000000000E+00 0. -1.
         11    1    3    3    0    0  0.13292635116E+02 -0.61147699499E+00  0.55752872978E+01  0.14427469672E+02  0.51100000000E-03 0. -1.
        -11    1    3    3    0    0  0.48243434919E+00 -0.34977741120E+01  0.40141478406E+01  0.53460779818E+01  0.51100000000E-03 0.  1.
        -12    1    3    3    0    0  0.27597057088E+02 -0.48136295803E+01  0.20566499315E-01  0.28013729002E+02  0.00000000000E+00 0.  1.
</event>
<event>
 7    1  0.5646756E-010  0.4778728E+02  0.7816164E-02  0.1312668E+00
        -11   -1    0    0    0    0  0.00000000000E+00  0.00000000000E+00  0.45593999997E+02  0.45594000000E+02  0.51100000000E-03 0.  1.
         11   -1    0    0    0    0 -0.00000000000E+00 -0.00000000000E+00 -0.45593999997E+02  0.45594000000E+02  0.51100000000E-03 0. -1.
    9900012    2    1    2    0    0  0.11343689141E+02 -0.10212147383E+01  0.41879591861E+02  0.47787281374E+02  0.20000047095E+02 0.  0.
         12    1    1    2    0    0 -0.11343689141E+02  0.10212147383E+01 -0.41879591861E+02  0.43400718626E+02  0.00000000000E+00 0. -1.
         11    1    3    3    0    0  0.10547739415E+02 -0.21808633648E+01  0.38872434435E+02  0.40337044152E+02  0.51100000000E-03 0.  1.
        -11    1    3    3    0    0 -0.94825485980E+00  0.33198152705E+01  0.13458445451E+00  0.34552096819E+01  0.51100000000E-03 0. -1.
         12    1    3    3    0    0  0.17442045852E+01 -0.21601666440E+01  0.28725729715E+01  0.39950275395E+01  0.00000000000E+00 0. -1.
</event>
<event>
 7    1  0.7952903E-010  0.4778726E+02  0.7816164E-02  0.1312668E+00
        -11   -1    0    0    0    0  0.00000000000E+00  0.00000000000E+00  0.45593999997E+02  0.45594000000E+02  0.51100000000E-03 0.  1.
         11   -1    0    0    0    0 -0.00000000000E+00 -0.00000000000E+00 -0.45593999997E+02  0.45594000000E+02  0.51100000000E-03 0. -1.
    9900012    2    1    2    0    0  0.37988103448E+02  0.13552253280E+02  0.16026985574E+02  0.47787264532E+02  0.19999970308E+02 0.  0.
         12    1    1    2    0    0 -0.37988103448E+02 -0.13552253280E+02 -0.16026985574E+02  0.43400735468E+02  0.00000000000E+00 0. -1.
         11    1    3    3    0    0  0.10003943611E+02 -0.37053540192E+01  0.32221593717E+01  0.11144094735E+02  0.51100000000E-03 0. -1.
        -11    1    3    3    0    0  0.16469003504E+02  0.10118777902E+02  0.12637181953E+02  0.23093637882E+02  0.51100000000E-03 0.  1.
         12    1    3    3    0    0  0.11515156333E+02  0.71388293972E+01  0.16764424960E+00  0.13549531916E+02  0.00000000000E+00 0. -1.
</event>
<event>
 7    1  0.5646756E-010  0.4778728E+02  0.7816164E-02  0.1312668E+00
        -11   -1    0    0    0    0  0.00000000000E+00  0.00000000000E+00  0.45593999997E+02  0.45594000000E+02  0.51100000000E-03 0.  1.
         11   -1    0    0    0    0 -0.00000000000E+00 -0.00000000000E+00 -0.45593999997E+02  0.45594000000E+02  0.51100000000E-03 0. -1.
    9900012    2    1    2    0    0  0.12241576394E+02 -0.20525568693E+02  0.36227993971E+02  0.47787277542E+02  0.20000029624E+02 0.  0.
         12    1    1    2    0    0 -0.12241576394E+02  0.20525568693E+02 -0.36227993971E+02  0.43400722458E+02  0.00000000000E+00 0. -1.
         11    1    3    3    0    0  0.23570834731E+01  0.37853373561E-01  0.22932085577E+01  0.32887811005E+01  0.51100000000E-03 0. -1.
        -11    1    3    3    0    0  0.76349157033E+01 -0.41447483612E+00  0.14609556205E+02  0.16489477250E+02  0.51100000000E-03 0.  1.
        -12    1    3    3    0    0  0.22495772172E+01 -0.20148947230E+02  0.19325229208E+02  0.28009019192E+02  0.00000000000E+00 0.  1.
</event>
<event>
 7    1  0.5646756E-010  0.4778727E+02  0.7816164E-02  0.1312668E+00
        -11   -1    0    0    0    0  0.00000000000E+00  0.00000000000E+00  0.45593999997E+02  0.45594000000E+02  0.51100000000E-03 0.  1.
         11   -1    0    0    0    0 -0.00000000000E+00 -0.00000000000E+00 -0.45593999997E+02  0.45594000000E+02  0.51100000000E-03 0. -1.
    9900012    2    1    2    0    0  0.27773696466E+02 -0.32555314641E+02 -0.72385773185E+01  0.47787265809E+02  0.19999976129E+02 0.  0.
         12    1    1    2    0    0 -0.27773696466E+02  0.32555314641E+02  0.72385773185E+01  0.43400734191E+02  0.00000000000E+00 0. -1.
         11    1    3    3    0    0  0.19287678088E+02 -0.18585801040E+02 -0.11898388412E+02  0.29309011812E+02  0.51100000000E-03 0. -1.
        -11    1    3    3    0    0  0.20535376676E+00 -0.48244372425E+01  0.37385549002E+01  0.61068942909E+01  0.51100000000E-03 0.  1.
         12    1    3    3    0    0  0.82806646107E+01 -0.91450763585E+01  0.92125619376E+00  0.12371359706E+02  0.00000000000E+00 0. -1.
</event>
<event>
 7    1  0.5646756E-010  0.4778727E+02  0.7816164E-02  0.1312668E+00
        -11   -1    0    0    0    0  0.00000000000E+00  0.00000000000E+00  0.45593999997E+02  0.45594000000E+02  0.51100000000E-03 0.  1.
         11   -1    0    0    0    0 -0.00000000000E+00 -0.00000000000E+00 -0.45593999997E+02  0.45594000000E+02  0.51100000000E-03 0. -1.
    9900012    2    1    2    0    0  0.12777388723E+02  0.19140637223E+02  0.36796703929E+02  0.47787273325E+02  0.20000010398E+02 0.  0.
         12    1    1    2    0    0 -0.12777388723E+02 -0.19140637223E+02 -0.36796703929E+02  0.43400726675E+02  0.00000000000E+00 0. -1.
         11    1    3    3    0    0  0.27269357095E+01  0.25072730481E+01  0.19736683970E-01  0.37044549261E+01  0.51100000000E-03 0. -1.
        -11    1    3    3    0    0  0.32072964388E+01  0.18875673886E+00  0.17676561722E+02  0.17966168599E+02  0.51100000000E-03 0.  1.
        -12    1    3    3    0    0  0.68431565744E+01  0.16444607436E+02  0.19100405523E+02  0.26116649800E+02  0.00000000000E+00 0.  1.
</event>
<event>
 7    1  0.5646756E-010  0.4778727E+02  0.7816164E-02  0.1312668E+00
        -11   -1    0    0    0    0  0.00000000000E+00  0.00000000000E+00  0.45593999997E+02  0.45594000000E+02  0.51100000000E-03 0.  1.
         11   -1    0    0    0    0 -0.00000000000E+00 -0.00000000000E+00 -0.45593999997E+02  0.45594000000E+02  0.51100000000E-03 0. -1.
    9900012    2    1    2    0    0  0.19295467405E+02  0.57765052726E+01  0.38443992368E+02  0.47787267003E+02  0.19999981572E+02 0.  0.
         12    1    1    2    0    0 -0.19295467405E+02 -0.57765052726E+01 -0.38443992368E+02  0.43400732997E+02  0.00000000000E+00 0. -1.
         11    1    3    3    0    0  0.68114636980E+01  0.83934349482E+01  0.10035732495E+02  0.14749973387E+02  0.51100000000E-03 0. -1.
        -11    1    3    3    0    0  0.10481540255E+02 -0.55210757005E+01  0.14684530660E+02  0.18867442963E+02  0.51100000000E-03 0.  1.
        -12    1    3    3    0    0  0.20024634520E+01  0.29041460248E+01  0.13723729213E+02  0.14169850653E+02  0.00000000000E+00 0.  1.
</event>
<event>
 7    1  0.5646756E-010  0.4778725E+02  0.7816164E-02  0.1312668E+00
        -11   -1    0    0    0    0  0.00000000000E+00  0.00000000000E+00  0.45593999997E+02  0.45594000000E+02  0.51100000000E-03 0.  1.
         11   -1    0    0    0    0 -0.00000000000E+00 -0.00000000000E+00 -0.45593999997E+02  0.45594000000E+02  0.51100000000E-03 0. -1.
    9900012    2    1    2    0    0 -0.22423335214E+02  0.15042969708E+02  0.33978348541E+02  0.47787250359E+02  0.19999905687E+02 0.  0.
         12    1    1    2    0    0  0.22423335214E+02 -0.15042969708E+02 -0.33978348541E+02  0.43400749641E+02  0.00000000000E+00 0. -1.
         11    1    3    3    0    0 -0.12579711873E+02  0.58785078490E+01  0.90802450858E+01  0.16590866657E+02  0.51100000000E-03 0. -1.
        -11    1    3    3    0    0  0.26459795067E+01  0.31972763945E+01  0.10172231819E+02  0.10986267990E+02  0.51100000000E-03 0.  1.
        -12    1    3    3    0    0 -0.12489602848E+02  0.59671854649E+01  0.14725871636E+02  0.20210115712E+02  0.00000000000E+00 0.  1.
</event>
<event>
 7    1  0.5646756E-010  0.4778727E+02  0.7816164E-02  0.1312668E+00
        -11   -1    0    0    0    0  0.00000000000E+00  0.00000000000E+00  0.45593999997E+02  0.45594000000E+02  0.51100000000E-03 0.  1.
         11   -1    0    0    0    0 -0.00000000000E+00 -0.00000000000E+00 -0.45593999997E+02  0.45594000000E+02  0.51100000000E-03 0. -1.
    9900012    2    1    2    0    0 -0.34172488844E+02  0.92764314521E+01  0.25096051256E+02  0.47787274627E+02  0.20000016332E+02 0.  0.
         12    1    1    2    0    0  0.34172488844E+02 -0.92764314521E+01 -0.25096051256E+02  0.43400725373E+02  0.00000000000E+00 0. -1.
         11    1    3    3    0    0 -0.19287425292E+02  0.31865797906E+01  0.21534561894E+02  0.29084298537E+02  0.51100000000E-03 0. -1.
        -11    1    3    3    0    0 -0.15433779161E+02  0.36952056557E+01  0.26904178056E+01  0.16096410539E+02  0.51100000000E-03 0.  1.
         12    1    3    3    0    0  0.54871560861E+00  0.23946460058E+01  0.87107155698E+00  0.26065655506E+01  0.00000000000E+00 0. -1.
</event>
<event>
 7    1  0.5646756E-010  0.4778727E+02  0.7816164E-02  0.1312668E+00
        -11   -1    0    0    0    0  0.00000000000E+00  0.00000000000E+00  0.45593999997E+02  0.45594000000E+02  0.51100000000E-03 0. -1.
         11   -1    0    0    0    0 -0.00000000000E+00 -0.00000000000E+00 -0.45593999997E+02  0.45594000000E+02  0.51100000000E-03 0.  1.
    9900012    2    1    2    0    0  0.41177944189E+02  0.11077831094E+02 -0.80797320028E+01  0.47787268456E+02  0.19999988197E+02 0.  0.
         12    1    1    2    0    0 -0.41177944189E+02 -0.11077831094E+02  0.80797320028E+01  0.43400731544E+02  0.00000000000E+00 0. -1.
         11    1    3    3    0    0  0.28307224899E+02 -0.18283529327E+01 -0.60233056491E+01  0.28998656299E+02  0.51100000000E-03 0. -1.
        -11    1    3    3    0    0  0.10046822276E+02  0.79946632455E+01 -0.25897875671E+01  0.13098102082E+02  0.51100000000E-03 0.  1.
         12    1    3    3    0    0  0.28238970135E+01  0.49115207807E+01  0.53336121333E+00  0.56905100743E+01  0.00000000000E+00 0. -1.
</event>
<event>
 7    1  0.5646756E-010  0.4778727E+02  0.7816164E-02  0.1312668E+00
        -11   -1    0    0    0    0  0.00000000000E+00  0.00000000000E+00  0.45593999997E+02  0.45594000000E+02  0.51100000000E-03 0. -1.
         11   -1    0    0    0    0 -0.00000000000E+00 -0.00000000000E+00 -0.45593999997E+02  0.45594000000E+02  0.51100000000E-03 0.  1.
    9900012    2    1    2    0    0 -0.61245035749E+01 -0.79735100540E+01 -0.42220101146E+02  0.47787270197E+02  0.19999996138E+02 0.  0.
         12    1    1    2    0    0  0.61245035749E+01  0.79735100540E+01  0.42220101146E+02  0.43400729803E+02  0.00000000000E+00 0. -1.
         11    1    3    3    0    0  0.47281783723E+01 -0.56551506675E+01 -0.70436539666E+01  0.10195560860E+02  0.51100000000E-03 0. -1.
        -11    1    3    3    0    0 -0.86748308380E+01 -0.46945980553E+01 -0.28883808503E+02  0.30521571632E+02  0.51100000000E-03 0.  1.
        -12    1    3    3    0    0 -0.21778511092E+01  0.23762386688E+01 -0.62926386762E+01  0.70701377055E+01  0.00000000000E+00 0.  1.
</event>
<event>
 7    1  0.5646756E-010  0.4778727E+02  0.7816164E-02  0.1312668E+00
        -11   -1    0    0    0    0  0.00000000000E+00  0.00000000000E+00  0.45593999997E+02  0.45594000000E+02  0.51100000000E-03 0.  1.
         11   -1    0    0    0    0 -0.00000000000E+00 -0.00000000000E+00 -0.45593999997E+02  0.45594000000E+02  0.51100000000E-03 0. -1.
    9900012    2    1    2    0    0  0.29943155688E+02 -0.11636789418E+02  0.29182454337E+02  0.47787273259E+02  0.20000010096E+02 0.  0.
         12    1    1    2    0    0 -0.29943155688E+02  0.11636789418E+02 -0.29182454337E+02  0.43400726741E+02  0.00000000000E+00 0. -1.
         11    1    3    3    0    0  0.16418086009E+01 -0.52999770537E+01  0.48865574172E+01  0.73934928082E+01  0.51100000000E-03 0. -1.
        -11    1    3    3    0    0  0.23250470660E+02 -0.25243110203E+01  0.11375550726E+02  0.26006916131E+02  0.51100000000E-03 0.  1.
        -12    1    3    3    0    0  0.50508764265E+01 -0.38125013444E+01  0.12920346194E+02  0.14386864320E+02  0.00000000000E+00 0.  1.
</event>
<event>
 7    1  0.5646756E-010  0.4778727E+02  0.7816164E-02  0.1312668E+00
        -11   -1    0    0    0    0  0.00000000000E+00  0.00000000000E+00  0.45593999997E+02  0.45594000000E+02  0.51100000000E-03 0.  1.
         11   -1    0    0    0    0 -0.00000000000E+00 -0.00000000000E+00 -0.45593999997E+02  0.45594000000E+02  0.51100000000E-03 0. -1.
    9900012    2    1    2    0    0 -0.20873091874E+02 -0.15661395133E+02  0.34679364051E+02  0.47787267831E+02  0.19999985347E+02 0.  0.
         12    1    1    2    0    0  0.20873091874E+02  0.15661395133E+02 -0.34679364051E+02  0.43400732169E+02  0.00000000000E+00 0. -1.
         11    1    3    3    0    0 -0.36168840674E+01 -0.96212870093E+01  0.85664130358E+01  0.13380375429E+02  0.51100000000E-03 0. -1.
        -11    1    3    3    0    0 -0.16417239824E+02 -0.31397487933E+01  0.13640561861E+02  0.21574260452E+02  0.51100000000E-03 0.  1.
        -12    1    3    3    0    0 -0.83896798251E+00 -0.29003593301E+01  0.12472389155E+02  0.12832631949E+02  0.00000000000E+00 0.  1.
</event>
<event>
 7    1  0.5646756E-010  0.4778725E+02  0.7816164E-02  0.1312668E+00
        -11   -1    0    0    0    0  0.00000000000E+00  0.00000000000E+00  0.45593999997E+02  0.45594000000E+02  0.51100000000E-03 0.  1.
         11   -1    0    0    0    0 -0.00000000000E+00 -0.00000000000E+00 -0.45593999997E+02  0.45594000000E+02  0.51100000000E-03 0. -1.
    9900012    2    1    2    0    0  0.50514635394E+01  0.83151954684E+01  0.42296164289E+02  0.47787248012E+02  0.19999894986E+02 0.  0.
         12    1    1    2    0    0 -0.50514635394E+01 -0.83151954684E+01 -0.42296164289E+02  0.43400751988E+02  0.00000000000E+00 0. -1.
         11    1    3    3    0    0  0.41047981139E+01 -0.43767030412E+00  0.10402369418E+02  0.11191524142E+02  0.51100000000E-03 0. -1.
        -11    1    3    3    0    0  0.42634795318E+01  0.58233483582E+01  0.38018769995E+01  0.81573839434E+01  0.51100000000E-03 0.  1.
        -12    1    3    3    0    0 -0.33168141063E+01  0.29295174143E+01  0.28091917872E+02  0.28438339927E+02  0.00000000000E+00 0.  1.
</event>
<event>
 7    1  0.5646756E-010  0.4778727E+02  0.7816164E-02  0.1312668E+00
        -11   -1    0    0    0    0  0.00000000000E+00  0.00000000000E+00  0.45593999997E+02  0.45594000000E+02  0.51100000000E-03 0.  1.
         11   -1    0    0    0    0 -0.00000000000E+00 -0.00000000000E+00 -0.45593999997E+02  0.45594000000E+02  0.51100000000E-03 0. -1.
    9900012    2    1    2    0    0 -0.24257168625E+02 -0.12132914284E+02  0.33882229381E+02  0.47787270668E+02  0.19999998283E+02 0.  0.
         12    1    1    2    0    0  0.24257168625E+02  0.12132914284E+02 -0.33882229381E+02  0.43400729332E+02  0.00000000000E+00 0. -1.
         11    1    3    3    0    0 -0.58026950309E+01 -0.15923909338E+01 -0.40274730759E+00  0.60306868732E+01  0.51100000000E-03 0. -1.
        -11    1    3    3    0    0 -0.17962457958E+02 -0.10300827489E+02  0.35113193246E+02  0.40763872277E+02  0.51100000000E-03 0.  1.
        -12    1    3    3    0    0 -0.49201563628E+00 -0.23969586093E+00 -0.82821655700E+00  0.99271151770E+00  0.00000000000E+00 0.  1.
</event>
<event>
 7    1  0.5646756E-010  0.4778729E+02  0.7816164E-02  0.1312668E+00
        -11   -1    0    0    0    0  0.00000000000E+00  0.00000000000E+00  0.45593999997E+02  0.45594000000E+02  0.51100000000E-03 0. -1.
         11   -1    0    0    0    0 -0.00000000000E+00 -0.00000000000E+00 -0.45593999997E+02  0.45594000000E+02  0.51100000000E-03 0.  1.
    9900012    2    1    2    0    0  0.28616951149E+02  0.11602253790E+02 -0.30497197667E+02  0.47787294342E+02  0.20000106222E+02 0.  0.
         12    1    1    2    0    0 -0.28616951149E+02 -0.11602253790E+02  0.30497197667E+02  0.43400705658E+02  0.00000000000E+00 0. -1.
         11    1    3    3    0    0  0.40624994224E+01  0.10213218180E+02 -0.10056345938E+02  0.14897779064E+02  0.51100000000E-03 0. -1.
        -11    1    3    3    0    0  0.20654449038E+01  0.61219157652E+00 -0.54249854781E+01  0.58370633778E+01  0.51100000000E-03 0.  1.
         12    1    3    3    0    0  0.22489006823E+02  0.77684403309E+00 -0.15015866251E+02  0.27052451900E+02  0.00000000000E+00 0. -1.
</event>
<event>
 7    1  0.5646756E-010  0.4778728E+02  0.7816164E-02  0.1312668E+00
        -11   -1    0    0    0    0  0.00000000000E+00  0.00000000000E+00  0.45593999997E+02  0.45594000000E+02  0.51100000000E-03 0.  1.
         11   -1    0    0    0    0 -0.00000000000E+00 -0.00000000000E+00 -0.45593999997E+02  0.45594000000E+02  0.51100000000E-03 0. -1.
    9900012    2    1    2    0    0 -0.24836512649E+02 -0.34026108240E+01  0.35428695668E+02  0.47787278834E+02  0.20000035516E+02 0.  0.
         12    1    1    2    0    0  0.24836512649E+02  0.34026108240E+01 -0.35428695668E+02  0.43400721166E+02  0.00000000000E+00 0. -1.
         11    1    3    3    0    0 -0.36878627666E+01 -0.67424557096E+01  0.56321747144E+01  0.95279815835E+01  0.51100000000E-03 0. -1.
        -11    1    3    3    0    0 -0.20571806622E+02  0.58214137669E+01  0.27468342815E+02  0.34808015502E+02  0.51100000000E-03 0.  1.
        -12    1    3    3    0    0 -0.57684326017E+00 -0.24815688813E+01  0.23281781389E+01  0.34512817482E+01  0.00000000000E+00 0.  1.
</event>
<event>
 7    1  0.5646756E-010  0.4778727E+02  0.7816164E-02  0.1312668E+00
        -11   -1    0    0    0    0  0.00000000000E+00  0.00000000000E+00  0.45593999997E+02  0.45594000000E+02  0.51100000000E-03 0.  1.
         11   -1    0    0    0    0 -0.00000000000E+00 -0.00000000000E+00 -0.45593999997E+02  0.45594000000E+02  0.51100000000E-03 0. -1.
    9900012    2    1    2    0    0  0.21217047818E+02 -0.46009417798E+01  0.37580470073E+02  0.47787268275E+02  0.19999987375E+02 0.  0.
         12    1    1    2    0    0 -0.21217047818E+02  0.46009417798E+01 -0.37580470073E+02  0.43400731725E+02  0.00000000000E+00 0. -1.
         11    1    3    3    0    0 -0.31004895105E+01  0.22091063352E+01  0.30161264876E+01  0.48569749079E+01  0.51100000000E-03 0. -1.
        -11    1    3    3    0    0  0.10125374000E+02 -0.45114015690E+01  0.15036782188E+02  0.18681026781E+02  0.51100000000E-03 0.  1.
         12    1    3    3    0    0  0.14192163328E+02 -0.22986465461E+01  0.19527561397E+02  0.24249266587E+02  0.00000000000E+00 0. -1.
</event>
<event>
 7    1  0.5646756E-010  0.4778727E+02  0.7816164E-02  0.1312668E+00
        -11   -1    0    0    0    0  0.00000000000E+00  0.00000000000E+00  0.45593999997E+02  0.45594000000E+02  0.51100000000E-03 0.  1.
         11   -1    0    0    0    0 -0.00000000000E+00 -0.00000000000E+00 -0.45593999997E+02  0.45594000000E+02  0.51100000000E-03 0. -1.
    9900012    2    1    2    0    0 -0.33954786092E+02  0.43606883689E+01  0.26677337408E+02  0.47787269214E+02  0.19999991652E+02 0.  0.
         12    1    1    2    0    0  0.33954786092E+02 -0.43606883689E+01 -0.26677337408E+02  0.43400730786E+02  0.00000000000E+00 0. -1.
         11    1    3    3    0    0 -0.57289794568E+01  0.13417188179E+01  0.15139117899E+02  0.16242361467E+02  0.51100000000E-03 0. -1.
        -11    1    3    3    0    0 -0.21974402944E+02  0.51259400005E+01  0.10419165614E+02  0.24853745352E+02  0.51100000000E-03 0.  1.
         12    1    3    3    0    0 -0.62514036908E+01 -0.21069704494E+01  0.11190538956E+01  0.66911623954E+01  0.00000000000E+00 0. -1.
</event>
<event>
 7    1  0.5646756E-010  0.4778727E+02  0.7816164E-02  0.1312668E+00
        -11   -1    0    0    0    0  0.00000000000E+00  0.00000000000E+00  0.45593999997E+02  0.45594000000E+02  0.51100000000E-03 0.  1.
         11   -1    0    0    0    0 -0.00000000000E+00 -0.00000000000E+00 -0.45593999997E+02  0.45594000000E+02  0.51100000000E-03 0. -1.
    9900012    2    1    2    0    0 -0.29444432788E+02  0.34777312750E+01  0.31694701094E+02  0.47787270577E+02  0.19999997867E+02 0.  0.
         12    1    1    2    0    0  0.29444432788E+02 -0.34777312750E+01 -0.31694701094E+02  0.43400729423E+02  0.00000000000E+00 0. -1.
         11    1    3    3    0    0 -0.16063228507E+01  0.50050813615E+01  0.63534544057E+01  0.82460594033E+01  0.51100000000E-03 0. -1.
        -11    1    3    3    0    0 -0.23926874434E+02  0.10192065168E+01  0.25350782796E+02  0.34874005946E+02  0.51100000000E-03 0.  1.
         12    1    3    3    0    0 -0.39112355035E+01 -0.25465566033E+01 -0.95361073916E-02  0.46672052274E+01  0.00000000000E+00 0. -1.
</event>
<event>
 7    1  0.5646756E-010  0.4778727E+02  0.7816164E-02  0.1312668E+00
        -11   -1    0    0    0    0  0.00000000000E+00  0.00000000000E+00  0.45593999997E+02  0.45594000000E+02  0.51100000000E-03 0.  1.
         11   -1    0    0    0    0 -0.00000000000E+00 -0.00000000000E+00 -0.45593999997E+02  0.45594000000E+02  0.51100000000E-03 0. -1.
    9900012    2    1    2    0    0 -0.14835627400E+02 -0.39403474363E+02  0.10530613336E+02  0.47787269021E+02  0.19999990776E+02 0.  0.
         12    1    1    2    0    0  0.14835627400E+02  0.39403474363E+02 -0.10530613336E+02  0.43400730979E+02  0.00000000000E+00 0. -1.
         11    1    3    3    0    0 -0.15754734753E+01 -0.21629389477E+01 -0.16422572643E+01  0.31396545584E+01  0.51100000000E-03 0. -1.
        -11    1    3    3    0    0 -0.47664390669E+01 -0.10564119467E-01  0.11821938425E+01  0.49108691208E+01  0.51100000000E-03 0.  1.
        -12    1    3    3    0    0 -0.84937148576E+01 -0.37229971296E+02  0.10990676758E+02  0.39736745342E+02  0.00000000000E+00 0.  1.
</event>
<event>
 7    1  0.5646756E-010  0.4778726E+02  0.7816164E-02  0.1312668E+00
        -11   -1    0    0    0    0  0.00000000000E+00  0.00000000000E+00  0.45593999997E+02  0.45594000000E+02  0.51100000000E-03 0.  1.
         11   -1    0    0    0    0 -0.00000000000E+00 -0.00000000000E+00 -0.45593999997E+02  0.45594000000E+02  0.51100000000E-03 0. -1.
    9900012    2    1    2    0    0 -0.22812070731E+02 -0.36896918471E+02  0.13603827936E+01  0.47787264925E+02  0.19999972100E+02 0.  0.
         12    1    1    2    0    0  0.22812070731E+02  0.36896918471E+02 -0.13603827936E+01  0.43400735075E+02  0.00000000000E+00 0. -1.
         11    1    3    3    0    0 -0.18708137538E+02 -0.13443070643E+02 -0.34837115897E+01  0.23299073054E+02  0.51100000000E-03 0. -1.
        -11    1    3    3    0    0 -0.34560586781E+01 -0.15560758720E+02  0.44917785314E+01  0.16560725472E+02  0.51100000000E-03 0.  1.
         12    1    3    3    0    0 -0.64787451512E+00 -0.78930891081E+01  0.35231585183E+00  0.79274663995E+01  0.00000000000E+00 0. -1.
</event>
<event>
 7    1  0.5646756E-010  0.4778727E+02  0.7816164E-02  0.1312668E+00
        -11   -1    0    0    0    0  0.00000000000E+00  0.00000000000E+00  0.45593999997E+02  0.45594000000E+02  0.51100000000E-03 0.  1.
         11   -1    0    0    0    0 -0.00000000000E+00 -0.00000000000E+00 -0.45593999997E+02  0.45594000000E+02  0.51100000000E-03 0. -1.
    9900012    2    1    2    0    0 -0.18167060808E+02 -0.21925255009E+02 -0.32754607536E+02  0.47787271660E+02  0.20000002809E+02 0.  0.
         12    1    1    2    0    0  0.18167060808E+02  0.21925255009E+02  0.32754607536E+02  0.43400728340E+02  0.00000000000E+00 0. -1.
         11    1    3    3    0    0 -0.10600034015E+02 -0.15883868578E+02 -0.29307169240E+02  0.34979539323E+02  0.51100000000E-03 0. -1.
        -11    1    3    3    0    0 -0.71916685456E+01 -0.76878316714E+01 -0.23276472624E+01  0.10781502415E+02  0.51100000000E-03 0.  1.
         12    1    3    3    0    0 -0.37535824689E+00  0.16464452402E+01 -0.11197910327E+01  0.20262299226E+01  0.00000000000E+00 0. -1.
</event>
<event>
 7    1  0.5646756E-010  0.4778728E+02  0.7816164E-02  0.1312668E+00
        -11   -1    0    0    0    0  0.00000000000E+00  0.00000000000E+00  0.45593999997E+02  0.45594000000E+02  0.51100000000E-03 0.  1.
         11   -1    0    0    0    0 -0.00000000000E+00 -0.00000000000E+00 -0.45593999997E+02  0.45594000000E+02  0.51100000000E-03 0. -1.
    9900012    2    1    2    0    0  0.85303551976E+01  0.14552429404E+02  0.39988532359E+02  0.47787275564E+02  0.20000020608E+02 0.  0.
         12    1    1    2    0    0 -0.85303551976E+01 -0.14552429404E+02 -0.39988532359E+02  0.43400724436E+02  0.00000000000E+00 0. -1.
         11    1    3    3    0    0  0.21324561819E+01  0.69734496643E+01  0.35424605570E+01  0.81071201205E+01  0.51100000000E-03 0. -1.
        -11    1    3    3    0    0  0.25192816973E+01  0.60825046519E+01  0.34440987256E+02  0.35064586787E+02  0.51100000000E-03 0.  1.
        -12    1    3    3    0    0  0.38786173184E+01  0.14964750878E+01  0.20050845455E+01  0.46155686568E+01  0.00000000000E+00 0.  1.
</event>
<event>
 7    1  0.5646756E-010  0.4778727E+02  0.7816164E-02  0.1312668E+00
        -11   -1    0    0    0    0  0.00000000000E+00  0.00000000000E+00  0.45593999997E+02  0.45594000000E+02  0.51100000000E-03 0.  1.
         11   -1    0    0    0    0 -0.00000000000E+00 -0.00000000000E+00 -0.45593999997E+02  0.45594000000E+02  0.51100000000E-03 0. -1.
    9900012    2    1    2    0    0 -0.37032850654E+02 -0.17588886151E+02  0.14241572913E+02  0.47787270253E+02  0.19999996390E+02 0.  0.
         12    1    1    2    0    0  0.37032850654E+02  0.17588886151E+02 -0.14241572913E+02  0.43400729747E+02  0.00000000000E+00 0. -1.
         11    1    3    3    0    0 -0.17790037089E+02 -0.17212148442E+02  0.49521696181E+01  0.25244156904E+02  0.51100000000E-03 0. -1.
        -11    1    3    3    0    0 -0.19468236109E+02 -0.12806335653E+01  0.92954422908E+01  0.21611512838E+02  0.51100000000E-03 0.  1.
         12    1    3    3    0    0  0.22542254330E+00  0.90389585649E+00 -0.60389962338E-02  0.93160051089E+00  0.00000000000E+00 0. -1.
</event>
<event>
 7    1  0.5646756E-010  0.4778727E+02  0.7816164E-02  0.1312668E+00
        -11   -1    0    0    0    0  0.00000000000E+00  0.00000000000E+00  0.45593999997E+02  0.45594000000E+02  0.51100000000E-03 0.  1.
         11   -1    0    0    0    0 -0.00000000000E+00 -0.00000000000E+00 -0.45593999997E+02  0.45594000000E+02  0.51100000000E-03 0. -1.
    9900012    2    1    2    0    0 -0.32871543662E+02 -0.24571624093E+02  0.14118078912E+02  0.47787271372E+02  0.20000001492E+02 0.  0.
         12    1    1    2    0    0  0.32871543662E+02  0.24571624093E+02 -0.14118078912E+02  0.43400728628E+02  0.00000000000E+00 0. -1.
         11    1    3    3    0    0 -0.24400452402E+02 -0.12040190739E+02  0.13362866940E+02  0.30313602286E+02  0.51100000000E-03 0. -1.
        -11    1    3    3    0    0 -0.21390483069E+01 -0.13075403675E+01  0.34926672736E+01  0.42992923158E+01  0.51100000000E-03 0.  1.
         12    1    3    3    0    0 -0.63320429530E+01 -0.11223892987E+02 -0.27374553012E+01  0.13174376769E+02  0.00000000000E+00 0. -1.
</event>
<event>
 7    1  0.5646756E-010  0.4778727E+02  0.7816164E-02  0.1312668E+00
        -11   -1    0    0    0    0  0.00000000000E+00  0.00000000000E+00  0.45593999997E+02  0.45594000000E+02  0.51100000000E-03 0.  1.
         11   -1    0    0    0    0 -0.00000000000E+00 -0.00000000000E+00 -0.45593999997E+02  0.45594000000E+02  0.51100000000E-03 0. -1.
    9900012    2    1    2    0    0  0.38317173701E+02 -0.14124180715E+02  0.14694392508E+02  0.47787268986E+02  0.19999990617E+02 0.  0.
         12    1    1    2    0    0 -0.38317173701E+02  0.14124180715E+02 -0.14694392508E+02  0.43400731014E+02  0.00000000000E+00 0. -1.
         11    1    3    3    0    0  0.10242782155E+02 -0.18280061848E+01  0.10067975956E+02  0.14478271064E+02  0.51100000000E-03 0. -1.
        -11    1    3    3    0    0  0.25908893597E+02 -0.67375765521E+01  0.21729457731E+01  0.26858655939E+02  0.51100000000E-03 0.  1.
         12    1    3    3    0    0  0.21654979488E+01 -0.55585979777E+01  0.24534707796E+01  0.64503419840E+01  0.00000000000E+00 0. -1.
</event>
<event>
 7    1  0.5646756E-010  0.4778727E+02  0.7816164E-02  0.1312668E+00
        -11   -1    0    0    0    0  0.00000000000E+00  0.00000000000E+00  0.45593999997E+02  0.45594000000E+02  0.51100000000E-03 0.  1.
         11   -1    0    0    0    0 -0.00000000000E+00 -0.00000000000E+00 -0.45593999997E+02  0.45594000000E+02  0.51100000000E-03 0. -1.
    9900012    2    1    2    0    0  0.12220968469E+02  0.70924743988E+01  0.41036176739E+02  0.47787273454E+02  0.20000010984E+02 0.  0.
         12    1    1    2    0    0 -0.12220968469E+02 -0.70924743988E+01 -0.41036176739E+02  0.43400726546E+02  0.00000000000E+00 0. -1.
         11    1    3    3    0    0 -0.20308355737E+01  0.61402210959E+01  0.10392985572E+02  0.12240945944E+02  0.51100000000E-03 0. -1.
        -11    1    3    3    0    0  0.88065850003E+01 -0.27660206517E+01  0.25694306054E+02  0.27302091010E+02  0.51100000000E-03 0.  1.
         12    1    3    3    0    0  0.54452190420E+01  0.37182739546E+01  0.49488851126E+01  0.82442365005E+01  0.00000000000E+00 0. -1.
</event>
<event>
 7    1  0.5646756E-010  0.4778728E+02  0.7816164E-02  0.1312668E+00
        -11   -1    0    0    0    0  0.00000000000E+00  0.00000000000E+00  0.45593999997E+02  0.45594000000E+02  0.51100000000E-03 0. -1.
         11   -1    0    0    0    0 -0.00000000000E+00 -0.00000000000E+00 -0.45593999997E+02  0.45594000000E+02  0.51100000000E-03 0.  1.
    9900012    2    1    2    0    0  0.80667471507E+00 -0.35856056336E+02 -0.24440035940E+02  0.47787275849E+02  0.20000021907E+02 0.  0.
         12    1    1    2    0    0 -0.80667471507E+00  0.35856056336E+02  0.24440035940E+02  0.43400724151E+02  0.00000000000E+00 0. -1.
         11    1    3    3    0    0  0.54080830340E+01 -0.64781242770E+01 -0.95128640845E+01  0.12716447601E+02  0.51100000000E-03 0. -1.
        -11    1    3    3    0    0 -0.54304964928E+01 -0.30035498543E+02 -0.15001938951E+02  0.34009993199E+02  0.51100000000E-03 0.  1.
        -12    1    3    3    0    0  0.82908817389E+00  0.65756648418E+00  0.74767095169E-01  0.10608350483E+01  0.00000000000E+00 0.  1.
</event>
<event>
 7    1  0.5646756E-010  0.4778727E+02  0.7816164E-02  0.1312668E+00
        -11   -1    0    0    0    0  0.00000000000E+00  0.00000000000E+00  0.45593999997E+02  0.45594000000E+02  0.51100000000E-03 0. -1.
         11   -1    0    0    0    0 -0.00000000000E+00 -0.00000000000E+00 -0.45593999997E+02  0.45594000000E+02  0.51100000000E-03 0.  1.
    9900012    2    1    2    0    0  0.23577682669E+02  0.19560475133E+02 -0.30742548927E+02  0.47787267034E+02  0.19999981715E+02 0.  0.
         12    1    1    2    0    0 -0.23577682669E+02 -0.19560475133E+02  0.30742548927E+02  0.43400732966E+02  0.00000000000E+00 0. -1.
         11    1    3    3    0    0 -0.54580773297E+00  0.75765523437E+01 -0.31095116203E+01  0.82079908794E+01  0.51100000000E-03 0. -1.
        -11    1    3    3    0    0  0.65831893486E+01 -0.44126361549E+00 -0.88141253363E+01  0.11010081802E+02  0.51100000000E-03 0.  1.
         12    1    3    3    0    0  0.17540301053E+02  0.12425186404E+02 -0.18818911970E+02  0.28569194353E+02  0.00000000000E+00 0. -1.
</event>
<event>
 7    1  0.5646756E-010  0.4778728E+02  0.7816164E-02  0.1312668E+00
        -11   -1    0    0    0    0  0.00000000000E+00  0.00000000000E+00  0.45593999997E+02  0.45594000000E+02  0.51100000000E-03 0.  1.
         11   -1    0    0    0    0 -0.00000000000E+00 -0.00000000000E+00 -0.45593999997E+02  0.45594000000E+02  0.51100000000E-03 0. -1.
    9900012    2    1    2    0    0 -0.54598409594E+01  0.23545231854E+02  0.36047677495E+02  0.47787275822E+02  0.20000021784E+02 0.  0.
         12    1    1    2    0    0  0.54598409594E+01 -0.23545231854E+02 -0.36047677495E+02  0.43400724178E+02  0.00000000000E+00 0. -1.
         11    1    3    3    0    0  0.50998824356E+01  0.23133365753E+01  0.98933738376E+01  0.11368340825E+02  0.51100000000E-03 0. -1.
        -11    1    3    3    0    0 -0.66063177802E+01  0.20034023256E+02  0.20489393168E+02  0.29407834927E+02  0.51100000000E-03 0.  1.
        -12    1    3    3    0    0 -0.39534056147E+01  0.11978720229E+01  0.56649104892E+01  0.70111000698E+01  0.00000000000E+00 0.  1.
</event>
<event>
 7    1  0.5646756E-010  0.4778727E+02  0.7816164E-02  0.1312668E+00
        -11   -1    0    0    0    0  0.00000000000E+00  0.00000000000E+00  0.45593999997E+02  0.45594000000E+02  0.51100000000E-03 0. -1.
         11   -1    0    0    0    0 -0.00000000000E+00 -0.00000000000E+00 -0.45593999997E+02  0.45594000000E+02  0.51100000000E-03 0.  1.
    9900012    2    1    2    0    0  0.39865304402E+02 -0.17048358254E+02 -0.19323725408E+01  0.47787273303E+02  0.20000010297E+02 0.  0.
         12    1    1    2    0    0 -0.39865304402E+02  0.17048358254E+02  0.19323725408E+01  0.43400726697E+02  0.00000000000E+00 0. -1.
         11    1    3    3    0    0  0.18414966161E+02 -0.14796864495E+02 -0.37859931879E+01  0.23924713630E+02  0.51100000000E-03 0. -1.
        -11    1    3    3    0    0  0.62037509726E+00  0.20926989315E+01  0.13736851317E+01  0.25790046881E+01  0.51100000000E-03 0.  1.
        -12    1    3    3    0    0  0.20829963144E+02 -0.43441926911E+01  0.47993551544E+00  0.21283554985E+02  0.00000000000E+00 0.  1.
</event>
<event>
 7    1  0.5646756E-010  0.4778727E+02  0.7816164E-02  0.1312668E+00
        -11   -1    0    0    0    0  0.00000000000E+00  0.00000000000E+00  0.45593999997E+02  0.45594000000E+02  0.51100000000E-03 0.  1.
         11   -1    0    0    0    0 -0.00000000000E+00 -0.00000000000E+00 -0.45593999997E+02  0.45594000000E+02  0.51100000000E-03 0. -1.
    9900012    2    1    2    0    0 -0.42453625593E+02  0.89391342642E+01 -0.11853250577E+01  0.47787269097E+02  0.19999991123E+02 0.  0.
         12    1    1    2    0    0  0.42453625593E+02 -0.89391342642E+01  0.11853250577E+01  0.43400730903E+02  0.00000000000E+00 0. -1.
         11    1    3    3    0    0  0.18123263870E+00  0.13229134237E+01 -0.30300453857E+01  0.33112113337E+01  0.51100000000E-03 0. -1.
        -11    1    3    3    0    0 -0.24424788191E+02 -0.63813818924E+00  0.51916673716E+00  0.24438638115E+02  0.51100000000E-03 0.  1.
         12    1    3    3    0    0 -0.18210070040E+02  0.82543590297E+01  0.13255535909E+01  0.20037419649E+02  0.00000000000E+00 0. -1.
</event>
<event>
 7    1  0.5646756E-010  0.4778727E+02  0.7816164E-02  0.1312668E+00
        -11   -1    0    0    0    0  0.00000000000E+00  0.00000000000E+00  0.45593999997E+02  0.45594000000E+02  0.51100000000E-03 0.  1.
         11   -1    0    0    0    0 -0.00000000000E+00 -0.00000000000E+00 -0.45593999997E+02  0.45594000000E+02  0.51100000000E-03 0. -1.
    9900012    2    1    2    0    0 -0.30530594084E+02 -0.28783974818E+02  0.11090036205E+02  0.47787270922E+02  0.19999999441E+02 0.  0.
         12    1    1    2    0    0  0.30530594084E+02  0.28783974818E+02 -0.11090036205E+02  0.43400729078E+02  0.00000000000E+00 0. -1.
         11    1    3    3    0    0 -0.29294731370E+01 -0.13308284617E+02  0.15864563918E+01  0.13718932045E+02  0.51100000000E-03 0. -1.
        -11    1    3    3    0    0 -0.19685976834E+02 -0.14286972659E+02  0.93612657894E+01  0.26063164986E+02  0.51100000000E-03 0.  1.
        -12    1    3    3    0    0 -0.79151441135E+01 -0.11887175420E+01  0.14231402425E+00  0.80051738903E+01  0.00000000000E+00 0.  1.
</event>
<event>
 7    1  0.5646756E-010  0.4778727E+02  0.7816164E-02  0.1312668E+00
        -11   -1    0    0    0    0  0.00000000000E+00  0.00000000000E+00  0.45593999997E+02  0.45594000000E+02  0.51100000000E-03 0.  1.
         11   -1    0    0    0    0 -0.00000000000E+00 -0.00000000000E+00 -0.45593999997E+02  0.45594000000E+02  0.51100000000E-03 0. -1.
    9900012    2    1    2    0    0  0.24662445501E+02 -0.31171760855E+02 -0.17427237589E+02  0.47787268406E+02  0.19999987972E+02 0.  0.
         12    1    1    2    0    0 -0.24662445501E+02  0.31171760855E+02  0.17427237589E+02  0.43400731594E+02  0.00000000000E+00 0. -1.
         11    1    3    3    0    0 -0.29159743311E+01 -0.22122454385E+01 -0.29184681292E+01  0.46812810920E+01  0.51100000000E-03 0. -1.
        -11    1    3    3    0    0  0.14004869135E+02 -0.12758871227E+02 -0.34661700261E+01  0.19259789443E+02  0.51100000000E-03 0.  1.
         12    1    3    3    0    0  0.13573550697E+02 -0.16200644190E+02 -0.11042599433E+02  0.23846197872E+02  0.00000000000E+00 0. -1.
</event>
<event>
 7    1  0.5646756E-010  0.4778727E+02  0.7816164E-02  0.1312668E+00
        -11   -1    0    0    0    0  0.00000000000E+00  0.00000000000E+00  0.45593999997E+02  0.45594000000E+02  0.51100000000E-03 0. -1.
         11   -1    0    0    0    0 -0.00000000000E+00 -0.00000000000E+00 -0.45593999997E+02  0.45594000000E+02  0.51100000000E-03 0.  1.
    9900012    2    1    2    0    0  0.22920591051E+02 -0.36571662169E+02  0.45588586689E+01  0.47787272353E+02  0.20000005966E+02 0.  0.
         12    1    1    2    0    0 -0.22920591051E+02  0.36571662169E+02 -0.45588586689E+01  0.43400727647E+02  0.00000000000E+00 0. -1.
         11    1    3    3    0    0  0.15945661272E+02 -0.24397382187E+02 -0.51121086985E+01  0.29591046392E+02  0.51100000000E-03 0.  1.
        -11    1    3    3    0    0  0.35617444080E+01 -0.45424909580E+01  0.76707097721E+01  0.96000018750E+01  0.51100000000E-03 0. -1.
        -12    1    3    3    0    0  0.34131853716E+01 -0.76317890238E+01  0.20002575953E+01  0.85962240857E+01  0.00000000000E+00 0.  1.
</event>
<event>
 7    1  0.5646756E-010  0.4778727E+02  0.7816164E-02  0.1312668E+00
        -11   -1    0    0    0    0  0.00000000000E+00  0.00000000000E+00  0.45593999997E+02  0.45594000000E+02  0.51100000000E-03 0. -1.
         11   -1    0    0    0    0 -0.00000000000E+00 -0.00000000000E+00 -0.45593999997E+02  0.45594000000E+02  0.51100000000E-03 0.  1.
    9900012    2    1    2    0    0 -0.27147768715E+01  0.43312590434E+02  0.52231386467E+00  0.47787270567E+02  0.19999997824E+02 0.  0.
         12    1    1    2    0    0  0.27147768715E+01 -0.43312590434E+02 -0.52231386467E+00  0.43400729433E+02  0.00000000000E+00 0. -1.
         11    1    3    3    0    0 -0.26914617948E+01 -0.10761372487E+01 -0.15065430306E+01  0.32667583527E+01  0.51100000000E-03 0. -1.
        -11    1    3    3    0    0 -0.83874033417E+00  0.45273977996E+01  0.17418276976E+00  0.46077278655E+01  0.51100000000E-03 0.  1.
         12    1    3    3    0    0  0.81542525749E+00  0.39861329883E+02  0.18546741255E+01  0.39912784349E+02  0.00000000000E+00 0. -1.
</event>
<event>
 7    1  0.5646756E-010  0.4778727E+02  0.7816164E-02  0.1312668E+00
        -11   -1    0    0    0    0  0.00000000000E+00  0.00000000000E+00  0.45593999997E+02  0.45594000000E+02  0.51100000000E-03 0. -1.
         11   -1    0    0    0    0 -0.00000000000E+00 -0.00000000000E+00 -0.45593999997E+02  0.45594000000E+02  0.51100000000E-03 0.  1.
    9900012    2    1    2    0    0  0.25429505206E+02  0.32421849746E+02 -0.13630373258E+02  0.47787272459E+02  0.20000006450E+02 0.  0.
         12    1    1    2    0    0 -0.25429505206E+02 -0.32421849746E+02  0.13630373258E+02  0.43400727541E+02  0.00000000000E+00 0. -1.
         11    1    3    3    0    0  0.36269040771E+01  0.16656917068E+02 -0.87683465973E+00  0.17069743955E+02  0.51100000000E-03 0. -1.
        -11    1    3    3    0    0  0.15722809683E+02  0.12827608848E+02 -0.59826877973E+01  0.21155303038E+02  0.51100000000E-03 0.  1.
         12    1    3    3    0    0  0.60797914453E+01  0.29373238296E+01 -0.67708508005E+01  0.95622254659E+01  0.00000000000E+00 0. -1.
</event>
<event>
 7    1  0.5646756E-010  0.4778727E+02  0.7816164E-02  0.1312668E+00
        -11   -1    0    0    0    0  0.00000000000E+00  0.00000000000E+00  0.45593999997E+02  0.45594000000E+02  0.51100000000E-03 0.  1.
         11   -1    0    0    0    0 -0.00000000000E+00 -0.00000000000E+00 -0.45593999997E+02  0.45594000000E+02  0.51100000000E-03 0. -1.
    9900012    2    1    2    0    0  0.15572255659E+02  0.24187121805E+02  0.32497871307E+02  0.47787266746E+02  0.19999980401E+02 0.  0.
         12    1    1    2    0    0 -0.15572255659E+02 -0.24187121805E+02 -0.32497871307E+02  0.43400733254E+02  0.00000000000E+00 0. -1.
         11    1    3    3    0    0  0.44435843044E+01  0.31879361688E+01  0.24687976336E+01  0.60002783688E+01  0.51100000000E-03 0. -1.
        -11    1    3    3    0    0  0.10924572705E+02  0.45896103074E+01  0.79189414291E+01  0.14252033019E+02  0.51100000000E-03 0.  1.
        -12    1    3    3    0    0  0.20409865027E+00  0.16409575329E+02  0.22110132244E+02  0.27534955358E+02  0.00000000000E+00 0.  1.
</event>
<event>
 7    1  0.5646756E-010  0.4778728E+02  0.7816164E-02  0.1312668E+00
        -11   -1    0    0    0    0  0.00000000000E+00  0.00000000000E+00  0.45593999997E+02  0.45594000000E+02  0.51100000000E-03 0.  1.
         11   -1    0    0    0    0 -0.00000000000E+00 -0.00000000000E+00 -0.45593999997E+02  0.45594000000E+02  0.51100000000E-03 0. -1.
    9900012    2    1    2    0    0 -0.35756161413E+02  0.39208466255E+01  0.24284697046E+02  0.47787278486E+02  0.20000033930E+02 0.  0.
         12    1    1    2    0    0  0.35756161413E+02 -0.39208466255E+01 -0.24284697046E+02  0.43400721514E+02  0.00000000000E+00 0. -1.
         11    1    3    3    0    0 -0.84403057837E+00 -0.27824985388E+01  0.64894675725E+01  0.71111092926E+01  0.51100000000E-03 0.  1.
        -11    1    3    3    0    0 -0.33599412110E+02  0.71971490174E+01  0.18585995725E+02  0.39066081010E+02  0.51100000000E-03 0. -1.
        -12    1    3    3    0    0 -0.13127187245E+01 -0.49380385307E+00 -0.79076625104E+00  0.16100881836E+01  0.00000000000E+00 0.  1.
</event>
<event>
 7    1  0.5646756E-010  0.4778727E+02  0.7816164E-02  0.1312668E+00
        -11   -1    0    0    0    0  0.00000000000E+00  0.00000000000E+00  0.45593999997E+02  0.45594000000E+02  0.51100000000E-03 0.  1.
         11   -1    0    0    0    0 -0.00000000000E+00 -0.00000000000E+00 -0.45593999997E+02  0.45594000000E+02  0.51100000000E-03 0. -1.
    9900012    2    1    2    0    0 -0.10077612174E+01  0.27358666687E+02  0.33676564936E+02  0.47787271303E+02  0.20000001178E+02 0.  0.
         12    1    1    2    0    0  0.10077612174E+01 -0.27358666687E+02 -0.33676564936E+02  0.43400728697E+02  0.00000000000E+00 0. -1.
         11    1    3    3    0    0  0.61373261351E+01  0.14602124455E+02  0.14905777128E+02  0.21750195465E+02  0.51100000000E-03 0. -1.
        -11    1    3    3    0    0  0.67249094484E+00  0.57086032595E+01  0.12567192574E+02  0.13819360503E+02  0.51100000000E-03 0.  1.
         12    1    3    3    0    0 -0.78175782974E+01  0.70479389725E+01  0.62035952333E+01  0.12217715335E+02  0.00000000000E+00 0. -1.
</event>
<event>
 7    1  0.5646756E-010  0.4778727E+02  0.7816164E-02  0.1312668E+00
        -11   -1    0    0    0    0  0.00000000000E+00  0.00000000000E+00  0.45593999997E+02  0.45594000000E+02  0.51100000000E-03 0. -1.
         11   -1    0    0    0    0 -0.00000000000E+00 -0.00000000000E+00 -0.45593999997E+02  0.45594000000E+02  0.51100000000E-03 0.  1.
    9900012    2    1    2    0    0  0.10010523355E+02 -0.34138387389E+02 -0.24859266465E+02  0.47787271889E+02  0.20000003850E+02 0.  0.
         12    1    1    2    0    0 -0.10010523355E+02  0.34138387389E+02  0.24859266465E+02  0.43400728111E+02  0.00000000000E+00 0. -1.
         11    1    3    3    0    0  0.80319968505E+01 -0.10590917925E+02 -0.13824923960E+02  0.19178348173E+02  0.51100000000E-03 0. -1.
        -11    1    3    3    0    0  0.63304157864E+01 -0.77642925885E+01 -0.44667654053E+01  0.10968609614E+02  0.51100000000E-03 0.  1.
         12    1    3    3    0    0 -0.43518892820E+01 -0.15783176876E+02 -0.65675771004E+01  0.17640314101E+02  0.00000000000E+00 0. -1.
</event>
<event>
 7    1  0.5646756E-010  0.4778727E+02  0.7816164E-02  0.1312668E+00
        -11   -1    0    0    0    0  0.00000000000E+00  0.00000000000E+00  0.45593999997E+02  0.45594000000E+02  0.51100000000E-03 0.  1.
         11   -1    0    0    0    0 -0.00000000000E+00 -0.00000000000E+00 -0.45593999997E+02  0.45594000000E+02  0.51100000000E-03 0. -1.
    9900012    2    1    2    0    0  0.24390145794E+02 -0.10084645699E+02  0.34453505281E+02  0.47787270549E+02  0.19999997740E+02 0.  0.
         12    1    1    2    0    0 -0.24390145794E+02  0.10084645699E+02 -0.34453505281E+02  0.43400729451E+02  0.00000000000E+00 0. -1.
         11    1    3    3    0    0 -0.22850849531E+01  0.16743695508E+01  0.75371161878E+00  0.29314174218E+01  0.51100000000E-03 0. -1.
        -11    1    3    3    0    0  0.22765425835E+02 -0.78987912690E+01  0.27939107813E+02  0.36895111636E+02  0.51100000000E-03 0.  1.
         12    1    3    3    0    0  0.39098049116E+01 -0.38602239812E+01  0.57606858492E+01  0.79607414909E+01  0.00000000000E+00 0. -1.
</event>
<event>
 7    1  0.5646756E-010  0.4778726E+02  0.7816164E-02  0.1312668E+00
        -11   -1    0    0    0    0  0.00000000000E+00  0.00000000000E+00  0.45593999997E+02  0.45594000000E+02  0.51100000000E-03 0.  1.
         11   -1    0    0    0    0 -0.00000000000E+00 -0.00000000000E+00 -0.45593999997E+02  0.45594000000E+02  0.51100000000E-03 0. -1.
    9900012    2    1    2    0    0  0.25791781807E+02  0.34727098746E+02  0.35265758681E+01  0.47787261142E+02  0.19999954849E+02 0.  0.
         12    1    1    2    0    0 -0.25791781807E+02 -0.34727098746E+02 -0.35265758681E+01  0.43400738858E+02  0.00000000000E+00 0. -1.
         11    1    3    3    0    0 -0.89172090568E+00  0.81453168102E+01 -0.43192914736E+00  0.82053589295E+01  0.51100000000E-03 0. -1.
        -11    1    3    3    0    0  0.22808622483E+02  0.26811550869E+02  0.20604164158E+01  0.35260995954E+02  0.51100000000E-03 0.  1.
         12    1    3    3    0    0  0.38748802297E+01 -0.22976893373E+00  0.18980885997E+01  0.43209062579E+01  0.00000000000E+00 0. -1.
</event>
<event>
 7    1  0.5646756E-010  0.4778727E+02  0.7816164E-02  0.1312668E+00
        -11   -1    0    0    0    0  0.00000000000E+00  0.00000000000E+00  0.45593999997E+02  0.45594000000E+02  0.51100000000E-03 0.  1.
         11   -1    0    0    0    0 -0.00000000000E+00 -0.00000000000E+00 -0.45593999997E+02  0.45594000000E+02  0.51100000000E-03 0. -1.
    9900012    2    1    2    0    0  0.26853539810E+01 -0.41161696037E+02  0.13495438164E+02  0.47787271920E+02  0.20000003992E+02 0.  0.
         12    1    1    2    0    0 -0.26853539810E+01  0.41161696037E+02 -0.13495438164E+02  0.43400728080E+02  0.00000000000E+00 0. -1.
         11    1    3    3    0    0  0.90162530397E+01 -0.33847495613E+02  0.12292717793E+02  0.37122185943E+02  0.51100000000E-03 0. -1.
        -11    1    3    3    0    0 -0.58014659376E+01 -0.35686869977E+01  0.89675751634E+00  0.68699860420E+01  0.51100000000E-03 0.  1.
         12    1    3    3    0    0 -0.52943312110E+00 -0.37455134255E+01  0.30596285534E+00  0.37950999354E+01  0.00000000000E+00 0. -1.
</event>
<event>
 7    1  0.5646756E-010  0.4778727E+02  0.7816164E-02  0.1312668E+00
        -11   -1    0    0    0    0  0.00000000000E+00  0.00000000000E+00  0.45593999997E+02  0.45594000000E+02  0.51100000000E-03 0.  1.
         11   -1    0    0    0    0 -0.00000000000E+00 -0.00000000000E+00 -0.45593999997E+02  0.45594000000E+02  0.51100000000E-03 0. -1.
    9900012    2    1    2    0    0 -0.32463283460E+02 -0.70938643479E+01  0.27918373109E+02  0.47787271418E+02  0.20000001702E+02 0.  0.
         12    1    1    2    0    0  0.32463283460E+02  0.70938643479E+01 -0.27918373109E+02  0.43400728582E+02  0.00000000000E+00 0. -1.
         11    1    3    3    0    0 -0.19991995278E+01  0.50525899714E+01  0.46657351037E+01  0.71620212573E+01  0.51100000000E-03 0. -1.
        -11    1    3    3    0    0 -0.19002735456E+02 -0.10311132341E+02  0.16496605907E+02  0.27194878409E+02  0.51100000000E-03 0.  1.
         12    1    3    3    0    0 -0.11461348477E+02 -0.18353219783E+01  0.67560320988E+01  0.13430371752E+02  0.00000000000E+00 0. -1.
</event>
<event>
 7    1  0.5646756E-010  0.4778727E+02  0.7816164E-02  0.1312668E+00
        -11   -1    0    0    0    0  0.00000000000E+00  0.00000000000E+00  0.45593999997E+02  0.45594000000E+02  0.51100000000E-03 0.  1.
         11   -1    0    0    0    0 -0.00000000000E+00 -0.00000000000E+00 -0.45593999997E+02  0.45594000000E+02  0.51100000000E-03 0. -1.
    9900012    2    1    2    0    0 -0.14232079140E+02 -0.25184462928E+02  0.32354511032E+02  0.47787266899E+02  0.19999981098E+02 0.  0.
         12    1    1    2    0    0  0.14232079140E+02  0.25184462928E+02 -0.32354511032E+02  0.43400733101E+02  0.00000000000E+00 0. -1.
         11    1    3    3    0    0 -0.30340547930E+01 -0.10956404828E+02  0.21280621630E+02  0.24127021210E+02  0.51100000000E-03 0. -1.
        -11    1    3    3    0    0 -0.69965464113E+01 -0.15062346616E+02  0.91859675081E+01  0.18979145044E+02  0.51100000000E-03 0.  1.
         12    1    3    3    0    0 -0.42014779356E+01  0.83428851622E+00  0.18879218940E+01  0.46811006451E+01  0.00000000000E+00 0. -1.
</event>
<event>
 7    1  0.5646756E-010  0.4778727E+02  0.7816164E-02  0.1312668E+00
        -11   -1    0    0    0    0  0.00000000000E+00  0.00000000000E+00  0.45593999997E+02  0.45594000000E+02  0.51100000000E-03 0.  1.
         11   -1    0    0    0    0 -0.00000000000E+00 -0.00000000000E+00 -0.45593999997E+02  0.45594000000E+02  0.51100000000E-03 0. -1.
    9900012    2    1    2    0    0  0.22665304799E+02 -0.35096847168E+02 -0.11752380743E+02  0.47787272174E+02  0.20000005148E+02 0.  0.
         12    1    1    2    0    0 -0.22665304799E+02  0.35096847168E+02  0.11752380743E+02  0.43400727826E+02  0.00000000000E+00 0. -1.
         11    1    3    3    0    0 -0.13195291181E+00 -0.47426482251E+00 -0.14919012339E+01  0.15710214020E+01  0.51100000000E-03 0. -1.
        -11    1    3    3    0    0 -0.29511736660E+01 -0.30005585015E+01 -0.19433570642E+00  0.42131394417E+01  0.51100000000E-03 0.  1.
        -12    1    3    3    0    0  0.25748431377E+02 -0.31622023844E+02 -0.10066143802E+02  0.42003111330E+02  0.00000000000E+00 0.  1.
</event>
<event>
 7    1  0.5646756E-010  0.4778727E+02  0.7816164E-02  0.1312668E+00
        -11   -1    0    0    0    0  0.00000000000E+00  0.00000000000E+00  0.45593999997E+02  0.45594000000E+02  0.51100000000E-03 0. -1.
         11   -1    0    0    0    0 -0.00000000000E+00 -0.00000000000E+00 -0.45593999997E+02  0.45594000000E+02  0.51100000000E-03 0.  1.
    9900012    2    1    2    0    0  0.15962382289E+01 -0.37064508843E+02 -0.22523265023E+02  0.47787271210E+02  0.20000000754E+02 0.  0.
         12    1    1    2    0    0 -0.15962382289E+01  0.37064508843E+02  0.22523265023E+02  0.43400728790E+02  0.00000000000E+00 0. -1.
         11    1    3    3    0    0  0.44277379502E+01 -0.60122223810E+01 -0.74076628736E+01  0.10517849154E+02  0.51100000000E-03 0. -1.
        -11    1    3    3    0    0 -0.21330809629E+01 -0.11876732153E+02  0.11409197087E+01  0.12120581631E+02  0.51100000000E-03 0.  1.
        -12    1    3    3    0    0 -0.69841875835E+00 -0.19175554309E+02 -0.16256521858E+02  0.25148840425E+02  0.00000000000E+00 0.  1.
</event>
<event>
 7    1  0.5646756E-010  0.4778727E+02  0.7816164E-02  0.1312668E+00
        -11   -1    0    0    0    0  0.00000000000E+00  0.00000000000E+00  0.45593999997E+02  0.45594000000E+02  0.51100000000E-03 0.  1.
         11   -1    0    0    0    0 -0.00000000000E+00 -0.00000000000E+00 -0.45593999997E+02  0.45594000000E+02  0.51100000000E-03 0. -1.
    9900012    2    1    2    0    0  0.27825031690E+02 -0.25322833659E+00  0.33306555850E+02  0.47787272176E+02  0.20000005157E+02 0.  0.
         12    1    1    2    0    0 -0.27825031690E+02  0.25322833659E+00 -0.33306555850E+02  0.43400727824E+02  0.00000000000E+00 0. -1.
         11    1    3    3    0    0  0.11221176020E+02  0.46032867646E+01  0.42610817013E+01  0.12855421340E+02  0.51100000000E-03 0. -1.
        -11    1    3    3    0    0  0.71024364553E+01  0.35161777750E-01  0.18923472165E+02  0.20212462467E+02  0.51100000000E-03 0.  1.
        -12    1    3    3    0    0  0.95014192149E+01 -0.48916768790E+01  0.10122001983E+02  0.14719388368E+02  0.00000000000E+00 0.  1.
</event>
<event>
 7    1  0.5646756E-010  0.4778727E+02  0.7816164E-02  0.1312668E+00
        -11   -1    0    0    0    0  0.00000000000E+00  0.00000000000E+00  0.45593999997E+02  0.45594000000E+02  0.51100000000E-03 0.  1.
         11   -1    0    0    0    0 -0.00000000000E+00 -0.00000000000E+00 -0.45593999997E+02  0.45594000000E+02  0.51100000000E-03 0. -1.
    9900012    2    1    2    0    0  0.22378836395E+02 -0.28604393765E+02  0.23761300340E+02  0.47787273567E+02  0.20000011502E+02 0.  0.
         12    1    1    2    0    0 -0.22378836395E+02  0.28604393765E+02 -0.23761300340E+02  0.43400726433E+02  0.00000000000E+00 0. -1.
         11    1    3    3    0    0  0.26006045829E+01 -0.99686310842E+01 -0.48863805459E+00  0.10313850750E+02  0.51100000000E-03 0. -1.
        -11    1    3    3    0    0  0.20387061234E+02 -0.18826766350E+02  0.24222269877E+02  0.36834735716E+02  0.51100000000E-03 0.  1.
        -12    1    3    3    0    0 -0.60882942176E+00  0.19100366937E+00  0.27668516857E-01  0.63868710128E+00  0.00000000000E+00 0.  1.
</event>
<event>
 7    1  0.5646756E-010  0.4778727E+02  0.7816164E-02  0.1312668E+00
        -11   -1    0    0    0    0  0.00000000000E+00  0.00000000000E+00  0.45593999997E+02  0.45594000000E+02  0.51100000000E-03 0. -1.
         11   -1    0    0    0    0 -0.00000000000E+00 -0.00000000000E+00 -0.45593999997E+02  0.45594000000E+02  0.51100000000E-03 0.  1.
    9900012    2    1    2    0    0 -0.27643686912E+02  0.13843217981E+02 -0.30460058256E+02  0.47787271215E+02  0.20000000776E+02 0.  0.
         12    1    1    2    0    0  0.27643686912E+02 -0.13843217981E+02  0.30460058256E+02  0.43400728785E+02  0.00000000000E+00 0. -1.
         11    1    3    3    0    0 -0.54050661902E+01  0.46215828145E+00 -0.22506157717E+01  0.58731254380E+01  0.51100000000E-03 0. -1.
        -11    1    3    3    0    0 -0.90211997621E+01  0.14048940072E+01 -0.20580899755E+02  0.22515088436E+02  0.51100000000E-03 0.  1.
        -12    1    3    3    0    0 -0.13217420960E+02  0.11976165693E+02 -0.76285427294E+01  0.19399057340E+02  0.00000000000E+00 0.  1.
</event>
<event>
 7    1  0.5646756E-010  0.4778727E+02  0.7816164E-02  0.1312668E+00
        -11   -1    0    0    0    0  0.00000000000E+00  0.00000000000E+00  0.45593999997E+02  0.45594000000E+02  0.51100000000E-03 0.  1.
         11   -1    0    0    0    0 -0.00000000000E+00 -0.00000000000E+00 -0.45593999997E+02  0.45594000000E+02  0.51100000000E-03 0. -1.
    9900012    2    1    2    0    0  0.60372583391E+01  0.83065921906E+01  0.42168415481E+02  0.47787271593E+02  0.20000002503E+02 0.  0.
         12    1    1    2    0    0 -0.60372583391E+01 -0.83065921906E+01 -0.42168415481E+02  0.43400728407E+02  0.00000000000E+00 0. -1.
         11    1    3    3    0    0  0.43473808951E+01 -0.25650723184E+01  0.14719820531E+02  0.15561247809E+02  0.51100000000E-03 0. -1.
        -11    1    3    3    0    0 -0.45319463587E+00  0.45345311722E+01  0.64779017375E+00  0.46029328368E+01  0.51100000000E-03 0.  1.
        -12    1    3    3    0    0  0.21430720799E+01  0.63371333368E+01  0.26800804776E+02  0.27623090947E+02  0.00000000000E+00 0.  1.
</event>
<event>
 7    1  0.5646756E-010  0.4778727E+02  0.7816164E-02  0.1312668E+00
        -11   -1    0    0    0    0  0.00000000000E+00  0.00000000000E+00  0.45593999997E+02  0.45594000000E+02  0.51100000000E-03 0. -1.
         11   -1    0    0    0    0 -0.00000000000E+00 -0.00000000000E+00 -0.45593999997E+02  0.45594000000E+02  0.51100000000E-03 0.  1.
    9900012    2    1    2    0    0 -0.29156936278E+02  0.87293365598E+01 -0.30940181480E+02  0.47787273279E+02  0.20000010190E+02 0.  0.
         12    1    1    2    0    0  0.29156936278E+02 -0.87293365598E+01  0.30940181480E+02  0.43400726721E+02  0.00000000000E+00 0. -1.
         11    1    3    3    0    0 -0.70289346053E+00 -0.39488338058E+01 -0.12833052791E+01  0.42112017695E+01  0.51100000000E-03 0. -1.
        -11    1    3    3    0    0 -0.26547120852E+02  0.10706635525E+02 -0.24260821619E+02  0.37522914807E+02  0.51100000000E-03 0.  1.
        -12    1    3    3    0    0 -0.19069219657E+01  0.19715348410E+01 -0.53960545821E+01  0.60531567025E+01  0.00000000000E+00 0.  1.
</event>
<event>
 7    1  0.5646756E-010  0.4778727E+02  0.7816164E-02  0.1312668E+00
        -11   -1    0    0    0    0  0.00000000000E+00  0.00000000000E+00  0.45593999997E+02  0.45594000000E+02  0.51100000000E-03 0.  1.
         11   -1    0    0    0    0 -0.00000000000E+00 -0.00000000000E+00 -0.45593999997E+02  0.45594000000E+02  0.51100000000E-03 0. -1.
    9900012    2    1    2    0    0  0.69949815204E+01  0.22544784585E+02  0.36420134738E+02  0.47787270827E+02  0.19999999008E+02 0.  0.
         12    1    1    2    0    0 -0.69949815204E+01 -0.22544784585E+02 -0.36420134738E+02  0.43400729173E+02  0.00000000000E+00 0. -1.
         11    1    3    3    0    0  0.83514095223E+01  0.12003548083E+02  0.30028964401E+02  0.33400148366E+02  0.51100000000E-03 0. -1.
        -11    1    3    3    0    0  0.22591840632E+01  0.34410161938E+01  0.46890863803E+01  0.62395541845E+01  0.51100000000E-03 0.  1.
         12    1    3    3    0    0 -0.36156120652E+01  0.71002203076E+01  0.17020839560E+01  0.81475682762E+01  0.00000000000E+00 0. -1.
</event>
<event>
 7    1  0.5646756E-010  0.4778727E+02  0.7816164E-02  0.1312668E+00
        -11   -1    0    0    0    0  0.00000000000E+00  0.00000000000E+00  0.45593999997E+02  0.45594000000E+02  0.51100000000E-03 0. -1.
         11   -1    0    0    0    0 -0.00000000000E+00 -0.00000000000E+00 -0.45593999997E+02  0.45594000000E+02  0.51100000000E-03 0.  1.
    9900012    2    1    2    0    0  0.24717847054E+02 -0.35653716357E+02  0.12098894958E+01  0.47787270909E+02  0.19999999381E+02 0.  0.
         12    1    1    2    0    0 -0.24717847054E+02  0.35653716357E+02 -0.12098894958E+01  0.43400729091E+02  0.00000000000E+00 0. -1.
         11    1    3    3    0    0  0.25425038658E+02 -0.26520902344E+02  0.24240189842E+01  0.36819379683E+02  0.51100000000E-03 0. -1.
        -11    1    3    3    0    0 -0.86242799204E-01 -0.76271708020E+01 -0.33089278873E+01  0.83144558624E+01  0.51100000000E-03 0.  1.
         12    1    3    3    0    0 -0.62094880480E+00 -0.15056432110E+01  0.20947983990E+01  0.26534353637E+01  0.00000000000E+00 0. -1.
</event>
<event>
 7    1  0.5646756E-010  0.4778727E+02  0.7816164E-02  0.1312668E+00
        -11   -1    0    0    0    0  0.00000000000E+00  0.00000000000E+00  0.45593999997E+02  0.45594000000E+02  0.51100000000E-03 0.  1.
         11   -1    0    0    0    0 -0.00000000000E+00 -0.00000000000E+00 -0.45593999997E+02  0.45594000000E+02  0.51100000000E-03 0. -1.
    9900012    2    1    2    0    0 -0.65386799227E+00 -0.26747748514E+02  0.34172411938E+02  0.47787270380E+02  0.19999996968E+02 0.  0.
         12    1    1    2    0    0  0.65386799227E+00  0.26747748514E+02 -0.34172411938E+02  0.43400729620E+02  0.00000000000E+00 0. -1.
         11    1    3    3    0    0  0.75949654036E+01 -0.13283647414E+02  0.95238842268E+01  0.18023405869E+02  0.51100000000E-03 0. -1.
        -11    1    3    3    0    0 -0.43527783949E+01 -0.89421544108E+01  0.10787981762E+02  0.14672741939E+02  0.51100000000E-03 0.  1.
         12    1    3    3    0    0 -0.38960550010E+01 -0.45219466888E+01  0.13860545949E+02  0.15091122571E+02  0.00000000000E+00 0. -1.
</event>
<event>
 7    1  0.5646756E-010  0.4778726E+02  0.7816164E-02  0.1312668E+00
        -11   -1    0    0    0    0  0.00000000000E+00  0.00000000000E+00  0.45593999997E+02  0.45594000000E+02  0.51100000000E-03 0.  1.
         11   -1    0    0    0    0 -0.00000000000E+00 -0.00000000000E+00 -0.45593999997E+02  0.45594000000E+02  0.51100000000E-03 0. -1.
    9900012    2    1    2    0    0 -0.10817492479E+01  0.37687865285E+02  0.21496014110E+02  0.47787262751E+02  0.19999962185E+02 0.  0.
         12    1    1    2    0    0  0.10817492479E+01 -0.37687865285E+02 -0.21496014110E+02  0.43400737249E+02  0.00000000000E+00 0. -1.
         11    1    3    3    0    0 -0.53071468454E+01  0.15919836008E+02  0.61375448615E+01  0.17868308351E+02  0.51100000000E-03 0. -1.
        -11    1    3    3    0    0  0.51841336316E+01  0.43556324855E+01  0.92034245915E+01  0.11425839152E+02  0.51100000000E-03 0.  1.
         12    1    3    3    0    0 -0.95873603401E+00  0.17412396792E+02  0.61550446571E+01  0.18493115247E+02  0.00000000000E+00 0. -1.
</event>
<event>
 7    1  0.5646756E-010  0.4778727E+02  0.7816164E-02  0.1312668E+00
        -11   -1    0    0    0    0  0.00000000000E+00  0.00000000000E+00  0.45593999997E+02  0.45594000000E+02  0.51100000000E-03 0. -1.
         11   -1    0    0    0    0 -0.00000000000E+00 -0.00000000000E+00 -0.45593999997E+02  0.45594000000E+02  0.51100000000E-03 0.  1.
    9900012    2    1    2    0    0  0.24243890100E+02  0.28241016336E+02 -0.22322684865E+02  0.47787268780E+02  0.19999989676E+02 0.  0.
         12    1    1    2    0    0 -0.24243890100E+02 -0.28241016336E+02  0.22322684865E+02  0.43400731220E+02  0.00000000000E+00 0. -1.
         11    1    3    3    0    0  0.10640149808E+02  0.20977103952E+02 -0.95674918509E+01  0.25392687505E+02  0.51100000000E-03 0. -1.
        -11    1    3    3    0    0  0.80774097769E+01  0.12861670545E+01 -0.11568185586E+02  0.14167628327E+02  0.51100000000E-03 0.  1.
         12    1    3    3    0    0  0.55263305150E+01  0.59777453287E+01 -0.11870074282E+01  0.82269529481E+01  0.00000000000E+00 0. -1.
</event>
<event>
 7    1  0.5646756E-010  0.4778727E+02  0.7816164E-02  0.1312668E+00
        -11   -1    0    0    0    0  0.00000000000E+00  0.00000000000E+00  0.45593999997E+02  0.45594000000E+02  0.51100000000E-03 0.  1.
         11   -1    0    0    0    0 -0.00000000000E+00 -0.00000000000E+00 -0.45593999997E+02  0.45594000000E+02  0.51100000000E-03 0. -1.
    9900012    2    1    2    0    0  0.39707115340E+02 -0.13404895663E+02 -0.11281703618E+02  0.47787273360E+02  0.20000010557E+02 0.  0.
         12    1    1    2    0    0 -0.39707115340E+02  0.13404895663E+02  0.11281703618E+02  0.43400726640E+02  0.00000000000E+00 0. -1.
         11    1    3    3    0    0  0.68403968225E+01 -0.30667472474E+00 -0.79197349044E+01  0.10469349516E+02  0.51100000000E-03 0. -1.
        -11    1    3    3    0    0  0.28059851397E+02 -0.14179683158E+02 -0.15569462391E+00  0.31439512019E+02  0.51100000000E-03 0.  1.
        -12    1    3    3    0    0  0.48068671206E+01  0.10814622198E+01 -0.32062740892E+01  0.58784118249E+01  0.00000000000E+00 0.  1.
</event>
<event>
 7    1  0.5646756E-010  0.4778727E+02  0.7816164E-02  0.1312668E+00
        -11   -1    0    0    0    0  0.00000000000E+00  0.00000000000E+00  0.45593999997E+02  0.45594000000E+02  0.51100000000E-03 0.  1.
         11   -1    0    0    0    0 -0.00000000000E+00 -0.00000000000E+00 -0.45593999997E+02  0.45594000000E+02  0.51100000000E-03 0. -1.
    9900012    2    1    2    0    0 -0.39797242634E+02 -0.11325723841E+02  0.13096978624E+02  0.47787269697E+02  0.19999993855E+02 0.  0.
         12    1    1    2    0    0  0.39797242634E+02  0.11325723841E+02 -0.13096978624E+02  0.43400730303E+02  0.00000000000E+00 0. -1.
         11    1    3    3    0    0 -0.14542633982E+02 -0.55509507859E+01 -0.30567300288E+00  0.15569029964E+02  0.51100000000E-03 0. -1.
        -11    1    3    3    0    0 -0.18813098482E+02 -0.82054801643E+01  0.14655963729E+02  0.25220227047E+02  0.51100000000E-03 0.  1.
        -12    1    3    3    0    0 -0.64415101702E+01  0.24307071095E+01 -0.12533121026E+01  0.69980126859E+01  0.00000000000E+00 0.  1.
</event>
<event>
 7    1  0.5646756E-010  0.4778727E+02  0.7816164E-02  0.1312668E+00
        -11   -1    0    0    0    0  0.00000000000E+00  0.00000000000E+00  0.45593999997E+02  0.45594000000E+02  0.51100000000E-03 0.  1.
         11   -1    0    0    0    0 -0.00000000000E+00 -0.00000000000E+00 -0.45593999997E+02  0.45594000000E+02  0.51100000000E-03 0. -1.
    9900012    2    1    2    0    0 -0.12896230032E+02 -0.26770754733E+02  0.31632847312E+02  0.47787273196E+02  0.20000009810E+02 0.  0.
         12    1    1    2    0    0  0.12896230032E+02  0.26770754733E+02 -0.31632847312E+02  0.43400726804E+02  0.00000000000E+00 0. -1.
         11    1    3    3    0    0 -0.50280595217E+01 -0.66544533527E+01  0.20372389124E+02  0.22013572423E+02  0.51100000000E-03 0. -1.
        -11    1    3    3    0    0 -0.67456524700E+01 -0.81335112940E+01  0.24197712683E+01  0.10840347156E+02  0.51100000000E-03 0.  1.
        -12    1    3    3    0    0 -0.11225180400E+01 -0.11982790087E+02  0.88406869204E+01  0.14933353616E+02  0.00000000000E+00 0.  1.
</event>
<event>
 7    1  0.5646756E-010  0.4778727E+02  0.7816164E-02  0.1312668E+00
        -11   -1    0    0    0    0  0.00000000000E+00  0.00000000000E+00  0.45593999997E+02  0.45594000000E+02  0.51100000000E-03 0.  1.
         11   -1    0    0    0    0 -0.00000000000E+00 -0.00000000000E+00 -0.45593999997E+02  0.45594000000E+02  0.51100000000E-03 0. -1.
    9900012    2    1    2    0    0 -0.95077014085E+01 -0.79361819897E+01  0.41596199975E+02  0.47787271630E+02  0.20000002671E+02 0.  0.
         12    1    1    2    0    0  0.95077014085E+01  0.79361819897E+01 -0.41596199975E+02  0.43400728370E+02  0.00000000000E+00 0. -1.
         11    1    3    3    0    0  0.21592367121E+01 -0.52663624659E+01  0.45715552588E+01  0.73004105739E+01  0.51100000000E-03 0. -1.
        -11    1    3    3    0    0 -0.11226488232E+02  0.60386338195E+00  0.34623715907E+02  0.36403301945E+02  0.51100000000E-03 0.  1.
        -12    1    3    3    0    0 -0.44044988907E+00 -0.32736829057E+01  0.24009288094E+01  0.40835591119E+01  0.00000000000E+00 0.  1.
</event>
<event>
 7    1  0.5646756E-010  0.4778728E+02  0.7816164E-02  0.1312668E+00
        -11   -1    0    0    0    0  0.00000000000E+00  0.00000000000E+00  0.45593999997E+02  0.45594000000E+02  0.51100000000E-03 0.  1.
         11   -1    0    0    0    0 -0.00000000000E+00 -0.00000000000E+00 -0.45593999997E+02  0.45594000000E+02  0.51100000000E-03 0. -1.
    9900012    2    1    2    0    0 -0.29251158012E+02 -0.10023891272E+02  0.30455118862E+02  0.47787275281E+02  0.20000019314E+02 0.  0.
         12    1    1    2    0    0  0.29251158012E+02  0.10023891272E+02 -0.30455118862E+02  0.43400724719E+02  0.00000000000E+00 0. -1.
         11    1    3    3    0    0 -0.54565015677E+01 -0.47883832085E+01  0.14513854740E+02  0.16228185443E+02  0.51100000000E-03 0. -1.
        -11    1    3    3    0    0 -0.17045049626E+02 -0.79746363288E+01  0.71228080127E+01  0.20121206116E+02  0.51100000000E-03 0.  1.
        -12    1    3    3    0    0 -0.67496068178E+01  0.27391282655E+01  0.88184561097E+01  0.11437883721E+02  0.00000000000E+00 0.  1.
</event>
<event>
 7    1  0.5646756E-010  0.4778727E+02  0.7816164E-02  0.1312668E+00
        -11   -1    0    0    0    0  0.00000000000E+00  0.00000000000E+00  0.45593999997E+02  0.45594000000E+02  0.51100000000E-03 0.  1.
         11   -1    0    0    0    0 -0.00000000000E+00 -0.00000000000E+00 -0.45593999997E+02  0.45594000000E+02  0.51100000000E-03 0. -1.
    9900012    2    1    2    0    0  0.39489242726E+02  0.12681407591E+02 -0.12782988651E+02  0.47787272029E+02  0.20000004488E+02 0.  0.
         12    1    1    2    0    0 -0.39489242726E+02 -0.12681407591E+02  0.12782988651E+02  0.43400727971E+02  0.00000000000E+00 0. -1.
         11    1    3    3    0    0  0.88816226721E+01 -0.17422917513E+01 -0.14683462533E+01  0.91692334912E+01  0.51100000000E-03 0. -1.
        -11    1    3    3    0    0  0.39183636222E+01  0.46660541631E+01  0.30085597753E+01  0.67953710061E+01  0.51100000000E-03 0.  1.
        -12    1    3    3    0    0  0.26689256432E+02  0.97576451789E+01 -0.14323202173E+02  0.31822667531E+02  0.00000000000E+00 0.  1.
</event>
<event>
 7    1  0.5646756E-010  0.4778727E+02  0.7816164E-02  0.1312668E+00
        -11   -1    0    0    0    0  0.00000000000E+00  0.00000000000E+00  0.45593999997E+02  0.45594000000E+02  0.51100000000E-03 0.  1.
         11   -1    0    0    0    0 -0.00000000000E+00 -0.00000000000E+00 -0.45593999997E+02  0.45594000000E+02  0.51100000000E-03 0. -1.
    9900012    2    1    2    0    0 -0.31298657567E+02  0.16940564727E+02  0.24840178131E+02  0.47787272490E+02  0.20000006592E+02 0.  0.
         12    1    1    2    0    0  0.31298657567E+02 -0.16940564727E+02 -0.24840178131E+02  0.43400727510E+02  0.00000000000E+00 0. -1.
         11    1    3    3    0    0 -0.12784170513E+02  0.11603454944E+02  0.19921782799E+02  0.26361953883E+02  0.51100000000E-03 0. -1.
        -11    1    3    3    0    0 -0.31863442592E+01  0.12776220766E+01 -0.21648959840E+01  0.40585567375E+01  0.51100000000E-03 0.  1.
        -12    1    3    3    0    0 -0.15328142795E+02  0.40594877059E+01  0.70832913161E+01  0.17366761870E+02  0.00000000000E+00 0.  1.
</event>
<event>
 7    1  0.5646756E-010  0.4778727E+02  0.7816164E-02  0.1312668E+00
        -11   -1    0    0    0    0  0.00000000000E+00  0.00000000000E+00  0.45593999997E+02  0.45594000000E+02  0.51100000000E-03 0.  1.
         11   -1    0    0    0    0 -0.00000000000E+00 -0.00000000000E+00 -0.45593999997E+02  0.45594000000E+02  0.51100000000E-03 0. -1.
    9900012    2    1    2    0    0 -0.30888552624E+02 -0.21339568189E+02  0.21774842243E+02  0.47787267191E+02  0.19999982431E+02 0.  0.
         12    1    1    2    0    0  0.30888552624E+02  0.21339568189E+02 -0.21774842243E+02  0.43400732809E+02  0.00000000000E+00 0. -1.
         11    1    3    3    0    0 -0.93251399898E+01 -0.25795268777E+01  0.15958942982E+01  0.98060733025E+01  0.51100000000E-03 0. -1.
        -11    1    3    3    0    0 -0.19265228825E+02 -0.16541292294E+02  0.99619225980E+01  0.27276423786E+02  0.51100000000E-03 0.  1.
        -12    1    3    3    0    0 -0.22981838086E+01 -0.22187490172E+01  0.10217025347E+02  0.10704770103E+02  0.00000000000E+00 0.  1.
</event>
<event>
 7    1  0.8272272E-010  0.4778727E+02  0.7816164E-02  0.1312668E+00
        -11   -1    0    0    0    0  0.00000000000E+00  0.00000000000E+00  0.45593999997E+02  0.45594000000E+02  0.51100000000E-03 0. -1.
         11   -1    0    0    0    0 -0.00000000000E+00 -0.00000000000E+00 -0.45593999997E+02  0.45594000000E+02  0.51100000000E-03 0.  1.
    9900012    2    1    2    0    0  0.13978816687E+02 -0.25113636715E+02 -0.32519551050E+02  0.47787271141E+02  0.20000000439E+02 0.  0.
         12    1    1    2    0    0 -0.13978816687E+02  0.25113636715E+02  0.32519551050E+02  0.43400728859E+02  0.00000000000E+00 0. -1.
         11    1    3    3    0    0 -0.25816859124E+01 -0.35041947494E+01 -0.76147796544E+01  0.87709379452E+01  0.51100000000E-03 0. -1.
        -11    1    3    3    0    0  0.88621628949E+01 -0.58926644377E+01 -0.31559459710E+01  0.11100514429E+02  0.51100000000E-03 0.  1.
        -12    1    3    3    0    0  0.76983397046E+01 -0.15716777527E+02 -0.21748825425E+02  0.27915818767E+02  0.00000000000E+00 0.  1.
</event>
<event>
 7    1  0.5646756E-010  0.4778727E+02  0.7816164E-02  0.1312668E+00
        -11   -1    0    0    0    0  0.00000000000E+00  0.00000000000E+00  0.45593999997E+02  0.45594000000E+02  0.51100000000E-03 0.  1.
         11   -1    0    0    0    0 -0.00000000000E+00 -0.00000000000E+00 -0.45593999997E+02  0.45594000000E+02  0.51100000000E-03 0. -1.
    9900012    2    1    2    0    0 -0.36991078500E+02  0.22581659079E+02 -0.23134072734E+01  0.47787273409E+02  0.20000010782E+02 0.  0.
         12    1    1    2    0    0  0.36991078500E+02 -0.22581659079E+02  0.23134072734E+01  0.43400726591E+02  0.00000000000E+00 0. -1.
         11    1    3    3    0    0 -0.29302436670E+02  0.11322280643E+02 -0.43154004196E+01  0.31708823927E+02  0.51100000000E-03 0. -1.
        -11    1    3    3    0    0 -0.69683713905E+01  0.28821803402E+01  0.11333881586E+01  0.76255971785E+01  0.51100000000E-03 0.  1.
         12    1    3    3    0    0 -0.72027043944E+00  0.83771980962E+01  0.86860498763E+00  0.84528523040E+01  0.00000000000E+00 0. -1.
</event>
<event>
 7    1  0.5646756E-010  0.4778725E+02  0.7816164E-02  0.1312668E+00
        -11   -1    0    0    0    0  0.00000000000E+00  0.00000000000E+00  0.45593999997E+02  0.45594000000E+02  0.51100000000E-03 0.  1.
         11   -1    0    0    0    0 -0.00000000000E+00 -0.00000000000E+00 -0.45593999997E+02  0.45594000000E+02  0.51100000000E-03 0. -1.
    9900012    2    1    2    0    0  0.10053473644E+02  0.57763829096E+01  0.41823272862E+02  0.47787250183E+02  0.19999904884E+02 0.  0.
         12    1    1    2    0    0 -0.10053473644E+02 -0.57763829096E+01 -0.41823272862E+02  0.43400749817E+02  0.00000000000E+00 0. -1.
         11    1    3    3    0    0  0.73192834420E+00  0.51225001565E+00 -0.42294838424E+00  0.98843551961E+00  0.51100000000E-03 0. -1.
        -11    1    3    3    0    0 -0.17465822964E+01 -0.14331459236E+01 -0.34567531042E+00  0.22855959044E+01  0.51100000000E-03 0.  1.
        -12    1    3    3    0    0  0.11068127596E+02  0.66972788176E+01  0.42591896556E+02  0.44513218759E+02  0.00000000000E+00 0.  1.
</event>
<event>
 7    1  0.5646756E-010  0.4778727E+02  0.7816164E-02  0.1312668E+00
        -11   -1    0    0    0    0  0.00000000000E+00  0.00000000000E+00  0.45593999997E+02  0.45594000000E+02  0.51100000000E-03 0. -1.
         11   -1    0    0    0    0 -0.00000000000E+00 -0.00000000000E+00 -0.45593999997E+02  0.45594000000E+02  0.51100000000E-03 0.  1.
    9900012    2    1    2    0    0  0.16994042521E+02  0.34927941107E+02  0.19361425319E+02  0.47787270265E+02  0.19999996445E+02 0.  0.
         12    1    1    2    0    0 -0.16994042521E+02 -0.34927941107E+02 -0.19361425319E+02  0.43400729735E+02  0.00000000000E+00 0. -1.
         11    1    3    3    0    0 -0.11780834269E+01  0.23787439916E+01  0.36821196803E+01  0.45391969708E+01  0.51100000000E-03 0. -1.
        -11    1    3    3    0    0  0.11381451323E+02  0.97083716668E+01  0.44631283388E+00  0.14966265735E+02  0.51100000000E-03 0.  1.
        -12    1    3    3    0    0  0.67906746250E+01  0.22840825448E+02  0.15232992805E+02  0.28281807559E+02  0.00000000000E+00 0.  1.
</event>
<event>
 7    1  0.5646756E-010  0.4778727E+02  0.7816164E-02  0.1312668E+00
        -11   -1    0    0    0    0  0.00000000000E+00  0.00000000000E+00  0.45593999997E+02  0.45594000000E+02  0.51100000000E-03 0.  1.
         11   -1    0    0    0    0 -0.00000000000E+00 -0.00000000000E+00 -0.45593999997E+02  0.45594000000E+02  0.51100000000E-03 0. -1.
    9900012    2    1    2    0    0 -0.30696645938E+02  0.59172979847E+01  0.30105234584E+02  0.47787266865E+02  0.19999980946E+02 0.  0.
         12    1    1    2    0    0  0.30696645938E+02 -0.59172979847E+01 -0.30105234584E+02  0.43400733135E+02  0.00000000000E+00 0. -1.
         11    1    3    3    0    0 -0.22941124660E+02  0.70643495756E+01  0.11006550337E+02  0.26407279038E+02  0.51100000000E-03 0. -1.
        -11    1    3    3    0    0 -0.83914623099E+01 -0.19175543106E+01  0.16951375678E+02  0.19011648847E+02  0.51100000000E-03 0.  1.
         12    1    3    3    0    0  0.63594103244E+00  0.77050271975E+00  0.21473085693E+01  0.23683389812E+01  0.00000000000E+00 0. -1.
</event>
<event>
 7    1  0.5646756E-010  0.4778726E+02  0.7816164E-02  0.1312668E+00
        -11   -1    0    0    0    0  0.00000000000E+00  0.00000000000E+00  0.45593999997E+02  0.45594000000E+02  0.51100000000E-03 0.  1.
         11   -1    0    0    0    0 -0.00000000000E+00 -0.00000000000E+00 -0.45593999997E+02  0.45594000000E+02  0.51100000000E-03 0. -1.
    9900012    2    1    2    0    0  0.11091821135E+02 -0.37366820246E+02  0.19087078983E+02  0.47787258814E+02  0.19999944238E+02 0.  0.
         12    1    1    2    0    0 -0.11091821135E+02  0.37366820246E+02 -0.19087078983E+02  0.43400741186E+02  0.00000000000E+00 0. -1.
         11    1    3    3    0    0  0.58447973632E+01 -0.65231566667E+01  0.44147134963E+01  0.98083089588E+01  0.51100000000E-03 0. -1.
        -11    1    3    3    0    0  0.88784660169E+01 -0.29424795647E+02  0.11061747551E+02  0.32665088655E+02  0.51100000000E-03 0.  1.
        -12    1    3    3    0    0 -0.36314422446E+01 -0.14188679321E+01  0.36106179355E+01  0.53138612008E+01  0.00000000000E+00 0.  1.
</event>
<event>
 7    1  0.6000853E-010  0.4778727E+02  0.7816164E-02  0.1312668E+00
        -11   -1    0    0    0    0  0.00000000000E+00  0.00000000000E+00  0.45593999997E+02  0.45594000000E+02  0.51100000000E-03 0. -1.
         11   -1    0    0    0    0 -0.00000000000E+00 -0.00000000000E+00 -0.45593999997E+02  0.45594000000E+02  0.51100000000E-03 0.  1.
    9900012    2    1    2    0    0  0.77702831001E+01  0.28267726749E+02 -0.32002839387E+02  0.47787269547E+02  0.19999993173E+02 0.  0.
         12    1    1    2    0    0 -0.77702831001E+01 -0.28267726749E+02  0.32002839387E+02  0.43400730453E+02  0.00000000000E+00 0. -1.
         11    1    3    3    0    0 -0.35067013716E+00  0.12483550017E+01  0.84511960999E+00  0.15477684490E+01  0.51100000000E-03 0. -1.
        -11    1    3    3    0    0  0.15211744803E+01 -0.21258529624E+01 -0.33575068614E+01  0.42551234063E+01  0.51100000000E-03 0.  1.
        -12    1    3    3    0    0  0.65997787570E+01  0.29145224710E+02 -0.29490452136E+02  0.41984377692E+02  0.00000000000E+00 0.  1.
</event>
<event>
 7    1  0.5646756E-010  0.4778728E+02  0.7816164E-02  0.1312668E+00
        -11   -1    0    0    0    0  0.00000000000E+00  0.00000000000E+00  0.45593999997E+02  0.45594000000E+02  0.51100000000E-03 0. -1.
         11   -1    0    0    0    0 -0.00000000000E+00 -0.00000000000E+00 -0.45593999997E+02  0.45594000000E+02  0.51100000000E-03 0.  1.
    9900012    2    1    2    0    0 -0.28318604552E+02  0.31283946278E+02 -0.10148599831E+02  0.47787277229E+02  0.20000028197E+02 0.  0.
         12    1    1    2    0    0  0.28318604552E+02 -0.31283946278E+02  0.10148599831E+02  0.43400722771E+02  0.00000000000E+00 0. -1.
         11    1    3    3    0    0 -0.18619580601E+02  0.17970655558E+02  0.18004672687E+01  0.25939832798E+02  0.51100000000E-03 0. -1.
        -11    1    3    3    0    0 -0.83370171508E+01  0.59715761201E+01 -0.41869672699E+01  0.11076834905E+02  0.51100000000E-03 0.  1.
         12    1    3    3    0    0 -0.13620068009E+01  0.73417146002E+01 -0.77620998303E+01  0.10770609526E+02  0.00000000000E+00 0. -1.
</event>
<event>
 7    1  0.5646756E-010  0.4778728E+02  0.7816164E-02  0.1312668E+00
        -11   -1    0    0    0    0  0.00000000000E+00  0.00000000000E+00  0.45593999997E+02  0.45594000000E+02  0.51100000000E-03 0.  1.
         11   -1    0    0    0    0 -0.00000000000E+00 -0.00000000000E+00 -0.45593999997E+02  0.45594000000E+02  0.51100000000E-03 0. -1.
    9900012    2    1    2    0    0  0.93502637532E+01 -0.24350275220E+02  0.34688023600E+02  0.47787282070E+02  0.20000050270E+02 0.  0.
         12    1    1    2    0    0 -0.93502637532E+01  0.24350275220E+02 -0.34688023600E+02  0.43400717930E+02  0.00000000000E+00 0. -1.
         11    1    3    3    0    0 -0.14840325974E+01  0.16508878826E+01  0.53460129587E+01  0.57885782682E+01  0.51100000000E-03 0. -1.
        -11    1    3    3    0    0  0.71862207111E+01 -0.24820380561E+02  0.23029495393E+02  0.34612869249E+02  0.51100000000E-03 0.  1.
         12    1    3    3    0    0  0.36480756395E+01 -0.11807825414E+01  0.63125152485E+01  0.73858345530E+01  0.00000000000E+00 0. -1.
</event>
<event>
 7    1  0.5646756E-010  0.4778727E+02  0.7816164E-02  0.1312668E+00
        -11   -1    0    0    0    0  0.00000000000E+00  0.00000000000E+00  0.45593999997E+02  0.45594000000E+02  0.51100000000E-03 0.  1.
         11   -1    0    0    0    0 -0.00000000000E+00 -0.00000000000E+00 -0.45593999997E+02  0.45594000000E+02  0.51100000000E-03 0. -1.
    9900012    2    1    2    0    0 -0.34321302893E+02  0.25695027427E+02  0.67407323249E+01  0.47787265685E+02  0.19999975566E+02 0.  0.
         12    1    1    2    0    0  0.34321302893E+02 -0.25695027427E+02 -0.67407323249E+01  0.43400734315E+02  0.00000000000E+00 0. -1.
         11    1    3    3    0    0 -0.28754233759E+01  0.23837890802E+01  0.68250270019E+01  0.77801994710E+01  0.51100000000E-03 0. -1.
        -11    1    3    3    0    0 -0.89526833535E+01  0.96224236154E+01  0.30432958910E+01  0.13490857112E+02  0.51100000000E-03 0.  1.
         12    1    3    3    0    0 -0.22493196164E+02  0.13688814732E+02 -0.31275905681E+01  0.26516209103E+02  0.00000000000E+00 0. -1.
</event>
<event>
 7    1  0.5646756E-010  0.4778727E+02  0.7816164E-02  0.1312668E+00
        -11   -1    0    0    0    0  0.00000000000E+00  0.00000000000E+00  0.45593999997E+02  0.45594000000E+02  0.51100000000E-03 0.  1.
         11   -1    0    0    0    0 -0.00000000000E+00 -0.00000000000E+00 -0.45593999997E+02  0.45594000000E+02  0.51100000000E-03 0. -1.
    9900012    2    1    2    0    0  0.19009737189E+02 -0.34092318351E+02  0.18972798356E+02  0.47787270098E+02  0.19999995687E+02 0.  0.
         12    1    1    2    0    0 -0.19009737189E+02  0.34092318351E+02 -0.18972798356E+02  0.43400729902E+02  0.00000000000E+00 0. -1.
         11    1    3    3    0    0  0.71355198515E+01 -0.76627322526E+01  0.14954133680E+02  0.18255388889E+02  0.51100000000E-03 0. -1.
        -11    1    3    3    0    0  0.99963487432E+01 -0.20934593089E+02  0.47466547365E+01  0.23679419491E+02  0.51100000000E-03 0.  1.
         12    1    3    3    0    0  0.18778685946E+01 -0.54949930095E+01 -0.72799006031E+00  0.58524617180E+01  0.00000000000E+00 0. -1.
</event>
<event>
 7    1  0.5646756E-010  0.4778726E+02  0.7816164E-02  0.1312668E+00
        -11   -1    0    0    0    0  0.00000000000E+00  0.00000000000E+00  0.45593999997E+02  0.45594000000E+02  0.51100000000E-03 0.  1.
         11   -1    0    0    0    0 -0.00000000000E+00 -0.00000000000E+00 -0.45593999997E+02  0.45594000000E+02  0.51100000000E-03 0. -1.
    9900012    2    1    2    0    0  0.71171122829E+01  0.24154571641E+02  0.35348653113E+02  0.47787263885E+02  0.19999967359E+02 0.  0.
         12    1    1    2    0    0 -0.71171122829E+01 -0.24154571641E+02 -0.35348653113E+02  0.43400736115E+02  0.00000000000E+00 0. -1.
         11    1    3    3    0    0  0.10012740272E+02  0.10181991536E+02  0.71298613934E+01  0.15961292026E+02  0.51100000000E-03 0. -1.
        -11    1    3    3    0    0 -0.36206519020E+01  0.10836053277E+02  0.20624066743E+02  0.23577135112E+02  0.51100000000E-03 0.  1.
         12    1    3    3    0    0  0.72502391288E+00  0.31365268282E+01  0.75947249764E+01  0.82488367474E+01  0.00000000000E+00 0. -1.
</event>
<event>
 7    1  0.5646756E-010  0.4778727E+02  0.7816164E-02  0.1312668E+00
        -11   -1    0    0    0    0  0.00000000000E+00  0.00000000000E+00  0.45593999997E+02  0.45594000000E+02  0.51100000000E-03 0.  1.
         11   -1    0    0    0    0 -0.00000000000E+00 -0.00000000000E+00 -0.45593999997E+02  0.45594000000E+02  0.51100000000E-03 0. -1.
    9900012    2    1    2    0    0  0.33208667528E+02  0.27575011628E+02 -0.45195498792E+01  0.47787271937E+02  0.20000004068E+02 0.  0.
         12    1    1    2    0    0 -0.33208667528E+02 -0.27575011628E+02  0.45195498792E+01  0.43400728063E+02  0.00000000000E+00 0. -1.
         11    1    3    3    0    0  0.65883585187E+01  0.15637022336E+02  0.12783574336E+00  0.16968773608E+02  0.51100000000E-03 0. -1.
        -11    1    3    3    0    0  0.59425317470E+01  0.55575531191E+01  0.16059036518E+01  0.82933109815E+01  0.51100000000E-03 0.  1.
         12    1    3    3    0    0  0.20677777263E+02  0.63804361731E+01 -0.62532892744E+01  0.22525187347E+02  0.00000000000E+00 0. -1.
</event>
<event>
 7    1  0.5646756E-010  0.4778727E+02  0.7816164E-02  0.1312668E+00
        -11   -1    0    0    0    0  0.00000000000E+00  0.00000000000E+00  0.45593999997E+02  0.45594000000E+02  0.51100000000E-03 0.  1.
         11   -1    0    0    0    0 -0.00000000000E+00 -0.00000000000E+00 -0.45593999997E+02  0.45594000000E+02  0.51100000000E-03 0. -1.
    9900012    2    1    2    0    0  0.26881902998E+02  0.12396397342E+02  0.31738244059E+02  0.47787268303E+02  0.19999987503E+02 0.  0.
         12    1    1    2    0    0 -0.26881902998E+02 -0.12396397342E+02 -0.31738244059E+02  0.43400731697E+02  0.00000000000E+00 0. -1.
         11    1    3    3    0    0  0.14975578036E+00  0.33162597992E+01  0.29811899667E+01  0.44617821247E+01  0.51100000000E-03 0. -1.
        -11    1    3    3    0    0  0.63728865437E+01 -0.20940109223E+01  0.46785128772E+00  0.67243921458E+01  0.51100000000E-03 0.  1.
        -12    1    3    3    0    0  0.20359260674E+02  0.11174148465E+02  0.28289202804E+02  0.36601094033E+02  0.00000000000E+00 0.  1.
</event>
<event>
 7    1  0.5646756E-010  0.4778727E+02  0.7816164E-02  0.1312668E+00
        -11   -1    0    0    0    0  0.00000000000E+00  0.00000000000E+00  0.45593999997E+02  0.45594000000E+02  0.51100000000E-03 0.  1.
         11   -1    0    0    0    0 -0.00000000000E+00 -0.00000000000E+00 -0.45593999997E+02  0.45594000000E+02  0.51100000000E-03 0. -1.
    9900012    2    1    2    0    0  0.18777395161E+02  0.24574005482E+02  0.30449156658E+02  0.47787268950E+02  0.19999990453E+02 0.  0.
         12    1    1    2    0    0 -0.18777395161E+02 -0.24574005482E+02 -0.30449156658E+02  0.43400731050E+02  0.00000000000E+00 0. -1.
         11    1    3    3    0    0 -0.10163241081E+01  0.89677503900E+01  0.44868716190E+01  0.10078962195E+02  0.51100000000E-03 0. -1.
        -11    1    3    3    0    0  0.18812220505E+02  0.17188229607E+02  0.24345008972E+02  0.35242223815E+02  0.51100000000E-03 0.  1.
         12    1    3    3    0    0  0.98149876412E+00 -0.15819745147E+01  0.16172760668E+01  0.24660829397E+01  0.00000000000E+00 0. -1.
</event>
<event>
 7    1  0.5646756E-010  0.4778728E+02  0.7816164E-02  0.1312668E+00
        -11   -1    0    0    0    0  0.00000000000E+00  0.00000000000E+00  0.45593999997E+02  0.45594000000E+02  0.51100000000E-03 0.  1.
         11   -1    0    0    0    0 -0.00000000000E+00 -0.00000000000E+00 -0.45593999997E+02  0.45594000000E+02  0.51100000000E-03 0. -1.
    9900012    2    1    2    0    0 -0.16480064648E+02  0.11248500126E+02  0.38542204316E+02  0.47787276510E+02  0.20000024922E+02 0.  0.
         12    1    1    2    0    0  0.16480064648E+02 -0.11248500126E+02 -0.38542204316E+02  0.43400723490E+02  0.00000000000E+00 0. -1.
         11    1    3    3    0    0 -0.12767381172E+01 -0.30854720555E-01  0.95056738732E+00  0.15920398401E+01  0.51100000000E-03 0. -1.
        -11    1    3    3    0    0 -0.19726088785E+02  0.10102639791E+02  0.31579535675E+02  0.38580422279E+02  0.51100000000E-03 0.  1.
        -12    1    3    3    0    0  0.45227622544E+01  0.11767150552E+01  0.60121012536E+01  0.76148143914E+01  0.00000000000E+00 0.  1.
</event>
<event>
 7    1  0.5646756E-010  0.4778727E+02  0.7816164E-02  0.1312668E+00
        -11   -1    0    0    0    0  0.00000000000E+00  0.00000000000E+00  0.45593999997E+02  0.45594000000E+02  0.51100000000E-03 0.  1.
         11   -1    0    0    0    0 -0.00000000000E+00 -0.00000000000E+00 -0.45593999997E+02  0.45594000000E+02  0.51100000000E-03 0. -1.
    9900012    2    1    2    0    0 -0.26051024819E+02  0.11046717338E+02  0.32908014349E+02  0.47787271130E+02  0.20000000389E+02 0.  0.
         12    1    1    2    0    0  0.26051024819E+02 -0.11046717338E+02 -0.32908014349E+02  0.43400728870E+02  0.00000000000E+00 0. -1.
         11    1    3    3    0    0 -0.42383757910E+01  0.11355094963E+01  0.91682838121E+01  0.10164184152E+02  0.51100000000E-03 0. -1.
        -11    1    3    3    0    0 -0.67616118727E+01  0.75679459574E+01  0.19219215736E+02  0.21734108100E+02  0.51100000000E-03 0.  1.
        -12    1    3    3    0    0 -0.15051037155E+02  0.23432618847E+01  0.45205148007E+01  0.15888978877E+02  0.00000000000E+00 0.  1.
</event>
<event>
 7    1  0.5646756E-010  0.4778727E+02  0.7816164E-02  0.1312668E+00
        -11   -1    0    0    0    0  0.00000000000E+00  0.00000000000E+00  0.45593999997E+02  0.45594000000E+02  0.51100000000E-03 0.  1.
         11   -1    0    0    0    0 -0.00000000000E+00 -0.00000000000E+00 -0.45593999997E+02  0.45594000000E+02  0.51100000000E-03 0. -1.
    9900012    2    1    2    0    0 -0.26698091322E+02  0.35310596684E+01  0.34034787951E+02  0.47787271279E+02  0.20000001071E+02 0.  0.
         12    1    1    2    0    0  0.26698091322E+02 -0.35310596684E+01 -0.34034787951E+02  0.43400728721E+02  0.00000000000E+00 0. -1.
         11    1    3    3    0    0 -0.54020514065E+00 -0.95916940422E-02 -0.96650616223E+00  0.11072705258E+01  0.51100000000E-03 0. -1.
        -11    1    3    3    0    0  0.59912480624E+00 -0.18183533848E+01 -0.42610312563E+00  0.19613576166E+01  0.51100000000E-03 0.  1.
        -12    1    3    3    0    0 -0.26757010988E+02  0.53590047472E+01  0.35427397239E+02  0.44718643137E+02  0.00000000000E+00 0.  1.
</event>
<event>
 7    1  0.5646756E-010  0.4778727E+02  0.7816164E-02  0.1312668E+00
        -11   -1    0    0    0    0  0.00000000000E+00  0.00000000000E+00  0.45593999997E+02  0.45594000000E+02  0.51100000000E-03 0.  1.
         11   -1    0    0    0    0 -0.00000000000E+00 -0.00000000000E+00 -0.45593999997E+02  0.45594000000E+02  0.51100000000E-03 0. -1.
    9900012    2    1    2    0    0  0.28304363859E+02 -0.32297530254E+02  0.62734364874E+01  0.47787268677E+02  0.19999989208E+02 0.  0.
         12    1    1    2    0    0 -0.28304363859E+02  0.32297530254E+02 -0.62734364874E+01  0.43400731323E+02  0.00000000000E+00 0. -1.
         11    1    3    3    0    0  0.30560297483E+01 -0.18377288928E+01  0.60756465755E+01  0.70448596067E+01  0.51100000000E-03 0. -1.
        -11    1    3    3    0    0  0.22800018654E+02 -0.27223631366E+02 -0.29128633379E+01  0.35629366097E+02  0.51100000000E-03 0.  1.
        -12    1    3    3    0    0  0.24483154571E+01 -0.32361699952E+01  0.31106532498E+01  0.51130429742E+01  0.00000000000E+00 0.  1.
</event>
<event>
 7    1  0.5646756E-010  0.4778727E+02  0.7816164E-02  0.1312668E+00
        -11   -1    0    0    0    0  0.00000000000E+00  0.00000000000E+00  0.45593999997E+02  0.45594000000E+02  0.51100000000E-03 0.  1.
         11   -1    0    0    0    0 -0.00000000000E+00 -0.00000000000E+00 -0.45593999997E+02  0.45594000000E+02  0.51100000000E-03 0. -1.
    9900012    2    1    2    0    0 -0.27989694672E+02  0.74775968573E+01  0.32315407771E+02  0.47787273715E+02  0.20000012178E+02 0.  0.
         12    1    1    2    0    0  0.27989694672E+02 -0.74775968573E+01 -0.32315407771E+02  0.43400726285E+02  0.00000000000E+00 0. -1.
         11    1    3    3    0    0 -0.93944587972E+01  0.12628164758E+02  0.16669214161E+02  0.22925730135E+02  0.51100000000E-03 0. -1.
        -11    1    3    3    0    0 -0.13560379259E+02 -0.33021434212E+01  0.11397585390E+02  0.18019239435E+02  0.51100000000E-03 0.  1.
         12    1    3    3    0    0 -0.50348566165E+01 -0.18484244799E+01  0.42486082203E+01  0.68423041453E+01  0.00000000000E+00 0. -1.
</event>
<event>
 7    1  0.5646756E-010  0.4778727E+02  0.7816164E-02  0.1312668E+00
        -11   -1    0    0    0    0  0.00000000000E+00  0.00000000000E+00  0.45593999997E+02  0.45594000000E+02  0.51100000000E-03 0.  1.
         11   -1    0    0    0    0 -0.00000000000E+00 -0.00000000000E+00 -0.45593999997E+02  0.45594000000E+02  0.51100000000E-03 0. -1.
    9900012    2    1    2    0    0 -0.96291945819E+00  0.75239260058E+01  0.42732735488E+02  0.47787270067E+02  0.19999995544E+02 0.  0.
         12    1    1    2    0    0  0.96291945819E+00 -0.75239260058E+01 -0.42732735488E+02  0.43400729933E+02  0.00000000000E+00 0. -1.
         11    1    3    3    0    0  0.70764091762E+01  0.28841160560E+01  0.32033741321E+02  0.32932571651E+02  0.51100000000E-03 0. -1.
        -11    1    3    3    0    0 -0.68470879517E+01  0.21105627837E+01  0.92649885105E+01  0.11712262849E+02  0.51100000000E-03 0.  1.
         12    1    3    3    0    0 -0.11922406827E+01  0.25292471661E+01  0.14340056563E+01  0.31424355673E+01  0.00000000000E+00 0. -1.
</event>
<event>
 7    1  0.5646756E-010  0.4778727E+02  0.7816164E-02  0.1312668E+00
        -11   -1    0    0    0    0  0.00000000000E+00  0.00000000000E+00  0.45593999997E+02  0.45594000000E+02  0.51100000000E-03 0.  1.
         11   -1    0    0    0    0 -0.00000000000E+00 -0.00000000000E+00 -0.45593999997E+02  0.45594000000E+02  0.51100000000E-03 0. -1.
    9900012    2    1    2    0    0  0.24559134737E+02  0.21858445331E+02  0.28331624477E+02  0.47787266403E+02  0.19999978836E+02 0.  0.
         12    1    1    2    0    0 -0.24559134737E+02 -0.21858445331E+02 -0.28331624477E+02  0.43400733597E+02  0.00000000000E+00 0. -1.
         11    1    3    3    0    0 -0.19974310009E+01 -0.16120498602E+01  0.16334949166E+01  0.30424893194E+01  0.51100000000E-03 0. -1.
        -11    1    3    3    0    0  0.11015175598E+02  0.10387920674E+02  0.14949062266E+02  0.21277157993E+02  0.51100000000E-03 0.  1.
         12    1    3    3    0    0  0.15541390139E+02  0.13082574517E+02  0.11749067294E+02  0.23467619090E+02  0.00000000000E+00 0. -1.
</event>
<event>
 7    1  0.5646756E-010  0.4778727E+02  0.7816164E-02  0.1312668E+00
        -11   -1    0    0    0    0  0.00000000000E+00  0.00000000000E+00  0.45593999997E+02  0.45594000000E+02  0.51100000000E-03 0.  1.
         11   -1    0    0    0    0 -0.00000000000E+00 -0.00000000000E+00 -0.45593999997E+02  0.45594000000E+02  0.51100000000E-03 0. -1.
    9900012    2    1    2    0    0 -0.14460445695E+02 -0.40592298019E+02  0.51753829619E+01  0.47787265709E+02  0.19999975674E+02 0.  0.
         12    1    1    2    0    0  0.14460445695E+02  0.40592298019E+02 -0.51753829619E+01  0.43400734291E+02  0.00000000000E+00 0. -1.
         11    1    3    3    0    0  0.12460774076E+01 -0.22205694797E+01  0.44636493510E+01  0.51388523534E+01  0.51100000000E-03 0. -1.
        -11    1    3    3    0    0 -0.75731711901E+00 -0.48699491711E+01  0.32034393841E+01  0.58780913821E+01  0.51100000000E-03 0.  1.
         12    1    3    3    0    0 -0.14949205983E+02 -0.33501779369E+02 -0.24917057732E+01  0.36770321974E+02  0.00000000000E+00 0. -1.
</event>
<event>
 7    1  0.5646756E-010  0.4778726E+02  0.7816164E-02  0.1312668E+00
        -11   -1    0    0    0    0  0.00000000000E+00  0.00000000000E+00  0.45593999997E+02  0.45594000000E+02  0.51100000000E-03 0.  1.
         11   -1    0    0    0    0 -0.00000000000E+00 -0.00000000000E+00 -0.45593999997E+02  0.45594000000E+02  0.51100000000E-03 0. -1.
    9900012    2    1    2    0    0 -0.10294739445E+02 -0.39166751249E+02  0.15607951349E+02  0.47787260272E+02  0.19999950885E+02 0.  0.
         12    1    1    2    0    0  0.10294739445E+02  0.39166751249E+02 -0.15607951349E+02  0.43400739728E+02  0.00000000000E+00 0. -1.
         11    1    3    3    0    0 -0.60635026476E+01 -0.84807050779E+01  0.70302418435E+01  0.12574288195E+02  0.51100000000E-03 0. -1.
        -11    1    3    3    0    0 -0.31515099469E+01 -0.30807667897E+02  0.48696167968E+01  0.31348964643E+02  0.51100000000E-03 0.  1.
        -12    1    3    3    0    0 -0.10797268502E+01  0.12162172594E+00  0.37080927083E+01  0.38640074339E+01  0.00000000000E+00 0.  1.
</event>
<event>
 7    1  0.5646756E-010  0.4778727E+02  0.7816164E-02  0.1312668E+00
        -11   -1    0    0    0    0  0.00000000000E+00  0.00000000000E+00  0.45593999997E+02  0.45594000000E+02  0.51100000000E-03 0.  1.
         11   -1    0    0    0    0 -0.00000000000E+00 -0.00000000000E+00 -0.45593999997E+02  0.45594000000E+02  0.51100000000E-03 0. -1.
    9900012    2    1    2    0    0 -0.42198589011E+02  0.63464456757E+01  0.79136212200E+01  0.47787266273E+02  0.19999978247E+02 0.  0.
         12    1    1    2    0    0  0.42198589011E+02 -0.63464456757E+01 -0.79136212200E+01  0.43400733727E+02  0.00000000000E+00 0. -1.
         11    1    3    3    0    0  0.76616129865E+00  0.21314222767E+01 -0.12453195612E+00  0.22683634026E+01  0.51100000000E-03 0. -1.
        -11    1    3    3    0    0 -0.40939237463E+02  0.12760006006E+01  0.59651703357E+01  0.41391214031E+02  0.51100000000E-03 0.  1.
        -12    1    3    3    0    0 -0.20255128461E+01  0.29390227984E+01  0.20729828404E+01  0.41276888396E+01  0.00000000000E+00 0.  1.
</event>
<event>
 7    1  0.5646756E-010  0.4778727E+02  0.7816164E-02  0.1312668E+00
        -11   -1    0    0    0    0  0.00000000000E+00  0.00000000000E+00  0.45593999997E+02  0.45594000000E+02  0.51100000000E-03 0.  1.
         11   -1    0    0    0    0 -0.00000000000E+00 -0.00000000000E+00 -0.45593999997E+02  0.45594000000E+02  0.51100000000E-03 0. -1.
    9900012    2    1    2    0    0  0.94352033728E+01  0.15278428010E+01  0.42335162903E+02  0.47787269771E+02  0.19999994196E+02 0.  0.
         12    1    1    2    0    0 -0.94352033728E+01 -0.15278428010E+01 -0.42335162903E+02  0.43400730229E+02  0.00000000000E+00 0. -1.
         11    1    3    3    0    0  0.32746252751E+01  0.29990227594E+01  0.42448204446E+01  0.61429479137E+01  0.51100000000E-03 0. -1.
        -11    1    3    3    0    0 -0.19401115010E+01 -0.62467642298E+01  0.22557827375E+02  0.23487053287E+02  0.51100000000E-03 0.  1.
        -12    1    3    3    0    0  0.81006895988E+01  0.47755842715E+01  0.15532515084E+02  0.18157268571E+02  0.00000000000E+00 0.  1.
</event>
<event>
 7    1  0.5646756E-010  0.4778727E+02  0.7816164E-02  0.1312668E+00
        -11   -1    0    0    0    0  0.00000000000E+00  0.00000000000E+00  0.45593999997E+02  0.45594000000E+02  0.51100000000E-03 0.  1.
         11   -1    0    0    0    0 -0.00000000000E+00 -0.00000000000E+00 -0.45593999997E+02  0.45594000000E+02  0.51100000000E-03 0. -1.
    9900012    2    1    2    0    0 -0.39469682393E+02  0.13649876092E+02  0.11808828809E+02  0.47787269783E+02  0.19999994247E+02 0.  0.
         12    1    1    2    0    0  0.39469682393E+02 -0.13649876092E+02 -0.11808828809E+02  0.43400730217E+02  0.00000000000E+00 0. -1.
         11    1    3    3    0    0 -0.16526951845E+02 -0.17220721655E+01  0.22274624882E+01  0.16765060669E+02  0.51100000000E-03 0.  1.
        -11    1    3    3    0    0 -0.64576859924E+01  0.99385012533E+01  0.17531321315E+01  0.11981193099E+02  0.51100000000E-03 0. -1.
        -12    1    3    3    0    0 -0.16485044556E+02  0.54334470042E+01  0.78282341895E+01  0.19041016015E+02  0.00000000000E+00 0.  1.
</event>
<event>
 7    1  0.5646756E-010  0.4778727E+02  0.7816164E-02  0.1312668E+00
        -11   -1    0    0    0    0  0.00000000000E+00  0.00000000000E+00  0.45593999997E+02  0.45594000000E+02  0.51100000000E-03 0.  1.
         11   -1    0    0    0    0 -0.00000000000E+00 -0.00000000000E+00 -0.45593999997E+02  0.45594000000E+02  0.51100000000E-03 0. -1.
    9900012    2    1    2    0    0  0.29768155082E+02 -0.94829407700E+00  0.31568669073E+02  0.47787272061E+02  0.20000004634E+02 0.  0.
         12    1    1    2    0    0 -0.29768155082E+02  0.94829407700E+00 -0.31568669073E+02  0.43400727939E+02  0.00000000000E+00 0. -1.
         11    1    3    3    0    0  0.37051229866E+01  0.10764564657E+01  0.17161913804E+01  0.42227962281E+01  0.51100000000E-03 0. -1.
        -11    1    3    3    0    0  0.16265057731E+02 -0.62158364738E+01  0.78151742090E+01  0.19085745315E+02  0.51100000000E-03 0.  1.
        -12    1    3    3    0    0  0.97979743642E+01  0.41910859311E+01  0.22037303483E+02  0.24478730517E+02  0.00000000000E+00 0.  1.
</event>
<event>
 7    1  0.5646756E-010  0.4778727E+02  0.7816164E-02  0.1312668E+00
        -11   -1    0    0    0    0  0.00000000000E+00  0.00000000000E+00  0.45593999997E+02  0.45594000000E+02  0.51100000000E-03 0.  1.
         11   -1    0    0    0    0 -0.00000000000E+00 -0.00000000000E+00 -0.45593999997E+02  0.45594000000E+02  0.51100000000E-03 0. -1.
    9900012    2    1    2    0    0  0.30042698499E+02  0.31291795900E+02  0.13722386440E+01  0.47787271174E+02  0.20000000590E+02 0.  0.
         12    1    1    2    0    0 -0.30042698499E+02 -0.31291795900E+02 -0.13722386440E+01  0.43400728826E+02  0.00000000000E+00 0. -1.
         11    1    3    3    0    0  0.12696639211E+02  0.52779620038E+01  0.44175582989E+01  0.14442172681E+02  0.51100000000E-03 0. -1.
        -11    1    3    3    0    0  0.18115983982E+02  0.23784281680E+02 -0.53802164037E+00  0.29902682124E+02  0.51100000000E-03 0.  1.
         12    1    3    3    0    0 -0.76992469411E+00  0.22295522169E+01 -0.25072980146E+01  0.34424163689E+01  0.00000000000E+00 0. -1.
</event>
<event>
 7    1  0.5646756E-010  0.4778726E+02  0.7816164E-02  0.1312668E+00
        -11   -1    0    0    0    0  0.00000000000E+00  0.00000000000E+00  0.45593999997E+02  0.45594000000E+02  0.51100000000E-03 0. -1.
         11   -1    0    0    0    0 -0.00000000000E+00 -0.00000000000E+00 -0.45593999997E+02  0.45594000000E+02  0.51100000000E-03 0.  1.
    9900012    2    1    2    0    0 -0.16044334421E+02  0.13207017560E+01 -0.40304577499E+02  0.47787263975E+02  0.19999967769E+02 0.  0.
         12    1    1    2    0    0  0.16044334421E+02 -0.13207017560E+01  0.40304577499E+02  0.43400736025E+02  0.00000000000E+00 0. -1.
         11    1    3    3    0    0 -0.46735444763E+01  0.20991995587E+01  0.63343333952E+00  0.51623536121E+01  0.51100000000E-03 0. -1.
        -11    1    3    3    0    0 -0.53687832246E+01 -0.18062297316E+01 -0.22750747586E+02  0.23445315420E+02  0.51100000000E-03 0.  1.
        -12    1    3    3    0    0 -0.60020067198E+01  0.10277319288E+01 -0.18187263252E+02  0.19179594943E+02  0.00000000000E+00 0.  1.
</event>
<event>
 7    1  0.5646756E-010  0.4778727E+02  0.7816164E-02  0.1312668E+00
        -11   -1    0    0    0    0  0.00000000000E+00  0.00000000000E+00  0.45593999997E+02  0.45594000000E+02  0.51100000000E-03 0. -1.
         11   -1    0    0    0    0 -0.00000000000E+00 -0.00000000000E+00 -0.45593999997E+02  0.45594000000E+02  0.51100000000E-03 0.  1.
    9900012    2    1    2    0    0 -0.41909079912E+02  0.87881251594E+01 -0.70725740944E+01  0.47787269278E+02  0.19999991945E+02 0.  0.
         12    1    1    2    0    0  0.41909079912E+02 -0.87881251594E+01  0.70725740944E+01  0.43400730722E+02  0.00000000000E+00 0. -1.
         11    1    3    3    0    0 -0.30280842188E+01 -0.37220082709E+01 -0.84069028926E+00  0.48712832014E+01  0.51100000000E-03 0. -1.
        -11    1    3    3    0    0 -0.35119450845E+02  0.13709498545E+02 -0.80801601055E+01  0.38556648786E+02  0.51100000000E-03 0.  1.
        -12    1    3    3    0    0 -0.37615448487E+01 -0.11993651150E+01  0.18482763004E+01  0.43593372903E+01  0.00000000000E+00 0.  1.
</event>
<event>
 7    1  0.5646756E-010  0.4778728E+02  0.7816164E-02  0.1312668E+00
        -11   -1    0    0    0    0  0.00000000000E+00  0.00000000000E+00  0.45593999997E+02  0.45594000000E+02  0.51100000000E-03 0.  1.
         11   -1    0    0    0    0 -0.00000000000E+00 -0.00000000000E+00 -0.45593999997E+02  0.45594000000E+02  0.51100000000E-03 0. -1.
    9900012    2    1    2    0    0 -0.33666853422E+02  0.17860725084E+02  0.20764393471E+02  0.47787279314E+02  0.20000037702E+02 0.  0.
         12    1    1    2    0    0  0.33666853422E+02 -0.17860725084E+02 -0.20764393471E+02  0.43400720686E+02  0.00000000000E+00 0. -1.
         11    1    3    3    0    0 -0.11976882937E+02  0.11194759073E+02  0.96867568838E+01  0.19042101112E+02  0.51100000000E-03 0. -1.
        -11    1    3    3    0    0 -0.18973958020E+02 -0.32519713716E+00  0.87098779634E+01  0.20880105616E+02  0.51100000000E-03 0.  1.
        -12    1    3    3    0    0 -0.27160124656E+01  0.69911631482E+01  0.23677586235E+01  0.78650725856E+01  0.00000000000E+00 0.  1.
</event>
<event>
 7    1  0.5646756E-010  0.4778727E+02  0.7816164E-02  0.1312668E+00
        -11   -1    0    0    0    0  0.00000000000E+00  0.00000000000E+00  0.45593999997E+02  0.45594000000E+02  0.51100000000E-03 0.  1.
         11   -1    0    0    0    0 -0.00000000000E+00 -0.00000000000E+00 -0.45593999997E+02  0.45594000000E+02  0.51100000000E-03 0. -1.
    9900012    2    1    2    0    0  0.33517491552E+01  0.26972400400E+01  0.43186965185E+02  0.47787270881E+02  0.19999999253E+02 0.  0.
         12    1    1    2    0    0 -0.33517491552E+01 -0.26972400400E+01 -0.43186965185E+02  0.43400729119E+02  0.00000000000E+00 0. -1.
         11    1    3    3    0    0  0.76841992841E+01 -0.29621872654E+01  0.19152135440E+02  0.20847680068E+02  0.51100000000E-03 0. -1.
        -11    1    3    3    0    0 -0.74284267481E+01  0.28444332847E+01  0.16623491422E+02  0.18428586272E+02  0.51100000000E-03 0.  1.
        -12    1    3    3    0    0  0.30959766192E+01  0.28149940206E+01  0.74113383224E+01  0.85110045407E+01  0.00000000000E+00 0.  1.
</event>
<event>
 7    1  0.5646756E-010  0.4778727E+02  0.7816164E-02  0.1312668E+00
        -11   -1    0    0    0    0  0.00000000000E+00  0.00000000000E+00  0.45593999997E+02  0.45594000000E+02  0.51100000000E-03 0. -1.
         11   -1    0    0    0    0 -0.00000000000E+00 -0.00000000000E+00 -0.45593999997E+02  0.45594000000E+02  0.51100000000E-03 0.  1.
    9900012    2    1    2    0    0 -0.24078537718E+02 -0.33564356906E+02 -0.13314701243E+02  0.47787270716E+02  0.19999998503E+02 0.  0.
         12    1    1    2    0    0  0.24078537718E+02  0.33564356906E+02  0.13314701243E+02  0.43400729284E+02  0.00000000000E+00 0. -1.
         11    1    3    3    0    0 -0.18232642846E+02 -0.13634184190E+02 -0.13093754689E+02  0.26263409067E+02  0.51100000000E-03 0.  1.
        -11    1    3    3    0    0 -0.38328703846E+01 -0.15020698768E+02  0.22608442788E+01  0.15666004723E+02  0.51100000000E-03 0. -1.
        -12    1    3    3    0    0 -0.20130244873E+01 -0.49094739477E+01 -0.24817908326E+01  0.58578569261E+01  0.00000000000E+00 0.  1.
</event>
<event>
 7    1  0.5646756E-010  0.4778727E+02  0.7816164E-02  0.1312668E+00
        -11   -1    0    0    0    0  0.00000000000E+00  0.00000000000E+00  0.45593999997E+02  0.45594000000E+02  0.51100000000E-03 0.  1.
         11   -1    0    0    0    0 -0.00000000000E+00 -0.00000000000E+00 -0.45593999997E+02  0.45594000000E+02  0.51100000000E-03 0. -1.
    9900012    2    1    2    0    0  0.23403806378E+02 -0.13390020354E+02  0.34008711013E+02  0.47787271632E+02  0.20000002681E+02 0.  0.
         12    1    1    2    0    0 -0.23403806378E+02  0.13390020354E+02 -0.34008711013E+02  0.43400728368E+02  0.00000000000E+00 0. -1.
         11    1    3    3    0    0  0.49394996551E+01 -0.22860230317E+01  0.21460384075E+01  0.58506443450E+01  0.51100000000E-03 0. -1.
        -11    1    3    3    0    0 -0.45838191991E+00 -0.56322765075E+01  0.14921382443E+02  0.15955572911E+02  0.51100000000E-03 0.  1.
        -12    1    3    3    0    0  0.18922688643E+02 -0.54717208151E+01  0.16941290163E+02  0.25981054377E+02  0.00000000000E+00 0.  1.
</event>
<event>
 7    1  0.5646756E-010  0.4778727E+02  0.7816164E-02  0.1312668E+00
        -11   -1    0    0    0    0  0.00000000000E+00  0.00000000000E+00  0.45593999997E+02  0.45594000000E+02  0.51100000000E-03 0.  1.
         11   -1    0    0    0    0 -0.00000000000E+00 -0.00000000000E+00 -0.45593999997E+02  0.45594000000E+02  0.51100000000E-03 0. -1.
    9900012    2    1    2    0    0 -0.79092498806E+01  0.58573660389E+01  0.42270064024E+02  0.47787270937E+02  0.19999999509E+02 0.  0.
         12    1    1    2    0    0  0.79092498806E+01 -0.58573660389E+01 -0.42270064024E+02  0.43400729063E+02  0.00000000000E+00 0. -1.
         11    1    3    3    0    0 -0.15186229801E+01  0.10060012682E+02  0.23280171137E+02  0.25406228358E+02  0.51100000000E-03 0. -1.
        -11    1    3    3    0    0 -0.40946012513E+01 -0.37457465350E+01  0.19242192670E+02  0.20026441409E+02  0.51100000000E-03 0.  1.
        -12    1    3    3    0    0 -0.22960256491E+01 -0.45690010859E+00 -0.25229978220E+00  0.23546011702E+01  0.00000000000E+00 0.  1.
</event>
<event>
 7    1  0.5646756E-010  0.4778727E+02  0.7816164E-02  0.1312668E+00
        -11   -1    0    0    0    0  0.00000000000E+00  0.00000000000E+00  0.45593999997E+02  0.45594000000E+02  0.51100000000E-03 0.  1.
         11   -1    0    0    0    0 -0.00000000000E+00 -0.00000000000E+00 -0.45593999997E+02  0.45594000000E+02  0.51100000000E-03 0. -1.
    9900012    2    1    2    0    0  0.28315596242E+02  0.20012135913E+02  0.26102967316E+02  0.47787268704E+02  0.19999989329E+02 0.  0.
         12    1    1    2    0    0 -0.28315596242E+02 -0.20012135913E+02 -0.26102967316E+02  0.43400731296E+02  0.00000000000E+00 0. -1.
         11    1    3    3    0    0  0.67642691897E+01  0.12178687001E+02  0.65608764273E+01  0.15398728990E+02  0.51100000000E-03 0. -1.
        -11    1    3    3    0    0  0.92449599211E+01 -0.17857500113E+01  0.11362050532E+02  0.14756502959E+02  0.51100000000E-03 0.  1.
        -12    1    3    3    0    0  0.12306367132E+02  0.96191989227E+01  0.81800403567E+01  0.17632036755E+02  0.00000000000E+00 0.  1.
</event>
<event>
 7    1  0.5646756E-010  0.4778727E+02  0.7816164E-02  0.1312668E+00
        -11   -1    0    0    0    0  0.00000000000E+00  0.00000000000E+00  0.45593999997E+02  0.45594000000E+02  0.51100000000E-03 0.  1.
         11   -1    0    0    0    0 -0.00000000000E+00 -0.00000000000E+00 -0.45593999997E+02  0.45594000000E+02  0.51100000000E-03 0. -1.
    9900012    2    1    2    0    0 -0.36793601768E+02 -0.65048783986E+01  0.22080322618E+02  0.47787271654E+02  0.20000002779E+02 0.  0.
         12    1    1    2    0    0  0.36793601768E+02  0.65048783986E+01 -0.22080322618E+02  0.43400728346E+02  0.00000000000E+00 0. -1.
         11    1    3    3    0    0 -0.79548345592E+00  0.26804911929E+00 -0.48079989965E-01  0.84080687767E+00  0.51100000000E-03 0. -1.
        -11    1    3    3    0    0 -0.88958001516E+01 -0.10595341949E+02  0.52921049952E+01  0.14812255294E+02  0.51100000000E-03 0.  1.
        -12    1    3    3    0    0 -0.27102318161E+02  0.38224144309E+01  0.16836297613E+02  0.32134209482E+02  0.00000000000E+00 0.  1.
</event>
<event>
 7    1  0.5646756E-010  0.4778726E+02  0.7816164E-02  0.1312668E+00
        -11   -1    0    0    0    0  0.00000000000E+00  0.00000000000E+00  0.45593999997E+02  0.45594000000E+02  0.51100000000E-03 0.  1.
         11   -1    0    0    0    0 -0.00000000000E+00 -0.00000000000E+00 -0.45593999997E+02  0.45594000000E+02  0.51100000000E-03 0. -1.
    9900012    2    1    2    0    0 -0.95797695527E+01 -0.37242739172E+01  0.42166129341E+02  0.47787255024E+02  0.19999926956E+02 0.  0.
         12    1    1    2    0    0  0.95797695527E+01  0.37242739172E+01 -0.42166129341E+02  0.43400744976E+02  0.00000000000E+00 0. -1.
         11    1    3    3    0    0 -0.25361709841E+01 -0.95091803644E+01  0.12045017388E+02  0.15554392261E+02  0.51100000000E-03 0. -1.
        -11    1    3    3    0    0 -0.75613012326E+01  0.27632016180E+01  0.25000312384E+02  0.26264504165E+02  0.51100000000E-03 0.  1.
        -12    1    3    3    0    0  0.51770266400E+00  0.30217048292E+01  0.51207995694E+01  0.59683585979E+01  0.00000000000E+00 0.  1.
</event>
<event>
 7    1  0.5646756E-010  0.4778727E+02  0.7816164E-02  0.1312668E+00
        -11   -1    0    0    0    0  0.00000000000E+00  0.00000000000E+00  0.45593999997E+02  0.45594000000E+02  0.51100000000E-03 0.  1.
         11   -1    0    0    0    0 -0.00000000000E+00 -0.00000000000E+00 -0.45593999997E+02  0.45594000000E+02  0.51100000000E-03 0. -1.
    9900012    2    1    2    0    0 -0.24514390888E+02 -0.12553113318E+02  0.33542320352E+02  0.47787271098E+02  0.20000000246E+02 0.  0.
         12    1    1    2    0    0  0.24514390888E+02  0.12553113318E+02 -0.33542320352E+02  0.43400728902E+02  0.00000000000E+00 0. -1.
         11    1    3    3    0    0 -0.18769528380E+02 -0.81808016225E+01  0.15871025279E+02  0.25905793839E+02  0.51100000000E-03 0. -1.
        -11    1    3    3    0    0 -0.87271354838E+01 -0.44272293506E+01  0.14789819983E+02  0.17734205053E+02  0.51100000000E-03 0.  1.
         12    1    3    3    0    0  0.29822729759E+01  0.54917655363E-01  0.28814750904E+01  0.41472722057E+01  0.00000000000E+00 0. -1.
</event>
<event>
 7    1  0.5646756E-010  0.4778727E+02  0.7816164E-02  0.1312668E+00
        -11   -1    0    0    0    0  0.00000000000E+00  0.00000000000E+00  0.45593999997E+02  0.45594000000E+02  0.51100000000E-03 0.  1.
         11   -1    0    0    0    0 -0.00000000000E+00 -0.00000000000E+00 -0.45593999997E+02  0.45594000000E+02  0.51100000000E-03 0. -1.
    9900012    2    1    2    0    0  0.18265798525E+02 -0.37652596969E+02  0.11500678304E+02  0.47787273558E+02  0.20000011460E+02 0.  0.
         12    1    1    2    0    0 -0.18265798525E+02  0.37652596969E+02 -0.11500678304E+02  0.43400726442E+02  0.00000000000E+00 0. -1.
         11    1    3    3    0    0  0.12598685404E+02 -0.17682216618E+02  0.83447569501E+01  0.23259893105E+02  0.51100000000E-03 0. -1.
        -11    1    3    3    0    0  0.44039773977E+01 -0.11347676090E+02 -0.44501144357E+01  0.12960258035E+02  0.51100000000E-03 0.  1.
        -12    1    3    3    0    0  0.12631357239E+01 -0.86227042600E+01  0.76060357892E+01  0.11567122418E+02  0.00000000000E+00 0.  1.
</event>
<event>
 7    1  0.5646756E-010  0.4778728E+02  0.7816164E-02  0.1312668E+00
        -11   -1    0    0    0    0  0.00000000000E+00  0.00000000000E+00  0.45593999997E+02  0.45594000000E+02  0.51100000000E-03 0.  1.
         11   -1    0    0    0    0 -0.00000000000E+00 -0.00000000000E+00 -0.45593999997E+02  0.45594000000E+02  0.51100000000E-03 0. -1.
    9900012    2    1    2    0    0 -0.21571535889E+02 -0.28943502301E+02  0.24094911079E+02  0.47787283117E+02  0.20000055044E+02 0.  0.
         12    1    1    2    0    0  0.21571535889E+02  0.28943502301E+02 -0.24094911079E+02  0.43400716883E+02  0.00000000000E+00 0. -1.
         11    1    3    3    0    0 -0.37630851503E+01 -0.60287038495E+01  0.14305090188E+01  0.72493059163E+01  0.51100000000E-03 0. -1.
        -11    1    3    3    0    0 -0.15047569569E+02 -0.25438556532E+02  0.21724586810E+02  0.36681155662E+02  0.51100000000E-03 0.  1.
        -12    1    3    3    0    0 -0.27608811696E+01  0.25237580803E+01  0.93981525029E+00  0.38568215392E+01  0.00000000000E+00 0.  1.
</event>
<event>
 7    1  0.6022537E-010  0.4778726E+02  0.7816164E-02  0.1312668E+00
        -11   -1    0    0    0    0  0.00000000000E+00  0.00000000000E+00  0.45593999997E+02  0.45594000000E+02  0.51100000000E-03 0.  1.
         11   -1    0    0    0    0 -0.00000000000E+00 -0.00000000000E+00 -0.45593999997E+02  0.45594000000E+02  0.51100000000E-03 0. -1.
    9900012    2    1    2    0    0 -0.38546139569E+02 -0.31460728472E+01  0.19695715840E+02  0.47787264148E+02  0.19999968557E+02 0.  0.
         12    1    1    2    0    0  0.38546139569E+02  0.31460728472E+01 -0.19695715840E+02  0.43400735852E+02  0.00000000000E+00 0. -1.
         11    1    3    3    0    0 -0.31153976631E+01 -0.44089277373E+01  0.59201643632E+00  0.54309142982E+01  0.51100000000E-03 0. -1.
        -11    1    3    3    0    0 -0.24084847299E+02  0.18673669298E+01  0.19411965606E+02  0.30990181309E+02  0.51100000000E-03 0.  1.
        -12    1    3    3    0    0 -0.11345894607E+02 -0.60451203968E+00 -0.30826620203E+00  0.11366168541E+02  0.00000000000E+00 0.  1.
</event>
<event>
 7    1  0.5646756E-010  0.4778728E+02  0.7816164E-02  0.1312668E+00
        -11   -1    0    0    0    0  0.00000000000E+00  0.00000000000E+00  0.45593999997E+02  0.45594000000E+02  0.51100000000E-03 0.  1.
         11   -1    0    0    0    0 -0.00000000000E+00 -0.00000000000E+00 -0.45593999997E+02  0.45594000000E+02  0.51100000000E-03 0. -1.
    9900012    2    1    2    0    0 -0.20499206993E+02  0.40048503726E+01  0.38044267646E+02  0.47787278640E+02  0.20000034630E+02 0.  0.
         12    1    1    2    0    0  0.20499206993E+02 -0.40048503726E+01 -0.38044267646E+02  0.43400721360E+02  0.00000000000E+00 0. -1.
         11    1    3    3    0    0  0.14748471545E+01 -0.37716887923E+01  0.68078226956E+01  0.79213168470E+01  0.51100000000E-03 0. -1.
        -11    1    3    3    0    0 -0.12944470169E+02  0.57588957393E+01  0.12185678063E+02  0.18687293496E+02  0.51100000000E-03 0.  1.
        -12    1    3    3    0    0 -0.90295839792E+01  0.20176434256E+01  0.19050766888E+02  0.21178668297E+02  0.00000000000E+00 0.  1.
</event>
<event>
 7    1  0.5646756E-010  0.4778729E+02  0.7816164E-02  0.1312668E+00
        -11   -1    0    0    0    0  0.00000000000E+00  0.00000000000E+00  0.45593999997E+02  0.45594000000E+02  0.51100000000E-03 0. -1.
         11   -1    0    0    0    0 -0.00000000000E+00 -0.00000000000E+00 -0.45593999997E+02  0.45594000000E+02  0.51100000000E-03 0.  1.
    9900012    2    1    2    0    0  0.35783556613E+02 -0.84172874940E+01  0.23071793379E+02  0.47787293757E+02  0.20000103557E+02 0.  0.
         12    1    1    2    0    0 -0.35783556613E+02  0.84172874940E+01 -0.23071793379E+02  0.43400706243E+02  0.00000000000E+00 0. -1.
         11    1    3    3    0    0  0.18079305085E+02 -0.11740444096E+02  0.15829220343E+02  0.26744410946E+02  0.51100000000E-03 0. -1.
        -11    1    3    3    0    0  0.13380255506E+02  0.36850504526E+01  0.87994375414E+01  0.16432922307E+02  0.51100000000E-03 0.  1.
        -12    1    3    3    0    0  0.43239960222E+01 -0.36189385080E+00 -0.15568645058E+01  0.46099605041E+01  0.00000000000E+00 0.  1.
</event>
<event>
 7    1  0.5646756E-010  0.4778727E+02  0.7816164E-02  0.1312668E+00
        -11   -1    0    0    0    0  0.00000000000E+00  0.00000000000E+00  0.45593999997E+02  0.45594000000E+02  0.51100000000E-03 0. -1.
         11   -1    0    0    0    0 -0.00000000000E+00 -0.00000000000E+00 -0.45593999997E+02  0.45594000000E+02  0.51100000000E-03 0.  1.
    9900012    2    1    2    0    0  0.78837104850E+01  0.42677822186E+02  0.27213358319E+00  0.47787268967E+02  0.19999990527E+02 0.  0.
         12    1    1    2    0    0 -0.78837104850E+01 -0.42677822186E+02 -0.27213358319E+00  0.43400731033E+02  0.00000000000E+00 0. -1.
         11    1    3    3    0    0  0.74866989710E+01  0.17177787679E+02  0.86318693650E+01  0.20630952960E+02  0.51100000000E-03 0. -1.
        -11    1    3    3    0    0  0.66775533086E+00  0.23674751663E+02 -0.65534061419E+01  0.24574110275E+02  0.51100000000E-03 0.  1.
        -12    1    3    3    0    0 -0.27074381682E+00  0.18252828436E+01 -0.18063296400E+01  0.25822057319E+01  0.00000000000E+00 0.  1.
</event>
<event>
 7    1  0.5646756E-010  0.4778727E+02  0.7816164E-02  0.1312668E+00
        -11   -1    0    0    0    0  0.00000000000E+00  0.00000000000E+00  0.45593999997E+02  0.45594000000E+02  0.51100000000E-03 0. -1.
         11   -1    0    0    0    0 -0.00000000000E+00 -0.00000000000E+00 -0.45593999997E+02  0.45594000000E+02  0.51100000000E-03 0.  1.
    9900012    2    1    2    0    0  0.74542085599E+00 -0.58028786735E+01 -0.43004584346E+02  0.47787270422E+02  0.19999997160E+02 0.  0.
         12    1    1    2    0    0 -0.74542085599E+00  0.58028786735E+01  0.43004584346E+02  0.43400729578E+02  0.00000000000E+00 0. -1.
         11    1    3    3    0    0 -0.63533573088E+01  0.17000503661E+01 -0.21806023867E+02  0.22776259515E+02  0.51100000000E-03 0.  1.
        -11    1    3    3    0    0  0.79437405504E+01 -0.41569383812E+01 -0.10699471491E+02  0.13959292285E+02  0.51100000000E-03 0. -1.
         12    1    3    3    0    0 -0.84496238554E+00 -0.33459906583E+01 -0.10499088988E+02  0.11051718622E+02  0.00000000000E+00 0. -1.
</event>
<event>
 7    1  0.5646756E-010  0.4778727E+02  0.7816164E-02  0.1312668E+00
        -11   -1    0    0    0    0  0.00000000000E+00  0.00000000000E+00  0.45593999997E+02  0.45594000000E+02  0.51100000000E-03 0.  1.
         11   -1    0    0    0    0 -0.00000000000E+00 -0.00000000000E+00 -0.45593999997E+02  0.45594000000E+02  0.51100000000E-03 0. -1.
    9900012    2    1    2    0    0  0.42239749038E+02 -0.29812751550E+01  0.95151970366E+01  0.47787269879E+02  0.19999994687E+02 0.  0.
         12    1    1    2    0    0 -0.42239749038E+02  0.29812751550E+01 -0.95151970366E+01  0.43400730121E+02  0.00000000000E+00 0. -1.
         11    1    3    3    0    0  0.45417597151E+01  0.34441579575E+01 -0.21450250700E+01  0.60902330134E+01  0.51100000000E-03 0. -1.
        -11    1    3    3    0    0  0.98959306461E+01 -0.44928896677E+01  0.81986883957E+01  0.13613742784E+02  0.51100000000E-03 0.  1.
        -12    1    3    3    0    0  0.27802058677E+02 -0.19325434448E+01  0.34615337109E+01  0.28083294082E+02  0.00000000000E+00 0.  1.
</event>
<event>
 7    1  0.5646756E-010  0.4778727E+02  0.7816164E-02  0.1312668E+00
        -11   -1    0    0    0    0  0.00000000000E+00  0.00000000000E+00  0.45593999997E+02  0.45594000000E+02  0.51100000000E-03 0.  1.
         11   -1    0    0    0    0 -0.00000000000E+00 -0.00000000000E+00 -0.45593999997E+02  0.45594000000E+02  0.51100000000E-03 0. -1.
    9900012    2    1    2    0    0  0.41858399150E+02  0.61296640531E+01  0.96914889593E+01  0.47787270524E+02  0.19999997625E+02 0.  0.
         12    1    1    2    0    0 -0.41858399150E+02 -0.61296640531E+01 -0.96914889593E+01  0.43400729476E+02  0.00000000000E+00 0. -1.
         11    1    3    3    0    0  0.48576312797E+01  0.75498532150E+00 -0.50868212066E+01  0.70740606963E+01  0.51100000000E-03 0. -1.
        -11    1    3    3    0    0  0.12190757966E+02  0.15890300373E+01  0.81685353986E+01  0.14760236010E+02  0.51100000000E-03 0.  1.
         12    1    3    3    0    0  0.24810009904E+02  0.37856486943E+01  0.66097747673E+01  0.25952973817E+02  0.00000000000E+00 0. -1.
</event>
<event>
 7    1  0.5646756E-010  0.4778728E+02  0.7816164E-02  0.1312668E+00
        -11   -1    0    0    0    0  0.00000000000E+00  0.00000000000E+00  0.45593999997E+02  0.45594000000E+02  0.51100000000E-03 0.  1.
         11   -1    0    0    0    0 -0.00000000000E+00 -0.00000000000E+00 -0.45593999997E+02  0.45594000000E+02  0.51100000000E-03 0. -1.
    9900012    2    1    2    0    0 -0.22259578832E+02 -0.38295936268E+01  0.37060330832E+02  0.47787276982E+02  0.20000027070E+02 0.  0.
         12    1    1    2    0    0  0.22259578832E+02  0.38295936268E+01 -0.37060330832E+02  0.43400723018E+02  0.00000000000E+00 0. -1.
         11    1    3    3    0    0  0.97710876038E+00 -0.22278540289E+00 -0.14426543570E+01  0.17565952067E+01  0.51100000000E-03 0. -1.
        -11    1    3    3    0    0 -0.11890746590E+02  0.12791855825E+01  0.25097674757E+02  0.27801428897E+02  0.51100000000E-03 0.  1.
        -12    1    3    3    0    0 -0.11345941003E+02 -0.48859938064E+01  0.13405310432E+02  0.18229252878E+02  0.00000000000E+00 0.  1.
</event>
<event>
 7    1  0.5646756E-010  0.4778730E+02  0.7816164E-02  0.1312668E+00
        -11   -1    0    0    0    0  0.00000000000E+00  0.00000000000E+00  0.45593999997E+02  0.45594000000E+02  0.51100000000E-03 0.  1.
         11   -1    0    0    0    0 -0.00000000000E+00 -0.00000000000E+00 -0.45593999997E+02  0.45594000000E+02  0.51100000000E-03 0. -1.
    9900012    2    1    2    0    0 -0.10980781910E+02 -0.34728074245E+02  0.23600931613E+02  0.47787300869E+02  0.20000135980E+02 0.  0.
         12    1    1    2    0    0  0.10980781910E+02  0.34728074245E+02 -0.23600931613E+02  0.43400699131E+02  0.00000000000E+00 0. -1.
         11    1    3    3    0    0 -0.27812797450E+00 -0.51275369170E+01  0.12335131640E+02  0.13361304684E+02  0.51100000000E-03 0. -1.
        -11    1    3    3    0    0 -0.11372305828E+02 -0.29573972463E+02  0.10436393670E+02  0.33359668766E+02  0.51100000000E-03 0.  1.
        -12    1    3    3    0    0  0.66965189287E+00 -0.26564864764E-01  0.82940630180E+00  0.10663274184E+01  0.00000000000E+00 0.  1.
</event>
<event>
 7    1  0.5646756E-010  0.4778727E+02  0.7816164E-02  0.1312668E+00
        -11   -1    0    0    0    0  0.00000000000E+00  0.00000000000E+00  0.45593999997E+02  0.45594000000E+02  0.51100000000E-03 0. -1.
         11   -1    0    0    0    0 -0.00000000000E+00 -0.00000000000E+00 -0.45593999997E+02  0.45594000000E+02  0.51100000000E-03 0.  1.
    9900012    2    1    2    0    0 -0.94444689480E+01  0.40940257436E+02 -0.10877535436E+02  0.47787269018E+02  0.19999990759E+02 0.  0.
         12    1    1    2    0    0  0.94444689480E+01 -0.40940257436E+02  0.10877535436E+02  0.43400730982E+02  0.00000000000E+00 0. -1.
         11    1    3    3    0    0 -0.63556807055E+01  0.27967093028E+02 -0.25165608130E+01  0.28790381176E+02  0.51100000000E-03 0. -1.
        -11    1    3    3    0    0 -0.30381113661E+01  0.13086152271E+02 -0.10378116935E+02  0.16975948083E+02  0.51100000000E-03 0.  1.
         12    1    3    3    0    0 -0.50676876419E-01 -0.11298786214E+00  0.20171423122E+01  0.20209397593E+01  0.00000000000E+00 0. -1.
</event>
<event>
 7    1  0.5646756E-010  0.4778727E+02  0.7816164E-02  0.1312668E+00
        -11   -1    0    0    0    0  0.00000000000E+00  0.00000000000E+00  0.45593999997E+02  0.45594000000E+02  0.51100000000E-03 0.  1.
         11   -1    0    0    0    0 -0.00000000000E+00 -0.00000000000E+00 -0.45593999997E+02  0.45594000000E+02  0.51100000000E-03 0. -1.
    9900012    2    1    2    0    0  0.54950172406E+01 -0.43032359404E+02 -0.12822524242E+01  0.47787270263E+02  0.19999996439E+02 0.  0.
         12    1    1    2    0    0 -0.54950172406E+01  0.43032359404E+02  0.12822524242E+01  0.43400729737E+02  0.00000000000E+00 0. -1.
         11    1    3    3    0    0  0.42211270308E+01 -0.12495631057E+02 -0.41196480357E+01  0.13817749785E+02  0.51100000000E-03 0. -1.
        -11    1    3    3    0    0 -0.50565629558E+01 -0.24785694205E+02  0.19657412130E+01  0.25372497018E+02  0.51100000000E-03 0.  1.
        -12    1    3    3    0    0  0.63304531656E+01 -0.57510341423E+01  0.87165439853E+00  0.85970234603E+01  0.00000000000E+00 0.  1.
</event>
<event>
 7    1  0.5646756E-010  0.4778727E+02  0.7816164E-02  0.1312668E+00
        -11   -1    0    0    0    0  0.00000000000E+00  0.00000000000E+00  0.45593999997E+02  0.45594000000E+02  0.51100000000E-03 0. -1.
         11   -1    0    0    0    0 -0.00000000000E+00 -0.00000000000E+00 -0.45593999997E+02  0.45594000000E+02  0.51100000000E-03 0.  1.
    9900012    2    1    2    0    0  0.26215379959E+02  0.30849329432E+02 -0.15642758752E+02  0.47787272193E+02  0.20000005238E+02 0.  0.
         12    1    1    2    0    0 -0.26215379959E+02 -0.30849329432E+02  0.15642758752E+02  0.43400727807E+02  0.00000000000E+00 0. -1.
         11    1    3    3    0    0  0.10659249743E+01  0.52380778014E+01 -0.48847318572E+01  0.72411505082E+01  0.51100000000E-03 0. -1.
        -11    1    3    3    0    0  0.21675812616E+02  0.17784838201E+02 -0.14063570066E+02  0.31367583995E+02  0.51100000000E-03 0.  1.
        -12    1    3    3    0    0  0.34736423686E+01  0.78264134288E+01  0.33055431716E+01  0.91785376897E+01  0.00000000000E+00 0.  1.
</event>
<event>
 7    1  0.5646756E-010  0.4778727E+02  0.7816164E-02  0.1312668E+00
        -11   -1    0    0    0    0  0.00000000000E+00  0.00000000000E+00  0.45593999997E+02  0.45594000000E+02  0.51100000000E-03 0.  1.
         11   -1    0    0    0    0 -0.00000000000E+00 -0.00000000000E+00 -0.45593999997E+02  0.45594000000E+02  0.51100000000E-03 0. -1.
    9900012    2    1    2    0    0 -0.39815520152E+02 -0.13273753111E+02  0.11052370338E+02  0.47787273546E+02  0.20000011405E+02 0.  0.
         12    1    1    2    0    0  0.39815520152E+02  0.13273753111E+02 -0.11052370338E+02  0.43400726454E+02  0.00000000000E+00 0. -1.
         11    1    3    3    0    0 -0.89042609508E+01  0.54816987449E+00 -0.84726172435E+00  0.89612614058E+01  0.51100000000E-03 0. -1.
        -11    1    3    3    0    0 -0.17969900178E+02 -0.64136459863E+01 -0.10037201075E+01  0.19106533478E+02  0.51100000000E-03 0.  1.
        -12    1    3    3    0    0 -0.12941359024E+02 -0.74082769987E+01  0.12903352170E+02  0.19719478662E+02  0.00000000000E+00 0.  1.
</event>
<event>
 7    1  0.5646756E-010  0.4778730E+02  0.7816164E-02  0.1312668E+00
        -11   -1    0    0    0    0  0.00000000000E+00  0.00000000000E+00  0.45593999997E+02  0.45594000000E+02  0.51100000000E-03 0. -1.
         11   -1    0    0    0    0 -0.00000000000E+00 -0.00000000000E+00 -0.45593999997E+02  0.45594000000E+02  0.51100000000E-03 0.  1.
    9900012    2    1    2    0    0  0.11562732121E+02 -0.21225617648E+02 -0.36047148921E+02  0.47787302264E+02  0.20000142340E+02 0.  0.
         12    1    1    2    0    0 -0.11562732121E+02  0.21225617648E+02  0.36047148921E+02  0.43400697736E+02  0.00000000000E+00 0. -1.
         11    1    3    3    0    0  0.19017635373E+01  0.11218546873E+01 -0.81413674503E+00  0.23533128547E+01  0.51100000000E-03 0. -1.
        -11    1    3    3    0    0  0.31990625263E+01 -0.14206340497E+02 -0.87606093998E+01  0.16994186909E+02  0.51100000000E-03 0.  1.
        -12    1    3    3    0    0  0.64619060578E+01 -0.81411318385E+01 -0.26472402776E+02  0.28439802500E+02  0.00000000000E+00 0.  1.
</event>
<event>
 7    1  0.5646756E-010  0.4778727E+02  0.7816164E-02  0.1312668E+00
        -11   -1    0    0    0    0  0.00000000000E+00  0.00000000000E+00  0.45593999997E+02  0.45594000000E+02  0.51100000000E-03 0.  1.
         11   -1    0    0    0    0 -0.00000000000E+00 -0.00000000000E+00 -0.45593999997E+02  0.45594000000E+02  0.51100000000E-03 0. -1.
    9900012    2    1    2    0    0 -0.12193025480E+02 -0.27467054635E+02  0.31313162914E+02  0.47787272675E+02  0.20000007434E+02 0.  0.
         12    1    1    2    0    0  0.12193025480E+02  0.27467054635E+02 -0.31313162914E+02  0.43400727325E+02  0.00000000000E+00 0. -1.
         11    1    3    3    0    0 -0.37332089879E+01 -0.20454267661E+02  0.28698424212E+02  0.35438869443E+02  0.51100000000E-03 0. -1.
        -11    1    3    3    0    0 -0.63776874855E+01 -0.56975240144E+01  0.40877624564E+01  0.94787382979E+01  0.51100000000E-03 0.  1.
         12    1    3    3    0    0 -0.20821290062E+01 -0.13152629594E+01 -0.14730237544E+01  0.28696649337E+01  0.00000000000E+00 0. -1.
</event>
<event>
 7    1  0.5646756E-010  0.4778727E+02  0.7816164E-02  0.1312668E+00
        -11   -1    0    0    0    0  0.00000000000E+00  0.00000000000E+00  0.45593999997E+02  0.45594000000E+02  0.51100000000E-03 0. -1.
         11   -1    0    0    0    0 -0.00000000000E+00 -0.00000000000E+00 -0.45593999997E+02  0.45594000000E+02  0.51100000000E-03 0.  1.
    9900012    2    1    2    0    0 -0.16559186304E+02 -0.38646905443E+02  0.10762597102E+02  0.47787269041E+02  0.19999990866E+02 0.  0.
         12    1    1    2    0    0  0.16559186304E+02  0.38646905443E+02 -0.10762597102E+02  0.43400730959E+02  0.00000000000E+00 0. -1.
         11    1    3    3    0    0  0.14751578616E+01 -0.66516095378E+00  0.48216448851E+01  0.50859403723E+01  0.51100000000E-03 0. -1.
        -11    1    3    3    0    0 -0.13360876285E+02 -0.29174002245E+02  0.26316886623E+01  0.32195670634E+02  0.51100000000E-03 0.  1.
         12    1    3    3    0    0 -0.46734678806E+01 -0.88077422446E+01  0.33092635545E+01  0.10505658035E+02  0.00000000000E+00 0. -1.
</event>
<event>
 7    1  0.5646756E-010  0.4778728E+02  0.7816164E-02  0.1312668E+00
        -11   -1    0    0    0    0  0.00000000000E+00  0.00000000000E+00  0.45593999997E+02  0.45594000000E+02  0.51100000000E-03 0.  1.
         11   -1    0    0    0    0 -0.00000000000E+00 -0.00000000000E+00 -0.45593999997E+02  0.45594000000E+02  0.51100000000E-03 0. -1.
    9900012    2    1    2    0    0  0.33817724586E+02 -0.98440701742E+01  0.25358993697E+02  0.47787276791E+02  0.20000026200E+02 0.  0.
         12    1    1    2    0    0 -0.33817724586E+02  0.98440701742E+01 -0.25358993697E+02  0.43400723209E+02  0.00000000000E+00 0. -1.
         11    1    3    3    0    0  0.27039762618E+02 -0.13376020970E+02  0.15217207973E+02  0.33788017375E+02  0.51100000000E-03 0. -1.
        -11    1    3    3    0    0  0.59882925280E+01  0.23217754636E-01  0.71063009456E+01  0.92929919755E+01  0.51100000000E-03 0.  1.
         12    1    3    3    0    0  0.78966943990E+00  0.35087330407E+01  0.30354847785E+01  0.47062674399E+01  0.00000000000E+00 0. -1.
</event>
<event>
 7    1  0.5646756E-010  0.4778727E+02  0.7816164E-02  0.1312668E+00
        -11   -1    0    0    0    0  0.00000000000E+00  0.00000000000E+00  0.45593999997E+02  0.45594000000E+02  0.51100000000E-03 0.  1.
         11   -1    0    0    0    0 -0.00000000000E+00 -0.00000000000E+00 -0.45593999997E+02  0.45594000000E+02  0.51100000000E-03 0. -1.
    9900012    2    1    2    0    0 -0.33018127282E+02 -0.55213313762E+01  0.27621395843E+02  0.47787270310E+02  0.19999996650E+02 0.  0.
         12    1    1    2    0    0  0.33018127282E+02  0.55213313762E+01 -0.27621395843E+02  0.43400729690E+02  0.00000000000E+00 0. -1.
         11    1    3    3    0    0 -0.15393430890E+02 -0.33809040305E+01  0.18112117506E+02  0.24009103012E+02  0.51100000000E-03 0.  1.
        -11    1    3    3    0    0 -0.11207768755E+02 -0.17442066802E+01 -0.10758063108E+01  0.11393581390E+02  0.51100000000E-03 0. -1.
         12    1    3    3    0    0 -0.64169276365E+01 -0.39622066557E+00  0.10585084647E+02  0.12384585907E+02  0.00000000000E+00 0. -1.
</event>
<event>
 7    1  0.5646756E-010  0.4778727E+02  0.7816164E-02  0.1312668E+00
        -11   -1    0    0    0    0  0.00000000000E+00  0.00000000000E+00  0.45593999997E+02  0.45594000000E+02  0.51100000000E-03 0. -1.
         11   -1    0    0    0    0 -0.00000000000E+00 -0.00000000000E+00 -0.45593999997E+02  0.45594000000E+02  0.51100000000E-03 0.  1.
    9900012    2    1    2    0    0  0.23680474778E+02  0.36162471632E+02  0.38902662593E+01  0.47787269455E+02  0.19999992754E+02 0.  0.
         12    1    1    2    0    0 -0.23680474778E+02 -0.36162471632E+02 -0.38902662593E+01  0.43400730545E+02  0.00000000000E+00 0. -1.
         11    1    3    3    0    0  0.92392962916E+01  0.14980711813E+02  0.83605556267E+01  0.19485512902E+02  0.51100000000E-03 0. -1.
        -11    1    3    3    0    0  0.79953765142E+01  0.17494004904E+02 -0.69817200826E+01  0.20462420892E+02  0.51100000000E-03 0.  1.
        -12    1    3    3    0    0  0.64458019723E+01  0.36877549149E+01  0.25114307152E+01  0.78393356616E+01  0.00000000000E+00 0.  1.
</event>
<event>
 7    1  0.5646756E-010  0.4778727E+02  0.7816164E-02  0.1312668E+00
        -11   -1    0    0    0    0  0.00000000000E+00  0.00000000000E+00  0.45593999997E+02  0.45594000000E+02  0.51100000000E-03 0.  1.
         11   -1    0    0    0    0 -0.00000000000E+00 -0.00000000000E+00 -0.45593999997E+02  0.45594000000E+02  0.51100000000E-03 0. -1.
    9900012    2    1    2    0    0 -0.24841714811E+02  0.17683928931E+02  0.30883513746E+02  0.47787267766E+02  0.19999985050E+02 0.  0.
         12    1    1    2    0    0  0.24841714811E+02 -0.17683928931E+02 -0.30883513746E+02  0.43400732234E+02  0.00000000000E+00 0. -1.
         11    1    3    3    0    0 -0.18283866619E+01  0.10780488622E+02  0.11806974737E+02  0.16092438765E+02  0.51100000000E-03 0. -1.
        -11    1    3    3    0    0 -0.95204189424E+01 -0.10980260697E+01  0.63723230933E+01  0.11508715826E+02  0.51100000000E-03 0.  1.
        -12    1    3    3    0    0 -0.13492909207E+02  0.80014663791E+01  0.12704215915E+02  0.20186113175E+02  0.00000000000E+00 0.  1.
</event>
<event>
 7    1  0.5646756E-010  0.4778723E+02  0.7816164E-02  0.1312668E+00
        -11   -1    0    0    0    0  0.00000000000E+00  0.00000000000E+00  0.45593999997E+02  0.45594000000E+02  0.51100000000E-03 0.  1.
         11   -1    0    0    0    0 -0.00000000000E+00 -0.00000000000E+00 -0.45593999997E+02  0.45594000000E+02  0.51100000000E-03 0. -1.
    9900012    2    1    2    0    0 -0.15761011989E+02 -0.35953466565E+02  0.18508516085E+02  0.47787234747E+02  0.19999834503E+02 0.  0.
         12    1    1    2    0    0  0.15761011989E+02  0.35953466565E+02 -0.18508516085E+02  0.43400765253E+02  0.00000000000E+00 0. -1.
         11    1    3    3    0    0 -0.71674154308E+01 -0.43495539896E+01  0.11565521543E+02  0.14284668449E+02  0.51100000000E-03 0. -1.
        -11    1    3    3    0    0 -0.55201016082E+01 -0.20882522803E+02  0.39927156034E+01  0.21965724630E+02  0.51100000000E-03 0.  1.
         12    1    3    3    0    0 -0.30734949495E+01 -0.10721389772E+02  0.29502789386E+01  0.11536841668E+02  0.00000000000E+00 0. -1.
</event>
<event>
 7    1  0.5646756E-010  0.4778727E+02  0.7816164E-02  0.1312668E+00
        -11   -1    0    0    0    0  0.00000000000E+00  0.00000000000E+00  0.45593999997E+02  0.45594000000E+02  0.51100000000E-03 0. -1.
         11   -1    0    0    0    0 -0.00000000000E+00 -0.00000000000E+00 -0.45593999997E+02  0.45594000000E+02  0.51100000000E-03 0.  1.
    9900012    2    1    2    0    0 -0.21397892454E+02 -0.37535069829E+02 -0.41075941266E+01  0.47787267310E+02  0.19999982972E+02 0.  0.
         12    1    1    2    0    0  0.21397892454E+02  0.37535069829E+02  0.41075941266E+01  0.43400732690E+02  0.00000000000E+00 0. -1.
         11    1    3    3    0    0 -0.55278676352E+01 -0.97892857079E+00 -0.33222462363E+01  0.65232616117E+01  0.51100000000E-03 0. -1.
        -11    1    3    3    0    0 -0.62578430740E+01 -0.42886570805E+01 -0.27625029201E+00  0.75914092222E+01  0.51100000000E-03 0.  1.
         12    1    3    3    0    0 -0.96121817443E+01 -0.32267484178E+02 -0.50909759824E+00  0.33672596476E+02  0.00000000000E+00 0. -1.
</event>
<event>
 7    1  0.5646756E-010  0.4778727E+02  0.7816164E-02  0.1312668E+00
        -11   -1    0    0    0    0  0.00000000000E+00  0.00000000000E+00  0.45593999997E+02  0.45594000000E+02  0.51100000000E-03 0. -1.
         11   -1    0    0    0    0 -0.00000000000E+00 -0.00000000000E+00 -0.45593999997E+02  0.45594000000E+02  0.51100000000E-03 0.  1.
    9900012    2    1    2    0    0  0.18236651559E+02  0.17464710168E+02 -0.35299175056E+02  0.47787270502E+02  0.19999997525E+02 0.  0.
         12    1    1    2    0    0 -0.18236651559E+02 -0.17464710168E+02  0.35299175056E+02  0.43400729498E+02  0.00000000000E+00 0. -1.
         11    1    3    3    0    0  0.28376207622E+01  0.82953799276E+01 -0.13092150614E+02  0.15756580457E+02  0.51100000000E-03 0. -1.
        -11    1    3    3    0    0  0.15493332595E+02  0.20326838575E+01 -0.17599257169E+02  0.23535271651E+02  0.51100000000E-03 0.  1.
        -12    1    3    3    0    0 -0.94301797995E-01  0.71366463833E+01 -0.46077672733E+01  0.84954183931E+01  0.00000000000E+00 0.  1.
</event>
<event>
 7    1  0.5646756E-010  0.4778727E+02  0.7816164E-02  0.1312668E+00
        -11   -1    0    0    0    0  0.00000000000E+00  0.00000000000E+00  0.45593999997E+02  0.45594000000E+02  0.51100000000E-03 0. -1.
         11   -1    0    0    0    0 -0.00000000000E+00 -0.00000000000E+00 -0.45593999997E+02  0.45594000000E+02  0.51100000000E-03 0.  1.
    9900012    2    1    2    0    0 -0.16717181243E+02 -0.39609633621E+02  0.59360064878E+01  0.47787269623E+02  0.19999993517E+02 0.  0.
         12    1    1    2    0    0  0.16717181243E+02  0.39609633621E+02 -0.59360064878E+01  0.43400730377E+02  0.00000000000E+00 0. -1.
         11    1    3    3    0    0 -0.44706338822E+00 -0.61845291887E+01 -0.22940727355E+01  0.66114322908E+01  0.51100000000E-03 0. -1.
        -11    1    3    3    0    0 -0.12959667982E+02 -0.33587336481E+02  0.46547172676E+01  0.36300531115E+02  0.51100000000E-03 0.  1.
        -12    1    3    3    0    0 -0.33104498724E+01  0.16223204908E+00  0.35753619557E+01  0.48753062170E+01  0.00000000000E+00 0.  1.
</event>
<event>
 7    1  0.5646756E-010  0.4778726E+02  0.7816164E-02  0.1312668E+00
        -11   -1    0    0    0    0  0.00000000000E+00  0.00000000000E+00  0.45593999997E+02  0.45594000000E+02  0.51100000000E-03 0.  1.
         11   -1    0    0    0    0 -0.00000000000E+00 -0.00000000000E+00 -0.45593999997E+02  0.45594000000E+02  0.51100000000E-03 0. -1.
    9900012    2    1    2    0    0  0.16846078250E+02  0.14429638039E+02  0.37304413811E+02  0.47787261572E+02  0.19999956810E+02 0.  0.
         12    1    1    2    0    0 -0.16846078250E+02 -0.14429638039E+02 -0.37304413811E+02  0.43400738428E+02  0.00000000000E+00 0. -1.
         11    1    3    3    0    0  0.61230076084E+00  0.56662383512E+01  0.18114698916E+01  0.59801833336E+01  0.51100000000E-03 0. -1.
        -11    1    3    3    0    0  0.17197425972E+02  0.10415454233E+02  0.33284188134E+02  0.38885348487E+02  0.51100000000E-03 0.  1.
        -12    1    3    3    0    0 -0.96364848251E+00 -0.16520545458E+01  0.22087557854E+01  0.29217297513E+01  0.00000000000E+00 0.  1.
</event>
<event>
 7    1  0.5646756E-010  0.4778729E+02  0.7816164E-02  0.1312668E+00
        -11   -1    0    0    0    0  0.00000000000E+00  0.00000000000E+00  0.45593999997E+02  0.45594000000E+02  0.51100000000E-03 0.  1.
         11   -1    0    0    0    0 -0.00000000000E+00 -0.00000000000E+00 -0.45593999997E+02  0.45594000000E+02  0.51100000000E-03 0. -1.
    9900012    2    1    2    0    0 -0.38421435384E+02  0.46364188754E+01  0.19644820662E+02  0.47787285078E+02  0.20000063984E+02 0.  0.
         12    1    1    2    0    0  0.38421435384E+02 -0.46364188754E+01 -0.19644820662E+02  0.43400714922E+02  0.00000000000E+00 0. -1.
         11    1    3    3    0    0  0.17182028571E+01 -0.42788063770E+00 -0.60845789467E+00  0.18723045075E+01  0.51100000000E-03 0. -1.
        -11    1    3    3    0    0 -0.29303811551E+02  0.61009256808E+01  0.11971816060E+02  0.32237540936E+02  0.51100000000E-03 0.  1.
         12    1    3    3    0    0 -0.10835826690E+02 -0.10366261677E+01  0.82814624968E+01  0.13677439634E+02  0.00000000000E+00 0. -1.
</event>
<event>
 7    1  0.5646756E-010  0.4778727E+02  0.7816164E-02  0.1312668E+00
        -11   -1    0    0    0    0  0.00000000000E+00  0.00000000000E+00  0.45593999997E+02  0.45594000000E+02  0.51100000000E-03 0. -1.
         11   -1    0    0    0    0 -0.00000000000E+00 -0.00000000000E+00 -0.45593999997E+02  0.45594000000E+02  0.51100000000E-03 0.  1.
    9900012    2    1    2    0    0  0.23122798524E+02 -0.29539933766E+02 -0.21825481921E+02  0.47787272361E+02  0.20000006004E+02 0.  0.
         12    1    1    2    0    0 -0.23122798524E+02  0.29539933766E+02  0.21825481921E+02  0.43400727639E+02  0.00000000000E+00 0. -1.
         11    1    3    3    0    0  0.31342694305E+01 -0.60751683173E+01 -0.10782214949E+02  0.12766654786E+02  0.51100000000E-03 0. -1.
        -11    1    3    3    0    0  0.20785134584E+02 -0.22957757731E+02 -0.82167262411E+01  0.32040522001E+02  0.51100000000E-03 0.  1.
         12    1    3    3    0    0 -0.79660548996E+00 -0.50700771776E+00 -0.28265407308E+01  0.29800955749E+01  0.00000000000E+00 0. -1.
</event>
<event>
 7    1  0.5646756E-010  0.4778726E+02  0.7816164E-02  0.1312668E+00
        -11   -1    0    0    0    0  0.00000000000E+00  0.00000000000E+00  0.45593999997E+02  0.45594000000E+02  0.51100000000E-03 0.  1.
         11   -1    0    0    0    0 -0.00000000000E+00 -0.00000000000E+00 -0.45593999997E+02  0.45594000000E+02  0.51100000000E-03 0. -1.
    9900012    2    1    2    0    0 -0.33197132015E+02  0.89998085237E+01  0.26468427981E+02  0.47787264899E+02  0.19999971981E+02 0.  0.
         12    1    1    2    0    0  0.33197132015E+02 -0.89998085237E+01 -0.26468427981E+02  0.43400735101E+02  0.00000000000E+00 0. -1.
         11    1    3    3    0    0 -0.28925846048E+02  0.44082990955E+01  0.22457269075E+02  0.36884503590E+02  0.51100000000E-03 0.  1.
        -11    1    3    3    0    0  0.52769678329E+00 -0.44955936149E+00  0.38800110874E+01  0.39414532616E+01  0.51100000000E-03 0. -1.
         12    1    3    3    0    0 -0.47989827500E+01  0.50410687897E+01  0.13114781875E+00  0.69613080472E+01  0.00000000000E+00 0. -1.
</event>
<event>
 7    1  0.5646756E-010  0.4778727E+02  0.7816164E-02  0.1312668E+00
        -11   -1    0    0    0    0  0.00000000000E+00  0.00000000000E+00  0.45593999997E+02  0.45594000000E+02  0.51100000000E-03 0.  1.
         11   -1    0    0    0    0 -0.00000000000E+00 -0.00000000000E+00 -0.45593999997E+02  0.45594000000E+02  0.51100000000E-03 0. -1.
    9900012    2    1    2    0    0  0.16266756829E+02  0.24738002691E+02  0.31734004876E+02  0.47787271661E+02  0.20000002813E+02 0.  0.
         12    1    1    2    0    0 -0.16266756829E+02 -0.24738002691E+02 -0.31734004876E+02  0.43400728339E+02  0.00000000000E+00 0. -1.
         11    1    3    3    0    0 -0.12754480050E+01 -0.17231978303E+01  0.61609556574E+01  0.65233084589E+01  0.51100000000E-03 0. -1.
        -11    1    3    3    0    0  0.13591913249E+02  0.14919219553E+02  0.16193681319E+02  0.25875829122E+02  0.51100000000E-03 0.  1.
         12    1    3    3    0    0  0.39502915851E+01  0.11541980968E+02  0.93793678993E+01  0.15388134080E+02  0.00000000000E+00 0. -1.
</event>
<event>
 7    1  0.5646756E-010  0.4778727E+02  0.7816164E-02  0.1312668E+00
        -11   -1    0    0    0    0  0.00000000000E+00  0.00000000000E+00  0.45593999997E+02  0.45594000000E+02  0.51100000000E-03 0. -1.
         11   -1    0    0    0    0 -0.00000000000E+00 -0.00000000000E+00 -0.45593999997E+02  0.45594000000E+02  0.51100000000E-03 0.  1.
    9900012    2    1    2    0    0  0.15492087003E+02 -0.38994314956E+02 -0.11093330244E+02  0.47787270346E+02  0.19999996815E+02 0.  0.
         12    1    1    2    0    0 -0.15492087003E+02  0.38994314956E+02  0.11093330244E+02  0.43400729654E+02  0.00000000000E+00 0. -1.
         11    1    3    3    0    0  0.23380699439E+01 -0.25535915282E+02 -0.10665581547E+02  0.27772363428E+02  0.51100000000E-03 0. -1.
        -11    1    3    3    0    0  0.82550573698E+01 -0.10155808729E+02  0.26498185714E+01  0.13353200434E+02  0.51100000000E-03 0.  1.
        -12    1    3    3    0    0  0.48989596892E+01 -0.33025909455E+01 -0.30775672682E+01  0.66617064841E+01  0.00000000000E+00 0.  1.
</event>
<event>
 7    1  0.5646756E-010  0.4778727E+02  0.7816164E-02  0.1312668E+00
        -11   -1    0    0    0    0  0.00000000000E+00  0.00000000000E+00  0.45593999997E+02  0.45594000000E+02  0.51100000000E-03 0. -1.
         11   -1    0    0    0    0 -0.00000000000E+00 -0.00000000000E+00 -0.45593999997E+02  0.45594000000E+02  0.51100000000E-03 0.  1.
    9900012    2    1    2    0    0  0.15294001556E+02 -0.39741822578E+02  0.83847514083E+01  0.47787274181E+02  0.20000014302E+02 0.  0.
         12    1    1    2    0    0 -0.15294001556E+02  0.39741822578E+02 -0.83847514083E+01  0.43400725819E+02  0.00000000000E+00 0. -1.
         11    1    3    3    0    0  0.11365640831E+02 -0.13211626231E+02  0.88089346942E+01  0.19527472696E+02  0.51100000000E-03 0. -1.
        -11    1    3    3    0    0  0.46531497041E+01 -0.67722825773E+01 -0.18999784222E+01  0.84335954219E+01  0.51100000000E-03 0.  1.
         12    1    3    3    0    0 -0.72478897941E+00 -0.19757913770E+02  0.14757951363E+01  0.19826206064E+02  0.00000000000E+00 0. -1.
</event>
<event>
 7    1  0.5646756E-010  0.4778727E+02  0.7816164E-02  0.1312668E+00
        -11   -1    0    0    0    0  0.00000000000E+00  0.00000000000E+00  0.45593999997E+02  0.45594000000E+02  0.51100000000E-03 0.  1.
         11   -1    0    0    0    0 -0.00000000000E+00 -0.00000000000E+00 -0.45593999997E+02  0.45594000000E+02  0.51100000000E-03 0. -1.
    9900012    2    1    2    0    0  0.31038113355E+02 -0.23858988847E+02  0.18735188373E+02  0.47787272900E+02  0.20000008462E+02 0.  0.
         12    1    1    2    0    0 -0.31038113355E+02  0.23858988847E+02 -0.18735188373E+02  0.43400727100E+02  0.00000000000E+00 0. -1.
         11    1    3    3    0    0 -0.27363296534E+00  0.64914062485E+00 -0.14760512657E+01  0.16355384895E+01  0.51100000000E-03 0. -1.
        -11    1    3    3    0    0  0.31551520338E+02 -0.22013766623E+02  0.20560687098E+02  0.43621625495E+02  0.51100000000E-03 0.  1.
        -12    1    3    3    0    0 -0.23977401817E+00 -0.24943628488E+01 -0.34944745998E+00  0.25301089163E+01  0.00000000000E+00 0.  1.
</event>
<event>
 7    1  0.5646756E-010  0.4778727E+02  0.7816164E-02  0.1312668E+00
        -11   -1    0    0    0    0  0.00000000000E+00  0.00000000000E+00  0.45593999997E+02  0.45594000000E+02  0.51100000000E-03 0.  1.
         11   -1    0    0    0    0 -0.00000000000E+00 -0.00000000000E+00 -0.45593999997E+02  0.45594000000E+02  0.51100000000E-03 0. -1.
    9900012    2    1    2    0    0 -0.37663737665E+02 -0.17455052844E+02  0.12664410528E+02  0.47787270759E+02  0.19999998697E+02 0.  0.
         12    1    1    2    0    0  0.37663737665E+02  0.17455052844E+02 -0.12664410528E+02  0.43400729241E+02  0.00000000000E+00 0. -1.
         11    1    3    3    0    0 -0.95363496091E+00 -0.24919025245E+01 -0.33991877532E+01  0.43212816934E+01  0.51100000000E-03 0. -1.
        -11    1    3    3    0    0 -0.20845688094E+02 -0.11440608107E+02  0.12356933172E+02  0.26797836175E+02  0.51100000000E-03 0.  1.
        -12    1    3    3    0    0 -0.15864414610E+02 -0.35225422124E+01  0.37066651087E+01  0.16668152890E+02  0.00000000000E+00 0.  1.
</event>
<event>
 7    1  0.5646756E-010  0.4778727E+02  0.7816164E-02  0.1312668E+00
        -11   -1    0    0    0    0  0.00000000000E+00  0.00000000000E+00  0.45593999997E+02  0.45594000000E+02  0.51100000000E-03 0.  1.
         11   -1    0    0    0    0 -0.00000000000E+00 -0.00000000000E+00 -0.45593999997E+02  0.45594000000E+02  0.51100000000E-03 0. -1.
    9900012    2    1    2    0    0 -0.37274444880E+01 -0.35288814759E+02  0.24988577782E+02  0.47787270639E+02  0.19999998153E+02 0.  0.
         12    1    1    2    0    0  0.37274444880E+01  0.35288814759E+02 -0.24988577782E+02  0.43400729361E+02  0.00000000000E+00 0. -1.
         11    1    3    3    0    0 -0.32866312192E+01 -0.17063374214E+01 -0.23783309071E+00  0.37108081339E+01  0.51100000000E-03 0. -1.
        -11    1    3    3    0    0  0.51507601769E+01 -0.25647234087E+02  0.15886238059E+02  0.30605285599E+02  0.51100000000E-03 0.  1.
        -12    1    3    3    0    0 -0.55915734457E+01 -0.79352432507E+01  0.93401728135E+01  0.13471176906E+02  0.00000000000E+00 0.  1.
</event>
<event>
 7    1  0.5646756E-010  0.4778727E+02  0.7816164E-02  0.1312668E+00
        -11   -1    0    0    0    0  0.00000000000E+00  0.00000000000E+00  0.45593999997E+02  0.45594000000E+02  0.51100000000E-03 0.  1.
         11   -1    0    0    0    0 -0.00000000000E+00 -0.00000000000E+00 -0.45593999997E+02  0.45594000000E+02  0.51100000000E-03 0. -1.
    9900012    2    1    2    0    0  0.16582950715E+02 -0.12829475359E+01  0.40087190730E+02  0.47787273400E+02  0.20000010739E+02 0.  0.
         12    1    1    2    0    0 -0.16582950715E+02  0.12829475359E+01 -0.40087190730E+02  0.43400726600E+02  0.00000000000E+00 0. -1.
         11    1    3    3    0    0  0.37028224637E-03  0.50713482528E+01  0.39815179911E+01  0.64475622535E+01  0.51100000000E-03 0. -1.
        -11    1    3    3    0    0  0.87572178302E+01  0.14204134323E+01  0.13036609505E+02  0.15768944990E+02  0.51100000000E-03 0.  1.
         12    1    3    3    0    0  0.78253626027E+01 -0.77747092209E+01  0.23069063234E+02  0.25570766157E+02  0.00000000000E+00 0. -1.
</event>
<event>
 7    1  0.5646756E-010  0.4778727E+02  0.7816164E-02  0.1312668E+00
        -11   -1    0    0    0    0  0.00000000000E+00  0.00000000000E+00  0.45593999997E+02  0.45594000000E+02  0.51100000000E-03 0. -1.
         11   -1    0    0    0    0 -0.00000000000E+00 -0.00000000000E+00 -0.45593999997E+02  0.45594000000E+02  0.51100000000E-03 0.  1.
    9900012    2    1    2    0    0  0.36838103687E+02  0.73635100289E+01 -0.21733755425E+02  0.47787270881E+02  0.19999999253E+02 0.  0.
         12    1    1    2    0    0 -0.36838103687E+02 -0.73635100289E+01  0.21733755425E+02  0.43400729119E+02  0.00000000000E+00 0. -1.
         11    1    3    3    0    0  0.14813479503E+01 -0.42119193447E+00  0.35098404080E+00  0.15795519787E+01  0.51100000000E-03 0. -1.
        -11    1    3    3    0    0  0.90427879312E+01  0.88606956471E+01 -0.14349887498E+01  0.12741394503E+02  0.51100000000E-03 0.  1.
        -12    1    3    3    0    0  0.26313967806E+02 -0.10759936837E+01 -0.20649750716E+02  0.33466324398E+02  0.00000000000E+00 0.  1.
</event>
<event>
 7    1  0.5646756E-010  0.4778727E+02  0.7816164E-02  0.1312668E+00
        -11   -1    0    0    0    0  0.00000000000E+00  0.00000000000E+00  0.45593999997E+02  0.45594000000E+02  0.51100000000E-03 0.  1.
         11   -1    0    0    0    0 -0.00000000000E+00 -0.00000000000E+00 -0.45593999997E+02  0.45594000000E+02  0.51100000000E-03 0. -1.
    9900012    2    1    2    0    0  0.17771736474E+01  0.46607392886E+01  0.43113131427E+02  0.47787274910E+02  0.20000017625E+02 0.  0.
         12    1    1    2    0    0 -0.17771736474E+01 -0.46607392886E+01 -0.43113131427E+02  0.43400725090E+02  0.00000000000E+00 0. -1.
         11    1    3    3    0    0 -0.26252120360E+01  0.21466610887E+01  0.17386937195E+00  0.33956034638E+01  0.51100000000E-03 0. -1.
        -11    1    3    3    0    0  0.98796875083E-01  0.52767090182E+01  0.30314048503E+02  0.30770033405E+02  0.51100000000E-03 0.  1.
         12    1    3    3    0    0  0.43035888083E+01 -0.27626308182E+01  0.12625213553E+02  0.13621638041E+02  0.00000000000E+00 0. -1.
</event>
<event>
 7    1  0.5646756E-010  0.4778727E+02  0.7816164E-02  0.1312668E+00
        -11   -1    0    0    0    0  0.00000000000E+00  0.00000000000E+00  0.45593999997E+02  0.45594000000E+02  0.51100000000E-03 0.  1.
         11   -1    0    0    0    0 -0.00000000000E+00 -0.00000000000E+00 -0.45593999997E+02  0.45594000000E+02  0.51100000000E-03 0. -1.
    9900012    2    1    2    0    0 -0.37700784578E+02 -0.13959802642E+02  0.16352313716E+02  0.47787269459E+02  0.19999992772E+02 0.  0.
         12    1    1    2    0    0  0.37700784578E+02  0.13959802642E+02 -0.16352313716E+02  0.43400730541E+02  0.00000000000E+00 0. -1.
         11    1    3    3    0    0 -0.64871358675E+01 -0.11536897907E+02  0.26419021179E+01  0.13496762284E+02  0.51100000000E-03 0. -1.
        -11    1    3    3    0    0 -0.40745990514E+01 -0.23811181718E+00  0.28472013875E+01  0.49765058695E+01  0.51100000000E-03 0.  1.
         12    1    3    3    0    0 -0.27139049659E+02 -0.21847929184E+01  0.10863210211E+02  0.29314001306E+02  0.00000000000E+00 0. -1.
</event>
<event>
 7    1  0.5646756E-010  0.4778727E+02  0.7816164E-02  0.1312668E+00
        -11   -1    0    0    0    0  0.00000000000E+00  0.00000000000E+00  0.45593999997E+02  0.45594000000E+02  0.51100000000E-03 0.  1.
         11   -1    0    0    0    0 -0.00000000000E+00 -0.00000000000E+00 -0.45593999997E+02  0.45594000000E+02  0.51100000000E-03 0. -1.
    9900012    2    1    2    0    0 -0.12770598026E+02 -0.35794820409E+02  0.20958665147E+02  0.47787274352E+02  0.20000015079E+02 0.  0.
         12    1    1    2    0    0  0.12770598026E+02  0.35794820409E+02 -0.20958665147E+02  0.43400725648E+02  0.00000000000E+00 0. -1.
         11    1    3    3    0    0 -0.50943005903E+01 -0.31904751683E+02  0.13675934590E+02  0.35084131251E+02  0.51100000000E-03 0. -1.
        -11    1    3    3    0    0 -0.63083451832E+01 -0.42625308250E+01  0.80591837211E+01  0.11086696104E+02  0.51100000000E-03 0.  1.
         12    1    3    3    0    0 -0.13679522523E+01  0.37246209903E+00 -0.77645316362E+00  0.16164469973E+01  0.00000000000E+00 0. -1.
</event>
<event>
 7    1  0.5646756E-010  0.4778727E+02  0.7816164E-02  0.1312668E+00
        -11   -1    0    0    0    0  0.00000000000E+00  0.00000000000E+00  0.45593999997E+02  0.45594000000E+02  0.51100000000E-03 0.  1.
         11   -1    0    0    0    0 -0.00000000000E+00 -0.00000000000E+00 -0.45593999997E+02  0.45594000000E+02  0.51100000000E-03 0. -1.
    9900012    2    1    2    0    0  0.89216759939E+01 -0.41019652116E+02  0.11018875954E+02  0.47787265104E+02  0.19999972914E+02 0.  0.
         12    1    1    2    0    0 -0.89216759939E+01  0.41019652116E+02 -0.11018875954E+02  0.43400734896E+02  0.00000000000E+00 0. -1.
         11    1    3    3    0    0 -0.29502853497E+01 -0.76609563909E+01  0.16314607815E+01  0.83699522705E+01  0.51100000000E-03 0. -1.
        -11    1    3    3    0    0  0.46820535975E+01 -0.76060782430E+00  0.93964852407E-02  0.47434416521E+01  0.51100000000E-03 0.  1.
        -12    1    3    3    0    0  0.71899077462E+01 -0.32598087901E+02  0.93780186875E+01  0.34673871181E+02  0.00000000000E+00 0.  1.
</event>
<event>
 7    1  0.5646756E-010  0.4778727E+02  0.7816164E-02  0.1312668E+00
        -11   -1    0    0    0    0  0.00000000000E+00  0.00000000000E+00  0.45593999997E+02  0.45594000000E+02  0.51100000000E-03 0.  1.
         11   -1    0    0    0    0 -0.00000000000E+00 -0.00000000000E+00 -0.45593999997E+02  0.45594000000E+02  0.51100000000E-03 0. -1.
    9900012    2    1    2    0    0 -0.16891461925E+02  0.39533425651E+02  0.59506271653E+01  0.47787271973E+02  0.20000004233E+02 0.  0.
         12    1    1    2    0    0  0.16891461925E+02 -0.39533425651E+02 -0.59506271653E+01  0.43400728027E+02  0.00000000000E+00 0. -1.
         11    1    3    3    0    0  0.53127879691E+00  0.72617717898E+01  0.17943840275E+00  0.72833910433E+01  0.51100000000E-03 0. -1.
        -11    1    3    3    0    0 -0.13671113770E+01  0.13082789167E+02  0.79821772710E+01  0.15386471986E+02  0.51100000000E-03 0.  1.
        -12    1    3    3    0    0 -0.16055629345E+02  0.19188864693E+02 -0.22109885085E+01  0.25117408944E+02  0.00000000000E+00 0.  1.
</event>
<event>
 7    1  0.5646756E-010  0.4778727E+02  0.7816164E-02  0.1312668E+00
        -11   -1    0    0    0    0  0.00000000000E+00  0.00000000000E+00  0.45593999997E+02  0.45594000000E+02  0.51100000000E-03 0.  1.
         11   -1    0    0    0    0 -0.00000000000E+00 -0.00000000000E+00 -0.45593999997E+02  0.45594000000E+02  0.51100000000E-03 0. -1.
    9900012    2    1    2    0    0  0.38011912143E+02 -0.59521853747E+01  0.20082076328E+02  0.47787265385E+02  0.19999974197E+02 0.  0.
         12    1    1    2    0    0 -0.38011912143E+02  0.59521853747E+01 -0.20082076328E+02  0.43400734615E+02  0.00000000000E+00 0. -1.
         11    1    3    3    0    0  0.19100397076E+00 -0.11706415155E+01  0.30701462118E-01  0.11865188223E+01  0.51100000000E-03 0. -1.
        -11    1    3    3    0    0  0.37578723877E+01  0.46988830923E+01  0.61635054294E+01  0.86133562934E+01  0.51100000000E-03 0.  1.
        -12    1    3    3    0    0  0.34063035784E+02 -0.94804269515E+01  0.13887869436E+02  0.37987390270E+02  0.00000000000E+00 0.  1.
</event>
<event>
 7    1  0.5646756E-010  0.4778728E+02  0.7816164E-02  0.1312668E+00
        -11   -1    0    0    0    0  0.00000000000E+00  0.00000000000E+00  0.45593999997E+02  0.45594000000E+02  0.51100000000E-03 0. -1.
         11   -1    0    0    0    0 -0.00000000000E+00 -0.00000000000E+00 -0.45593999997E+02  0.45594000000E+02  0.51100000000E-03 0.  1.
    9900012    2    1    2    0    0  0.12327446262E+02 -0.38916942604E+00 -0.41611361602E+02  0.47787276520E+02  0.20000024967E+02 0.  0.
         12    1    1    2    0    0 -0.12327446262E+02  0.38916942604E+00  0.41611361602E+02  0.43400723480E+02  0.00000000000E+00 0. -1.
         11    1    3    3    0    0  0.10400342979E+02  0.15770266723E+01 -0.40603505309E+02  0.41943995885E+02  0.51100000000E-03 0. -1.
        -11    1    3    3    0    0 -0.43536090999E+00  0.54089325371E+00 -0.21140982585E+01  0.22252002924E+01  0.51100000000E-03 0.  1.
         12    1    3    3    0    0  0.23624641924E+01 -0.25070893520E+01  0.11062419651E+01  0.36180803425E+01  0.00000000000E+00 0. -1.
</event>
<event>
 7    1  0.5646756E-010  0.4778727E+02  0.7816164E-02  0.1312668E+00
        -11   -1    0    0    0    0  0.00000000000E+00  0.00000000000E+00  0.45593999997E+02  0.45594000000E+02  0.51100000000E-03 0. -1.
         11   -1    0    0    0    0 -0.00000000000E+00 -0.00000000000E+00 -0.45593999997E+02  0.45594000000E+02  0.51100000000E-03 0.  1.
    9900012    2    1    2    0    0 -0.31709352966E+02  0.20415234212E+02 -0.21479261123E+02  0.47787268303E+02  0.19999987500E+02 0.  0.
         12    1    1    2    0    0  0.31709352966E+02 -0.20415234212E+02  0.21479261123E+02  0.43400731697E+02  0.00000000000E+00 0. -1.
         11    1    3    3    0    0 -0.13742054053E+02  0.11002804789E+02 -0.10176231426E+01  0.17633528289E+02  0.51100000000E-03 0. -1.
        -11    1    3    3    0    0 -0.10494275523E+02  0.98425196784E+01 -0.11125846213E+02  0.18187618497E+02  0.51100000000E-03 0.  1.
         12    1    3    3    0    0 -0.74730233904E+01 -0.43009025556E+00 -0.93357917677E+01  0.11966121517E+02  0.00000000000E+00 0. -1.
</event>
<event>
 7    1  0.5646756E-010  0.4778727E+02  0.7816164E-02  0.1312668E+00
        -11   -1    0    0    0    0  0.00000000000E+00  0.00000000000E+00  0.45593999997E+02  0.45594000000E+02  0.51100000000E-03 0.  1.
         11   -1    0    0    0    0 -0.00000000000E+00 -0.00000000000E+00 -0.45593999997E+02  0.45594000000E+02  0.51100000000E-03 0. -1.
    9900012    2    1    2    0    0  0.21111069125E+02 -0.15999574488E+02  0.34379644755E+02  0.47787267324E+02  0.19999983035E+02 0.  0.
         12    1    1    2    0    0 -0.21111069125E+02  0.15999574488E+02 -0.34379644755E+02  0.43400732676E+02  0.00000000000E+00 0. -1.
         11    1    3    3    0    0  0.83995501622E+01 -0.19104909112E+01  0.74111659429E+01  0.11363441351E+02  0.51100000000E-03 0.  1.
        -11    1    3    3    0    0  0.15572333602E+01 -0.10272624123E+01 -0.20068506938E+01  0.27400171113E+01  0.51100000000E-03 0. -1.
        -12    1    3    3    0    0  0.11154285602E+02 -0.13061821164E+02  0.28975329506E+02  0.33683808861E+02  0.00000000000E+00 0.  1.
</event>
<event>
 7    1  0.5646756E-010  0.4778727E+02  0.7816164E-02  0.1312668E+00
        -11   -1    0    0    0    0  0.00000000000E+00  0.00000000000E+00  0.45593999997E+02  0.45594000000E+02  0.51100000000E-03 0.  1.
         11   -1    0    0    0    0 -0.00000000000E+00 -0.00000000000E+00 -0.45593999997E+02  0.45594000000E+02  0.51100000000E-03 0. -1.
    9900012    2    1    2    0    0  0.33290959198E+02 -0.11955088881E+02  0.25147783636E+02  0.47787272629E+02  0.20000007226E+02 0.  0.
         12    1    1    2    0    0 -0.33290959198E+02  0.11955088881E+02 -0.25147783636E+02  0.43400727371E+02  0.00000000000E+00 0. -1.
         11    1    3    3    0    0  0.99593746383E+01 -0.17731060987E+00  0.19096854727E+00  0.99627833202E+01  0.51100000000E-03 0.  1.
        -11    1    3    3    0    0  0.67642526711E+01 -0.60260034948E+01  0.15361447914E+02  0.17833729688E+02  0.51100000000E-03 0. -1.
        -12    1    3    3    0    0  0.16567331889E+02 -0.57517747765E+01  0.95953671750E+01  0.19990759621E+02  0.00000000000E+00 0.  1.
</event>
<event>
 7    1  0.5646756E-010  0.4778727E+02  0.7816164E-02  0.1312668E+00
        -11   -1    0    0    0    0  0.00000000000E+00  0.00000000000E+00  0.45593999997E+02  0.45594000000E+02  0.51100000000E-03 0.  1.
         11   -1    0    0    0    0 -0.00000000000E+00 -0.00000000000E+00 -0.45593999997E+02  0.45594000000E+02  0.51100000000E-03 0. -1.
    9900012    2    1    2    0    0 -0.24826622053E+01  0.36408126529E+02  0.23492722195E+02  0.47787270915E+02  0.19999999409E+02 0.  0.
         12    1    1    2    0    0  0.24826622053E+01 -0.36408126529E+02 -0.23492722195E+02  0.43400729085E+02  0.00000000000E+00 0. -1.
         11    1    3    3    0    0  0.68124212072E+01  0.23324711395E+02  0.18385017686E+02  0.30470643576E+02  0.51100000000E-03 0. -1.
        -11    1    3    3    0    0 -0.43931829129E+01  0.94527097367E+01  0.36554113791E+01  0.11046076683E+02  0.51100000000E-03 0.  1.
         12    1    3    3    0    0 -0.49019004996E+01  0.36307053980E+01  0.14522931298E+01  0.62705506560E+01  0.00000000000E+00 0. -1.
</event>
<event>
 7    1  0.5646756E-010  0.4778727E+02  0.7816164E-02  0.1312668E+00
        -11   -1    0    0    0    0  0.00000000000E+00  0.00000000000E+00  0.45593999997E+02  0.45594000000E+02  0.51100000000E-03 0.  1.
         11   -1    0    0    0    0 -0.00000000000E+00 -0.00000000000E+00 -0.45593999997E+02  0.45594000000E+02  0.51100000000E-03 0. -1.
    9900012    2    1    2    0    0  0.13953718580E+02 -0.33484885601E+02  0.23826021919E+02  0.47787272513E+02  0.20000006697E+02 0.  0.
         12    1    1    2    0    0 -0.13953718580E+02  0.33484885601E+02 -0.23826021919E+02  0.43400727487E+02  0.00000000000E+00 0. -1.
         11    1    3    3    0    0 -0.32154949659E+01 -0.15734033750E+01  0.17521481352E+01  0.39856027656E+01  0.51100000000E-03 0. -1.
        -11    1    3    3    0    0 -0.12104026183E+01 -0.55692341232E+01  0.37460398621E+01  0.68201362249E+01  0.51100000000E-03 0.  1.
         12    1    3    3    0    0  0.18379616164E+02 -0.26342248103E+02  0.18327833922E+02  0.36981533523E+02  0.00000000000E+00 0. -1.
</event>
<event>
 7    1  0.5646756E-010  0.4778730E+02  0.7816164E-02  0.1312668E+00
        -11   -1    0    0    0    0  0.00000000000E+00  0.00000000000E+00  0.45593999997E+02  0.45594000000E+02  0.51100000000E-03 0.  1.
         11   -1    0    0    0    0 -0.00000000000E+00 -0.00000000000E+00 -0.45593999997E+02  0.45594000000E+02  0.51100000000E-03 0. -1.
    9900012    2    1    2    0    0  0.80738043141E+01 -0.38575292079E+02  0.18176405254E+02  0.47787295132E+02  0.20000109825E+02 0.  0.
         12    1    1    2    0    0 -0.80738043141E+01  0.38575292079E+02 -0.18176405254E+02  0.43400704868E+02  0.00000000000E+00 0. -1.
         11    1    3    3    0    0  0.66870767235E+01 -0.73717423372E+01  0.82171833309E+01  0.12906652639E+02  0.51100000000E-03 0. -1.
        -11    1    3    3    0    0 -0.29352963824E+01 -0.23884643101E+02  0.10725643915E+02  0.26346376953E+02  0.51100000000E-03 0.  1.
        -12    1    3    3    0    0  0.43220239729E+01 -0.73189066407E+01 -0.76642199154E+00  0.85342655400E+01  0.00000000000E+00 0.  1.
</event>
<event>
 7    1  0.5646756E-010  0.4778727E+02  0.7816164E-02  0.1312668E+00
        -11   -1    0    0    0    0  0.00000000000E+00  0.00000000000E+00  0.45593999997E+02  0.45594000000E+02  0.51100000000E-03 0.  1.
         11   -1    0    0    0    0 -0.00000000000E+00 -0.00000000000E+00 -0.45593999997E+02  0.45594000000E+02  0.51100000000E-03 0. -1.
    9900012    2    1    2    0    0  0.12541766925E+02  0.11439413844E+02  0.39943301319E+02  0.47787269280E+02  0.19999991957E+02 0.  0.
         12    1    1    2    0    0 -0.12541766925E+02 -0.11439413844E+02 -0.39943301319E+02  0.43400730720E+02  0.00000000000E+00 0. -1.
         11    1    3    3    0    0  0.54399044551E+01 -0.33987245997E+01  0.31840699616E+01  0.71611585073E+01  0.51100000000E-03 0. -1.
        -11    1    3    3    0    0  0.31841391615E+01  0.11934985758E+02  0.24645178103E+02  0.27567506801E+02  0.51100000000E-03 0.  1.
         12    1    3    3    0    0  0.39177233086E+01  0.29031526858E+01  0.12114053255E+02  0.13058603972E+02  0.00000000000E+00 0. -1.
</event>
<event>
 7    1  0.5646756E-010  0.4778727E+02  0.7816164E-02  0.1312668E+00
        -11   -1    0    0    0    0  0.00000000000E+00  0.00000000000E+00  0.45593999997E+02  0.45594000000E+02  0.51100000000E-03 0.  1.
         11   -1    0    0    0    0 -0.00000000000E+00 -0.00000000000E+00 -0.45593999997E+02  0.45594000000E+02  0.51100000000E-03 0. -1.
    9900012    2    1    2    0    0 -0.41544203087E+02 -0.72686934458E+01  0.10240532495E+02  0.47787271661E+02  0.20000002811E+02 0.  0.
         12    1    1    2    0    0  0.41544203087E+02  0.72686934458E+01 -0.10240532495E+02  0.43400728339E+02  0.00000000000E+00 0. -1.
         11    1    3    3    0    0 -0.15064369787E+02 -0.35449986985E+01  0.30119234340E+01  0.15766227700E+02  0.51100000000E-03 0. -1.
        -11    1    3    3    0    0 -0.15819714963E+02 -0.22831941195E+01 -0.39945586898E+01  0.16475219461E+02  0.51100000000E-03 0.  1.
         12    1    3    3    0    0 -0.10660118338E+02 -0.14405006279E+01  0.11223167751E+02  0.15545824500E+02  0.00000000000E+00 0. -1.
</event>
<event>
 7    1  0.5646756E-010  0.4778728E+02  0.7816164E-02  0.1312668E+00
        -11   -1    0    0    0    0  0.00000000000E+00  0.00000000000E+00  0.45593999997E+02  0.45594000000E+02  0.51100000000E-03 0.  1.
         11   -1    0    0    0    0 -0.00000000000E+00 -0.00000000000E+00 -0.45593999997E+02  0.45594000000E+02  0.51100000000E-03 0. -1.
    9900012    2    1    2    0    0  0.21835104310E+02  0.22961232842E+02  0.29658605136E+02  0.47787275899E+02  0.20000022134E+02 0.  0.
         12    1    1    2    0    0 -0.21835104310E+02 -0.22961232842E+02 -0.29658605136E+02  0.43400724101E+02  0.00000000000E+00 0. -1.
         11    1    3    3    0    0  0.72365752609E+01  0.70102342886E+01  0.61533555709E+01  0.11805727056E+02  0.51100000000E-03 0. -1.
        -11    1    3    3    0    0  0.14619230877E+02  0.12088589603E+02  0.25381761638E+02  0.31687374996E+02  0.51100000000E-03 0.  1.
        -12    1    3    3    0    0 -0.20701827913E-01  0.38624089505E+01 -0.18765120725E+01  0.42941738466E+01  0.00000000000E+00 0.  1.
</event>
<event>
 7    1  0.5646756E-010  0.4778726E+02  0.7816164E-02  0.1312668E+00
        -11   -1    0    0    0    0  0.00000000000E+00  0.00000000000E+00  0.45593999997E+02  0.45594000000E+02  0.51100000000E-03 0. -1.
         11   -1    0    0    0    0 -0.00000000000E+00 -0.00000000000E+00 -0.45593999997E+02  0.45594000000E+02  0.51100000000E-03 0.  1.
    9900012    2    1    2    0    0  0.42107412350E+02 -0.65938900216E+01 -0.81920892975E+01  0.47787263975E+02  0.19999967769E+02 0.  0.
         12    1    1    2    0    0 -0.42107412350E+02  0.65938900216E+01  0.81920892975E+01  0.43400736025E+02  0.00000000000E+00 0. -1.
         11    1    3    3    0    0  0.14951021043E+01 -0.36799040148E+01 -0.19185230224E+01  0.44110945024E+01  0.51100000000E-03 0. -1.
        -11    1    3    3    0    0  0.29727551802E+02 -0.77764300224E+01 -0.66890216289E+01  0.31447467476E+02  0.51100000000E-03 0.  1.
        -12    1    3    3    0    0  0.10884758444E+02  0.48624440156E+01  0.41545535376E+00  0.11928701997E+02  0.00000000000E+00 0.  1.
</event>
<event>
 7    1  0.5646756E-010  0.4778728E+02  0.7816164E-02  0.1312668E+00
        -11   -1    0    0    0    0  0.00000000000E+00  0.00000000000E+00  0.45593999997E+02  0.45594000000E+02  0.51100000000E-03 0. -1.
         11   -1    0    0    0    0 -0.00000000000E+00 -0.00000000000E+00 -0.45593999997E+02  0.45594000000E+02  0.51100000000E-03 0.  1.
    9900012    2    1    2    0    0  0.24081487666E+02 -0.26918342739E+02  0.24064646373E+02  0.47787280777E+02  0.20000044373E+02 0.  0.
         12    1    1    2    0    0 -0.24081487666E+02  0.26918342739E+02 -0.24064646373E+02  0.43400719223E+02  0.00000000000E+00 0. -1.
         11    1    3    3    0    0  0.96003482899E+01 -0.62835591092E+01  0.17080905490E+02  0.20576859211E+02  0.51100000000E-03 0. -1.
        -11    1    3    3    0    0  0.14851142068E+02 -0.20164224528E+02  0.77713938826E+01  0.26221116198E+02  0.51100000000E-03 0.  1.
        -12    1    3    3    0    0 -0.37000269247E+00 -0.47055910259E+00 -0.78765299978E+00  0.98930536718E+00  0.00000000000E+00 0.  1.
</event>
<event>
 7    1  0.5646756E-010  0.4778727E+02  0.7816164E-02  0.1312668E+00
        -11   -1    0    0    0    0  0.00000000000E+00  0.00000000000E+00  0.45593999997E+02  0.45594000000E+02  0.51100000000E-03 0.  1.
         11   -1    0    0    0    0 -0.00000000000E+00 -0.00000000000E+00 -0.45593999997E+02  0.45594000000E+02  0.51100000000E-03 0. -1.
    9900012    2    1    2    0    0  0.25007422163E+02  0.31407339755E+01  0.35332537971E+02  0.47787267142E+02  0.19999982208E+02 0.  0.
         12    1    1    2    0    0 -0.25007422163E+02 -0.31407339755E+01 -0.35332537971E+02  0.43400732858E+02  0.00000000000E+00 0. -1.
         11    1    3    3    0    0  0.83998674149E+01  0.34114411940E+01  0.42934896699E+01  0.10031438452E+02  0.51100000000E-03 0. -1.
        -11    1    3    3    0    0  0.75034649796E+01 -0.54835189027E+00  0.26561495934E+02  0.27606443867E+02  0.51100000000E-03 0.  1.
        -12    1    3    3    0    0  0.91040897689E+01  0.27764467176E+00  0.44775523668E+01  0.10149384823E+02  0.00000000000E+00 0.  1.
</event>
<event>
 7    1  0.8205014E-010  0.4778727E+02  0.7816164E-02  0.1312668E+00
        -11   -1    0    0    0    0  0.00000000000E+00  0.00000000000E+00  0.45593999997E+02  0.45594000000E+02  0.51100000000E-03 0. -1.
         11   -1    0    0    0    0 -0.00000000000E+00 -0.00000000000E+00 -0.45593999997E+02  0.45594000000E+02  0.51100000000E-03 0.  1.
    9900012    2    1    2    0    0 -0.29840533182E+02  0.41725385728E+01 -0.31237088926E+02  0.47787271627E+02  0.20000002658E+02 0.  0.
         12    1    1    2    0    0  0.29840533182E+02 -0.41725385728E+01  0.31237088926E+02  0.43400728373E+02  0.00000000000E+00 0. -1.
         11    1    3    3    0    0 -0.11656166313E+02  0.24877268121E+01 -0.27410110275E+01  0.12229805376E+02  0.51100000000E-03 0. -1.
        -11    1    3    3    0    0 -0.11081713052E+02  0.46196197180E+01 -0.23505310088E+02  0.26394030634E+02  0.51100000000E-03 0.  1.
        -12    1    3    3    0    0 -0.71026538166E+01 -0.29348079572E+01 -0.49907678097E+01  0.91634356174E+01  0.00000000000E+00 0.  1.
</event>
<event>
 7    1  0.5646756E-010  0.4778727E+02  0.7816164E-02  0.1312668E+00
        -11   -1    0    0    0    0  0.00000000000E+00  0.00000000000E+00  0.45593999997E+02  0.45594000000E+02  0.51100000000E-03 0. -1.
         11   -1    0    0    0    0 -0.00000000000E+00 -0.00000000000E+00 -0.45593999997E+02  0.45594000000E+02  0.51100000000E-03 0.  1.
    9900012    2    1    2    0    0  0.38331650452E+02 -0.13672401951E+01 -0.20308576266E+02  0.47787273715E+02  0.20000012176E+02 0.  0.
         12    1    1    2    0    0 -0.38331650452E+02  0.13672401951E+01  0.20308576266E+02  0.43400726285E+02  0.00000000000E+00 0. -1.
         11    1    3    3    0    0  0.63799252533E+01  0.20611612634E+01  0.22120153902E+01  0.70600881255E+01  0.51100000000E-03 0. -1.
        -11    1    3    3    0    0  0.22858626494E+02 -0.14201236000E+01 -0.21405361035E+02  0.31348413637E+02  0.51100000000E-03 0.  1.
        -12    1    3    3    0    0  0.90930987042E+01 -0.20082778584E+01 -0.11152306214E+01  0.93787719526E+01  0.00000000000E+00 0.  1.
</event>
<event>
 7    1  0.5646756E-010  0.4778727E+02  0.7816164E-02  0.1312668E+00
        -11   -1    0    0    0    0  0.00000000000E+00  0.00000000000E+00  0.45593999997E+02  0.45594000000E+02  0.51100000000E-03 0.  1.
         11   -1    0    0    0    0 -0.00000000000E+00 -0.00000000000E+00 -0.45593999997E+02  0.45594000000E+02  0.51100000000E-03 0. -1.
    9900012    2    1    2    0    0 -0.38434621722E+02  0.58691607667E+01  0.19286174673E+02  0.47787265806E+02  0.19999976117E+02 0.  0.
         12    1    1    2    0    0  0.38434621722E+02 -0.58691607667E+01 -0.19286174673E+02  0.43400734194E+02  0.00000000000E+00 0. -1.
         11    1    3    3    0    0 -0.81616490267E+01 -0.49853815667E+01  0.78215068639E+00  0.95957440648E+01  0.51100000000E-03 0. -1.
        -11    1    3    3    0    0 -0.17697177943E+02  0.55369913841E+01  0.15599773123E+02  0.24232236845E+02  0.51100000000E-03 0.  1.
         12    1    3    3    0    0 -0.12575794752E+02  0.53175509493E+01  0.29042508630E+01  0.13959284897E+02  0.00000000000E+00 0. -1.
</event>
<event>
 7    1  0.5646756E-010  0.4778729E+02  0.7816164E-02  0.1312668E+00
        -11   -1    0    0    0    0  0.00000000000E+00  0.00000000000E+00  0.45593999997E+02  0.45594000000E+02  0.51100000000E-03 0. -1.
         11   -1    0    0    0    0 -0.00000000000E+00 -0.00000000000E+00 -0.45593999997E+02  0.45594000000E+02  0.51100000000E-03 0.  1.
    9900012    2    1    2    0    0  0.21865230588E+02  0.34125495314E+02 -0.15523665591E+02  0.47787286498E+02  0.20000070460E+02 0.  0.
         12    1    1    2    0    0 -0.21865230588E+02 -0.34125495314E+02  0.15523665591E+02  0.43400713502E+02  0.00000000000E+00 0. -1.
         11    1    3    3    0    0 -0.83006235164E+00  0.56738919038E+01 -0.54427192880E+01  0.79060259520E+01  0.51100000000E-03 0.  1.
        -11    1    3    3    0    0  0.23838078673E+02  0.26576561896E+02 -0.74780771599E+01  0.36475872509E+02  0.51100000000E-03 0. -1.
        -12    1    3    3    0    0 -0.11427857328E+01  0.18750415144E+01 -0.26028691427E+01  0.34053880375E+01  0.00000000000E+00 0.  1.
</event>
<event>
 7    1  0.5646756E-010  0.4778723E+02  0.7816164E-02  0.1312668E+00
        -11   -1    0    0    0    0  0.00000000000E+00  0.00000000000E+00  0.45593999997E+02  0.45594000000E+02  0.51100000000E-03 0. -1.
         11   -1    0    0    0    0 -0.00000000000E+00 -0.00000000000E+00 -0.45593999997E+02  0.45594000000E+02  0.51100000000E-03 0.  1.
    9900012    2    1    2    0    0 -0.24919776313E+01 -0.25628061813E+02 -0.34937363532E+02  0.47787229553E+02  0.19999810825E+02 0.  0.
         12    1    1    2    0    0  0.24919776313E+01  0.25628061813E+02  0.34937363532E+02  0.43400770447E+02  0.00000000000E+00 0. -1.
         11    1    3    3    0    0 -0.22923879103E+01 -0.44737886298E+01 -0.19811345438E+02  0.20439159361E+02  0.51100000000E-03 0. -1.
        -11    1    3    3    0    0 -0.56211645895E+00 -0.21295228623E+02 -0.15832310544E+02  0.26541755677E+02  0.51100000000E-03 0.  1.
         12    1    3    3    0    0  0.36252673792E+00  0.14095543968E+00  0.70629245066E+00  0.80631451527E+00  0.00000000000E+00 0. -1.
</event>
<event>
 7    1  0.5646756E-010  0.4778727E+02  0.7816164E-02  0.1312668E+00
        -11   -1    0    0    0    0  0.00000000000E+00  0.00000000000E+00  0.45593999997E+02  0.45594000000E+02  0.51100000000E-03 0.  1.
         11   -1    0    0    0    0 -0.00000000000E+00 -0.00000000000E+00 -0.45593999997E+02  0.45594000000E+02  0.51100000000E-03 0. -1.
    9900012    2    1    2    0    0 -0.25852083036E+02 -0.22132567654E+02  0.26934041044E+02  0.47787270568E+02  0.19999997829E+02 0.  0.
         12    1    1    2    0    0  0.25852083036E+02  0.22132567654E+02 -0.26934041044E+02  0.43400729432E+02  0.00000000000E+00 0. -1.
         11    1    3    3    0    0 -0.14173170555E+01  0.31546766379E+01  0.10864793876E+01  0.36250806952E+01  0.51100000000E-03 0. -1.
        -11    1    3    3    0    0 -0.13643085505E+02 -0.16698159964E+02  0.12277420426E+02  0.24813250107E+02  0.51100000000E-03 0.  1.
        -12    1    3    3    0    0 -0.10791680476E+02 -0.85890843277E+01  0.13570141230E+02  0.19348939767E+02  0.00000000000E+00 0.  1.
</event>
<event>
 7    1  0.5646756E-010  0.4778727E+02  0.7816164E-02  0.1312668E+00
        -11   -1    0    0    0    0  0.00000000000E+00  0.00000000000E+00  0.45593999997E+02  0.45594000000E+02  0.51100000000E-03 0. -1.
         11   -1    0    0    0    0 -0.00000000000E+00 -0.00000000000E+00 -0.45593999997E+02  0.45594000000E+02  0.51100000000E-03 0.  1.
    9900012    2    1    2    0    0 -0.48400145988E+01  0.30218688414E+02 -0.30773822558E+02  0.47787273905E+02  0.20000013042E+02 0.  0.
         12    1    1    2    0    0  0.48400145988E+01 -0.30218688414E+02  0.30773822558E+02  0.43400726095E+02  0.00000000000E+00 0. -1.
         11    1    3    3    0    0 -0.37745254804E+00 -0.12835685169E+01  0.12511351205E+01  0.18317636077E+01  0.51100000000E-03 0. -1.
        -11    1    3    3    0    0 -0.26329317612E+01  0.12219770315E+02 -0.18517281118E+02  0.22341549106E+02  0.51100000000E-03 0.  1.
         12    1    3    3    0    0 -0.18296302895E+01  0.19282486616E+02 -0.13507676561E+02  0.23613961191E+02  0.00000000000E+00 0. -1.
</event>
<event>
 7    1  0.5646756E-010  0.4778727E+02  0.7816164E-02  0.1312668E+00
        -11   -1    0    0    0    0  0.00000000000E+00  0.00000000000E+00  0.45593999997E+02  0.45594000000E+02  0.51100000000E-03 0.  1.
         11   -1    0    0    0    0 -0.00000000000E+00 -0.00000000000E+00 -0.45593999997E+02  0.45594000000E+02  0.51100000000E-03 0. -1.
    9900012    2    1    2    0    0 -0.34250763954E+02 -0.23668785731E+02 -0.12259570188E+02  0.47787270621E+02  0.19999998070E+02 0.  0.
         12    1    1    2    0    0  0.34250763954E+02  0.23668785731E+02  0.12259570188E+02  0.43400729379E+02  0.00000000000E+00 0. -1.
         11    1    3    3    0    0 -0.20200245614E+02 -0.16739577020E+02 -0.16878230848E+02  0.31195160498E+02  0.51100000000E-03 0. -1.
        -11    1    3    3    0    0 -0.11945828022E+02 -0.56251853866E+01  0.27429097433E+01  0.13485884171E+02  0.51100000000E-03 0.  1.
         12    1    3    3    0    0 -0.21046903187E+01 -0.13040233240E+01  0.18757509164E+01  0.31062259524E+01  0.00000000000E+00 0. -1.
</event>
<event>
 7    1  0.5646756E-010  0.4778727E+02  0.7816164E-02  0.1312668E+00
        -11   -1    0    0    0    0  0.00000000000E+00  0.00000000000E+00  0.45593999997E+02  0.45594000000E+02  0.51100000000E-03 0.  1.
         11   -1    0    0    0    0 -0.00000000000E+00 -0.00000000000E+00 -0.45593999997E+02  0.45594000000E+02  0.51100000000E-03 0. -1.
    9900012    2    1    2    0    0  0.18235266811E+02 -0.33010231281E+02  0.21480756224E+02  0.47787271747E+02  0.20000003204E+02 0.  0.
         12    1    1    2    0    0 -0.18235266811E+02  0.33010231281E+02 -0.21480756224E+02  0.43400728253E+02  0.00000000000E+00 0. -1.
         11    1    3    3    0    0 -0.35476814502E+01 -0.10145801907E+01  0.14569330329E+01  0.39671237388E+01  0.51100000000E-03 0. -1.
        -11    1    3    3    0    0  0.17705614336E+02 -0.23072655586E+02  0.16200541645E+02  0.33291046313E+02  0.51100000000E-03 0.  1.
        -12    1    3    3    0    0  0.40773339256E+01 -0.89229955049E+01  0.38232815461E+01  0.10529101695E+02  0.00000000000E+00 0.  1.
</event>
<event>
 7    1  0.5646756E-010  0.4778728E+02  0.7816164E-02  0.1312668E+00
        -11   -1    0    0    0    0  0.00000000000E+00  0.00000000000E+00  0.45593999997E+02  0.45594000000E+02  0.51100000000E-03 0. -1.
         11   -1    0    0    0    0 -0.00000000000E+00 -0.00000000000E+00 -0.45593999997E+02  0.45594000000E+02  0.51100000000E-03 0.  1.
    9900012    2    1    2    0    0  0.34403529790E+02  0.68899264887E+01 -0.25545023314E+02  0.47787283817E+02  0.20000058236E+02 0.  0.
         12    1    1    2    0    0 -0.34403529790E+02 -0.68899264887E+01  0.25545023314E+02  0.43400716183E+02  0.00000000000E+00 0. -1.
         11    1    3    3    0    0  0.13787068630E+02  0.69227991868E+01 -0.29992176034E+01  0.15716351882E+02  0.51100000000E-03 0. -1.
        -11    1    3    3    0    0  0.11691794147E+02  0.93210686187E+00 -0.58314650619E+01  0.13098582313E+02  0.51100000000E-03 0.  1.
         12    1    3    3    0    0  0.89246670134E+01 -0.96497956001E+00 -0.16714340649E+02  0.18972349622E+02  0.00000000000E+00 0. -1.
</event>
<event>
 7    1  0.5646756E-010  0.4778728E+02  0.7816164E-02  0.1312668E+00
        -11   -1    0    0    0    0  0.00000000000E+00  0.00000000000E+00  0.45593999997E+02  0.45594000000E+02  0.51100000000E-03 0. -1.
         11   -1    0    0    0    0 -0.00000000000E+00 -0.00000000000E+00 -0.45593999997E+02  0.45594000000E+02  0.51100000000E-03 0.  1.
    9900012    2    1    2    0    0  0.38398060446E+01  0.21022253903E+02 -0.37774907091E+02  0.47787275636E+02  0.20000020933E+02 0.  0.
         12    1    1    2    0    0 -0.38398060446E+01 -0.21022253903E+02  0.37774907091E+02  0.43400724364E+02  0.00000000000E+00 0. -1.
         11    1    3    3    0    0 -0.10563275103E+01  0.18911376206E+01  0.16018882869E+01  0.26941187157E+01  0.51100000000E-03 0. -1.
        -11    1    3    3    0    0  0.48982886889E+01  0.11354867716E+02 -0.32271042344E+02  0.34559317516E+02  0.51100000000E-03 0.  1.
         12    1    3    3    0    0 -0.21551340293E-02  0.77762485667E+01 -0.71057530339E+01  0.10533839404E+02  0.00000000000E+00 0. -1.
</event>
<event>
 7    1  0.5646756E-010  0.4778727E+02  0.7816164E-02  0.1312668E+00
        -11   -1    0    0    0    0  0.00000000000E+00  0.00000000000E+00  0.45593999997E+02  0.45594000000E+02  0.51100000000E-03 0. -1.
         11   -1    0    0    0    0 -0.00000000000E+00 -0.00000000000E+00 -0.45593999997E+02  0.45594000000E+02  0.51100000000E-03 0.  1.
    9900012    2    1    2    0    0  0.25243053558E+02 -0.31562957905E+02 -0.15817441338E+02  0.47787268266E+02  0.19999987330E+02 0.  0.
         12    1    1    2    0    0 -0.25243053558E+02  0.31562957905E+02  0.15817441338E+02  0.43400731734E+02  0.00000000000E+00 0. -1.
         11    1    3    3    0    0  0.48400688417E+01 -0.20727505095E+02 -0.48693882858E+01  0.21834987437E+02  0.51100000000E-03 0. -1.
        -11    1    3    3    0    0  0.28268595530E+01 -0.26767970771E+01 -0.33584909341E+01  0.51415794402E+01  0.51100000000E-03 0.  1.
         12    1    3    3    0    0  0.17576125163E+02 -0.81586557326E+01 -0.75895621177E+01  0.20810701388E+02  0.00000000000E+00 0. -1.
</event>
<event>
 7    1  0.5646756E-010  0.4778727E+02  0.7816164E-02  0.1312668E+00
        -11   -1    0    0    0    0  0.00000000000E+00  0.00000000000E+00  0.45593999997E+02  0.45594000000E+02  0.51100000000E-03 0.  1.
         11   -1    0    0    0    0 -0.00000000000E+00 -0.00000000000E+00 -0.45593999997E+02  0.45594000000E+02  0.51100000000E-03 0. -1.
    9900012    2    1    2    0    0  0.37553530011E+02 -0.17976800557E+02  0.12255221575E+02  0.47787269241E+02  0.19999991778E+02 0.  0.
         12    1    1    2    0    0 -0.37553530011E+02  0.17976800557E+02 -0.12255221575E+02  0.43400730759E+02  0.00000000000E+00 0. -1.
         11    1    3    3    0    0  0.63499277718E+01 -0.15510234456E+01 -0.16894709065E+01  0.67514123441E+01  0.51100000000E-03 0. -1.
        -11    1    3    3    0    0  0.27185263466E+01 -0.83922611703E+01  0.15865764944E+01  0.89631277064E+01  0.51100000000E-03 0.  1.
        -12    1    3    3    0    0  0.28485075893E+02 -0.80335159407E+01  0.12358115987E+02  0.32072729191E+02  0.00000000000E+00 0.  1.
</event>
<event>
 7    1  0.5646756E-010  0.4778728E+02  0.7816164E-02  0.1312668E+00
        -11   -1    0    0    0    0  0.00000000000E+00  0.00000000000E+00  0.45593999997E+02  0.45594000000E+02  0.51100000000E-03 0.  1.
         11   -1    0    0    0    0 -0.00000000000E+00 -0.00000000000E+00 -0.45593999997E+02  0.45594000000E+02  0.51100000000E-03 0. -1.
    9900012    2    1    2    0    0 -0.24438376137E+02  0.51750080495E+01  0.35490951787E+02  0.47787278862E+02  0.20000035645E+02 0.  0.
         12    1    1    2    0    0  0.24438376137E+02 -0.51750080495E+01 -0.35490951787E+02  0.43400721138E+02  0.00000000000E+00 0. -1.
         11    1    3    3    0    0 -0.31893408082E-01  0.70125871083E+01  0.48783110510E+01  0.85425589909E+01  0.51100000000E-03 0. -1.
        -11    1    3    3    0    0 -0.12958642652E+02 -0.99304922045E+00  0.17836296546E+02  0.22069119622E+02  0.51100000000E-03 0.  1.
         12    1    3    3    0    0 -0.11447840077E+02 -0.84452983836E+00  0.12776344190E+02  0.17175600250E+02  0.00000000000E+00 0. -1.
</event>
<event>
 7    1  0.5646756E-010  0.4778729E+02  0.7816164E-02  0.1312668E+00
        -11   -1    0    0    0    0  0.00000000000E+00  0.00000000000E+00  0.45593999997E+02  0.45594000000E+02  0.51100000000E-03 0.  1.
         11   -1    0    0    0    0 -0.00000000000E+00 -0.00000000000E+00 -0.45593999997E+02  0.45594000000E+02  0.51100000000E-03 0. -1.
    9900012    2    1    2    0    0 -0.31293216458E+02  0.18276609978E+02  0.23881413634E+02  0.47787288188E+02  0.20000078166E+02 0.  0.
         12    1    1    2    0    0  0.31293216458E+02 -0.18276609978E+02 -0.23881413634E+02  0.43400711812E+02  0.00000000000E+00 0. -1.
         11    1    3    3    0    0  0.76364991983E+00 -0.22909402978E+01  0.33932508864E+01  0.41648193823E+01  0.51100000000E-03 0. -1.
        -11    1    3    3    0    0 -0.23379533493E+02  0.13263561610E+02  0.11902341463E+02  0.29397115258E+02  0.51100000000E-03 0.  1.
        -12    1    3    3    0    0 -0.86773328847E+01  0.73039886662E+01  0.85858212851E+01  0.14225353548E+02  0.00000000000E+00 0.  1.
</event>
<event>
 7    1  0.5646756E-010  0.4778727E+02  0.7816164E-02  0.1312668E+00
        -11   -1    0    0    0    0  0.00000000000E+00  0.00000000000E+00  0.45593999997E+02  0.45594000000E+02  0.51100000000E-03 0.  1.
         11   -1    0    0    0    0 -0.00000000000E+00 -0.00000000000E+00 -0.45593999997E+02  0.45594000000E+02  0.51100000000E-03 0. -1.
    9900012    2    1    2    0    0  0.36884840810E+02  0.22270856184E+02 -0.52096620069E+01  0.47787273105E+02  0.20000009395E+02 0.  0.
         12    1    1    2    0    0 -0.36884840810E+02 -0.22270856184E+02  0.52096620069E+01  0.43400726895E+02  0.00000000000E+00 0. -1.
         11    1    3    3    0    0  0.27096260449E+02  0.11675722713E+02 -0.27194258849E+01  0.29629801022E+02  0.51100000000E-03 0.  1.
        -11    1    3    3    0    0  0.32016727842E-03  0.75694137098E+01  0.17425233063E+00  0.75714191634E+01  0.51100000000E-03 0. -1.
         12    1    3    3    0    0  0.97882601942E+01  0.30257197609E+01 -0.26644884526E+01  0.10586052920E+02  0.00000000000E+00 0. -1.
</event>
<event>
 7    1  0.5646756E-010  0.4778727E+02  0.7816164E-02  0.1312668E+00
        -11   -1    0    0    0    0  0.00000000000E+00  0.00000000000E+00  0.45593999997E+02  0.45594000000E+02  0.51100000000E-03 0.  1.
         11   -1    0    0    0    0 -0.00000000000E+00 -0.00000000000E+00 -0.45593999997E+02  0.45594000000E+02  0.51100000000E-03 0. -1.
    9900012    2    1    2    0    0 -0.77948615089E+01  0.41609756052E+02  0.95651405550E+01  0.47787267535E+02  0.19999983998E+02 0.  0.
         12    1    1    2    0    0  0.77948615089E+01 -0.41609756052E+02 -0.95651405550E+01  0.43400732465E+02  0.00000000000E+00 0. -1.
         11    1    3    3    0    0  0.15404507889E+01 -0.10612768083E+01 -0.22805427884E+00  0.18844909424E+01  0.51100000000E-03 0. -1.
        -11    1    3    3    0    0 -0.84952516091E+01  0.42958463600E+02  0.10140864654E+02  0.44949260628E+02  0.51100000000E-03 0.  1.
        -12    1    3    3    0    0 -0.84006068875E+00 -0.28743073932E+00 -0.34766982055E+00  0.95351596463E+00  0.00000000000E+00 0.  1.
</event>
<event>
 7    1  0.5646756E-010  0.4778726E+02  0.7816164E-02  0.1312668E+00
        -11   -1    0    0    0    0  0.00000000000E+00  0.00000000000E+00  0.45593999997E+02  0.45594000000E+02  0.51100000000E-03 0.  1.
         11   -1    0    0    0    0 -0.00000000000E+00 -0.00000000000E+00 -0.45593999997E+02  0.45594000000E+02  0.51100000000E-03 0. -1.
    9900012    2    1    2    0    0  0.18569498104E+02 -0.36445838051E+02  0.14508564062E+02  0.47787264958E+02  0.19999972249E+02 0.  0.
         12    1    1    2    0    0 -0.18569498104E+02  0.36445838051E+02 -0.14508564062E+02  0.43400735042E+02  0.00000000000E+00 0. -1.
         11    1    3    3    0    0  0.11136448360E+02 -0.50297196378E+01  0.51139033583E+01  0.13246530472E+02  0.51100000000E-03 0. -1.
        -11    1    3    3    0    0  0.73023739127E+01 -0.27861141445E+02  0.56041250036E+01  0.29342359903E+02  0.51100000000E-03 0.  1.
        -12    1    3    3    0    0  0.13067583133E+00 -0.35549769678E+01  0.37905356997E+01  0.51983745830E+01  0.00000000000E+00 0.  1.
</event>
<event>
 7    1  0.5646756E-010  0.4778728E+02  0.7816164E-02  0.1312668E+00
        -11   -1    0    0    0    0  0.00000000000E+00  0.00000000000E+00  0.45593999997E+02  0.45594000000E+02  0.51100000000E-03 0. -1.
         11   -1    0    0    0    0 -0.00000000000E+00 -0.00000000000E+00 -0.45593999997E+02  0.45594000000E+02  0.51100000000E-03 0.  1.
    9900012    2    1    2    0    0  0.32465631840E+02  0.27238689120E+02  0.93626463842E+01  0.47787279003E+02  0.20000036287E+02 0.  0.
         12    1    1    2    0    0 -0.32465631840E+02 -0.27238689120E+02 -0.93626463842E+01  0.43400720997E+02  0.00000000000E+00 0. -1.
         11    1    3    3    0    0  0.30438737087E+02  0.22904673740E+02  0.52413459653E+01  0.38452730754E+02  0.51100000000E-03 0. -1.
        -11    1    3    3    0    0  0.18335215574E+01  0.39813906142E+01 -0.74972455484E+00  0.44469494818E+01  0.51100000000E-03 0.  1.
         12    1    3    3    0    0  0.19337319490E+00  0.35262476542E+00  0.48710249737E+01  0.48875987675E+01  0.00000000000E+00 0. -1.
</event>
<event>
 7    1  0.5646756E-010  0.4778727E+02  0.7816164E-02  0.1312668E+00
        -11   -1    0    0    0    0  0.00000000000E+00  0.00000000000E+00  0.45593999997E+02  0.45594000000E+02  0.51100000000E-03 0.  1.
         11   -1    0    0    0    0 -0.00000000000E+00 -0.00000000000E+00 -0.45593999997E+02  0.45594000000E+02  0.51100000000E-03 0. -1.
    9900012    2    1    2    0    0 -0.26910484960E+02 -0.33515078142E+02  0.60156998762E+01  0.47787270644E+02  0.19999998173E+02 0.  0.
         12    1    1    2    0    0  0.26910484960E+02  0.33515078142E+02 -0.60156998762E+01  0.43400729356E+02  0.00000000000E+00 0. -1.
         11    1    3    3    0    0  0.81602672967E+00 -0.29624207145E+01 -0.12291809305E+01  0.33094897091E+01  0.51100000000E-03 0. -1.
        -11    1    3    3    0    0 -0.56950628872E+01  0.46068153252E+00  0.21087719800E+01  0.60903931144E+01  0.51100000000E-03 0.  1.
        -12    1    3    3    0    0 -0.22031448803E+02 -0.31013338960E+02  0.51361088268E+01  0.38387387820E+02  0.00000000000E+00 0.  1.
</event>
<event>
 7    1  0.5646756E-010  0.4778722E+02  0.7816164E-02  0.1312668E+00
        -11   -1    0    0    0    0  0.00000000000E+00  0.00000000000E+00  0.45593999997E+02  0.45594000000E+02  0.51100000000E-03 0. -1.
         11   -1    0    0    0    0 -0.00000000000E+00 -0.00000000000E+00 -0.45593999997E+02  0.45594000000E+02  0.51100000000E-03 0.  1.
    9900012    2    1    2    0    0  0.19597180835E+02 -0.35655157504E+02  0.15109206771E+02  0.47787217950E+02  0.19999757918E+02 0.  0.
         12    1    1    2    0    0 -0.19597180835E+02  0.35655157504E+02 -0.15109206771E+02  0.43400782050E+02  0.00000000000E+00 0. -1.
         11    1    3    3    0    0 -0.12075870188E+01 -0.10256726717E+02  0.81420343896E+01  0.13151100092E+02  0.51100000000E-03 0. -1.
        -11    1    3    3    0    0  0.39873327475E+01 -0.79695543841E+01 -0.13816938458E+01  0.90178543825E+01  0.51100000000E-03 0.  1.
         12    1    3    3    0    0  0.16817435106E+02 -0.17428876403E+02  0.83488662277E+01  0.25618263476E+02  0.00000000000E+00 0. -1.
</event>
<event>
 7    1  0.5646756E-010  0.4778727E+02  0.7816164E-02  0.1312668E+00
        -11   -1    0    0    0    0  0.00000000000E+00  0.00000000000E+00  0.45593999997E+02  0.45594000000E+02  0.51100000000E-03 0.  1.
         11   -1    0    0    0    0 -0.00000000000E+00 -0.00000000000E+00 -0.45593999997E+02  0.45594000000E+02  0.51100000000E-03 0. -1.
    9900012    2    1    2    0    0  0.31559485935E+02  0.22549136275E+02  0.19471991587E+02  0.47787272407E+02  0.20000006213E+02 0.  0.
         12    1    1    2    0    0 -0.31559485935E+02 -0.22549136275E+02 -0.19471991587E+02  0.43400727593E+02  0.00000000000E+00 0. -1.
         11    1    3    3    0    0 -0.24468002717E+01  0.10324619842E+01  0.33019256693E+01  0.42373957457E+01  0.51100000000E-03 0.  1.
        -11    1    3    3    0    0  0.17648968971E+02  0.89776473502E+01  0.71564032857E+01  0.21054651883E+02  0.51100000000E-03 0. -1.
        -12    1    3    3    0    0  0.16357317236E+02  0.12539026941E+02  0.90136626322E+01  0.22495224778E+02  0.00000000000E+00 0.  1.
</event>
<event>
 7    1  0.5646756E-010  0.4778727E+02  0.7816164E-02  0.1312668E+00
        -11   -1    0    0    0    0  0.00000000000E+00  0.00000000000E+00  0.45593999997E+02  0.45594000000E+02  0.51100000000E-03 0. -1.
         11   -1    0    0    0    0 -0.00000000000E+00 -0.00000000000E+00 -0.45593999997E+02  0.45594000000E+02  0.51100000000E-03 0.  1.
    9900012    2    1    2    0    0 -0.40015486247E+02 -0.72273359152E+01  0.15170681330E+02  0.47787273093E+02  0.20000009341E+02 0.  0.
         12    1    1    2    0    0  0.40015486247E+02  0.72273359152E+01 -0.15170681330E+02  0.43400726907E+02  0.00000000000E+00 0. -1.
         11    1    3    3    0    0 -0.17935574402E+02 -0.64705245389E+01  0.14740404695E+02  0.24100457418E+02  0.51100000000E-03 0. -1.
        -11    1    3    3    0    0 -0.21389664024E+02 -0.21083013736E+01  0.18962828424E+01  0.21576805849E+02  0.51100000000E-03 0.  1.
         12    1    3    3    0    0 -0.69024782049E+00  0.13514899973E+01 -0.14660062074E+01  0.21100098262E+01  0.00000000000E+00 0. -1.
</event>
<event>
 7    1  0.5646756E-010  0.4778727E+02  0.7816164E-02  0.1312668E+00
        -11   -1    0    0    0    0  0.00000000000E+00  0.00000000000E+00  0.45593999997E+02  0.45594000000E+02  0.51100000000E-03 0.  1.
         11   -1    0    0    0    0 -0.00000000000E+00 -0.00000000000E+00 -0.45593999997E+02  0.45594000000E+02  0.51100000000E-03 0. -1.
    9900012    2    1    2    0    0  0.15358716340E+02 -0.30145263803E+02  0.27184488598E+02  0.47787268236E+02  0.19999987194E+02 0.  0.
         12    1    1    2    0    0 -0.15358716340E+02  0.30145263803E+02 -0.27184488598E+02  0.43400731764E+02  0.00000000000E+00 0. -1.
         11    1    3    3    0    0  0.14327057845E+02 -0.29268543618E+02  0.21606227775E+02  0.39099121613E+02  0.51100000000E-03 0. -1.
        -11    1    3    3    0    0  0.12464559143E+01 -0.26263656824E+01  0.73543328528E-01  0.29080677307E+01  0.51100000000E-03 0.  1.
         12    1    3    3    0    0 -0.21479741928E+00  0.17496454977E+01  0.55047174944E+01  0.57800788915E+01  0.00000000000E+00 0. -1.
</event>
<event>
 7    1  0.5646756E-010  0.4778727E+02  0.7816164E-02  0.1312668E+00
        -11   -1    0    0    0    0  0.00000000000E+00  0.00000000000E+00  0.45593999997E+02  0.45594000000E+02  0.51100000000E-03 0.  1.
         11   -1    0    0    0    0 -0.00000000000E+00 -0.00000000000E+00 -0.45593999997E+02  0.45594000000E+02  0.51100000000E-03 0. -1.
    9900012    2    1    2    0    0  0.23440366886E+01  0.24875669782E+01  0.43265927792E+02  0.47787274140E+02  0.20000014115E+02 0.  0.
         12    1    1    2    0    0 -0.23440366886E+01 -0.24875669782E+01 -0.43265927792E+02  0.43400725860E+02  0.00000000000E+00 0. -1.
         11    1    3    3    0    0 -0.13113674878E+01  0.26980257065E+01  0.87744061132E+01  0.92730378141E+01  0.51100000000E-03 0. -1.
        -11    1    3    3    0    0  0.68390449749E+01  0.39864393055E+01  0.71410520803E+01  0.10661090919E+02  0.51100000000E-03 0.  1.
        -12    1    3    3    0    0 -0.31836407985E+01 -0.41968980338E+01  0.27350469598E+02  0.27853145407E+02  0.00000000000E+00 0.  1.
</event>
<event>
 7    1  0.5646756E-010  0.4778727E+02  0.7816164E-02  0.1312668E+00
        -11   -1    0    0    0    0  0.00000000000E+00  0.00000000000E+00  0.45593999997E+02  0.45594000000E+02  0.51100000000E-03 0.  1.
         11   -1    0    0    0    0 -0.00000000000E+00 -0.00000000000E+00 -0.45593999997E+02  0.45594000000E+02  0.51100000000E-03 0. -1.
    9900012    2    1    2    0    0 -0.17508791929E+02  0.58555506403E+01  0.39278215113E+02  0.47787269009E+02  0.19999990720E+02 0.  0.
         12    1    1    2    0    0  0.17508791929E+02 -0.58555506403E+01 -0.39278215113E+02  0.43400730991E+02  0.00000000000E+00 0. -1.
         11    1    3    3    0    0 -0.10705059300E+02 -0.55404993071E+01  0.12701034839E+02  0.17510331620E+02  0.51100000000E-03 0. -1.
        -11    1    3    3    0    0 -0.39580725434E+01  0.70871607878E+01  0.98121966587E+01  0.12734731635E+02  0.51100000000E-03 0.  1.
         12    1    3    3    0    0 -0.28456600857E+01  0.43088891597E+01  0.16764983615E+02  0.17542205754E+02  0.00000000000E+00 0. -1.
</event>
<event>
 7    1  0.5646756E-010  0.4778727E+02  0.7816164E-02  0.1312668E+00
        -11   -1    0    0    0    0  0.00000000000E+00  0.00000000000E+00  0.45593999997E+02  0.45594000000E+02  0.51100000000E-03 0.  1.
         11   -1    0    0    0    0 -0.00000000000E+00 -0.00000000000E+00 -0.45593999997E+02  0.45594000000E+02  0.51100000000E-03 0. -1.
    9900012    2    1    2    0    0 -0.26713596483E+01 -0.27826219785E+02 -0.33199225940E+02  0.47787271055E+02  0.20000000050E+02 0.  0.
         12    1    1    2    0    0  0.26713596483E+01  0.27826219785E+02  0.33199225940E+02  0.43400728945E+02  0.00000000000E+00 0. -1.
         11    1    3    3    0    0  0.37806744236E+01  0.12267048298E+01 -0.65021786748E+01  0.76208025573E+01  0.51100000000E-03 0. -1.
        -11    1    3    3    0    0 -0.50326775577E+01 -0.18430598407E+02 -0.14900724231E+02  0.24229040094E+02  0.51100000000E-03 0.  1.
         12    1    3    3    0    0 -0.14193565142E+01 -0.10622326208E+02 -0.11796323034E+02  0.15937428404E+02  0.00000000000E+00 0. -1.
</event>
<event>
 7    1  0.5646756E-010  0.4778727E+02  0.7816164E-02  0.1312668E+00
        -11   -1    0    0    0    0  0.00000000000E+00  0.00000000000E+00  0.45593999997E+02  0.45594000000E+02  0.51100000000E-03 0.  1.
         11   -1    0    0    0    0 -0.00000000000E+00 -0.00000000000E+00 -0.45593999997E+02  0.45594000000E+02  0.51100000000E-03 0. -1.
    9900012    2    1    2    0    0 -0.21553869639E+02 -0.29622550570E+02  0.23271411601E+02  0.47787269630E+02  0.19999993552E+02 0.  0.
         12    1    1    2    0    0  0.21553869639E+02  0.29622550570E+02 -0.23271411601E+02  0.43400730370E+02  0.00000000000E+00 0. -1.
         11    1    3    3    0    0  0.16615064949E+01 -0.58267977006E+01  0.35770140797E+01  0.70361356769E+01  0.51100000000E-03 0. -1.
        -11    1    3    3    0    0 -0.18337919971E+02 -0.96703386722E+01  0.11582444568E+02  0.23747584747E+02  0.51100000000E-03 0.  1.
        -12    1    3    3    0    0 -0.48774561629E+01 -0.14125414198E+02  0.81119529537E+01  0.17003549206E+02  0.00000000000E+00 0.  1.
</event>
<event>
 7    1  0.5646756E-010  0.4778726E+02  0.7816164E-02  0.1312668E+00
        -11   -1    0    0    0    0  0.00000000000E+00  0.00000000000E+00  0.45593999997E+02  0.45594000000E+02  0.51100000000E-03 0. -1.
         11   -1    0    0    0    0 -0.00000000000E+00 -0.00000000000E+00 -0.45593999997E+02  0.45594000000E+02  0.51100000000E-03 0.  1.
    9900012    2    1    2    0    0  0.38838625960E+02  0.10598865279E+02 -0.16212627670E+02  0.47787261439E+02  0.19999956207E+02 0.  0.
         12    1    1    2    0    0 -0.38838625960E+02 -0.10598865279E+02  0.16212627670E+02  0.43400738561E+02  0.00000000000E+00 0. -1.
         11    1    3    3    0    0  0.12954311448E+02  0.86122407462E+01 -0.92103292919E+01  0.18078026488E+02  0.51100000000E-03 0. -1.
        -11    1    3    3    0    0  0.87210343697E+01 -0.44913973800E+01  0.65208893659E+00  0.98312924453E+01  0.51100000000E-03 0.  1.
        -12    1    3    3    0    0  0.17163280141E+02  0.64780219126E+01 -0.76543873147E+01  0.19877942506E+02  0.00000000000E+00 0.  1.
</event>
<event>
 7    1  0.5646756E-010  0.4778727E+02  0.7816164E-02  0.1312668E+00
        -11   -1    0    0    0    0  0.00000000000E+00  0.00000000000E+00  0.45593999997E+02  0.45594000000E+02  0.51100000000E-03 0.  1.
         11   -1    0    0    0    0 -0.00000000000E+00 -0.00000000000E+00 -0.45593999997E+02  0.45594000000E+02  0.51100000000E-03 0. -1.
    9900012    2    1    2    0    0  0.93105926312E+01 -0.28598269313E+02  0.31290178733E+02  0.47787269269E+02  0.19999991905E+02 0.  0.
         12    1    1    2    0    0 -0.93105926312E+01  0.28598269313E+02 -0.31290178733E+02  0.43400730731E+02  0.00000000000E+00 0. -1.
         11    1    3    3    0    0 -0.14115410785E+01 -0.22040369628E+01 -0.61731570608E+00  0.26891087914E+01  0.51100000000E-03 0. -1.
        -11    1    3    3    0    0  0.66420660469E+01 -0.22846029128E+02  0.31767573798E+02  0.39689253377E+02  0.51100000000E-03 0.  1.
        -12    1    3    3    0    0  0.40800676628E+01 -0.35482032225E+01  0.13992064041E+00  0.54089071009E+01  0.00000000000E+00 0.  1.
</event>
<event>
 7    1  0.5646756E-010  0.4778727E+02  0.7816164E-02  0.1312668E+00
        -11   -1    0    0    0    0  0.00000000000E+00  0.00000000000E+00  0.45593999997E+02  0.45594000000E+02  0.51100000000E-03 0.  1.
         11   -1    0    0    0    0 -0.00000000000E+00 -0.00000000000E+00 -0.45593999997E+02  0.45594000000E+02  0.51100000000E-03 0. -1.
    9900012    2    1    2    0    0 -0.32466497247E+01  0.41313601216E+02  0.12894526995E+02  0.47787271823E+02  0.20000003551E+02 0.  0.
         12    1    1    2    0    0  0.32466497247E+01 -0.41313601216E+02 -0.12894526995E+02  0.43400728177E+02  0.00000000000E+00 0. -1.
         11    1    3    3    0    0  0.27755872303E+00  0.20539480535E+02  0.56151040212E+01  0.21294992203E+02  0.51100000000E-03 0.  1.
        -11    1    3    3    0    0  0.22376604546E+01  0.57957523864E+01  0.83505968734E+01  0.10408186126E+02  0.51100000000E-03 0. -1.
        -12    1    3    3    0    0 -0.57618689023E+01  0.14978368295E+02 -0.10711738999E+01  0.16084093495E+02  0.00000000000E+00 0.  1.
</event>
<event>
 7    1  0.5646756E-010  0.4778727E+02  0.7816164E-02  0.1312668E+00
        -11   -1    0    0    0    0  0.00000000000E+00  0.00000000000E+00  0.45593999997E+02  0.45594000000E+02  0.51100000000E-03 0. -1.
         11   -1    0    0    0    0 -0.00000000000E+00 -0.00000000000E+00 -0.45593999997E+02  0.45594000000E+02  0.51100000000E-03 0.  1.
    9900012    2    1    2    0    0  0.51790950083E+01  0.42683075033E+02 -0.59123272623E+01  0.47787268059E+02  0.19999986389E+02 0.  0.
         12    1    1    2    0    0 -0.51790950083E+01 -0.42683075033E+02  0.59123272623E+01  0.43400731941E+02  0.00000000000E+00 0. -1.
         11    1    3    3    0    0  0.98859313087E+01  0.23550986248E+02  0.16288358064E+01  0.25593626110E+02  0.51100000000E-03 0. -1.
        -11    1    3    3    0    0 -0.45390358407E+01  0.17621198479E+02 -0.88067979613E+01  0.20215567585E+02  0.51100000000E-03 0.  1.
        -12    1    3    3    0    0 -0.16780045969E+00  0.15108903054E+01  0.12656348926E+01  0.19780743642E+01  0.00000000000E+00 0.  1.
</event>
<event>
 7    1  0.5646756E-010  0.4778727E+02  0.7816164E-02  0.1312668E+00
        -11   -1    0    0    0    0  0.00000000000E+00  0.00000000000E+00  0.45593999997E+02  0.45594000000E+02  0.51100000000E-03 0. -1.
         11   -1    0    0    0    0 -0.00000000000E+00 -0.00000000000E+00 -0.45593999997E+02  0.45594000000E+02  0.51100000000E-03 0.  1.
    9900012    2    1    2    0    0  0.11268077788E+02 -0.12931674737E+02 -0.39867599584E+02  0.47787270915E+02  0.19999999411E+02 0.  0.
         12    1    1    2    0    0 -0.11268077788E+02  0.12931674737E+02  0.39867599584E+02  0.43400729085E+02  0.00000000000E+00 0. -1.
         11    1    3    3    0    0 -0.12307790046E+01  0.44350746244E+00 -0.21112346352E+01  0.24837124982E+01  0.51100000000E-03 0. -1.
        -11    1    3    3    0    0  0.58420725542E+01  0.58057674635E+00 -0.17633802794E+01  0.61299585119E+01  0.51100000000E-03 0.  1.
        -12    1    3    3    0    0  0.66567842385E+01 -0.13955758946E+02 -0.35992984669E+02  0.39173599905E+02  0.00000000000E+00 0.  1.
</event>
<event>
 7    1  0.5646756E-010  0.4778727E+02  0.7816164E-02  0.1312668E+00
        -11   -1    0    0    0    0  0.00000000000E+00  0.00000000000E+00  0.45593999997E+02  0.45594000000E+02  0.51100000000E-03 0.  1.
         11   -1    0    0    0    0 -0.00000000000E+00 -0.00000000000E+00 -0.45593999997E+02  0.45594000000E+02  0.51100000000E-03 0. -1.
    9900012    2    1    2    0    0 -0.36091268753E+02  0.17747042115E+02 -0.16312142632E+02  0.47787272111E+02  0.20000004865E+02 0.  0.
         12    1    1    2    0    0  0.36091268753E+02 -0.17747042115E+02  0.16312142632E+02  0.43400727889E+02  0.00000000000E+00 0. -1.
         11    1    3    3    0    0 -0.44668071928E+01  0.10065603775E+02 -0.23607725742E+01  0.11262415072E+02  0.51100000000E-03 0. -1.
        -11    1    3    3    0    0 -0.23376531755E+02  0.48099168874E+01 -0.57609988963E+01  0.24551713706E+02  0.51100000000E-03 0.  1.
         12    1    3    3    0    0 -0.82479298053E+01  0.28715214529E+01 -0.81903711615E+01  0.11973143334E+02  0.00000000000E+00 0. -1.
</event>
<event>
 7    1  0.5646756E-010  0.4778727E+02  0.7816164E-02  0.1312668E+00
        -11   -1    0    0    0    0  0.00000000000E+00  0.00000000000E+00  0.45593999997E+02  0.45594000000E+02  0.51100000000E-03 0.  1.
         11   -1    0    0    0    0 -0.00000000000E+00 -0.00000000000E+00 -0.45593999997E+02  0.45594000000E+02  0.51100000000E-03 0. -1.
    9900012    2    1    2    0    0 -0.50680942092E+01 -0.36172638784E+02  0.23440947224E+02  0.47787269795E+02  0.19999994305E+02 0.  0.
         12    1    1    2    0    0  0.50680942092E+01  0.36172638784E+02 -0.23440947224E+02  0.43400730205E+02  0.00000000000E+00 0. -1.
         11    1    3    3    0    0  0.93252349397E+00  0.37490319674E+00  0.64520781647E+01  0.65298901505E+01  0.51100000000E-03 0. -1.
        -11    1    3    3    0    0 -0.47600835746E+01 -0.16669134224E+02  0.51362935440E+01  0.18080374528E+02  0.51100000000E-03 0.  1.
         12    1    3    3    0    0 -0.12405341286E+01 -0.19878407756E+02  0.11852575516E+02  0.23177005117E+02  0.00000000000E+00 0. -1.
</event>
<event>
 7    1  0.5646756E-010  0.4778727E+02  0.7816164E-02  0.1312668E+00
        -11   -1    0    0    0    0  0.00000000000E+00  0.00000000000E+00  0.45593999997E+02  0.45594000000E+02  0.51100000000E-03 0. -1.
         11   -1    0    0    0    0 -0.00000000000E+00 -0.00000000000E+00 -0.45593999997E+02  0.45594000000E+02  0.51100000000E-03 0.  1.
    9900012    2    1    2    0    0 -0.40887815285E+02  0.15207794403E+00 -0.14552895352E+02  0.47787270402E+02  0.19999997071E+02 0.  0.
         12    1    1    2    0    0  0.40887815285E+02 -0.15207794403E+00  0.14552895352E+02  0.43400729598E+02  0.00000000000E+00 0. -1.
         11    1    3    3    0    0 -0.65287839264E+01 -0.54864629611E+01 -0.48846841777E+01  0.98278398012E+01  0.51100000000E-03 0. -1.
        -11    1    3    3    0    0 -0.28533161207E+02  0.57950850170E+01 -0.12246757134E+02  0.31586505969E+02  0.51100000000E-03 0.  1.
        -12    1    3    3    0    0 -0.58258701524E+01 -0.15654411182E+00  0.25785459596E+01  0.63729246314E+01  0.00000000000E+00 0.  1.
</event>
<event>
 7    1  0.5646756E-010  0.4778727E+02  0.7816164E-02  0.1312668E+00
        -11   -1    0    0    0    0  0.00000000000E+00  0.00000000000E+00  0.45593999997E+02  0.45594000000E+02  0.51100000000E-03 0. -1.
         11   -1    0    0    0    0 -0.00000000000E+00 -0.00000000000E+00 -0.45593999997E+02  0.45594000000E+02  0.51100000000E-03 0.  1.
    9900012    2    1    2    0    0 -0.29703136967E+02 -0.24975194106E+02 -0.19431595119E+02  0.47787267804E+02  0.19999985223E+02 0.  0.
         12    1    1    2    0    0  0.29703136967E+02  0.24975194106E+02  0.19431595119E+02  0.43400732196E+02  0.00000000000E+00 0. -1.
         11    1    3    3    0    0 -0.27908257427E+01  0.32358631184E+00  0.13630924128E+01  0.31227291932E+01  0.51100000000E-03 0. -1.
        -11    1    3    3    0    0 -0.47046818702E+01 -0.93623021305E+01 -0.12044176754E+02  0.15963988431E+02  0.51100000000E-03 0.  1.
        -12    1    3    3    0    0 -0.22207629354E+02 -0.15936478287E+02 -0.87505107785E+01  0.28700550180E+02  0.00000000000E+00 0.  1.
</event>
<event>
 7    1  0.5646756E-010  0.4778727E+02  0.7816164E-02  0.1312668E+00
        -11   -1    0    0    0    0  0.00000000000E+00  0.00000000000E+00  0.45593999997E+02  0.45594000000E+02  0.51100000000E-03 0. -1.
         11   -1    0    0    0    0 -0.00000000000E+00 -0.00000000000E+00 -0.45593999997E+02  0.45594000000E+02  0.51100000000E-03 0.  1.
    9900012    2    1    2    0    0  0.23943496755E+01  0.38739939718E+02 -0.19419266908E+02  0.47787265363E+02  0.19999974097E+02 0.  0.
         12    1    1    2    0    0 -0.23943496755E+01 -0.38739939718E+02  0.19419266908E+02  0.43400734637E+02  0.00000000000E+00 0. -1.
         11    1    3    3    0    0  0.78782054563E+01  0.20995297077E+02 -0.12547225653E+02  0.25696332275E+02  0.51100000000E-03 0. -1.
        -11    1    3    3    0    0 -0.69078017061E+01  0.91343513457E+01 -0.84213117226E+00  0.11483173955E+02  0.51100000000E-03 0.  1.
        -12    1    3    3    0    0  0.14239459254E+01  0.86102912959E+01 -0.60299100834E+01  0.10607759132E+02  0.00000000000E+00 0.  1.
</event>
<event>
 7    1  0.5646756E-010  0.4778727E+02  0.7816164E-02  0.1312668E+00
        -11   -1    0    0    0    0  0.00000000000E+00  0.00000000000E+00  0.45593999997E+02  0.45594000000E+02  0.51100000000E-03 0. -1.
         11   -1    0    0    0    0 -0.00000000000E+00 -0.00000000000E+00 -0.45593999997E+02  0.45594000000E+02  0.51100000000E-03 0.  1.
    9900012    2    1    2    0    0 -0.37484900243E+02 -0.18439986964E+02 -0.11767445145E+02  0.47787266933E+02  0.19999981256E+02 0.  0.
         12    1    1    2    0    0  0.37484900243E+02  0.18439986964E+02  0.11767445145E+02  0.43400733067E+02  0.00000000000E+00 0. -1.
         11    1    3    3    0    0 -0.29160284275E+01 -0.59442132342E+01  0.30484119279E+01  0.72890128486E+01  0.51100000000E-03 0. -1.
        -11    1    3    3    0    0 -0.29541343733E+02 -0.72563190275E+01 -0.12325356066E+02  0.32821632467E+02  0.51100000000E-03 0.  1.
        -12    1    3    3    0    0 -0.50275280830E+01 -0.52394547024E+01 -0.24905010065E+01  0.76766216181E+01  0.00000000000E+00 0.  1.
</event>
<event>
 7    1  0.5646756E-010  0.4778727E+02  0.7816164E-02  0.1312668E+00
        -11   -1    0    0    0    0  0.00000000000E+00  0.00000000000E+00  0.45593999997E+02  0.45594000000E+02  0.51100000000E-03 0. -1.
         11   -1    0    0    0    0 -0.00000000000E+00 -0.00000000000E+00 -0.45593999997E+02  0.45594000000E+02  0.51100000000E-03 0.  1.
    9900012    2    1    2    0    0  0.30355599114E+02 -0.88508174108E+01 -0.29729174474E+02  0.47787272111E+02  0.20000004861E+02 0.  0.
         12    1    1    2    0    0 -0.30355599114E+02  0.88508174108E+01  0.29729174474E+02  0.43400727889E+02  0.00000000000E+00 0. -1.
         11    1    3    3    0    0  0.67515342934E+01  0.59951491117E+01 -0.61284505512E+01  0.10912512754E+02  0.51100000000E-03 0. -1.
        -11    1    3    3    0    0  0.15672897661E+02 -0.76617489247E+01 -0.16640805033E+02  0.24109303393E+02  0.51100000000E-03 0.  1.
         12    1    3    3    0    0  0.79311671595E+01 -0.71842175977E+01 -0.69599188896E+01  0.12765455963E+02  0.00000000000E+00 0. -1.
</event>
<event>
 7    1  0.5646756E-010  0.4778727E+02  0.7816164E-02  0.1312668E+00
        -11   -1    0    0    0    0  0.00000000000E+00  0.00000000000E+00  0.45593999997E+02  0.45594000000E+02  0.51100000000E-03 0.  1.
         11   -1    0    0    0    0 -0.00000000000E+00 -0.00000000000E+00 -0.45593999997E+02  0.45594000000E+02  0.51100000000E-03 0. -1.
    9900012    2    1    2    0    0 -0.35499951494E+02 -0.20161769296E+02  0.14726844559E+02  0.47787269040E+02  0.19999990860E+02 0.  0.
         12    1    1    2    0    0  0.35499951494E+02  0.20161769296E+02 -0.14726844559E+02  0.43400730960E+02  0.00000000000E+00 0. -1.
         11    1    3    3    0    0 -0.21006741312E+02 -0.30802091581E+01  0.13132793078E+02  0.24964797682E+02  0.51100000000E-03 0. -1.
        -11    1    3    3    0    0 -0.14296589433E+02 -0.15179596238E+02  0.15533538341E+01  0.20909938301E+02  0.51100000000E-03 0.  1.
         12    1    3    3    0    0 -0.19662074882E+00 -0.19019638998E+01  0.40697647275E-01  0.19125330568E+01  0.00000000000E+00 0. -1.
</event>
<event>
 7    1  0.5646756E-010  0.4778727E+02  0.7816164E-02  0.1312668E+00
        -11   -1    0    0    0    0  0.00000000000E+00  0.00000000000E+00  0.45593999997E+02  0.45594000000E+02  0.51100000000E-03 0.  1.
         11   -1    0    0    0    0 -0.00000000000E+00 -0.00000000000E+00 -0.45593999997E+02  0.45594000000E+02  0.51100000000E-03 0. -1.
    9900012    2    1    2    0    0  0.30047147033E+02  0.73099488354E+01  0.30452535156E+02  0.47787270810E+02  0.19999998930E+02 0.  0.
         12    1    1    2    0    0 -0.30047147033E+02 -0.73099488354E+01 -0.30452535156E+02  0.43400729190E+02  0.00000000000E+00 0. -1.
         11    1    3    3    0    0  0.51997815332E+01  0.61000939623E+01  0.16466569364E+02  0.18313841247E+02  0.51100000000E-03 0. -1.
        -11    1    3    3    0    0  0.19489048826E+02  0.27030393741E+01  0.13557954441E+02  0.23894509304E+02  0.51100000000E-03 0.  1.
         12    1    3    3    0    0  0.53583166740E+01 -0.14931845010E+01  0.42801135085E+00  0.55789202583E+01  0.00000000000E+00 0. -1.
</event>
<event>
 7    1  0.5646756E-010  0.4778726E+02  0.7816164E-02  0.1312668E+00
        -11   -1    0    0    0    0  0.00000000000E+00  0.00000000000E+00  0.45593999997E+02  0.45594000000E+02  0.51100000000E-03 0.  1.
         11   -1    0    0    0    0 -0.00000000000E+00 -0.00000000000E+00 -0.45593999997E+02  0.45594000000E+02  0.51100000000E-03 0. -1.
    9900012    2    1    2    0    0 -0.32490003652E+01 -0.13713618800E+02  0.41048807587E+02  0.47787263275E+02  0.19999964576E+02 0.  0.
         12    1    1    2    0    0  0.32490003652E+01  0.13713618800E+02 -0.41048807587E+02  0.43400736725E+02  0.00000000000E+00 0. -1.
         11    1    3    3    0    0  0.38965265717E+00 -0.11030658553E+01 -0.12728512105E+01  0.17287955170E+01  0.51100000000E-03 0. -1.
        -11    1    3    3    0    0 -0.81339168825E+01 -0.80497009995E+01  0.31093360860E+02  0.33132391702E+02  0.51100000000E-03 0.  1.
        -12    1    3    3    0    0  0.44952638602E+01 -0.45608519454E+01  0.11228297937E+02  0.12926076056E+02  0.00000000000E+00 0.  1.
</event>
<event>
 7    1  0.5646756E-010  0.4778727E+02  0.7816164E-02  0.1312668E+00
        -11   -1    0    0    0    0  0.00000000000E+00  0.00000000000E+00  0.45593999997E+02  0.45594000000E+02  0.51100000000E-03 0.  1.
         11   -1    0    0    0    0 -0.00000000000E+00 -0.00000000000E+00 -0.45593999997E+02  0.45594000000E+02  0.51100000000E-03 0. -1.
    9900012    2    1    2    0    0  0.20908899622E+01  0.23667486627E+02  0.36319434483E+02  0.47787273448E+02  0.20000010957E+02 0.  0.
         12    1    1    2    0    0 -0.20908899622E+01 -0.23667486627E+02 -0.36319434483E+02  0.43400726552E+02  0.00000000000E+00 0. -1.
         11    1    3    3    0    0 -0.15863068204E+01  0.12504890478E+01  0.39035042367E+01  0.43951607223E+01  0.51100000000E-03 0. -1.
        -11    1    3    3    0    0 -0.59398312710E+01  0.51420655123E+01  0.15476797649E+02  0.17356661516E+02  0.51100000000E-03 0.  1.
        -12    1    3    3    0    0  0.96170280536E+01  0.17274932067E+02  0.16939132598E+02  0.26035451209E+02  0.00000000000E+00 0.  1.
</event>
<event>
 7    1  0.5646756E-010  0.4778727E+02  0.7816164E-02  0.1312668E+00
        -11   -1    0    0    0    0  0.00000000000E+00  0.00000000000E+00  0.45593999997E+02  0.45594000000E+02  0.51100000000E-03 0.  1.
         11   -1    0    0    0    0 -0.00000000000E+00 -0.00000000000E+00 -0.45593999997E+02  0.45594000000E+02  0.51100000000E-03 0. -1.
    9900012    2    1    2    0    0 -0.10764469345E+02  0.15127316961E+02  0.39228993456E+02  0.47787269058E+02  0.19999990943E+02 0.  0.
         12    1    1    2    0    0  0.10764469345E+02 -0.15127316961E+02 -0.39228993456E+02  0.43400730942E+02  0.00000000000E+00 0. -1.
         11    1    3    3    0    0 -0.12318310101E+02  0.56193966871E+01  0.22007714542E+02  0.25839076657E+02  0.51100000000E-03 0. -1.
        -11    1    3    3    0    0  0.47734822107E+01  0.16157558656E+01  0.72639405036E+01  0.88409067031E+01  0.51100000000E-03 0.  1.
        -12    1    3    3    0    0 -0.32196414550E+01  0.78921644081E+01  0.99573384111E+01  0.13107285698E+02  0.00000000000E+00 0.  1.
</event>
<event>
 7    1  0.5646756E-010  0.4778727E+02  0.7816164E-02  0.1312668E+00
        -11   -1    0    0    0    0  0.00000000000E+00  0.00000000000E+00  0.45593999997E+02  0.45594000000E+02  0.51100000000E-03 0. -1.
         11   -1    0    0    0    0 -0.00000000000E+00 -0.00000000000E+00 -0.45593999997E+02  0.45594000000E+02  0.51100000000E-03 0.  1.
    9900012    2    1    2    0    0  0.16326989394E+02  0.34529369650E+02 -0.20610078545E+02  0.47787270873E+02  0.19999999220E+02 0.  0.
         12    1    1    2    0    0 -0.16326989394E+02 -0.34529369650E+02  0.20610078545E+02  0.43400729127E+02  0.00000000000E+00 0. -1.
         11    1    3    3    0    0  0.67633447610E+01  0.15535077179E+02 -0.93746967344E+00  0.16969393182E+02  0.51100000000E-03 0. -1.
        -11    1    3    3    0    0  0.21321869259E+01  0.11458429783E+02 -0.48953943520E+01  0.12641468281E+02  0.51100000000E-03 0.  1.
         12    1    3    3    0    0  0.74314577074E+01  0.75358626881E+01 -0.14777214519E+02  0.18176409411E+02  0.00000000000E+00 0. -1.
</event>
<event>
 7    1  0.5646756E-010  0.4778725E+02  0.7816164E-02  0.1312668E+00
        -11   -1    0    0    0    0  0.00000000000E+00  0.00000000000E+00  0.45593999997E+02  0.45594000000E+02  0.51100000000E-03 0.  1.
         11   -1    0    0    0    0 -0.00000000000E+00 -0.00000000000E+00 -0.45593999997E+02  0.45594000000E+02  0.51100000000E-03 0. -1.
    9900012    2    1    2    0    0 -0.34299820595E+02  0.54242584226E+01  0.26033147948E+02  0.47787250417E+02  0.19999905952E+02 0.  0.
         12    1    1    2    0    0  0.34299820595E+02 -0.54242584226E+01 -0.26033147948E+02  0.43400749583E+02  0.00000000000E+00 0. -1.
         11    1    3    3    0    0 -0.13496755002E+01  0.44915359722E+01  0.76616610458E+00  0.47521079645E+01  0.51100000000E-03 0. -1.
        -11    1    3    3    0    0 -0.14840122915E+02 -0.39296973454E+01  0.70543899821E+01  0.16894856840E+02  0.51100000000E-03 0.  1.
        -12    1    3    3    0    0 -0.18110022179E+02  0.48624197958E+01  0.18212591861E+02  0.26140285613E+02  0.00000000000E+00 0.  1.
</event>
<event>
 7    1  0.5646756E-010  0.4778726E+02  0.7816164E-02  0.1312668E+00
        -11   -1    0    0    0    0  0.00000000000E+00  0.00000000000E+00  0.45593999997E+02  0.45594000000E+02  0.51100000000E-03 0.  1.
         11   -1    0    0    0    0 -0.00000000000E+00 -0.00000000000E+00 -0.45593999997E+02  0.45594000000E+02  0.51100000000E-03 0. -1.
    9900012    2    1    2    0    0  0.55410138910E+01  0.69354513731E+01  0.42483185508E+02  0.47787258398E+02  0.19999942340E+02 0.  0.
         12    1    1    2    0    0 -0.55410138910E+01 -0.69354513731E+01 -0.42483185508E+02  0.43400741602E+02  0.00000000000E+00 0. -1.
         11    1    3    3    0    0  0.32344550148E+01  0.70360814098E+01  0.84595604218E+01  0.11468753360E+02  0.51100000000E-03 0. -1.
        -11    1    3    3    0    0  0.10233342578E+01  0.61944893505E+01  0.17165933912E+02  0.18278079731E+02  0.51100000000E-03 0.  1.
         12    1    3    3    0    0  0.12832246184E+01 -0.62951193872E+01  0.16857691174E+02  0.18040425307E+02  0.00000000000E+00 0. -1.
</event>
<event>
 7    1  0.5646756E-010  0.4778727E+02  0.7816164E-02  0.1312668E+00
        -11   -1    0    0    0    0  0.00000000000E+00  0.00000000000E+00  0.45593999997E+02  0.45594000000E+02  0.51100000000E-03 0.  1.
         11   -1    0    0    0    0 -0.00000000000E+00 -0.00000000000E+00 -0.45593999997E+02  0.45594000000E+02  0.51100000000E-03 0. -1.
    9900012    2    1    2    0    0  0.13800663268E+02 -0.39994157321E+02  0.96763693581E+01  0.47787273619E+02  0.20000011738E+02 0.  0.
         12    1    1    2    0    0 -0.13800663268E+02  0.39994157321E+02 -0.96763693581E+01  0.43400726381E+02  0.00000000000E+00 0. -1.
         11    1    3    3    0    0  0.56827998687E+01 -0.16744840005E+02  0.12522447946E+02  0.21667846777E+02  0.51100000000E-03 0. -1.
        -11    1    3    3    0    0  0.55863293360E+00 -0.83510202672E+00  0.17543148254E+01  0.20216545000E+01  0.51100000000E-03 0.  1.
         12    1    3    3    0    0  0.75592304652E+01 -0.22414215290E+02 -0.46003934134E+01  0.24097772342E+02  0.00000000000E+00 0. -1.
</event>
<event>
 7    1  0.5646756E-010  0.4778727E+02  0.7816164E-02  0.1312668E+00
        -11   -1    0    0    0    0  0.00000000000E+00  0.00000000000E+00  0.45593999997E+02  0.45594000000E+02  0.51100000000E-03 0.  1.
         11   -1    0    0    0    0 -0.00000000000E+00 -0.00000000000E+00 -0.45593999997E+02  0.45594000000E+02  0.51100000000E-03 0. -1.
    9900012    2    1    2    0    0  0.34266957309E+02  0.22037898571E+02 -0.14957599724E+02  0.47787272747E+02  0.20000007761E+02 0.  0.
         12    1    1    2    0    0 -0.34266957309E+02 -0.22037898571E+02  0.14957599724E+02  0.43400727253E+02  0.00000000000E+00 0. -1.
         11    1    3    3    0    0  0.42519458502E+01 -0.50649976871E-01 -0.23041639672E+00  0.42584857532E+01  0.51100000000E-03 0. -1.
        -11    1    3    3    0    0  0.18924008849E+02  0.35801781246E+01 -0.86444785918E+01  0.21110727053E+02  0.51100000000E-03 0.  1.
        -12    1    3    3    0    0  0.11091002610E+02  0.18508370423E+02 -0.60827047353E+01  0.22418059940E+02  0.00000000000E+00 0.  1.
</event>
<event>
 7    1  0.5646756E-010  0.4778728E+02  0.7816164E-02  0.1312668E+00
        -11   -1    0    0    0    0  0.00000000000E+00  0.00000000000E+00  0.45593999997E+02  0.45594000000E+02  0.51100000000E-03 0. -1.
         11   -1    0    0    0    0 -0.00000000000E+00 -0.00000000000E+00 -0.45593999997E+02  0.45594000000E+02  0.51100000000E-03 0.  1.
    9900012    2    1    2    0    0 -0.42557148021E+02  0.56681538776E+01 -0.63548302584E+01  0.47787277843E+02  0.20000030999E+02 0.  0.
         12    1    1    2    0    0  0.42557148021E+02 -0.56681538776E+01  0.63548302584E+01  0.43400722157E+02  0.00000000000E+00 0. -1.
         11    1    3    3    0    0  0.48108504509E+00  0.12144981298E+01 -0.13289954178E+01  0.18635121705E+01  0.51100000000E-03 0. -1.
        -11    1    3    3    0    0 -0.40383047687E+02  0.64518831714E+01 -0.12784308622E+01  0.40915177168E+02  0.51100000000E-03 0.  1.
        -12    1    3    3    0    0 -0.26551853796E+01 -0.19982274236E+01 -0.37474039784E+01  0.50085885052E+01  0.00000000000E+00 0.  1.
</event>
<event>
 7    1  0.5646756E-010  0.4778727E+02  0.7816164E-02  0.1312668E+00
        -11   -1    0    0    0    0  0.00000000000E+00  0.00000000000E+00  0.45593999997E+02  0.45594000000E+02  0.51100000000E-03 0.  1.
         11   -1    0    0    0    0 -0.00000000000E+00 -0.00000000000E+00 -0.45593999997E+02  0.45594000000E+02  0.51100000000E-03 0. -1.
    9900012    2    1    2    0    0  0.21125124935E+02 -0.35908481864E+02  0.12162780954E+02  0.47787271736E+02  0.20000003155E+02 0.  0.
         12    1    1    2    0    0 -0.21125124935E+02  0.35908481864E+02 -0.12162780954E+02  0.43400728264E+02  0.00000000000E+00 0. -1.
         11    1    3    3    0    0  0.41170969513E+01 -0.14792597539E+02 -0.74272797362E+00  0.15372803075E+02  0.51100000000E-03 0. -1.
        -11    1    3    3    0    0  0.15019678510E+02 -0.92395949535E+01  0.86655600241E+01  0.19648226084E+02  0.51100000000E-03 0.  1.
         12    1    3    3    0    0  0.19883494737E+01 -0.11876289371E+02  0.42399489030E+01  0.12766242578E+02  0.00000000000E+00 0. -1.
</event>
<event>
 7    1  0.5646756E-010  0.4778728E+02  0.7816164E-02  0.1312668E+00
        -11   -1    0    0    0    0  0.00000000000E+00  0.00000000000E+00  0.45593999997E+02  0.45594000000E+02  0.51100000000E-03 0.  1.
         11   -1    0    0    0    0 -0.00000000000E+00 -0.00000000000E+00 -0.45593999997E+02  0.45594000000E+02  0.51100000000E-03 0. -1.
    9900012    2    1    2    0    0 -0.37665351091E+02 -0.18984515682E+02  0.10224106969E+02  0.47787275677E+02  0.20000021121E+02 0.  0.
         12    1    1    2    0    0  0.37665351091E+02  0.18984515682E+02 -0.10224106969E+02  0.43400724323E+02  0.00000000000E+00 0. -1.
         11    1    3    3    0    0 -0.78509642990E+01 -0.68726598381E+01  0.45191005378E+01  0.11370723970E+02  0.51100000000E-03 0. -1.
        -11    1    3    3    0    0 -0.30847683434E+02 -0.10600299203E+02  0.78969256133E+01  0.33560502839E+02  0.51100000000E-03 0.  1.
        -12    1    3    3    0    0  0.10332966421E+01 -0.15115566410E+01 -0.21919191826E+01  0.28560488673E+01  0.00000000000E+00 0.  1.
</event>
<event>
 7    1  0.5646756E-010  0.4778727E+02  0.7816164E-02  0.1312668E+00
        -11   -1    0    0    0    0  0.00000000000E+00  0.00000000000E+00  0.45593999997E+02  0.45594000000E+02  0.51100000000E-03 0.  1.
         11   -1    0    0    0    0 -0.00000000000E+00 -0.00000000000E+00 -0.45593999997E+02  0.45594000000E+02  0.51100000000E-03 0. -1.
    9900012    2    1    2    0    0 -0.42992503507E+02 -0.49317354790E+00 -0.59181391472E+01  0.47787274788E+02  0.20000017068E+02 0.  0.
         12    1    1    2    0    0  0.42992503507E+02  0.49317354790E+00  0.59181391472E+01  0.43400725212E+02  0.00000000000E+00 0. -1.
         11    1    3    3    0    0 -0.33895709168E+02 -0.60052545967E+00 -0.51103721462E+00  0.33904880034E+02  0.51100000000E-03 0.  1.
        -11    1    3    3    0    0 -0.89154028002E+00 -0.35741479810E+01 -0.24136182316E+01  0.44039676531E+01  0.51100000000E-03 0. -1.
         12    1    3    3    0    0 -0.82052540594E+01  0.36814998928E+01 -0.29934837010E+01  0.94784271009E+01  0.00000000000E+00 0. -1.
</event>
<event>
 7    1  0.5646756E-010  0.4778727E+02  0.7816164E-02  0.1312668E+00
        -11   -1    0    0    0    0  0.00000000000E+00  0.00000000000E+00  0.45593999997E+02  0.45594000000E+02  0.51100000000E-03 0.  1.
         11   -1    0    0    0    0 -0.00000000000E+00 -0.00000000000E+00 -0.45593999997E+02  0.45594000000E+02  0.51100000000E-03 0. -1.
    9900012    2    1    2    0    0  0.77112670791E+01 -0.85187774024E+01  0.41852002398E+02  0.47787270592E+02  0.19999997937E+02 0.  0.
         12    1    1    2    0    0 -0.77112670791E+01  0.85187774024E+01 -0.41852002398E+02  0.43400729408E+02  0.00000000000E+00 0. -1.
         11    1    3    3    0    0  0.15337706993E+01  0.23233424959E+01 -0.24981621244E+00  0.27951352941E+01  0.51100000000E-03 0. -1.
        -11    1    3    3    0    0  0.35342203943E+01 -0.10727368123E+02  0.22127754471E+02  0.24843603983E+02  0.51100000000E-03 0.  1.
        -12    1    3    3    0    0  0.26432759855E+01 -0.11475177522E+00  0.19974064140E+02  0.20148531315E+02  0.00000000000E+00 0.  1.
</event>
<event>
 7    1  0.5646756E-010  0.4778726E+02  0.7816164E-02  0.1312668E+00
        -11   -1    0    0    0    0  0.00000000000E+00  0.00000000000E+00  0.45593999997E+02  0.45594000000E+02  0.51100000000E-03 0. -1.
         11   -1    0    0    0    0 -0.00000000000E+00 -0.00000000000E+00 -0.45593999997E+02  0.45594000000E+02  0.51100000000E-03 0.  1.
    9900012    2    1    2    0    0 -0.21056277638E+02  0.11173476932E+02 -0.36268587876E+02  0.47787264047E+02  0.19999968095E+02 0.  0.
         12    1    1    2    0    0  0.21056277638E+02 -0.11173476932E+02  0.36268587876E+02  0.43400735953E+02  0.00000000000E+00 0. -1.
         11    1    3    3    0    0 -0.14692328234E+02 -0.12604553492E+01 -0.26523209051E+02  0.30346892349E+02  0.51100000000E-03 0. -1.
        -11    1    3    3    0    0 -0.63659542326E+01  0.10383849171E+02 -0.71161659935E+01  0.14106364365E+02  0.51100000000E-03 0.  1.
         12    1    3    3    0    0  0.20048284179E-02  0.20500831104E+01 -0.26292128315E+01  0.33340073324E+01  0.00000000000E+00 0. -1.
</event>
<event>
 7    1  0.5646756E-010  0.4778727E+02  0.7816164E-02  0.1312668E+00
        -11   -1    0    0    0    0  0.00000000000E+00  0.00000000000E+00  0.45593999997E+02  0.45594000000E+02  0.51100000000E-03 0. -1.
         11   -1    0    0    0    0 -0.00000000000E+00 -0.00000000000E+00 -0.45593999997E+02  0.45594000000E+02  0.51100000000E-03 0.  1.
    9900012    2    1    2    0    0 -0.36904751350E+02  0.18850832198E+02  0.12896085754E+02  0.47787267581E+02  0.19999984207E+02 0.  0.
         12    1    1    2    0    0  0.36904751350E+02 -0.18850832198E+02 -0.12896085754E+02  0.43400732419E+02  0.00000000000E+00 0. -1.
         11    1    3    3    0    0 -0.27253803662E+01 -0.10871801982E+01  0.56262236919E+01  0.63453961434E+01  0.51100000000E-03 0. -1.
        -11    1    3    3    0    0 -0.22749206166E+02  0.16763335513E+02  0.16266254389E+01  0.28305153405E+02  0.51100000000E-03 0.  1.
        -12    1    3    3    0    0 -0.11430164818E+02  0.31746768829E+01  0.56432366228E+01  0.13136718032E+02  0.00000000000E+00 0.  1.
</event>
<event>
 7    1  0.5646756E-010  0.4778731E+02  0.7816164E-02  0.1312668E+00
        -11   -1    0    0    0    0  0.00000000000E+00  0.00000000000E+00  0.45593999997E+02  0.45594000000E+02  0.51100000000E-03 0.  1.
         11   -1    0    0    0    0 -0.00000000000E+00 -0.00000000000E+00 -0.45593999997E+02  0.45594000000E+02  0.51100000000E-03 0. -1.
    9900012    2    1    2    0    0  0.17772061021E+02  0.31797001512E+02  0.23595010005E+02  0.47787309277E+02  0.20000174317E+02 0.  0.
         12    1    1    2    0    0 -0.17772061021E+02 -0.31797001512E+02 -0.23595010005E+02  0.43400690723E+02  0.00000000000E+00 0. -1.
         11    1    3    3    0    0 -0.24503035902E+01  0.34672878669E+01 -0.36838197714E+00  0.42616638040E+01  0.51100000000E-03 0. -1.
        -11    1    3    3    0    0  0.18774577021E+02  0.27388829645E+02  0.18970918002E+02  0.38243018470E+02  0.51100000000E-03 0.  1.
         12    1    3    3    0    0  0.14477875903E+01  0.94088400043E+00  0.49924739799E+01  0.52826270026E+01  0.00000000000E+00 0. -1.
</event>
<event>
 7    1  0.5646756E-010  0.4778727E+02  0.7816164E-02  0.1312668E+00
        -11   -1    0    0    0    0  0.00000000000E+00  0.00000000000E+00  0.45593999997E+02  0.45594000000E+02  0.51100000000E-03 0. -1.
         11   -1    0    0    0    0 -0.00000000000E+00 -0.00000000000E+00 -0.45593999997E+02  0.45594000000E+02  0.51100000000E-03 0.  1.
    9900012    2    1    2    0    0 -0.93067565562E+01 -0.39779267702E+02 -0.14649824867E+02  0.47787271606E+02  0.20000002561E+02 0.  0.
         12    1    1    2    0    0  0.93067565562E+01  0.39779267702E+02  0.14649824867E+02  0.43400728394E+02  0.00000000000E+00 0. -1.
         11    1    3    3    0    0 -0.10907429704E+02 -0.21742828074E+02 -0.62029148473E+01  0.25103759644E+02  0.51100000000E-03 0. -1.
        -11    1    3    3    0    0  0.56383907131E+01 -0.11311733311E+02 -0.26087164606E+01  0.12905508985E+02  0.51100000000E-03 0.  1.
         12    1    3    3    0    0 -0.40377175649E+01 -0.67247063172E+01 -0.58381935587E+01  0.97780029768E+01  0.00000000000E+00 0. -1.
</event>
<event>
 7    1  0.5646756E-010  0.4778727E+02  0.7816164E-02  0.1312668E+00
        -11   -1    0    0    0    0  0.00000000000E+00  0.00000000000E+00  0.45593999997E+02  0.45594000000E+02  0.51100000000E-03 0. -1.
         11   -1    0    0    0    0 -0.00000000000E+00 -0.00000000000E+00 -0.45593999997E+02  0.45594000000E+02  0.51100000000E-03 0.  1.
    9900012    2    1    2    0    0  0.31249782170E+02 -0.27492907668E+02  0.12296922748E+02  0.47787272278E+02  0.20000005623E+02 0.  0.
         12    1    1    2    0    0 -0.31249782170E+02  0.27492907668E+02 -0.12296922748E+02  0.43400727722E+02  0.00000000000E+00 0. -1.
         11    1    3    3    0    0  0.65612229876E+01  0.78202421920E+00  0.50133303721E+01  0.82942564859E+01  0.51100000000E-03 0. -1.
        -11    1    3    3    0    0  0.16057245758E+02 -0.24398467588E+02  0.69580540415E+01  0.30025570407E+02  0.51100000000E-03 0.  1.
         12    1    3    3    0    0  0.86313134245E+01 -0.38764642997E+01  0.32553833395E+00  0.94674453843E+01  0.00000000000E+00 0. -1.
</event>
<event>
 7    1  0.5646756E-010  0.4778727E+02  0.7816164E-02  0.1312668E+00
        -11   -1    0    0    0    0  0.00000000000E+00  0.00000000000E+00  0.45593999997E+02  0.45594000000E+02  0.51100000000E-03 0. -1.
         11   -1    0    0    0    0 -0.00000000000E+00 -0.00000000000E+00 -0.45593999997E+02  0.45594000000E+02  0.51100000000E-03 0.  1.
    9900012    2    1    2    0    0 -0.64665747812E+01  0.62104882863E+01 -0.42464531680E+02  0.47787271838E+02  0.20000003618E+02 0.  0.
         12    1    1    2    0    0  0.64665747812E+01 -0.62104882863E+01  0.42464531680E+02  0.43400728162E+02  0.00000000000E+00 0. -1.
         11    1    3    3    0    0 -0.78334777307E+01  0.25059260966E+01 -0.83716845080E+01  0.11735763321E+02  0.51100000000E-03 0. -1.
        -11    1    3    3    0    0  0.60954496942E+00  0.67314719049E+01 -0.30728112227E+02  0.31462694424E+02  0.51100000000E-03 0.  1.
         12    1    3    3    0    0  0.75735798001E+00 -0.30269097153E+01 -0.33647349451E+01  0.45888140935E+01  0.00000000000E+00 0. -1.
</event>
<event>
 7    1  0.5646756E-010  0.4778727E+02  0.7816164E-02  0.1312668E+00
        -11   -1    0    0    0    0  0.00000000000E+00  0.00000000000E+00  0.45593999997E+02  0.45594000000E+02  0.51100000000E-03 0. -1.
         11   -1    0    0    0    0 -0.00000000000E+00 -0.00000000000E+00 -0.45593999997E+02  0.45594000000E+02  0.51100000000E-03 0.  1.
    9900012    2    1    2    0    0 -0.26168085707E+02 -0.15766012124E+02 -0.30826737747E+02  0.47787267196E+02  0.19999982451E+02 0.  0.
         12    1    1    2    0    0  0.26168085707E+02  0.15766012124E+02  0.30826737747E+02  0.43400732804E+02  0.00000000000E+00 0. -1.
         11    1    3    3    0    0 -0.54913419827E+01  0.28728731066E+01 -0.75916490824E+00  0.62437623495E+01  0.51100000000E-03 0. -1.
        -11    1    3    3    0    0 -0.15094444141E+02 -0.92810665026E+01 -0.17399665789E+02  0.24834025231E+02  0.51100000000E-03 0.  1.
         12    1    3    3    0    0 -0.55822995828E+01 -0.93578187279E+01 -0.12667907050E+02  0.16709479615E+02  0.00000000000E+00 0. -1.
</event>
<event>
 7    1  0.5646756E-010  0.4778725E+02  0.7816164E-02  0.1312668E+00
        -11   -1    0    0    0    0  0.00000000000E+00  0.00000000000E+00  0.45593999997E+02  0.45594000000E+02  0.51100000000E-03 0.  1.
         11   -1    0    0    0    0 -0.00000000000E+00 -0.00000000000E+00 -0.45593999997E+02  0.45594000000E+02  0.51100000000E-03 0. -1.
    9900012    2    1    2    0    0 -0.23258705612E+02 -0.14046157272E+02  0.33843218520E+02  0.47787247003E+02  0.19999890387E+02 0.  0.
         12    1    1    2    0    0  0.23258705612E+02  0.14046157272E+02 -0.33843218520E+02  0.43400752997E+02  0.00000000000E+00 0. -1.
         11    1    3    3    0    0 -0.62232881564E+01  0.10403662831E+01  0.56162136820E+01  0.84471020986E+01  0.51100000000E-03 0. -1.
        -11    1    3    3    0    0 -0.33065496701E+01 -0.60627554822E+01  0.19605979135E+02  0.20786646984E+02  0.51100000000E-03 0.  1.
        -12    1    3    3    0    0 -0.13728867785E+02 -0.90237680729E+01  0.86210257036E+01  0.18553497920E+02  0.00000000000E+00 0.  1.
</event>
<event>
 7    1  0.5646756E-010  0.4778728E+02  0.7816164E-02  0.1312668E+00
        -11   -1    0    0    0    0  0.00000000000E+00  0.00000000000E+00  0.45593999997E+02  0.45594000000E+02  0.51100000000E-03 0. -1.
         11   -1    0    0    0    0 -0.00000000000E+00 -0.00000000000E+00 -0.45593999997E+02  0.45594000000E+02  0.51100000000E-03 0.  1.
    9900012    2    1    2    0    0 -0.28917462949E+02  0.15395256791E+02 -0.28467330357E+02  0.47787280044E+02  0.20000041032E+02 0.  0.
         12    1    1    2    0    0  0.28917462949E+02 -0.15395256791E+02  0.28467330357E+02  0.43400719956E+02  0.00000000000E+00 0. -1.
         11    1    3    3    0    0 -0.10921884515E+02  0.90283816907E+01 -0.41995535496E+01  0.14779563173E+02  0.51100000000E-03 0. -1.
        -11    1    3    3    0    0 -0.13642264871E+02 -0.11360009643E+00 -0.19699755947E+02  0.23962568319E+02  0.51100000000E-03 0.  1.
        -12    1    3    3    0    0 -0.43533135628E+01  0.64804751964E+01 -0.45680208599E+01  0.90451485517E+01  0.00000000000E+00 0.  1.
</event>
<event>
 7    1  0.5646756E-010  0.4778727E+02  0.7816164E-02  0.1312668E+00
        -11   -1    0    0    0    0  0.00000000000E+00  0.00000000000E+00  0.45593999997E+02  0.45594000000E+02  0.51100000000E-03 0.  1.
         11   -1    0    0    0    0 -0.00000000000E+00 -0.00000000000E+00 -0.45593999997E+02  0.45594000000E+02  0.51100000000E-03 0. -1.
    9900012    2    1    2    0    0 -0.32400403326E+02  0.75460378710E+01  0.27872825430E+02  0.47787271657E+02  0.20000002794E+02 0.  0.
         12    1    1    2    0    0  0.32400403326E+02 -0.75460378710E+01 -0.27872825430E+02  0.43400728343E+02  0.00000000000E+00 0. -1.
         11    1    3    3    0    0 -0.23560088663E+02  0.62569207142E+01  0.14480625175E+02  0.28353400860E+02  0.51100000000E-03 0.  1.
        -11    1    3    3    0    0 -0.53914371256E+01  0.18028591027E+00  0.14640018104E+02  0.15602250723E+02  0.51100000000E-03 0. -1.
         12    1    3    3    0    0 -0.34488775375E+01  0.11088312466E+01 -0.12478178494E+01  0.38316200735E+01  0.00000000000E+00 0. -1.
</event>
<event>
 7    1  0.5646756E-010  0.4778729E+02  0.7816164E-02  0.1312668E+00
        -11   -1    0    0    0    0  0.00000000000E+00  0.00000000000E+00  0.45593999997E+02  0.45594000000E+02  0.51100000000E-03 0.  1.
         11   -1    0    0    0    0 -0.00000000000E+00 -0.00000000000E+00 -0.45593999997E+02  0.45594000000E+02  0.51100000000E-03 0. -1.
    9900012    2    1    2    0    0  0.14332184126E+02  0.24746569421E+02  0.32646865644E+02  0.47787285302E+02  0.20000065006E+02 0.  0.
         12    1    1    2    0    0 -0.14332184126E+02 -0.24746569421E+02 -0.32646865644E+02  0.43400714698E+02  0.00000000000E+00 0. -1.
         11    1    3    3    0    0 -0.20210408151E+01 -0.19893574302E+01  0.38751208524E+01  0.48019486506E+01  0.51100000000E-03 0. -1.
        -11    1    3    3    0    0  0.12206672261E+02  0.18350865022E+02  0.16384477253E+02  0.27462851087E+02  0.51100000000E-03 0.  1.
        -12    1    3    3    0    0  0.41465526801E+01  0.83850618285E+01  0.12387267539E+02  0.15522485564E+02  0.00000000000E+00 0.  1.
</event>
<event>
 7    1  0.5646756E-010  0.4778727E+02  0.7816164E-02  0.1312668E+00
        -11   -1    0    0    0    0  0.00000000000E+00  0.00000000000E+00  0.45593999997E+02  0.45594000000E+02  0.51100000000E-03 0. -1.
         11   -1    0    0    0    0 -0.00000000000E+00 -0.00000000000E+00 -0.45593999997E+02  0.45594000000E+02  0.51100000000E-03 0.  1.
    9900012    2    1    2    0    0 -0.56956348972E+01  0.37335644076E+02 -0.21382997652E+02  0.47787272310E+02  0.20000005769E+02 0.  0.
         12    1    1    2    0    0  0.56956348972E+01 -0.37335644076E+02  0.21382997652E+02  0.43400727690E+02  0.00000000000E+00 0. -1.
         11    1    3    3    0    0 -0.28448403591E+01  0.17290117405E+02 -0.55193544155E+01  0.18371296905E+02  0.51100000000E-03 0. -1.
        -11    1    3    3    0    0  0.44569574689E+01  0.95644461448E+01 -0.12186948502E+02  0.16120323012E+02  0.51100000000E-03 0.  1.
         12    1    3    3    0    0 -0.73077520070E+01  0.10481080526E+02 -0.36766947345E+01  0.13295652394E+02  0.00000000000E+00 0. -1.
</event>
<event>
 7    1  0.5646756E-010  0.4778727E+02  0.7816164E-02  0.1312668E+00
        -11   -1    0    0    0    0  0.00000000000E+00  0.00000000000E+00  0.45593999997E+02  0.45594000000E+02  0.51100000000E-03 0.  1.
         11   -1    0    0    0    0 -0.00000000000E+00 -0.00000000000E+00 -0.45593999997E+02  0.45594000000E+02  0.51100000000E-03 0. -1.
    9900012    2    1    2    0    0 -0.59377955792E+01  0.57614036094E+01  0.42604835020E+02  0.47787272414E+02  0.20000006246E+02 0.  0.
         12    1    1    2    0    0  0.59377955792E+01 -0.57614036094E+01 -0.42604835020E+02  0.43400727586E+02  0.00000000000E+00 0. -1.
         11    1    3    3    0    0 -0.23176475975E+01  0.40174332406E+01  0.11404391825E+02  0.12311434254E+02  0.51100000000E-03 0.  1.
        -11    1    3    3    0    0 -0.97880779105E+01 -0.34278932368E+00  0.23044956225E+02  0.25039847870E+02  0.51100000000E-03 0. -1.
        -12    1    3    3    0    0  0.61679299287E+01  0.20867596925E+01  0.81554869701E+01  0.10435990290E+02  0.00000000000E+00 0.  1.
</event>
<event>
 7    1  0.5646756E-010  0.4778727E+02  0.7816164E-02  0.1312668E+00
        -11   -1    0    0    0    0  0.00000000000E+00  0.00000000000E+00  0.45593999997E+02  0.45594000000E+02  0.51100000000E-03 0.  1.
         11   -1    0    0    0    0 -0.00000000000E+00 -0.00000000000E+00 -0.45593999997E+02  0.45594000000E+02  0.51100000000E-03 0. -1.
    9900012    2    1    2    0    0 -0.37815185715E+02  0.20935691986E+02  0.39155642449E+01  0.47787272899E+02  0.20000008454E+02 0.  0.
         12    1    1    2    0    0  0.37815185715E+02 -0.20935691986E+02 -0.39155642449E+01  0.43400727101E+02  0.00000000000E+00 0. -1.
         11    1    3    3    0    0 -0.53197887636E-01 -0.74901560921E+00 -0.69047679023E+00  0.10201043364E+01  0.51100000000E-03 0. -1.
        -11    1    3    3    0    0 -0.43328754359E+01  0.30407176198E+00 -0.42851899699E+01  0.61015672183E+01  0.51100000000E-03 0.  1.
        -12    1    3    3    0    0 -0.33429112391E+02  0.21380635833E+02  0.88912310051E+01  0.40665601344E+02  0.00000000000E+00 0.  1.
</event>
<event>
 7    1  0.5646756E-010  0.4778727E+02  0.7816164E-02  0.1312668E+00
        -11   -1    0    0    0    0  0.00000000000E+00  0.00000000000E+00  0.45593999997E+02  0.45594000000E+02  0.51100000000E-03 0.  1.
         11   -1    0    0    0    0 -0.00000000000E+00 -0.00000000000E+00 -0.45593999997E+02  0.45594000000E+02  0.51100000000E-03 0. -1.
    9900012    2    1    2    0    0  0.32653125223E+01  0.17790092091E+02  0.39452165971E+02  0.47787273712E+02  0.20000012163E+02 0.  0.
         12    1    1    2    0    0 -0.32653125223E+01 -0.17790092091E+02 -0.39452165971E+02  0.43400726288E+02  0.00000000000E+00 0. -1.
         11    1    3    3    0    0 -0.12966071417E+01 -0.30715058573E+00  0.19239571996E+02  0.19285659502E+02  0.51100000000E-03 0. -1.
        -11    1    3    3    0    0  0.55610150826E+01  0.80602483809E+01  0.78785428062E+01  0.12568370209E+02  0.51100000000E-03 0.  1.
         12    1    3    3    0    0 -0.99909541863E+00  0.10036994296E+02  0.12334051169E+02  0.15933244001E+02  0.00000000000E+00 0. -1.
</event>
<event>
 7    1  0.5646756E-010  0.4778726E+02  0.7816164E-02  0.1312668E+00
        -11   -1    0    0    0    0  0.00000000000E+00  0.00000000000E+00  0.45593999997E+02  0.45594000000E+02  0.51100000000E-03 0.  1.
         11   -1    0    0    0    0 -0.00000000000E+00 -0.00000000000E+00 -0.45593999997E+02  0.45594000000E+02  0.51100000000E-03 0. -1.
    9900012    2    1    2    0    0  0.32895307155E+02  0.17283852912E+02  0.22423006221E+02  0.47787262537E+02  0.19999961213E+02 0.  0.
         12    1    1    2    0    0 -0.32895307155E+02 -0.17283852912E+02 -0.22423006221E+02  0.43400737463E+02  0.00000000000E+00 0. -1.
         11    1    3    3    0    0  0.10838893293E+00  0.19083152784E+01  0.13189719110E+01  0.23223054333E+01  0.51100000000E-03 0. -1.
        -11    1    3    3    0    0  0.18384384851E+01 -0.17461444525E-01 -0.28636711855E+01  0.34030536119E+01  0.51100000000E-03 0.  1.
        -12    1    3    3    0    0  0.30948479737E+02  0.15392999078E+02  0.23967705495E+02  0.42061903492E+02  0.00000000000E+00 0.  1.
</event>
<event>
 7    1  0.5646756E-010  0.4778727E+02  0.7816164E-02  0.1312668E+00
        -11   -1    0    0    0    0  0.00000000000E+00  0.00000000000E+00  0.45593999997E+02  0.45594000000E+02  0.51100000000E-03 0. -1.
         11   -1    0    0    0    0 -0.00000000000E+00 -0.00000000000E+00 -0.45593999997E+02  0.45594000000E+02  0.51100000000E-03 0.  1.
    9900012    2    1    2    0    0  0.22078560783E+02  0.30608939863E+02 -0.21430189097E+02  0.47787273618E+02  0.20000011732E+02 0.  0.
         12    1    1    2    0    0 -0.22078560783E+02 -0.30608939863E+02  0.21430189097E+02  0.43400726382E+02  0.00000000000E+00 0. -1.
         11    1    3    3    0    0 -0.22214961791E+00 -0.11069233800E+01 -0.38955104310E+01  0.40558145423E+01  0.51100000000E-03 0. -1.
        -11    1    3    3    0    0  0.18896993587E+02  0.18925342457E+02 -0.13034372155E+02  0.29751635442E+02  0.51100000000E-03 0.  1.
         12    1    3    3    0    0  0.34037168140E+01  0.12790520786E+02 -0.45003065114E+01  0.13979823633E+02  0.00000000000E+00 0. -1.
</event>
<event>
 7    1  0.5646756E-010  0.4778728E+02  0.7816164E-02  0.1312668E+00
        -11   -1    0    0    0    0  0.00000000000E+00  0.00000000000E+00  0.45593999997E+02  0.45594000000E+02  0.51100000000E-03 0.  1.
         11   -1    0    0    0    0 -0.00000000000E+00 -0.00000000000E+00 -0.45593999997E+02  0.45594000000E+02  0.51100000000E-03 0. -1.
    9900012    2    1    2    0    0 -0.13955488292E+02 -0.39087245861E+02  0.12690703153E+02  0.47787281238E+02  0.20000046478E+02 0.  0.
         12    1    1    2    0    0  0.13955488292E+02  0.39087245861E+02 -0.12690703153E+02  0.43400718762E+02  0.00000000000E+00 0. -1.
         11    1    3    3    0    0  0.27251690363E+01 -0.33835808201E+01 -0.64418438993E+00  0.43920541017E+01  0.51100000000E-03 0. -1.
        -11    1    3    3    0    0 -0.14933612728E+02 -0.36252966331E+02  0.11639263487E+02  0.40899423121E+02  0.51100000000E-03 0.  1.
        -12    1    3    3    0    0 -0.17470446006E+01  0.54930128936E+00  0.16956240563E+01  0.24958040154E+01  0.00000000000E+00 0.  1.
</event>
<event>
 7    1  0.5646756E-010  0.4778727E+02  0.7816164E-02  0.1312668E+00
        -11   -1    0    0    0    0  0.00000000000E+00  0.00000000000E+00  0.45593999997E+02  0.45594000000E+02  0.51100000000E-03 0.  1.
         11   -1    0    0    0    0 -0.00000000000E+00 -0.00000000000E+00 -0.45593999997E+02  0.45594000000E+02  0.51100000000E-03 0. -1.
    9900012    2    1    2    0    0 -0.37219287378E+02  0.11042413428E+02  0.19401370515E+02  0.47787269302E+02  0.19999992057E+02 0.  0.
         12    1    1    2    0    0  0.37219287378E+02 -0.11042413428E+02 -0.19401370515E+02  0.43400730698E+02  0.00000000000E+00 0. -1.
         11    1    3    3    0    0 -0.83657398744E+01  0.75138826808E+01  0.11409313426E+02  0.16019253095E+02  0.51100000000E-03 0.  1.
        -11    1    3    3    0    0 -0.13868905342E+02  0.64026882632E+01  0.21319286862E+01  0.15423555769E+02  0.51100000000E-03 0. -1.
         12    1    3    3    0    0 -0.14984642162E+02 -0.28741575159E+01  0.58601284020E+01  0.16344460439E+02  0.00000000000E+00 0. -1.
</event>
<event>
 7    1  0.5646756E-010  0.4778727E+02  0.7816164E-02  0.1312668E+00
        -11   -1    0    0    0    0  0.00000000000E+00  0.00000000000E+00  0.45593999997E+02  0.45594000000E+02  0.51100000000E-03 0. -1.
         11   -1    0    0    0    0 -0.00000000000E+00 -0.00000000000E+00 -0.45593999997E+02  0.45594000000E+02  0.51100000000E-03 0.  1.
    9900012    2    1    2    0    0 -0.18685596253E+02 -0.22793943028E+02 -0.31857618357E+02  0.47787271971E+02  0.20000004223E+02 0.  0.
         12    1    1    2    0    0  0.18685596253E+02  0.22793943028E+02  0.31857618357E+02  0.43400728029E+02  0.00000000000E+00 0. -1.
         11    1    3    3    0    0 -0.11161314017E+02 -0.86491458847E+01 -0.16165933409E+02  0.21464390473E+02  0.51100000000E-03 0. -1.
        -11    1    3    3    0    0 -0.15636894664E+01 -0.90848562425E+01 -0.49371522920E+00  0.92316570930E+01  0.51100000000E-03 0.  1.
        -12    1    3    3    0    0 -0.59605927697E+01 -0.50599409011E+01 -0.15197969718E+02  0.17091224404E+02  0.00000000000E+00 0.  1.
</event>
<event>
 7    1  0.5646756E-010  0.4778724E+02  0.7816164E-02  0.1312668E+00
        -11   -1    0    0    0    0  0.00000000000E+00  0.00000000000E+00  0.45593999997E+02  0.45594000000E+02  0.51100000000E-03 0.  1.
         11   -1    0    0    0    0 -0.00000000000E+00 -0.00000000000E+00 -0.45593999997E+02  0.45594000000E+02  0.51100000000E-03 0. -1.
    9900012    2    1    2    0    0  0.30301478890E+01 -0.27026000360E+02  0.33823658144E+02  0.47787235699E+02  0.19999838844E+02 0.  0.
         12    1    1    2    0    0 -0.30301478890E+01  0.27026000360E+02 -0.33823658144E+02  0.43400764301E+02  0.00000000000E+00 0. -1.
         11    1    3    3    0    0  0.23881406386E+01 -0.19212547182E+01 -0.37972400398E+00  0.30884666069E+01  0.51100000000E-03 0. -1.
        -11    1    3    3    0    0  0.36675598018E+01 -0.23286758737E+02  0.33709583719E+02  0.41134658892E+02  0.51100000000E-03 0.  1.
        -12    1    3    3    0    0 -0.30255525514E+01 -0.18179869056E+01  0.49379842899E+00  0.35641102001E+01  0.00000000000E+00 0.  1.
</event>
<event>
 7    1  0.5646756E-010  0.4778726E+02  0.7816164E-02  0.1312668E+00
        -11   -1    0    0    0    0  0.00000000000E+00  0.00000000000E+00  0.45593999997E+02  0.45594000000E+02  0.51100000000E-03 0.  1.
         11   -1    0    0    0    0 -0.00000000000E+00 -0.00000000000E+00 -0.45593999997E+02  0.45594000000E+02  0.51100000000E-03 0. -1.
    9900012    2    1    2    0    0  0.23469206294E+02 -0.36493171158E+02  0.10337780595E+01  0.47787264035E+02  0.19999968042E+02 0.  0.
         12    1    1    2    0    0 -0.23469206294E+02  0.36493171158E+02 -0.10337780595E+01  0.43400735965E+02  0.00000000000E+00 0. -1.
         11    1    3    3    0    0  0.16636570825E+01  0.14254135660E+01 -0.28546756204E+01  0.35984346432E+01  0.51100000000E-03 0. -1.
        -11    1    3    3    0    0  0.13091549987E+02 -0.18896152029E+02  0.35655572658E+01  0.23262984362E+02  0.51100000000E-03 0.  1.
        -12    1    3    3    0    0  0.87139992245E+01 -0.19022432695E+02  0.32289641407E+00  0.20925845030E+02  0.00000000000E+00 0.  1.
</event>
<event>
 7    1  0.5646756E-010  0.4778727E+02  0.7816164E-02  0.1312668E+00
        -11   -1    0    0    0    0  0.00000000000E+00  0.00000000000E+00  0.45593999997E+02  0.45594000000E+02  0.51100000000E-03 0.  1.
         11   -1    0    0    0    0 -0.00000000000E+00 -0.00000000000E+00 -0.45593999997E+02  0.45594000000E+02  0.51100000000E-03 0. -1.
    9900012    2    1    2    0    0 -0.41797853042E+02 -0.60307422257E+01  0.10009646115E+02  0.47787269752E+02  0.19999994107E+02 0.  0.
         12    1    1    2    0    0  0.41797853042E+02  0.60307422257E+01 -0.10009646115E+02  0.43400730248E+02  0.00000000000E+00 0. -1.
         11    1    3    3    0    0  0.90909992315E+00  0.20259744037E+01  0.80033390805E+00  0.23604172471E+01  0.51100000000E-03 0. -1.
        -11    1    3    3    0    0 -0.33330366496E+02 -0.58913532340E+01  0.30123195166E+01  0.33980809920E+02  0.51100000000E-03 0.  1.
         12    1    3    3    0    0 -0.93765864698E+01 -0.21653633955E+01  0.61969926902E+01  0.11446042585E+02  0.00000000000E+00 0. -1.
</event>
<event>
 7    1  0.5646756E-010  0.4778727E+02  0.7816164E-02  0.1312668E+00
        -11   -1    0    0    0    0  0.00000000000E+00  0.00000000000E+00  0.45593999997E+02  0.45594000000E+02  0.51100000000E-03 0.  1.
         11   -1    0    0    0    0 -0.00000000000E+00 -0.00000000000E+00 -0.45593999997E+02  0.45594000000E+02  0.51100000000E-03 0. -1.
    9900012    2    1    2    0    0 -0.15275261670E+02 -0.33797361136E+02 -0.22539477729E+02  0.47787270799E+02  0.19999998882E+02 0.  0.
         12    1    1    2    0    0  0.15275261670E+02  0.33797361136E+02  0.22539477729E+02  0.43400729201E+02  0.00000000000E+00 0. -1.
         11    1    3    3    0    0 -0.15708611671E+02 -0.15043592718E+02 -0.85592203153E+01  0.23373712054E+02  0.51100000000E-03 0. -1.
        -11    1    3    3    0    0  0.52273616053E+00 -0.12237083695E+02 -0.48001785611E+01  0.13155272134E+02  0.51100000000E-03 0.  1.
         12    1    3    3    0    0 -0.89386158928E-01 -0.65166847236E+01 -0.91800788530E+01  0.11258286611E+02  0.00000000000E+00 0. -1.
</event>
<event>
 7    1  0.5646756E-010  0.4778728E+02  0.7816164E-02  0.1312668E+00
        -11   -1    0    0    0    0  0.00000000000E+00  0.00000000000E+00  0.45593999997E+02  0.45594000000E+02  0.51100000000E-03 0.  1.
         11   -1    0    0    0    0 -0.00000000000E+00 -0.00000000000E+00 -0.45593999997E+02  0.45594000000E+02  0.51100000000E-03 0. -1.
    9900012    2    1    2    0    0  0.25957885440E+02  0.11091662701E+02  0.32966436348E+02  0.47787277385E+02  0.20000028909E+02 0.  0.
         12    1    1    2    0    0 -0.25957885440E+02 -0.11091662701E+02 -0.32966436348E+02  0.43400722615E+02  0.00000000000E+00 0. -1.
         11    1    3    3    0    0  0.46488649228E+01  0.19835480274E+01  0.20792162454E+02  0.21397673416E+02  0.51100000000E-03 0. -1.
        -11    1    3    3    0    0  0.13249699417E+02  0.73763915596E+01  0.81652968620E+01  0.17223175090E+02  0.51100000000E-03 0.  1.
         12    1    3    3    0    0  0.80593211005E+01  0.17317231137E+01  0.40089770323E+01  0.91664288787E+01  0.00000000000E+00 0. -1.
</event>
<event>
 7    1  0.5646756E-010  0.4778727E+02  0.7816164E-02  0.1312668E+00
        -11   -1    0    0    0    0  0.00000000000E+00  0.00000000000E+00  0.45593999997E+02  0.45594000000E+02  0.51100000000E-03 0.  1.
         11   -1    0    0    0    0 -0.00000000000E+00 -0.00000000000E+00 -0.45593999997E+02  0.45594000000E+02  0.51100000000E-03 0. -1.
    9900012    2    1    2    0    0  0.37704087838E+02 -0.89911229275E+01  0.19523959509E+02  0.47787268139E+02  0.19999986752E+02 0.  0.
         12    1    1    2    0    0 -0.37704087838E+02  0.89911229275E+01 -0.19523959509E+02  0.43400731861E+02  0.00000000000E+00 0. -1.
         11    1    3    3    0    0 -0.98724021382E+00 -0.42226828583E+01  0.30402130931E+01  0.52960919246E+01  0.51100000000E-03 0. -1.
        -11    1    3    3    0    0  0.29900589637E+02 -0.50788888713E+01  0.13555527959E+02  0.33220365912E+02  0.51100000000E-03 0.  1.
         12    1    3    3    0    0  0.87907384142E+01  0.31044880211E+00  0.29282184567E+01  0.92708103020E+01  0.00000000000E+00 0. -1.
</event>
<event>
 7    1  0.5646756E-010  0.4778726E+02  0.7816164E-02  0.1312668E+00
        -11   -1    0    0    0    0  0.00000000000E+00  0.00000000000E+00  0.45593999997E+02  0.45594000000E+02  0.51100000000E-03 0.  1.
         11   -1    0    0    0    0 -0.00000000000E+00 -0.00000000000E+00 -0.45593999997E+02  0.45594000000E+02  0.51100000000E-03 0. -1.
    9900012    2    1    2    0    0  0.28818928368E+02  0.29130144837E+01  0.32320398605E+02  0.47787257475E+02  0.19999938133E+02 0.  0.
         12    1    1    2    0    0 -0.28818928368E+02 -0.29130144837E+01 -0.32320398605E+02  0.43400742525E+02  0.00000000000E+00 0. -1.
         11    1    3    3    0    0 -0.18226178601E+01  0.23334129204E+01  0.30346509116E+01  0.42397945867E+01  0.51100000000E-03 0. -1.
        -11    1    3    3    0    0  0.14659984399E+02 -0.30016965332E+01  0.89493303824E+01  0.17436049989E+02  0.51100000000E-03 0.  1.
        -12    1    3    3    0    0  0.15981561829E+02  0.35812980965E+01  0.20336417312E+02  0.26111412900E+02  0.00000000000E+00 0.  1.
</event>
<event>
 7    1  0.5646756E-010  0.4778727E+02  0.7816164E-02  0.1312668E+00
        -11   -1    0    0    0    0  0.00000000000E+00  0.00000000000E+00  0.45593999997E+02  0.45594000000E+02  0.51100000000E-03 0. -1.
         11   -1    0    0    0    0 -0.00000000000E+00 -0.00000000000E+00 -0.45593999997E+02  0.45594000000E+02  0.51100000000E-03 0.  1.
    9900012    2    1    2    0    0 -0.32184735532E+02  0.10436495030E+02 -0.27181721458E+02  0.47787267158E+02  0.19999982280E+02 0.  0.
         12    1    1    2    0    0  0.32184735532E+02 -0.10436495030E+02  0.27181721458E+02  0.43400732842E+02  0.00000000000E+00 0. -1.
         11    1    3    3    0    0  0.50945581458E+00  0.49141084108E-01  0.60269141436E+00  0.79069417301E+00  0.51100000000E-03 0. -1.
        -11    1    3    3    0    0 -0.25102863089E+02  0.22350026946E+01 -0.25033981139E+02  0.35522516581E+02  0.51100000000E-03 0.  1.
        -12    1    3    3    0    0 -0.75913282579E+01  0.81523512508E+01 -0.27504317331E+01  0.11474056404E+02  0.00000000000E+00 0.  1.
</event>
<event>
 7    1  0.5646756E-010  0.4778727E+02  0.7816164E-02  0.1312668E+00
        -11   -1    0    0    0    0  0.00000000000E+00  0.00000000000E+00  0.45593999997E+02  0.45594000000E+02  0.51100000000E-03 0.  1.
         11   -1    0    0    0    0 -0.00000000000E+00 -0.00000000000E+00 -0.45593999997E+02  0.45594000000E+02  0.51100000000E-03 0. -1.
    9900012    2    1    2    0    0 -0.11846898031E+02 -0.37155254353E+02  0.19046301410E+02  0.47787268251E+02  0.19999987263E+02 0.  0.
         12    1    1    2    0    0  0.11846898031E+02  0.37155254353E+02 -0.19046301410E+02  0.43400731749E+02  0.00000000000E+00 0. -1.
         11    1    3    3    0    0 -0.97962494013E+01 -0.22031174317E+02  0.19452818515E+02  0.30979853010E+02  0.51100000000E-03 0. -1.
        -11    1    3    3    0    0 -0.16419621135E+01 -0.18760920024E+00  0.76174951784E+00  0.18197525610E+01  0.51100000000E-03 0.  1.
         12    1    3    3    0    0 -0.40868651630E+00 -0.14936470836E+02 -0.11682666231E+01  0.14987662679E+02  0.00000000000E+00 0. -1.
</event>
<event>
 7    1  0.5646756E-010  0.4778727E+02  0.7816164E-02  0.1312668E+00
        -11   -1    0    0    0    0  0.00000000000E+00  0.00000000000E+00  0.45593999997E+02  0.45594000000E+02  0.51100000000E-03 0. -1.
         11   -1    0    0    0    0 -0.00000000000E+00 -0.00000000000E+00 -0.45593999997E+02  0.45594000000E+02  0.51100000000E-03 0.  1.
    9900012    2    1    2    0    0 -0.36809398307E+02 -0.18787019409E+02  0.13256684145E+02  0.47787267557E+02  0.19999984101E+02 0.  0.
         12    1    1    2    0    0  0.36809398307E+02  0.18787019409E+02 -0.13256684145E+02  0.43400732443E+02  0.00000000000E+00 0. -1.
         11    1    3    3    0    0 -0.35594859969E+01  0.68718470864E+00  0.52094545502E+00  0.36624510664E+01  0.51100000000E-03 0. -1.
        -11    1    3    3    0    0 -0.24626097133E+02 -0.13385218450E+02  0.59339650495E+00  0.28034993358E+02  0.51100000000E-03 0.  1.
        -12    1    3    3    0    0 -0.86238151780E+01 -0.60889856679E+01  0.12142342185E+02  0.16089823132E+02  0.00000000000E+00 0.  1.
</event>
<event>
 7    1  0.5646756E-010  0.4778727E+02  0.7816164E-02  0.1312668E+00
        -11   -1    0    0    0    0  0.00000000000E+00  0.00000000000E+00  0.45593999997E+02  0.45594000000E+02  0.51100000000E-03 0.  1.
         11   -1    0    0    0    0 -0.00000000000E+00 -0.00000000000E+00 -0.45593999997E+02  0.45594000000E+02  0.51100000000E-03 0. -1.
    9900012    2    1    2    0    0 -0.82225175174E+01  0.36622467372E+02  0.21790098830E+02  0.47787270539E+02  0.19999997696E+02 0.  0.
         12    1    1    2    0    0  0.82225175174E+01 -0.36622467372E+02 -0.21790098830E+02  0.43400729461E+02  0.00000000000E+00 0. -1.
         11    1    3    3    0    0  0.19010499180E+01  0.11530396795E+02  0.63127210593E+01  0.13282111597E+02  0.51100000000E-03 0. -1.
        -11    1    3    3    0    0 -0.35061047837E+01  0.98277221093E+01  0.14467156457E+02  0.17837474844E+02  0.51100000000E-03 0.  1.
        -12    1    3    3    0    0 -0.66174626517E+01  0.15264348468E+02  0.10102213138E+01  0.16667684098E+02  0.00000000000E+00 0.  1.
</event>
<event>
 7    1  0.5646756E-010  0.4778727E+02  0.7816164E-02  0.1312668E+00
        -11   -1    0    0    0    0  0.00000000000E+00  0.00000000000E+00  0.45593999997E+02  0.45594000000E+02  0.51100000000E-03 0.  1.
         11   -1    0    0    0    0 -0.00000000000E+00 -0.00000000000E+00 -0.45593999997E+02  0.45594000000E+02  0.51100000000E-03 0. -1.
    9900012    2    1    2    0    0 -0.71816161747E+00  0.43259505282E+02  0.34238652900E+01  0.47787269512E+02  0.19999993015E+02 0.  0.
         12    1    1    2    0    0  0.71816161747E+00 -0.43259505282E+02 -0.34238652900E+01  0.43400730488E+02  0.00000000000E+00 0. -1.
         11    1    3    3    0    0  0.28511260471E+01  0.13333316863E+02 -0.49052175937E+01  0.14490252524E+02  0.51100000000E-03 0. -1.
        -11    1    3    3    0    0 -0.41848609139E+01  0.14202459867E+02 -0.12765507379E+01  0.14861107266E+02  0.51100000000E-03 0.  1.
         12    1    3    3    0    0  0.61557324937E+00  0.15723728552E+02  0.96056336216E+01  0.18435909722E+02  0.00000000000E+00 0. -1.
</event>
<event>
 7    1  0.5646756E-010  0.4778728E+02  0.7816164E-02  0.1312668E+00
        -11   -1    0    0    0    0  0.00000000000E+00  0.00000000000E+00  0.45593999997E+02  0.45594000000E+02  0.51100000000E-03 0.  1.
         11   -1    0    0    0    0 -0.00000000000E+00 -0.00000000000E+00 -0.45593999997E+02  0.45594000000E+02  0.51100000000E-03 0. -1.
    9900012    2    1    2    0    0 -0.24136141608E+02 -0.25259913689E+02  0.25748907054E+02  0.47787276668E+02  0.20000025640E+02 0.  0.
         12    1    1    2    0    0  0.24136141608E+02  0.25259913689E+02 -0.25748907054E+02  0.43400723332E+02  0.00000000000E+00 0. -1.
         11    1    3    3    0    0 -0.12186641798E+02 -0.16333145200E+02  0.52364589142E+01  0.21040588696E+02  0.51100000000E-03 0. -1.
        -11    1    3    3    0    0 -0.92492691272E+01 -0.19071617616E+01  0.13413234780E+02  0.16404301658E+02  0.51100000000E-03 0.  1.
        -12    1    3    3    0    0 -0.27002306825E+01 -0.70196067271E+01  0.70992133603E+01  0.10342386314E+02  0.00000000000E+00 0.  1.
</event>
<event>
 7    1  0.5646756E-010  0.4778727E+02  0.7816164E-02  0.1312668E+00
        -11   -1    0    0    0    0  0.00000000000E+00  0.00000000000E+00  0.45593999997E+02  0.45594000000E+02  0.51100000000E-03 0.  1.
         11   -1    0    0    0    0 -0.00000000000E+00 -0.00000000000E+00 -0.45593999997E+02  0.45594000000E+02  0.51100000000E-03 0. -1.
    9900012    2    1    2    0    0 -0.36478944783E+02 -0.19414607550E+02  0.13265865210E+02  0.47787267534E+02  0.19999983995E+02 0.  0.
         12    1    1    2    0    0  0.36478944783E+02  0.19414607550E+02 -0.13265865210E+02  0.43400732466E+02  0.00000000000E+00 0. -1.
         11    1    3    3    0    0 -0.14744115300E+01 -0.52956907132E+01  0.33393010914E+01  0.64318863119E+01  0.51100000000E-03 0. -1.
        -11    1    3    3    0    0 -0.25276378090E+02 -0.47812108360E+01  0.10671838091E+02  0.27850375131E+02  0.51100000000E-03 0.  1.
        -12    1    3    3    0    0 -0.97281551630E+01 -0.93377060010E+01 -0.74527397278E+00  0.13505006092E+02  0.00000000000E+00 0.  1.
</event>
<event>
 7    1  0.5646756E-010  0.4778726E+02  0.7816164E-02  0.1312668E+00
        -11   -1    0    0    0    0  0.00000000000E+00  0.00000000000E+00  0.45593999997E+02  0.45594000000E+02  0.51100000000E-03 0.  1.
         11   -1    0    0    0    0 -0.00000000000E+00 -0.00000000000E+00 -0.45593999997E+02  0.45594000000E+02  0.51100000000E-03 0. -1.
    9900012    2    1    2    0    0 -0.28105131725E+01  0.43034656682E+02 -0.48727054633E+01  0.47787263617E+02  0.19999966137E+02 0.  0.
         12    1    1    2    0    0  0.28105131725E+01 -0.43034656682E+02  0.48727054633E+01  0.43400736383E+02  0.00000000000E+00 0. -1.
         11    1    3    3    0    0 -0.18545605469E+01  0.12687322068E+02 -0.82073257544E+01  0.15223919744E+02  0.51100000000E-03 0. -1.
        -11    1    3    3    0    0 -0.56707043033E+01  0.21952631421E+02  0.34523068659E+01  0.22934544612E+02  0.51100000000E-03 0.  1.
         12    1    3    3    0    0  0.47147516777E+01  0.83947031927E+01 -0.11768657475E+00  0.96287992608E+01  0.00000000000E+00 0. -1.
</event>
<event>
 7    1  0.5646756E-010  0.4778727E+02  0.7816164E-02  0.1312668E+00
        -11   -1    0    0    0    0  0.00000000000E+00  0.00000000000E+00  0.45593999997E+02  0.45594000000E+02  0.51100000000E-03 0.  1.
         11   -1    0    0    0    0 -0.00000000000E+00 -0.00000000000E+00 -0.45593999997E+02  0.45594000000E+02  0.51100000000E-03 0. -1.
    9900012    2    1    2    0    0  0.38343627717E+02  0.17459017338E+02  0.10419820393E+02  0.47787265790E+02  0.19999976043E+02 0.  0.
         12    1    1    2    0    0 -0.38343627717E+02 -0.17459017338E+02 -0.10419820393E+02  0.43400734210E+02  0.00000000000E+00 0. -1.
         11    1    3    3    0    0  0.18303102027E+02  0.83729006989E+01  0.12748811464E+02  0.23825222012E+02  0.51100000000E-03 0. -1.
        -11    1    3    3    0    0  0.62978824287E+01  0.75465802828E+01  0.52004244961E+00  0.98429996170E+01  0.51100000000E-03 0.  1.
         12    1    3    3    0    0  0.13742643262E+02  0.15395363566E+01 -0.28490335204E+01  0.14119044161E+02  0.00000000000E+00 0. -1.
</event>
<event>
 7    1  0.5646756E-010  0.4778727E+02  0.7816164E-02  0.1312668E+00
        -11   -1    0    0    0    0  0.00000000000E+00  0.00000000000E+00  0.45593999997E+02  0.45594000000E+02  0.51100000000E-03 0. -1.
         11   -1    0    0    0    0 -0.00000000000E+00 -0.00000000000E+00 -0.45593999997E+02  0.45594000000E+02  0.51100000000E-03 0.  1.
    9900012    2    1    2    0    0 -0.27492262181E+01 -0.38850962625E+02 -0.19148569869E+02  0.47787271093E+02  0.20000000220E+02 0.  0.
         12    1    1    2    0    0  0.27492262181E+01  0.38850962625E+02  0.19148569869E+02  0.43400728907E+02  0.00000000000E+00 0. -1.
         11    1    3    3    0    0  0.20189021680E+00  0.15022845150E+01 -0.23740185682E+01  0.28166616494E+01  0.51100000000E-03 0. -1.
        -11    1    3    3    0    0 -0.66577106559E+01 -0.25403080264E+02 -0.93922030310E+01  0.27890053354E+02  0.51100000000E-03 0.  1.
         12    1    3    3    0    0  0.37065942210E+01 -0.14950166876E+02 -0.73823482694E+01  0.17080556089E+02  0.00000000000E+00 0. -1.
</event>
<event>
 7    1  0.5646756E-010  0.4778727E+02  0.7816164E-02  0.1312668E+00
        -11   -1    0    0    0    0  0.00000000000E+00  0.00000000000E+00  0.45593999997E+02  0.45594000000E+02  0.51100000000E-03 0. -1.
         11   -1    0    0    0    0 -0.00000000000E+00 -0.00000000000E+00 -0.45593999997E+02  0.45594000000E+02  0.51100000000E-03 0.  1.
    9900012    2    1    2    0    0  0.21436119128E+01  0.27618535584E+02  0.33410251613E+02  0.47787268523E+02  0.19999988505E+02 0.  0.
         12    1    1    2    0    0 -0.21436119128E+01 -0.27618535584E+02 -0.33410251613E+02  0.43400731477E+02  0.00000000000E+00 0. -1.
         11    1    3    3    0    0 -0.20671804696E+01  0.21237869181E+02  0.15080636708E+02  0.26129407307E+02  0.51100000000E-03 0.  1.
        -11    1    3    3    0    0  0.39055190502E+01 -0.26084392280E+00  0.29458549890E+01  0.48988958430E+01  0.51100000000E-03 0. -1.
        -12    1    3    3    0    0  0.30527333218E+00  0.66415103258E+01  0.15383759916E+02  0.16758965373E+02  0.00000000000E+00 0.  1.
</event>
<event>
 7    1  0.5646756E-010  0.4778729E+02  0.7816164E-02  0.1312668E+00
        -11   -1    0    0    0    0  0.00000000000E+00  0.00000000000E+00  0.45593999997E+02  0.45594000000E+02  0.51100000000E-03 0.  1.
         11   -1    0    0    0    0 -0.00000000000E+00 -0.00000000000E+00 -0.45593999997E+02  0.45594000000E+02  0.51100000000E-03 0. -1.
    9900012    2    1    2    0    0 -0.54199608779E+01  0.40055849595E+02  0.15804257558E+02  0.47787290102E+02  0.20000086889E+02 0.  0.
         12    1    1    2    0    0  0.54199608779E+01 -0.40055849595E+02 -0.15804257558E+02  0.43400709898E+02  0.00000000000E+00 0. -1.
         11    1    3    3    0    0 -0.55570689361E-01  0.64313065666E+00  0.26388440850E+01  0.27166529976E+01  0.51100000000E-03 0. -1.
        -11    1    3    3    0    0 -0.79559556506E+01  0.38634897541E+02  0.14534602211E+02  0.42038163614E+02  0.51100000000E-03 0.  1.
        -12    1    3    3    0    0  0.25915654620E+01  0.77782139737E+00 -0.13691887375E+01  0.30324734903E+01  0.00000000000E+00 0.  1.
</event>
<event>
 7    1 -0.6902810E-010  0.4778727E+02  0.7816164E-02  0.1312668E+00
        -11   -1    0    0    0    0  0.00000000000E+00  0.00000000000E+00  0.45593999997E+02  0.45594000000E+02  0.51100000000E-03 0.  1.
         11   -1    0    0    0    0 -0.00000000000E+00 -0.00000000000E+00 -0.45593999997E+02  0.45594000000E+02  0.51100000000E-03 0. -1.
    9900012    2    1    2    0    0 -0.14153150708E+02 -0.37696411259E+02  0.16195442502E+02  0.47787268962E+02  0.19999990505E+02 0.  0.
         12    1    1    2    0    0  0.14153150708E+02  0.37696411259E+02 -0.16195442502E+02  0.43400731038E+02  0.00000000000E+00 0. -1.
         11    1    3    3    0    0 -0.44351234456E+01 -0.70348894509E+00  0.54321943902E+01  0.70479750871E+01  0.51100000000E-03 0. -1.
        -11    1    3    3    0    0 -0.90480722912E+01 -0.18878730470E+02  0.79600691527E+01  0.22397249330E+02  0.51100000000E-03 0.  1.
         12    1    3    3    0    0 -0.66995497170E+00 -0.18114191844E+02  0.28031789595E+01  0.18342044545E+02  0.00000000000E+00 0. -1.
</event>
<event>
 7    1  0.5646756E-010  0.4778727E+02  0.7816164E-02  0.1312668E+00
        -11   -1    0    0    0    0  0.00000000000E+00  0.00000000000E+00  0.45593999997E+02  0.45594000000E+02  0.51100000000E-03 0.  1.
         11   -1    0    0    0    0 -0.00000000000E+00 -0.00000000000E+00 -0.45593999997E+02  0.45594000000E+02  0.51100000000E-03 0. -1.
    9900012    2    1    2    0    0  0.92096961917E+01 -0.29868614600E+02  0.30110974008E+02  0.47787269617E+02  0.19999993491E+02 0.  0.
         12    1    1    2    0    0 -0.92096961917E+01  0.29868614600E+02 -0.30110974008E+02  0.43400730383E+02  0.00000000000E+00 0. -1.
         11    1    3    3    0    0  0.88120027913E+01 -0.51302015980E+01  0.14201735917E+02  0.17483125148E+02  0.51100000000E-03 0.  1.
        -11    1    3    3    0    0 -0.34108608257E+01 -0.11871819262E+02  0.82465520989E+01  0.14851925328E+02  0.51100000000E-03 0. -1.
        -12    1    3    3    0    0  0.38085542261E+01 -0.12866593740E+02  0.76626859925E+01  0.15452219141E+02  0.00000000000E+00 0.  1.
</event>
<event>
 7    1  0.5646756E-010  0.4778727E+02  0.7816164E-02  0.1312668E+00
        -11   -1    0    0    0    0  0.00000000000E+00  0.00000000000E+00  0.45593999997E+02  0.45594000000E+02  0.51100000000E-03 0.  1.
         11   -1    0    0    0    0 -0.00000000000E+00 -0.00000000000E+00 -0.45593999997E+02  0.45594000000E+02  0.51100000000E-03 0. -1.
    9900012    2    1    2    0    0  0.37877409474E+02  0.15215254147E+02  0.14745208462E+02  0.47787270976E+02  0.19999999690E+02 0.  0.
         12    1    1    2    0    0 -0.37877409474E+02 -0.15215254147E+02 -0.14745208462E+02  0.43400729024E+02  0.00000000000E+00 0. -1.
         11    1    3    3    0    0  0.36352540635E+00 -0.42354318014E+00  0.27791910797E+01  0.28346856730E+01  0.51100000000E-03 0. -1.
        -11    1    3    3    0    0 -0.10798057758E+00 -0.16738840095E+01 -0.41383139768E+00  0.17276585800E+01  0.51100000000E-03 0.  1.
        -12    1    3    3    0    0  0.37621864645E+02  0.17312681337E+02  0.12379848780E+02  0.43224926723E+02  0.00000000000E+00 0.  1.
</event>
<event>
 7    1  0.5646756E-010  0.4778725E+02  0.7816164E-02  0.1312668E+00
        -11   -1    0    0    0    0  0.00000000000E+00  0.00000000000E+00  0.45593999997E+02  0.45594000000E+02  0.51100000000E-03 0.  1.
         11   -1    0    0    0    0 -0.00000000000E+00 -0.00000000000E+00 -0.45593999997E+02  0.45594000000E+02  0.51100000000E-03 0. -1.
    9900012    2    1    2    0    0  0.34369462850E+02 -0.19299263705E+02  0.18163256366E+02  0.47787246113E+02  0.19999886327E+02 0.  0.
         12    1    1    2    0    0 -0.34369462850E+02  0.19299263705E+02 -0.18163256366E+02  0.43400753887E+02  0.00000000000E+00 0. -1.
         11    1    3    3    0    0  0.12924935146E+02 -0.14681729690E+01  0.51600614617E+01  0.13994131447E+02  0.51100000000E-03 0. -1.
        -11    1    3    3    0    0  0.89202723309E+01 -0.13136848080E+02  0.11485793078E+01  0.15920655470E+02  0.51100000000E-03 0.  1.
        -12    1    3    3    0    0  0.12524255373E+02 -0.46942426562E+01  0.11854615596E+02  0.17872459196E+02  0.00000000000E+00 0.  1.
</event>
<event>
 7    1  0.5646756E-010  0.4778727E+02  0.7816164E-02  0.1312668E+00
        -11   -1    0    0    0    0  0.00000000000E+00  0.00000000000E+00  0.45593999997E+02  0.45594000000E+02  0.51100000000E-03 0.  1.
         11   -1    0    0    0    0 -0.00000000000E+00 -0.00000000000E+00 -0.45593999997E+02  0.45594000000E+02  0.51100000000E-03 0. -1.
    9900012    2    1    2    0    0 -0.43445851482E-01 -0.38379881605E+02  0.20263412847E+02  0.47787273050E+02  0.20000009145E+02 0.  0.
         12    1    1    2    0    0  0.43445851482E-01  0.38379881605E+02 -0.20263412847E+02  0.43400726950E+02  0.00000000000E+00 0. -1.
         11    1    3    3    0    0 -0.40145680786E+01 -0.16950583796E+02  0.21531602432E+01  0.17552069598E+02  0.51100000000E-03 0. -1.
        -11    1    3    3    0    0  0.43385600711E+01 -0.20435446539E+01  0.41651582144E+01  0.63519856309E+01  0.51100000000E-03 0.  1.
        -12    1    3    3    0    0 -0.36743784403E+00 -0.19385753156E+02  0.13945094389E+02  0.23883217821E+02  0.00000000000E+00 0.  1.
</event>
<event>
 7    1  0.5646756E-010  0.4778727E+02  0.7816164E-02  0.1312668E+00
        -11   -1    0    0    0    0  0.00000000000E+00  0.00000000000E+00  0.45593999997E+02  0.45594000000E+02  0.51100000000E-03 0.  1.
         11   -1    0    0    0    0 -0.00000000000E+00 -0.00000000000E+00 -0.45593999997E+02  0.45594000000E+02  0.51100000000E-03 0. -1.
    9900012    2    1    2    0    0  0.25598670748E+01  0.36223412565E+02  0.23768356393E+02  0.47787270710E+02  0.19999998474E+02 0.  0.
         12    1    1    2    0    0 -0.25598670748E+01 -0.36223412565E+02 -0.23768356393E+02  0.43400729290E+02  0.00000000000E+00 0. -1.
         11    1    3    3    0    0 -0.15993271784E+01 -0.15764465272E+01  0.34529657960E+01  0.41189809573E+01  0.51100000000E-03 0. -1.
        -11    1    3    3    0    0  0.55559352311E+01  0.19042405407E+02  0.99517247177E+01  0.22192756591E+02  0.51100000000E-03 0.  1.
         12    1    3    3    0    0 -0.13967409779E+01  0.18757453685E+02  0.10363665880E+02  0.21475533162E+02  0.00000000000E+00 0. -1.
</event>
<event>
 7    1  0.5646756E-010  0.4778727E+02  0.7816164E-02  0.1312668E+00
        -11   -1    0    0    0    0  0.00000000000E+00  0.00000000000E+00  0.45593999997E+02  0.45594000000E+02  0.51100000000E-03 0. -1.
         11   -1    0    0    0    0 -0.00000000000E+00 -0.00000000000E+00 -0.45593999997E+02  0.45594000000E+02  0.51100000000E-03 0.  1.
    9900012    2    1    2    0    0  0.34495476221E+00  0.40090020389E+02 -0.16622100662E+02  0.47787274672E+02  0.20000016538E+02 0.  0.
         12    1    1    2    0    0 -0.34495476221E+00 -0.40090020389E+02  0.16622100662E+02  0.43400725328E+02  0.00000000000E+00 0. -1.
         11    1    3    3    0    0 -0.33479305117E+01  0.88220772380E+01  0.25246572002E+01  0.97678851213E+01  0.51100000000E-03 0.  1.
        -11    1    3    3    0    0 -0.30898323545E+01  0.11283699653E+02 -0.59017258317E+01  0.13103408331E+02  0.51100000000E-03 0. -1.
         12    1    3    3    0    0  0.67827176284E+01  0.19984243498E+02 -0.13245032030E+02  0.24915981219E+02  0.00000000000E+00 0. -1.
</event>
<event>
 7    1  0.5646756E-010  0.4778727E+02  0.7816164E-02  0.1312668E+00
        -11   -1    0    0    0    0  0.00000000000E+00  0.00000000000E+00  0.45593999997E+02  0.45594000000E+02  0.51100000000E-03 0.  1.
         11   -1    0    0    0    0 -0.00000000000E+00 -0.00000000000E+00 -0.45593999997E+02  0.45594000000E+02  0.51100000000E-03 0. -1.
    9900012    2    1    2    0    0  0.40053714857E+02 -0.11750159381E+02 -0.11885164901E+02  0.47787268854E+02  0.19999990011E+02 0.  0.
         12    1    1    2    0    0 -0.40053714857E+02  0.11750159381E+02  0.11885164901E+02  0.43400731146E+02  0.00000000000E+00 0. -1.
         11    1    3    3    0    0  0.99570149953E+01  0.22492911005E+01 -0.59826657130E+01  0.11831895341E+02  0.51100000000E-03 0. -1.
        -11    1    3    3    0    0  0.28856018238E+02 -0.15942308829E+02 -0.45415735295E+01  0.33278414772E+02  0.51100000000E-03 0.  1.
        -12    1    3    3    0    0  0.12406816233E+01  0.19428583474E+01 -0.13609256580E+01  0.26769587399E+01  0.00000000000E+00 0.  1.
</event>
<event>
 7    1  0.5646756E-010  0.4778727E+02  0.7816164E-02  0.1312668E+00
        -11   -1    0    0    0    0  0.00000000000E+00  0.00000000000E+00  0.45593999997E+02  0.45594000000E+02  0.51100000000E-03 0.  1.
         11   -1    0    0    0    0 -0.00000000000E+00 -0.00000000000E+00 -0.45593999997E+02  0.45594000000E+02  0.51100000000E-03 0. -1.
    9900012    2    1    2    0    0  0.92769598757E+01 -0.30394514493E+02  0.29558999812E+02  0.47787274595E+02  0.20000016187E+02 0.  0.
         12    1    1    2    0    0 -0.92769598757E+01  0.30394514493E+02 -0.29558999812E+02  0.43400725405E+02  0.00000000000E+00 0. -1.
         11    1    3    3    0    0 -0.24355604092E+01 -0.18216455556E+02  0.18707037179E+02  0.26224500907E+02  0.51100000000E-03 0. -1.
        -11    1    3    3    0    0  0.98170717596E+01 -0.11474225193E+02  0.11954429582E+02  0.19259831999E+02  0.51100000000E-03 0.  1.
         12    1    3    3    0    0  0.18954485253E+01 -0.70383374422E+00 -0.11024669490E+01  0.23029416895E+01  0.00000000000E+00 0. -1.
</event>
<event>
 7    1  0.5646756E-010  0.4778728E+02  0.7816164E-02  0.1312668E+00
        -11   -1    0    0    0    0  0.00000000000E+00  0.00000000000E+00  0.45593999997E+02  0.45594000000E+02  0.51100000000E-03 0.  1.
         11   -1    0    0    0    0 -0.00000000000E+00 -0.00000000000E+00 -0.45593999997E+02  0.45594000000E+02  0.51100000000E-03 0. -1.
    9900012    2    1    2    0    0  0.28047940461E+02 -0.14605894851E+01  0.33087799385E+02  0.47787277035E+02  0.20000027315E+02 0.  0.
         12    1    1    2    0    0 -0.28047940461E+02  0.14605894851E+01 -0.33087799385E+02  0.43400722965E+02  0.00000000000E+00 0. -1.
         11    1    3    3    0    0  0.13447606664E+02  0.48533802653E+01  0.10606296090E+02  0.17801318547E+02  0.51100000000E-03 0.  1.
        -11    1    3    3    0    0  0.16025563616E+02 -0.76618152099E+01  0.21127482356E+02  0.27602402295E+02  0.51100000000E-03 0. -1.
         12    1    3    3    0    0 -0.14252298198E+01  0.13478454596E+01  0.13540209388E+01  0.23835561929E+01  0.00000000000E+00 0. -1.
</event>
<event>
 7    1  0.5646756E-010  0.4778729E+02  0.7816164E-02  0.1312668E+00
        -11   -1    0    0    0    0  0.00000000000E+00  0.00000000000E+00  0.45593999997E+02  0.45594000000E+02  0.51100000000E-03 0.  1.
         11   -1    0    0    0    0 -0.00000000000E+00 -0.00000000000E+00 -0.45593999997E+02  0.45594000000E+02  0.51100000000E-03 0. -1.
    9900012    2    1    2    0    0 -0.23779788253E+02  0.12919754317E+02  0.33929686565E+02  0.47787285589E+02  0.20000066316E+02 0.  0.
         12    1    1    2    0    0  0.23779788253E+02 -0.12919754317E+02 -0.33929686565E+02  0.43400714411E+02  0.00000000000E+00 0. -1.
         11    1    3    3    0    0 -0.35556516984E+01 -0.22696473043E+01  0.13023239430E+02  0.13689365340E+02  0.51100000000E-03 0. -1.
        -11    1    3    3    0    0 -0.13098625778E+02  0.46676254780E+01  0.13545546579E+02  0.19412433059E+02  0.51100000000E-03 0.  1.
         12    1    3    3    0    0 -0.71255107764E+01  0.10521776144E+02  0.73609005549E+01  0.14685487191E+02  0.00000000000E+00 0. -1.
</event>
<event>
 7    1  0.5646756E-010  0.4778727E+02  0.7816164E-02  0.1312668E+00
        -11   -1    0    0    0    0  0.00000000000E+00  0.00000000000E+00  0.45593999997E+02  0.45594000000E+02  0.51100000000E-03 0.  1.
         11   -1    0    0    0    0 -0.00000000000E+00 -0.00000000000E+00 -0.45593999997E+02  0.45594000000E+02  0.51100000000E-03 0. -1.
    9900012    2    1    2    0    0 -0.34585468366E+02 -0.25428853202E+02  0.63908194757E+01  0.47787265319E+02  0.19999973897E+02 0.  0.
         12    1    1    2    0    0  0.34585468366E+02  0.25428853202E+02 -0.63908194757E+01  0.43400734681E+02  0.00000000000E+00 0. -1.
         11    1    3    3    0    0 -0.34395893436E+01 -0.70960052884E+01  0.50547904941E+01  0.93666948870E+01  0.51100000000E-03 0. -1.
        -11    1    3    3    0    0 -0.27309718572E+02 -0.19723890887E+02 -0.10306512354E+01  0.33703335776E+02  0.51100000000E-03 0.  1.
        -12    1    3    3    0    0 -0.38361604503E+01  0.13910429732E+01  0.23666802170E+01  0.47172346564E+01  0.00000000000E+00 0.  1.
</event>
<event>
 7    1  0.5646756E-010  0.4778727E+02  0.7816164E-02  0.1312668E+00
        -11   -1    0    0    0    0  0.00000000000E+00  0.00000000000E+00  0.45593999997E+02  0.45594000000E+02  0.51100000000E-03 0.  1.
         11   -1    0    0    0    0 -0.00000000000E+00 -0.00000000000E+00 -0.45593999997E+02  0.45594000000E+02  0.51100000000E-03 0. -1.
    9900012    2    1    2    0    0 -0.94355375629E+01 -0.41891310335E+02 -0.63017498262E+01  0.47787270725E+02  0.19999998545E+02 0.  0.
         12    1    1    2    0    0  0.94355375629E+01  0.41891310335E+02  0.63017498262E+01  0.43400729275E+02  0.00000000000E+00 0. -1.
         11    1    3    3    0    0 -0.11714821479E+01 -0.53121601506E+01 -0.31728293751E+01  0.62974806386E+01  0.51100000000E-03 0. -1.
        -11    1    3    3    0    0  0.41341542421E+01 -0.12277403760E+02 -0.55651728971E+01  0.14099539851E+02  0.51100000000E-03 0.  1.
        -12    1    3    3    0    0 -0.12398209657E+02 -0.24301746425E+02  0.24362524460E+01  0.27390250236E+02  0.00000000000E+00 0.  1.
</event>
<event>
 7    1  0.5646756E-010  0.4778727E+02  0.7816164E-02  0.1312668E+00
        -11   -1    0    0    0    0  0.00000000000E+00  0.00000000000E+00  0.45593999997E+02  0.45594000000E+02  0.51100000000E-03 0. -1.
         11   -1    0    0    0    0 -0.00000000000E+00 -0.00000000000E+00 -0.45593999997E+02  0.45594000000E+02  0.51100000000E-03 0.  1.
    9900012    2    1    2    0    0  0.75665190706E+00  0.21578737944E+02 -0.37648487301E+02  0.47787273630E+02  0.20000011791E+02 0.  0.
         12    1    1    2    0    0 -0.75665190706E+00 -0.21578737944E+02  0.37648487301E+02  0.43400726370E+02  0.00000000000E+00 0. -1.
         11    1    3    3    0    0 -0.16977397588E+01  0.22126793011E+02 -0.31645661613E+02  0.38651328417E+02  0.51100000000E-03 0.  1.
        -11    1    3    3    0    0 -0.47115614689E+00 -0.28241218879E+01 -0.12906197085E+01  0.31405974027E+01  0.51100000000E-03 0. -1.
        -12    1    3    3    0    0  0.29255478128E+01  0.22760668213E+01 -0.47122059796E+01  0.59953478109E+01  0.00000000000E+00 0.  1.
</event>
<event>
 7    1  0.5646756E-010  0.4778727E+02  0.7816164E-02  0.1312668E+00
        -11   -1    0    0    0    0  0.00000000000E+00  0.00000000000E+00  0.45593999997E+02  0.45594000000E+02  0.51100000000E-03 0.  1.
         11   -1    0    0    0    0 -0.00000000000E+00 -0.00000000000E+00 -0.45593999997E+02  0.45594000000E+02  0.51100000000E-03 0. -1.
    9900012    2    1    2    0    0  0.21148424515E+02 -0.77597809394E+00  0.37891490068E+02  0.47787273958E+02  0.20000013282E+02 0.  0.
         12    1    1    2    0    0 -0.21148424515E+02  0.77597809394E+00 -0.37891490068E+02  0.43400726042E+02  0.00000000000E+00 0. -1.
         11    1    3    3    0    0 -0.13375211134E+01 -0.95214194044E+00  0.43265042620E-01  0.16423791062E+01  0.51100000000E-03 0. -1.
        -11    1    3    3    0    0  0.21792885318E+02 -0.14176893760E+01  0.38521167777E+02  0.44281147917E+02  0.51100000000E-03 0.  1.
        -12    1    3    3    0    0  0.69306031043E+00  0.15938532225E+01 -0.67294275219E+00  0.18637469347E+01  0.00000000000E+00 0.  1.
</event>
<event>
 7    1  0.5646756E-010  0.4778727E+02  0.7816164E-02  0.1312668E+00
        -11   -1    0    0    0    0  0.00000000000E+00  0.00000000000E+00  0.45593999997E+02  0.45594000000E+02  0.51100000000E-03 0.  1.
         11   -1    0    0    0    0 -0.00000000000E+00 -0.00000000000E+00 -0.45593999997E+02  0.45594000000E+02  0.51100000000E-03 0. -1.
    9900012    2    1    2    0    0 -0.35483544968E+02 -0.41096005394E+01  0.24650607292E+02  0.47787271665E+02  0.20000002831E+02 0.  0.
         12    1    1    2    0    0  0.35483544968E+02  0.41096005394E+01 -0.24650607292E+02  0.43400728335E+02  0.00000000000E+00 0. -1.
         11    1    3    3    0    0 -0.31716285558E+01 -0.50769307390E+01  0.59186828442E+00  0.60153771081E+01  0.51100000000E-03 0. -1.
        -11    1    3    3    0    0 -0.25986468523E+02 -0.30141130193E+01  0.21531704773E+02  0.33882085743E+02  0.51100000000E-03 0.  1.
        -12    1    3    3    0    0 -0.63254478892E+01  0.39814432189E+01  0.25270342344E+01  0.78898088143E+01  0.00000000000E+00 0.  1.
</event>
<event>
 7    1  0.5646756E-010  0.4778727E+02  0.7816164E-02  0.1312668E+00
        -11   -1    0    0    0    0  0.00000000000E+00  0.00000000000E+00  0.45593999997E+02  0.45594000000E+02  0.51100000000E-03 0.  1.
         11   -1    0    0    0    0 -0.00000000000E+00 -0.00000000000E+00 -0.45593999997E+02  0.45594000000E+02  0.51100000000E-03 0. -1.
    9900012    2    1    2    0    0  0.17988744286E+02  0.35801737264E+01  0.39334601990E+02  0.47787268686E+02  0.19999989245E+02 0.  0.
         12    1    1    2    0    0 -0.17988744286E+02 -0.35801737264E+01 -0.39334601990E+02  0.43400731314E+02  0.00000000000E+00 0. -1.
         11    1    3    3    0    0  0.84786211181E+01  0.53196867892E+01  0.34637047686E+02  0.36054280692E+02  0.51100000000E-03 0. -1.
        -11    1    3    3    0    0  0.69033945652E+01 -0.18187255737E+00  0.10472824740E+01  0.69847501739E+01  0.51100000000E-03 0.  1.
        -12    1    3    3    0    0  0.26067286031E+01 -0.15576405054E+01  0.36502718304E+01  0.47482378195E+01  0.00000000000E+00 0.  1.
</event>
<event>
 7    1  0.5646756E-010  0.4778726E+02  0.7816164E-02  0.1312668E+00
        -11   -1    0    0    0    0  0.00000000000E+00  0.00000000000E+00  0.45593999997E+02  0.45594000000E+02  0.51100000000E-03 0. -1.
         11   -1    0    0    0    0 -0.00000000000E+00 -0.00000000000E+00 -0.45593999997E+02  0.45594000000E+02  0.51100000000E-03 0.  1.
    9900012    2    1    2    0    0  0.34405587849E+02  0.16828295363E+02 -0.20412938226E+02  0.47787262136E+02  0.19999959385E+02 0.  0.
         12    1    1    2    0    0 -0.34405587849E+02 -0.16828295363E+02  0.20412938226E+02  0.43400737864E+02  0.00000000000E+00 0. -1.
         11    1    3    3    0    0  0.20081107157E+02  0.17055315571E+02 -0.12584614775E+02  0.29197725651E+02  0.51100000000E-03 0. -1.
        -11    1    3    3    0    0  0.27280809108E+01 -0.32877834871E+01 -0.43608266083E+01  0.61048140580E+01  0.51100000000E-03 0.  1.
        -12    1    3    3    0    0  0.11596399782E+02  0.30607632791E+01 -0.34674968428E+01  0.12484722428E+02  0.00000000000E+00 0.  1.
</event>
<event>
 7    1  0.5646756E-010  0.4778727E+02  0.7816164E-02  0.1312668E+00
        -11   -1    0    0    0    0  0.00000000000E+00  0.00000000000E+00  0.45593999997E+02  0.45594000000E+02  0.51100000000E-03 0. -1.
         11   -1    0    0    0    0 -0.00000000000E+00 -0.00000000000E+00 -0.45593999997E+02  0.45594000000E+02  0.51100000000E-03 0.  1.
    9900012    2    1    2    0    0  0.33401071284E+02  0.25024767325E+02 -0.11906001337E+02  0.47787269471E+02  0.19999992827E+02 0.  0.
         12    1    1    2    0    0 -0.33401071284E+02 -0.25024767325E+02  0.11906001337E+02  0.43400730529E+02  0.00000000000E+00 0. -1.
         11    1    3    3    0    0  0.16733386060E+02  0.21497095926E+02 -0.24157296270E+01  0.27348987041E+02  0.51100000000E-03 0. -1.
        -11    1    3    3    0    0  0.13776561082E+02  0.44323039688E+00 -0.63730238482E+01  0.15185701223E+02  0.51100000000E-03 0.  1.
         12    1    3    3    0    0  0.28911241431E+01  0.30844410019E+01 -0.31172478617E+01  0.52525812071E+01  0.00000000000E+00 0. -1.
</event>
<event>
 7    1  0.5646756E-010  0.4778727E+02  0.7816164E-02  0.1312668E+00
        -11   -1    0    0    0    0  0.00000000000E+00  0.00000000000E+00  0.45593999997E+02  0.45594000000E+02  0.51100000000E-03 0.  1.
         11   -1    0    0    0    0 -0.00000000000E+00 -0.00000000000E+00 -0.45593999997E+02  0.45594000000E+02  0.51100000000E-03 0. -1.
    9900012    2    1    2    0    0  0.27188459447E+02 -0.18352051040E+02  0.28418544743E+02  0.47787265101E+02  0.19999972900E+02 0.  0.
         12    1    1    2    0    0 -0.27188459447E+02  0.18352051040E+02 -0.28418544743E+02  0.43400734899E+02  0.00000000000E+00 0. -1.
         11    1    3    3    0    0  0.81130996120E+01  0.33076606350E+01  0.10188499462E+02  0.13437578864E+02  0.51100000000E-03 0. -1.
        -11    1    3    3    0    0  0.76070158056E+01 -0.90301594053E+01  0.52920891690E+01  0.12938959633E+02  0.51100000000E-03 0.  1.
         12    1    3    3    0    0  0.11468344030E+02 -0.12629552270E+02  0.12937956112E+02  0.21410726603E+02  0.00000000000E+00 0. -1.
</event>
<event>
 7    1  0.5646756E-010  0.4778727E+02  0.7816164E-02  0.1312668E+00
        -11   -1    0    0    0    0  0.00000000000E+00  0.00000000000E+00  0.45593999997E+02  0.45594000000E+02  0.51100000000E-03 0. -1.
         11   -1    0    0    0    0 -0.00000000000E+00 -0.00000000000E+00 -0.45593999997E+02  0.45594000000E+02  0.51100000000E-03 0.  1.
    9900012    2    1    2    0    0  0.27520991382E+02 -0.19952180821E+02 -0.26983862431E+02  0.47787270537E+02  0.19999997688E+02 0.  0.
         12    1    1    2    0    0 -0.27520991382E+02  0.19952180821E+02  0.26983862431E+02  0.43400729463E+02  0.00000000000E+00 0. -1.
         11    1    3    3    0    0  0.12860966307E+02 -0.42660851732E+01 -0.20263908721E+02  0.24376831911E+02  0.51100000000E-03 0. -1.
        -11    1    3    3    0    0  0.65101135463E+01 -0.11614531137E+02 -0.40445588596E+01  0.13915364477E+02  0.51100000000E-03 0.  1.
         12    1    3    3    0    0  0.81499115286E+01 -0.40715645117E+01 -0.26753948500E+01  0.94950741493E+01  0.00000000000E+00 0. -1.
</event>
<event>
 7    1  0.5646756E-010  0.4778727E+02  0.7816164E-02  0.1312668E+00
        -11   -1    0    0    0    0  0.00000000000E+00  0.00000000000E+00  0.45593999997E+02  0.45594000000E+02  0.51100000000E-03 0.  1.
         11   -1    0    0    0    0 -0.00000000000E+00 -0.00000000000E+00 -0.45593999997E+02  0.45594000000E+02  0.51100000000E-03 0. -1.
    9900012    2    1    2    0    0 -0.19964271983E+02 -0.31658253046E+02  0.21972845332E+02  0.47787273351E+02  0.20000010516E+02 0.  0.
         12    1    1    2    0    0  0.19964271983E+02  0.31658253046E+02 -0.21972845332E+02  0.43400726649E+02  0.00000000000E+00 0. -1.
         11    1    3    3    0    0 -0.15085426413E+02 -0.12007702651E+02  0.53500106238E+01  0.20009438447E+02  0.51100000000E-03 0. -1.
        -11    1    3    3    0    0 -0.38981987575E+01 -0.19691127837E+02  0.12744588146E+02  0.23777321050E+02  0.51100000000E-03 0.  1.
         12    1    3    3    0    0 -0.98064681209E+00  0.40577442595E-01  0.38782465620E+01  0.40005138538E+01  0.00000000000E+00 0. -1.
</event>
<event>
 7    1  0.5646756E-010  0.4778728E+02  0.7816164E-02  0.1312668E+00
        -11   -1    0    0    0    0  0.00000000000E+00  0.00000000000E+00  0.45593999997E+02  0.45594000000E+02  0.51100000000E-03 0.  1.
         11   -1    0    0    0    0 -0.00000000000E+00 -0.00000000000E+00 -0.45593999997E+02  0.45594000000E+02  0.51100000000E-03 0. -1.
    9900012    2    1    2    0    0 -0.17371303162E+02  0.37553992230E+02 -0.13098006970E+02  0.47787282350E+02  0.20000051545E+02 0.  0.
         12    1    1    2    0    0  0.17371303162E+02 -0.37553992230E+02  0.13098006970E+02  0.43400717650E+02  0.00000000000E+00 0. -1.
         11    1    3    3    0    0 -0.13288726546E+01  0.64193848411E+01 -0.82363351946E+01  0.10526709931E+02  0.51100000000E-03 0. -1.
        -11    1    3    3    0    0 -0.65672050911E+01  0.12674175010E+02  0.38054557679E+01  0.14773096789E+02  0.51100000000E-03 0.  1.
        -12    1    3    3    0    0 -0.94752254163E+01  0.18460432379E+02 -0.86671275437E+01  0.22487475629E+02  0.00000000000E+00 0.  1.
</event>
<event>
 7    1  0.5646756E-010  0.4778729E+02  0.7816164E-02  0.1312668E+00
        -11   -1    0    0    0    0  0.00000000000E+00  0.00000000000E+00  0.45593999997E+02  0.45594000000E+02  0.51100000000E-03 0.  1.
         11   -1    0    0    0    0 -0.00000000000E+00 -0.00000000000E+00 -0.45593999997E+02  0.45594000000E+02  0.51100000000E-03 0. -1.
    9900012    2    1    2    0    0 -0.54567448658E+01  0.15396974976E+02  0.40209187871E+02  0.47787289267E+02  0.20000083082E+02 0.  0.
         12    1    1    2    0    0  0.54567448658E+01 -0.15396974976E+02 -0.40209187871E+02  0.43400710733E+02  0.00000000000E+00 0. -1.
         11    1    3    3    0    0  0.34643518240E+01 -0.10967027999E+01  0.35802128663E+01  0.51012170137E+01  0.51100000000E-03 0. -1.
        -11    1    3    3    0    0 -0.71192890323E+01  0.16568589408E+02  0.36689381102E+02  0.40881696604E+02  0.51100000000E-03 0.  1.
        -12    1    3    3    0    0 -0.18018076576E+01 -0.74911632361E-01 -0.60406097360E-01  0.18043756494E+01  0.00000000000E+00 0.  1.
</event>
<event>
 7    1  0.5646756E-010  0.4778727E+02  0.7816164E-02  0.1312668E+00
        -11   -1    0    0    0    0  0.00000000000E+00  0.00000000000E+00  0.45593999997E+02  0.45594000000E+02  0.51100000000E-03 0.  1.
         11   -1    0    0    0    0 -0.00000000000E+00 -0.00000000000E+00 -0.45593999997E+02  0.45594000000E+02  0.51100000000E-03 0. -1.
    9900012    2    1    2    0    0 -0.31439054435E+02  0.16580990095E+02  0.24905416585E+02  0.47787272454E+02  0.20000006425E+02 0.  0.
         12    1    1    2    0    0  0.31439054435E+02 -0.16580990095E+02 -0.24905416585E+02  0.43400727546E+02  0.00000000000E+00 0. -1.
         11    1    3    3    0    0 -0.78051272608E+01  0.31858313138E+01  0.20469261987E+01  0.86752198728E+01  0.51100000000E-03 0. -1.
        -11    1    3    3    0    0 -0.18064473908E+02  0.74002364233E+01  0.23904348729E+02  0.30862705732E+02  0.51100000000E-03 0.  1.
        -12    1    3    3    0    0 -0.55694532660E+01  0.59949223574E+01 -0.10458583426E+01  0.82493468485E+01  0.00000000000E+00 0.  1.
</event>
<event>
 7    1  0.5646756E-010  0.4778727E+02  0.7816164E-02  0.1312668E+00
        -11   -1    0    0    0    0  0.00000000000E+00  0.00000000000E+00  0.45593999997E+02  0.45594000000E+02  0.51100000000E-03 0.  1.
         11   -1    0    0    0    0 -0.00000000000E+00 -0.00000000000E+00 -0.45593999997E+02  0.45594000000E+02  0.51100000000E-03 0. -1.
    9900012    2    1    2    0    0 -0.30274407853E+02  0.30049735275E+02  0.80060528997E+01  0.47787271389E+02  0.20000001571E+02 0.  0.
         12    1    1    2    0    0  0.30274407853E+02 -0.30049735275E+02 -0.80060528997E+01  0.43400728611E+02  0.00000000000E+00 0. -1.
         11    1    3    3    0    0 -0.10065608960E+02  0.10380360893E+02  0.99755572472E+01  0.17566448664E+02  0.51100000000E-03 0. -1.
        -11    1    3    3    0    0 -0.64293160524E+01  0.10915008140E+02  0.32561956510E+01  0.13079614596E+02  0.51100000000E-03 0.  1.
         12    1    3    3    0    0 -0.13779482840E+02  0.87543662410E+01 -0.52256999985E+01  0.17141208129E+02  0.00000000000E+00 0. -1.
</event>
<event>
 7    1  0.5646756E-010  0.4778727E+02  0.7816164E-02  0.1312668E+00
        -11   -1    0    0    0    0  0.00000000000E+00  0.00000000000E+00  0.45593999997E+02  0.45594000000E+02  0.51100000000E-03 0.  1.
         11   -1    0    0    0    0 -0.00000000000E+00 -0.00000000000E+00 -0.45593999997E+02  0.45594000000E+02  0.51100000000E-03 0. -1.
    9900012    2    1    2    0    0 -0.32508689890E+02 -0.22258837881E+02  0.18203092262E+02  0.47787270166E+02  0.19999995996E+02 0.  0.
         12    1    1    2    0    0  0.32508689890E+02  0.22258837881E+02 -0.18203092262E+02  0.43400729834E+02  0.00000000000E+00 0. -1.
         11    1    3    3    0    0 -0.20249968354E+02 -0.14338563835E+02  0.13806041304E+01  0.24850788704E+02  0.51100000000E-03 0. -1.
        -11    1    3    3    0    0 -0.70796527716E+01 -0.25239203214E+01  0.11569696206E+02  0.13796721630E+02  0.51100000000E-03 0.  1.
         12    1    3    3    0    0 -0.51790687649E+01 -0.53963537243E+01  0.52527919253E+01  0.91397598327E+01  0.00000000000E+00 0. -1.
</event>
<event>
 7    1  0.5646756E-010  0.4778729E+02  0.7816164E-02  0.1312668E+00
        -11   -1    0    0    0    0  0.00000000000E+00  0.00000000000E+00  0.45593999997E+02  0.45594000000E+02  0.51100000000E-03 0. -1.
         11   -1    0    0    0    0 -0.00000000000E+00 -0.00000000000E+00 -0.45593999997E+02  0.45594000000E+02  0.51100000000E-03 0.  1.
    9900012    2    1    2    0    0  0.38340774529E+02 -0.33965463067E+01 -0.20051689451E+02  0.47787288392E+02  0.20000079093E+02 0.  0.
         12    1    1    2    0    0 -0.38340774529E+02  0.33965463067E+01  0.20051689451E+02  0.43400711608E+02  0.00000000000E+00 0. -1.
         11    1    3    3    0    0  0.17355828353E+02 -0.11112110623E+02 -0.97865984460E+01  0.22814059037E+02  0.51100000000E-03 0. -1.
        -11    1    3    3    0    0  0.12766021687E+02  0.31571201091E+01 -0.42741744057E+01  0.13827772207E+02  0.51100000000E-03 0.  1.
         12    1    3    3    0    0  0.82189244885E+01  0.45584442073E+01 -0.59909165995E+01  0.11145457148E+02  0.00000000000E+00 0. -1.
</event>
<event>
 7    1  0.5646756E-010  0.4778727E+02  0.7816164E-02  0.1312668E+00
        -11   -1    0    0    0    0  0.00000000000E+00  0.00000000000E+00  0.45593999997E+02  0.45594000000E+02  0.51100000000E-03 0.  1.
         11   -1    0    0    0    0 -0.00000000000E+00 -0.00000000000E+00 -0.45593999997E+02  0.45594000000E+02  0.51100000000E-03 0. -1.
    9900012    2    1    2    0    0  0.15341428157E+01 -0.39977188180E+02  0.16825402046E+02  0.47787270479E+02  0.19999997423E+02 0.  0.
         12    1    1    2    0    0 -0.15341428157E+01  0.39977188180E+02 -0.16825402046E+02  0.43400729521E+02  0.00000000000E+00 0. -1.
         11    1    3    3    0    0  0.21589209709E-02  0.41725987834E+00  0.41323187997E+01  0.41533323236E+01  0.51100000000E-03 0. -1.
        -11    1    3    3    0    0  0.53016620539E+01 -0.32940847657E+02  0.94894034548E+01  0.34687978365E+02  0.51100000000E-03 0.  1.
         12    1    3    3    0    0 -0.37696781592E+01 -0.74536004009E+01  0.32036797916E+01  0.89459597902E+01  0.00000000000E+00 0. -1.
</event>
<event>
 7    1  0.5646756E-010  0.4778731E+02  0.7816164E-02  0.1312668E+00
        -11   -1    0    0    0    0  0.00000000000E+00  0.00000000000E+00  0.45593999997E+02  0.45594000000E+02  0.51100000000E-03 0. -1.
         11   -1    0    0    0    0 -0.00000000000E+00 -0.00000000000E+00 -0.45593999997E+02  0.45594000000E+02  0.51100000000E-03 0.  1.
    9900012    2    1    2    0    0 -0.38585351198E+02  0.12896066404E+02  0.15115614792E+02  0.47787312605E+02  0.20000189491E+02 0.  0.
         12    1    1    2    0    0  0.38585351198E+02 -0.12896066404E+02 -0.15115614792E+02  0.43400687395E+02  0.00000000000E+00 0. -1.
         11    1    3    3    0    0 -0.24145598920E+02  0.11277972984E+02  0.15050610032E+02  0.30605938711E+02  0.51100000000E-03 0. -1.
        -11    1    3    3    0    0 -0.11142448350E+02  0.40944754772E+01  0.28463325467E+01  0.12207395049E+02  0.51100000000E-03 0.  1.
         12    1    3    3    0    0 -0.32973039287E+01 -0.24763820569E+01 -0.27813277864E+01  0.49739788445E+01  0.00000000000E+00 0. -1.
</event>
<event>
 7    1  0.5646756E-010  0.4778728E+02  0.7816164E-02  0.1312668E+00
        -11   -1    0    0    0    0  0.00000000000E+00  0.00000000000E+00  0.45593999997E+02  0.45594000000E+02  0.51100000000E-03 0.  1.
         11   -1    0    0    0    0 -0.00000000000E+00 -0.00000000000E+00 -0.45593999997E+02  0.45594000000E+02  0.51100000000E-03 0. -1.
    9900012    2    1    2    0    0 -0.54590195047E+01  0.31121889800E+02  0.29753142357E+02  0.47787281125E+02  0.20000045963E+02 0.  0.
         12    1    1    2    0    0  0.54590195047E+01 -0.31121889800E+02 -0.29753142357E+02  0.43400718875E+02  0.00000000000E+00 0. -1.
         11    1    3    3    0    0 -0.71616827571E+01  0.87638133987E+01  0.77238121492E+01  0.13702240677E+02  0.51100000000E-03 0. -1.
        -11    1    3    3    0    0 -0.17388262035E+01  0.27672178605E+01  0.10713046921E+02  0.11200463645E+02  0.51100000000E-03 0.  1.
         12    1    3    3    0    0  0.34414894560E+01  0.19590858541E+02  0.11316283287E+02  0.22884576804E+02  0.00000000000E+00 0. -1.
</event>
<event>
 7    1  0.5646756E-010  0.4778729E+02  0.7816164E-02  0.1312668E+00
        -11   -1    0    0    0    0  0.00000000000E+00  0.00000000000E+00  0.45593999997E+02  0.45594000000E+02  0.51100000000E-03 0.  1.
         11   -1    0    0    0    0 -0.00000000000E+00 -0.00000000000E+00 -0.45593999997E+02  0.45594000000E+02  0.51100000000E-03 0. -1.
    9900012    2    1    2    0    0 -0.34516780924E+01  0.24296866810E+02  0.35796228763E+02  0.47787287885E+02  0.20000076784E+02 0.  0.
         12    1    1    2    0    0  0.34516780924E+01 -0.24296866810E+02 -0.35796228763E+02  0.43400712115E+02  0.00000000000E+00 0. -1.
         11    1    3    3    0    0 -0.84355611199E+01  0.15032543970E+02  0.12859335424E+02  0.21505780093E+02  0.51100000000E-03 0. -1.
        -11    1    3    3    0    0  0.97178197088E+00  0.81563508527E+01  0.18249353854E+02  0.20012729343E+02  0.51100000000E-03 0.  1.
         12    1    3    3    0    0  0.40121010566E+01  0.11079719872E+01  0.46875394850E+01  0.62687784485E+01  0.00000000000E+00 0. -1.
</event>
<event>
 7    1  0.5646756E-010  0.4778727E+02  0.7816164E-02  0.1312668E+00
        -11   -1    0    0    0    0  0.00000000000E+00  0.00000000000E+00  0.45593999997E+02  0.45594000000E+02  0.51100000000E-03 0.  1.
         11   -1    0    0    0    0 -0.00000000000E+00 -0.00000000000E+00 -0.45593999997E+02  0.45594000000E+02  0.51100000000E-03 0. -1.
    9900012    2    1    2    0    0  0.43237218810E+02 -0.37612181871E+01  0.14047192678E+00  0.47787267460E+02  0.19999983657E+02 0.  0.
         12    1    1    2    0    0 -0.43237218810E+02  0.37612181871E+01 -0.14047192678E+00  0.43400732540E+02  0.00000000000E+00 0. -1.
         11    1    3    3    0    0  0.16010106192E+02 -0.22379957130E+01 -0.84395637087E+01  0.18236182741E+02  0.51100000000E-03 0. -1.
        -11    1    3    3    0    0  0.20442495112E+02 -0.38422322930E+01  0.44309871708E+01  0.21267157848E+02  0.51100000000E-03 0.  1.
         12    1    3    3    0    0  0.67846175056E+01  0.23190098190E+01  0.41490484647E+01  0.82839268708E+01  0.00000000000E+00 0. -1.
</event>
<event>
 7    1  0.5646756E-010  0.4778731E+02  0.7816164E-02  0.1312668E+00
        -11   -1    0    0    0    0  0.00000000000E+00  0.00000000000E+00  0.45593999997E+02  0.45594000000E+02  0.51100000000E-03 0. -1.
         11   -1    0    0    0    0 -0.00000000000E+00 -0.00000000000E+00 -0.45593999997E+02  0.45594000000E+02  0.51100000000E-03 0.  1.
    9900012    2    1    2    0    0 -0.26293269761E+02  0.40678296378E+01 -0.34289015467E+02  0.47787310439E+02  0.20000179615E+02 0.  0.
         12    1    1    2    0    0  0.26293269761E+02 -0.40678296378E+01  0.34289015467E+02  0.43400689561E+02  0.00000000000E+00 0. -1.
         11    1    3    3    0    0  0.84675950359E+00 -0.38599621485E+01 -0.41307815479E+01  0.57166131496E+01  0.51100000000E-03 0. -1.
        -11    1    3    3    0    0 -0.17110392090E+02  0.75025479455E+01 -0.15347688398E+02  0.24178612089E+02  0.51100000000E-03 0.  1.
        -12    1    3    3    0    0 -0.10029637175E+02  0.42524384082E+00 -0.14810545521E+02  0.17892085200E+02  0.00000000000E+00 0.  1.
</event>
<event>
 7    1  0.5646756E-010  0.4778727E+02  0.7816164E-02  0.1312668E+00
        -11   -1    0    0    0    0  0.00000000000E+00  0.00000000000E+00  0.45593999997E+02  0.45594000000E+02  0.51100000000E-03 0.  1.
         11   -1    0    0    0    0 -0.00000000000E+00 -0.00000000000E+00 -0.45593999997E+02  0.45594000000E+02  0.51100000000E-03 0. -1.
    9900012    2    1    2    0    0 -0.43971642426E+01  0.42677408990E+02  0.65518763233E+01  0.47787269881E+02  0.19999994697E+02 0.  0.
         12    1    1    2    0    0  0.43971642426E+01 -0.42677408990E+02 -0.65518763233E+01  0.43400730119E+02  0.00000000000E+00 0. -1.
         11    1    3    3    0    0  0.24507817456E+01  0.13181932913E+02  0.54615167750E+01  0.14477494680E+02  0.51100000000E-03 0. -1.
        -11    1    3    3    0    0 -0.94357805235E+01  0.18859827698E+02 -0.36135207700E+01  0.21395901185E+02  0.51100000000E-03 0.  1.
        -12    1    3    3    0    0  0.25878345353E+01  0.10635648379E+02  0.47038803184E+01  0.11913874016E+02  0.00000000000E+00 0.  1.
</event>
<event>
 7    1  0.5646756E-010  0.4778728E+02  0.7816164E-02  0.1312668E+00
        -11   -1    0    0    0    0  0.00000000000E+00  0.00000000000E+00  0.45593999997E+02  0.45594000000E+02  0.51100000000E-03 0.  1.
         11   -1    0    0    0    0 -0.00000000000E+00 -0.00000000000E+00 -0.45593999997E+02  0.45594000000E+02  0.51100000000E-03 0. -1.
    9900012    2    1    2    0    0 -0.22879138424E+02  0.12549292765E+02  0.34679722842E+02  0.47787275348E+02  0.20000019624E+02 0.  0.
         12    1    1    2    0    0  0.22879138424E+02 -0.12549292765E+02 -0.34679722842E+02  0.43400724652E+02  0.00000000000E+00 0. -1.
         11    1    3    3    0    0 -0.17492949489E+02  0.80837304346E+01  0.13373642925E+02  0.23456434190E+02  0.51100000000E-03 0. -1.
        -11    1    3    3    0    0 -0.42604248914E+01  0.20071934956E+00  0.18758086814E+02  0.19236874219E+02  0.51100000000E-03 0.  1.
        -12    1    3    3    0    0 -0.11257640429E+01  0.42648429806E+01  0.25479931019E+01  0.50939669392E+01  0.00000000000E+00 0.  1.
</event>
<event>
 7    1  0.5646756E-010  0.4778727E+02  0.7816164E-02  0.1312668E+00
        -11   -1    0    0    0    0  0.00000000000E+00  0.00000000000E+00  0.45593999997E+02  0.45594000000E+02  0.51100000000E-03 0.  1.
         11   -1    0    0    0    0 -0.00000000000E+00 -0.00000000000E+00 -0.45593999997E+02  0.45594000000E+02  0.51100000000E-03 0. -1.
    9900012    2    1    2    0    0  0.12276878039E+02 -0.16081999835E+01  0.41597061281E+02  0.47787267877E+02  0.19999985560E+02 0.  0.
         12    1    1    2    0    0 -0.12276878039E+02  0.16081999835E+01 -0.41597061281E+02  0.43400732123E+02  0.00000000000E+00 0. -1.
         11    1    3    3    0    0  0.84777002491E+01 -0.86710743284E+00  0.10115127539E+02  0.13226453879E+02  0.51100000000E-03 0. -1.
        -11    1    3    3    0    0  0.27697930911E+00 -0.18820879029E+01  0.30722486876E+02  0.30781328310E+02  0.51100000000E-03 0.  1.
         12    1    3    3    0    0  0.35221984807E+01  0.11409953522E+01  0.75944686595E+00  0.37794856890E+01  0.00000000000E+00 0. -1.
</event>
<event>
 7    1  0.5646756E-010  0.4778727E+02  0.7816164E-02  0.1312668E+00
        -11   -1    0    0    0    0  0.00000000000E+00  0.00000000000E+00  0.45593999997E+02  0.45594000000E+02  0.51100000000E-03 0.  1.
         11   -1    0    0    0    0 -0.00000000000E+00 -0.00000000000E+00 -0.45593999997E+02  0.45594000000E+02  0.51100000000E-03 0. -1.
    9900012    2    1    2    0    0 -0.31877552118E+02 -0.19250250011E+02  0.22290647457E+02  0.47787269377E+02  0.19999992400E+02 0.  0.
         12    1    1    2    0    0  0.31877552118E+02  0.19250250011E+02 -0.22290647457E+02  0.43400730623E+02  0.00000000000E+00 0. -1.
         11    1    3    3    0    0 -0.46140996750E+01 -0.82525730906E+01  0.46733328642E+00  0.94664290569E+01  0.51100000000E-03 0. -1.
        -11    1    3    3    0    0 -0.19154843271E+02 -0.12188122520E+02  0.19146393517E+02  0.29699204304E+02  0.51100000000E-03 0.  1.
        -12    1    3    3    0    0 -0.81086091716E+01  0.11904455995E+01  0.26769206536E+01  0.86216360169E+01  0.00000000000E+00 0.  1.
</event>
<event>
 7    1  0.5646756E-010  0.4778727E+02  0.7816164E-02  0.1312668E+00
        -11   -1    0    0    0    0  0.00000000000E+00  0.00000000000E+00  0.45593999997E+02  0.45594000000E+02  0.51100000000E-03 0. -1.
         11   -1    0    0    0    0 -0.00000000000E+00 -0.00000000000E+00 -0.45593999997E+02  0.45594000000E+02  0.51100000000E-03 0.  1.
    9900012    2    1    2    0    0  0.18150139849E+02 -0.10478187868E+02 -0.38005305437E+02  0.47787271448E+02  0.20000001838E+02 0.  0.
         12    1    1    2    0    0 -0.18150139849E+02  0.10478187868E+02  0.38005305437E+02  0.43400728552E+02  0.00000000000E+00 0. -1.
         11    1    3    3    0    0  0.30218276896E+00  0.31522249338E+01 -0.16125189614E+01  0.35535973493E+01  0.51100000000E-03 0. -1.
        -11    1    3    3    0    0  0.19282108742E+02 -0.11446321015E+02 -0.31218852905E+02  0.38437413536E+02  0.51100000000E-03 0.  1.
         12    1    3    3    0    0 -0.14341516621E+01 -0.21840917864E+01 -0.51739335701E+01  0.57962605626E+01  0.00000000000E+00 0. -1.
</event>
<event>
 7    1  0.5646756E-010  0.4778730E+02  0.7816164E-02  0.1312668E+00
        -11   -1    0    0    0    0  0.00000000000E+00  0.00000000000E+00  0.45593999997E+02  0.45594000000E+02  0.51100000000E-03 0.  1.
         11   -1    0    0    0    0 -0.00000000000E+00 -0.00000000000E+00 -0.45593999997E+02  0.45594000000E+02  0.51100000000E-03 0. -1.
    9900012    2    1    2    0    0 -0.16357083980E+02  0.37435790618E+02  0.14650202415E+02  0.47787296707E+02  0.20000117007E+02 0.  0.
         12    1    1    2    0    0  0.16357083980E+02 -0.37435790618E+02 -0.14650202415E+02  0.43400703293E+02  0.00000000000E+00 0. -1.
         11    1    3    3    0    0 -0.32955133128E+01  0.24768029219E+02  0.63561926714E+01  0.25782103579E+02  0.51100000000E-03 0. -1.
        -11    1    3    3    0    0 -0.10756526659E+02  0.12134304101E+02  0.10033402615E+02  0.19068648880E+02  0.51100000000E-03 0.  1.
         12    1    3    3    0    0 -0.23050440076E+01  0.53345729732E+00 -0.17393928716E+01  0.29365442491E+01  0.00000000000E+00 0. -1.
</event>
<event>
 7    1  0.5646756E-010  0.4778727E+02  0.7816164E-02  0.1312668E+00
        -11   -1    0    0    0    0  0.00000000000E+00  0.00000000000E+00  0.45593999997E+02  0.45594000000E+02  0.51100000000E-03 0. -1.
         11   -1    0    0    0    0 -0.00000000000E+00 -0.00000000000E+00 -0.45593999997E+02  0.45594000000E+02  0.51100000000E-03 0.  1.
    9900012    2    1    2    0    0 -0.14061898289E+02  0.34097847741E+02 -0.22874072245E+02  0.47787269763E+02  0.19999994157E+02 0.  0.
         12    1    1    2    0    0  0.14061898289E+02 -0.34097847741E+02  0.22874072245E+02  0.43400730237E+02  0.00000000000E+00 0. -1.
         11    1    3    3    0    0  0.10035865547E+01 -0.12889734594E+01  0.21335547967E+00  0.16474705987E+01  0.51100000000E-03 0. -1.
        -11    1    3    3    0    0 -0.12021520222E+02  0.15496867432E+02 -0.90153564312E+01  0.21585793951E+02  0.51100000000E-03 0.  1.
         12    1    3    3    0    0 -0.30439646216E+01  0.19889953769E+02 -0.14072071293E+02  0.24554005213E+02  0.00000000000E+00 0. -1.
</event>
<event>
 7    1  0.5646756E-010  0.4778730E+02  0.7816164E-02  0.1312668E+00
        -11   -1    0    0    0    0  0.00000000000E+00  0.00000000000E+00  0.45593999997E+02  0.45594000000E+02  0.51100000000E-03 0. -1.
         11   -1    0    0    0    0 -0.00000000000E+00 -0.00000000000E+00 -0.45593999997E+02  0.45594000000E+02  0.51100000000E-03 0.  1.
    9900012    2    1    2    0    0 -0.16673073170E+02  0.39682541295E+02  0.55610331775E+01  0.47787302511E+02  0.20000143467E+02 0.  0.
         12    1    1    2    0    0  0.16673073170E+02 -0.39682541295E+02 -0.55610331775E+01  0.43400697489E+02  0.00000000000E+00 0. -1.
         11    1    3    3    0    0 -0.36628263026E+01 -0.24952353844E+00  0.11789160709E+01  0.38559566754E+01  0.51100000000E-03 0. -1.
        -11    1    3    3    0    0 -0.10367451975E+02  0.37746731781E+02  0.68060552792E+01  0.39731879005E+02  0.51100000000E-03 0.  1.
         12    1    3    3    0    0 -0.26427948919E+01  0.21853330529E+01 -0.24239381726E+01  0.41994668301E+01  0.00000000000E+00 0. -1.
</event>
<event>
 7    1  0.5646756E-010  0.4778727E+02  0.7816164E-02  0.1312668E+00
        -11   -1    0    0    0    0  0.00000000000E+00  0.00000000000E+00  0.45593999997E+02  0.45594000000E+02  0.51100000000E-03 0.  1.
         11   -1    0    0    0    0 -0.00000000000E+00 -0.00000000000E+00 -0.45593999997E+02  0.45594000000E+02  0.51100000000E-03 0. -1.
    9900012    2    1    2    0    0  0.21238578275E+01 -0.30316228914E+01  0.43242589712E+02  0.47787273342E+02  0.20000010477E+02 0.  0.
         12    1    1    2    0    0 -0.21238578275E+01  0.30316228914E+01 -0.43242589712E+02  0.43400726658E+02  0.00000000000E+00 0. -1.
         11    1    3    3    0    0 -0.11678759620E+01  0.72732078152E+01  0.14396923476E+02  0.16172040441E+02  0.51100000000E-03 0. -1.
        -11    1    3    3    0    0 -0.13532513509E+01 -0.63571529573E+01  0.18483643276E+02  0.19593104704E+02  0.51100000000E-03 0.  1.
         12    1    3    3    0    0  0.46449851404E+01 -0.39476777493E+01  0.10362022960E+02  0.12022128197E+02  0.00000000000E+00 0. -1.
</event>
<event>
 7    1  0.5646756E-010  0.4778727E+02  0.7816164E-02  0.1312668E+00
        -11   -1    0    0    0    0  0.00000000000E+00  0.00000000000E+00  0.45593999997E+02  0.45594000000E+02  0.51100000000E-03 0. -1.
         11   -1    0    0    0    0 -0.00000000000E+00 -0.00000000000E+00 -0.45593999997E+02  0.45594000000E+02  0.51100000000E-03 0.  1.
    9900012    2    1    2    0    0  0.26648416683E+02  0.26994141240E+02 -0.21090319611E+02  0.47787270118E+02  0.19999995777E+02 0.  0.
         12    1    1    2    0    0 -0.26648416683E+02 -0.26994141240E+02  0.21090319611E+02  0.43400729882E+02  0.00000000000E+00 0. -1.
         11    1    3    3    0    0  0.13677432995E+01  0.10008894453E+02 -0.98465406399E+01  0.14106844180E+02  0.51100000000E-03 0. -1.
        -11    1    3    3    0    0  0.86382286668E+01  0.86404077027E+01 -0.84484291279E+01  0.14854345989E+02  0.51100000000E-03 0.  1.
         12    1    3    3    0    0  0.16642444717E+02  0.83448390844E+01 -0.27953498433E+01  0.18826079949E+02  0.00000000000E+00 0. -1.
</event>
<event>
 7    1  0.5646756E-010  0.4778727E+02  0.7816164E-02  0.1312668E+00
        -11   -1    0    0    0    0  0.00000000000E+00  0.00000000000E+00  0.45593999997E+02  0.45594000000E+02  0.51100000000E-03 0.  1.
         11   -1    0    0    0    0 -0.00000000000E+00 -0.00000000000E+00 -0.45593999997E+02  0.45594000000E+02  0.51100000000E-03 0. -1.
    9900012    2    1    2    0    0 -0.15736713108E+02 -0.14541110266E+00  0.40446979362E+02  0.47787269322E+02  0.19999992148E+02 0.  0.
         12    1    1    2    0    0  0.15736713108E+02  0.14541110266E+00 -0.40446979362E+02  0.43400730678E+02  0.00000000000E+00 0. -1.
         11    1    3    3    0    0 -0.93670344642E-01 -0.23889745073E+01  0.21217908599E+02  0.21352180659E+02  0.51100000000E-03 0. -1.
        -11    1    3    3    0    0 -0.14266946534E+02 -0.12800147002E+01  0.14543926873E+02  0.20413476191E+02  0.51100000000E-03 0.  1.
        -12    1    3    3    0    0 -0.13760962294E+01  0.35235781048E+01  0.46851438902E+01  0.60216124722E+01  0.00000000000E+00 0.  1.
</event>
<event>
 7    1  0.5646756E-010  0.4778727E+02  0.7816164E-02  0.1312668E+00
        -11   -1    0    0    0    0  0.00000000000E+00  0.00000000000E+00  0.45593999997E+02  0.45594000000E+02  0.51100000000E-03 0.  1.
         11   -1    0    0    0    0 -0.00000000000E+00 -0.00000000000E+00 -0.45593999997E+02  0.45594000000E+02  0.51100000000E-03 0. -1.
    9900012    2    1    2    0    0 -0.13492626748E+02 -0.36642276968E+02  0.18945071704E+02  0.47787272128E+02  0.20000004939E+02 0.  0.
         12    1    1    2    0    0  0.13492626748E+02  0.36642276968E+02 -0.18945071704E+02  0.43400727872E+02  0.00000000000E+00 0. -1.
         11    1    3    3    0    0  0.19864331491E+01 -0.84465221396E+01  0.99690484122E+01  0.13216337595E+02  0.51100000000E-03 0. -1.
        -11    1    3    3    0    0 -0.10748625447E+02 -0.26061703529E+02  0.73722225482E+01  0.29139234812E+02  0.51100000000E-03 0.  1.
        -12    1    3    3    0    0 -0.47304344504E+01 -0.21340512994E+01  0.16038007435E+01  0.54316997214E+01  0.00000000000E+00 0.  1.
</event>
<event>
 7    1  0.5646756E-010  0.4778727E+02  0.7816164E-02  0.1312668E+00
        -11   -1    0    0    0    0  0.00000000000E+00  0.00000000000E+00  0.45593999997E+02  0.45594000000E+02  0.51100000000E-03 0. -1.
         11   -1    0    0    0    0 -0.00000000000E+00 -0.00000000000E+00 -0.45593999997E+02  0.45594000000E+02  0.51100000000E-03 0.  1.
    9900012    2    1    2    0    0 -0.34508778689E+02  0.42486848523E+01 -0.25975297996E+02  0.47787271485E+02  0.20000002011E+02 0.  0.
         12    1    1    2    0    0  0.34508778689E+02 -0.42486848523E+01  0.25975297996E+02  0.43400728515E+02  0.00000000000E+00 0. -1.
         11    1    3    3    0    0 -0.70130167301E+00  0.20894211262E+01 -0.32198867541E+01  0.39019451110E+01  0.51100000000E-03 0. -1.
        -11    1    3    3    0    0 -0.24039768676E+02  0.88600604081E+01 -0.14402693738E+02  0.29391303741E+02  0.51100000000E-03 0.  1.
        -12    1    3    3    0    0 -0.97677083407E+01 -0.67007966819E+01 -0.83527175042E+01  0.14494022634E+02  0.00000000000E+00 0.  1.
</event>
<event>
 7    1  0.5646756E-010  0.4778727E+02  0.7816164E-02  0.1312668E+00
        -11   -1    0    0    0    0  0.00000000000E+00  0.00000000000E+00  0.45593999997E+02  0.45594000000E+02  0.51100000000E-03 0. -1.
         11   -1    0    0    0    0 -0.00000000000E+00 -0.00000000000E+00 -0.45593999997E+02  0.45594000000E+02  0.51100000000E-03 0.  1.
    9900012    2    1    2    0    0  0.86904255000E+01  0.25179614848E+02 -0.34264949505E+02  0.47787271160E+02  0.20000000528E+02 0.  0.
         12    1    1    2    0    0 -0.86904255000E+01 -0.25179614848E+02  0.34264949505E+02  0.43400728840E+02  0.00000000000E+00 0. -1.
         11    1    3    3    0    0  0.28058843125E+01  0.32746594445E+01  0.86786027844E+00  0.43988138147E+01  0.51100000000E-03 0. -1.
        -11    1    3    3    0    0  0.65708985711E+01  0.18226931776E+02 -0.34535974445E+02  0.39599637386E+02  0.51100000000E-03 0.  1.
         12    1    3    3    0    0 -0.68635738354E+00  0.36780236275E+01 -0.59683533838E+00  0.37888199592E+01  0.00000000000E+00 0. -1.
</event>
<event>
 7    1  0.5646756E-010  0.4778727E+02  0.7816164E-02  0.1312668E+00
        -11   -1    0    0    0    0  0.00000000000E+00  0.00000000000E+00  0.45593999997E+02  0.45594000000E+02  0.51100000000E-03 0.  1.
         11   -1    0    0    0    0 -0.00000000000E+00 -0.00000000000E+00 -0.45593999997E+02  0.45594000000E+02  0.51100000000E-03 0. -1.
    9900012    2    1    2    0    0 -0.13916944445E+02 -0.37841206493E+02  0.16061904965E+02  0.47787273708E+02  0.20000012146E+02 0.  0.
         12    1    1    2    0    0  0.13916944445E+02  0.37841206493E+02 -0.16061904965E+02  0.43400726292E+02  0.00000000000E+00 0. -1.
         11    1    3    3    0    0 -0.62400440650E+01 -0.69514335033E+01  0.11750319111E+02  0.15011015194E+02  0.51100000000E-03 0. -1.
        -11    1    3    3    0    0 -0.52262074599E+01 -0.90475400394E+01  0.43371437631E+00  0.10457501308E+02  0.51100000000E-03 0.  1.
         12    1    3    3    0    0 -0.24506929202E+01 -0.21842232950E+02  0.38778714776E+01  0.22318757207E+02  0.00000000000E+00 0. -1.
</event>
<event>
 7    1  0.5646756E-010  0.4778727E+02  0.7816164E-02  0.1312668E+00
        -11   -1    0    0    0    0  0.00000000000E+00  0.00000000000E+00  0.45593999997E+02  0.45594000000E+02  0.51100000000E-03 0.  1.
         11   -1    0    0    0    0 -0.00000000000E+00 -0.00000000000E+00 -0.45593999997E+02  0.45594000000E+02  0.51100000000E-03 0. -1.
    9900012    2    1    2    0    0  0.11067704797E+02 -0.35800186642E+02  0.21896938394E+02  0.47787270005E+02  0.19999995260E+02 0.  0.
         12    1    1    2    0    0 -0.11067704797E+02  0.35800186642E+02 -0.21896938394E+02  0.43400729995E+02  0.00000000000E+00 0. -1.
         11    1    3    3    0    0  0.31200669941E+01 -0.20741332926E+01 -0.74833804358E-01  0.37473253559E+01  0.51100000000E-03 0. -1.
        -11    1    3    3    0    0  0.55948953749E+01 -0.13442027698E+02  0.73494651455E+00  0.14578446746E+02  0.51100000000E-03 0.  1.
        -12    1    3    3    0    0  0.23527424279E+01 -0.20284025651E+02  0.21236825684E+02  0.29461497903E+02  0.00000000000E+00 0.  1.
</event>
<event>
 7    1  0.5646756E-010  0.4778727E+02  0.7816164E-02  0.1312668E+00
        -11   -1    0    0    0    0  0.00000000000E+00  0.00000000000E+00  0.45593999997E+02  0.45594000000E+02  0.51100000000E-03 0.  1.
         11   -1    0    0    0    0 -0.00000000000E+00 -0.00000000000E+00 -0.45593999997E+02  0.45594000000E+02  0.51100000000E-03 0. -1.
    9900012    2    1    2    0    0  0.34900839959E+02  0.17034070361E+02  0.19375118396E+02  0.47787269640E+02  0.19999993596E+02 0.  0.
         12    1    1    2    0    0 -0.34900839959E+02 -0.17034070361E+02 -0.19375118396E+02  0.43400730360E+02  0.00000000000E+00 0. -1.
         11    1    3    3    0    0  0.14479936642E+01  0.95734388617E+00 -0.26311828190E+01  0.31521922936E+01  0.51100000000E-03 0. -1.
        -11    1    3    3    0    0  0.27442266451E+02  0.16834191944E+02  0.21142009391E+02  0.38515614596E+02  0.51100000000E-03 0.  1.
         12    1    3    3    0    0  0.60105798438E+01 -0.75746546836E+00  0.86429182385E+00  0.61194627502E+01  0.00000000000E+00 0. -1.
</event>
<event>
 7    1  0.5646756E-010  0.4778727E+02  0.7816164E-02  0.1312668E+00
        -11   -1    0    0    0    0  0.00000000000E+00  0.00000000000E+00  0.45593999997E+02  0.45594000000E+02  0.51100000000E-03 0. -1.
         11   -1    0    0    0    0 -0.00000000000E+00 -0.00000000000E+00 -0.45593999997E+02  0.45594000000E+02  0.51100000000E-03 0.  1.
    9900012    2    1    2    0    0 -0.33289144533E+02 -0.49944509985E+00 -0.27842534339E+02  0.47787270656E+02  0.19999998229E+02 0.  0.
         12    1    1    2    0    0  0.33289144533E+02  0.49944509985E+00  0.27842534339E+02  0.43400729344E+02  0.00000000000E+00 0. -1.
         11    1    3    3    0    0 -0.17690949309E+02 -0.52522999253E+01 -0.13599213083E+02  0.22923676379E+02  0.51100000000E-03 0. -1.
        -11    1    3    3    0    0 -0.22086597820E+01  0.62301473423E+01 -0.27624131129E+01  0.71640659131E+01  0.51100000000E-03 0.  1.
        -12    1    3    3    0    0 -0.13389535442E+02 -0.14772925168E+01 -0.11480908144E+02  0.17699528364E+02  0.00000000000E+00 0.  1.
</event>
<event>
 7    1  0.5646756E-010  0.4778727E+02  0.7816164E-02  0.1312668E+00
        -11   -1    0    0    0    0  0.00000000000E+00  0.00000000000E+00  0.45593999997E+02  0.45594000000E+02  0.51100000000E-03 0.  1.
         11   -1    0    0    0    0 -0.00000000000E+00 -0.00000000000E+00 -0.45593999997E+02  0.45594000000E+02  0.51100000000E-03 0. -1.
    9900012    2    1    2    0    0 -0.33199390814E+02 -0.16786549250E+02  0.22352520841E+02  0.47787274498E+02  0.20000015747E+02 0.  0.
         12    1    1    2    0    0  0.33199390814E+02  0.16786549250E+02 -0.22352520841E+02  0.43400725502E+02  0.00000000000E+00 0. -1.
         11    1    3    3    0    0 -0.21759674062E+02 -0.14356318826E+02  0.17257444876E+02  0.31263504433E+02  0.51100000000E-03 0.  1.
        -11    1    3    3    0    0  0.17750130822E+01 -0.45644498862E+00  0.21801733207E+01  0.28481870443E+01  0.51100000000E-03 0. -1.
        -12    1    3    3    0    0 -0.13214729834E+02 -0.19737854345E+01  0.29149026442E+01  0.13675583021E+02  0.00000000000E+00 0.  1.
</event>
<event>
 7    1  0.5646756E-010  0.4778729E+02  0.7816164E-02  0.1312668E+00
        -11   -1    0    0    0    0  0.00000000000E+00  0.00000000000E+00  0.45593999997E+02  0.45594000000E+02  0.51100000000E-03 0.  1.
         11   -1    0    0    0    0 -0.00000000000E+00 -0.00000000000E+00 -0.45593999997E+02  0.45594000000E+02  0.51100000000E-03 0. -1.
    9900012    2    1    2    0    0  0.32273492590E+02 -0.10065867315E+02  0.27216198739E+02  0.47787291681E+02  0.20000094092E+02 0.  0.
         12    1    1    2    0    0 -0.32273492590E+02  0.10065867315E+02 -0.27216198739E+02  0.43400708319E+02  0.00000000000E+00 0. -1.
         11    1    3    3    0    0  0.67733433716E+01 -0.15120420234E+00  0.43978019758E+01  0.80772337851E+01  0.51100000000E-03 0. -1.
        -11    1    3    3    0    0  0.91329830506E+01  0.39831352482E+01  0.12213756404E+02  0.15762378994E+02  0.51100000000E-03 0.  1.
        -12    1    3    3    0    0  0.16367166168E+02 -0.13897798361E+02  0.10604640360E+02  0.23947678902E+02  0.00000000000E+00 0.  1.
</event>
<event>
 7    1  0.5646756E-010  0.4778727E+02  0.7816164E-02  0.1312668E+00
        -11   -1    0    0    0    0  0.00000000000E+00  0.00000000000E+00  0.45593999997E+02  0.45594000000E+02  0.51100000000E-03 0.  1.
         11   -1    0    0    0    0 -0.00000000000E+00 -0.00000000000E+00 -0.45593999997E+02  0.45594000000E+02  0.51100000000E-03 0. -1.
    9900012    2    1    2    0    0  0.39818300112E+00 -0.42982409140E+02  0.59981009123E+01  0.47787271208E+02  0.20000000744E+02 0.  0.
         12    1    1    2    0    0 -0.39818300112E+00  0.42982409140E+02 -0.59981009123E+01  0.43400728792E+02  0.00000000000E+00 0. -1.
         11    1    3    3    0    0  0.79265849164E+01 -0.21620898176E+02 -0.80567437348E+00  0.23042202539E+02  0.51100000000E-03 0. -1.
        -11    1    3    3    0    0 -0.39754326445E+01 -0.17501236165E+02  0.28417676805E+01  0.18170662504E+02  0.51100000000E-03 0.  1.
        -12    1    3    3    0    0 -0.35529692708E+01 -0.38602747984E+01  0.39620076053E+01  0.65744061651E+01  0.00000000000E+00 0.  1.
</event>
<event>
 7    1  0.5646756E-010  0.4778727E+02  0.7816164E-02  0.1312668E+00
        -11   -1    0    0    0    0  0.00000000000E+00  0.00000000000E+00  0.45593999997E+02  0.45594000000E+02  0.51100000000E-03 0.  1.
         11   -1    0    0    0    0 -0.00000000000E+00 -0.00000000000E+00 -0.45593999997E+02  0.45594000000E+02  0.51100000000E-03 0. -1.
    9900012    2    1    2    0    0 -0.23180669269E+02  0.30302515715E+02  0.20689064996E+02  0.47787270780E+02  0.19999998794E+02 0.  0.
         12    1    1    2    0    0  0.23180669269E+02 -0.30302515715E+02 -0.20689064996E+02  0.43400729220E+02  0.00000000000E+00 0. -1.
         11    1    3    3    0    0 -0.51147384369E+01  0.20931971119E+01  0.27376428678E+01  0.61673910335E+01  0.51100000000E-03 0. -1.
        -11    1    3    3    0    0 -0.16423260737E+02  0.19274083262E+02  0.50181855893E+01  0.25814646341E+02  0.51100000000E-03 0.  1.
        -12    1    3    3    0    0 -0.16426700955E+01  0.89352353414E+01  0.12933236538E+02  0.15805233406E+02  0.00000000000E+00 0.  1.
</event>
<event>
 7    1  0.5646756E-010  0.4778728E+02  0.7816164E-02  0.1312668E+00
        -11   -1    0    0    0    0  0.00000000000E+00  0.00000000000E+00  0.45593999997E+02  0.45594000000E+02  0.51100000000E-03 0.  1.
         11   -1    0    0    0    0 -0.00000000000E+00 -0.00000000000E+00 -0.45593999997E+02  0.45594000000E+02  0.51100000000E-03 0. -1.
    9900012    2    1    2    0    0  0.43997530241E+01  0.10943657894E+01  0.43163261740E+02  0.47787278495E+02  0.20000033970E+02 0.  0.
         12    1    1    2    0    0 -0.43997530241E+01 -0.10943657894E+01 -0.43163261740E+02  0.43400721505E+02  0.00000000000E+00 0. -1.
         11    1    3    3    0    0  0.61642151970E+01  0.65328829758E+01  0.11678815338E+02  0.14733324029E+02  0.51100000000E-03 0. -1.
        -11    1    3    3    0    0 -0.33813552820E+01 -0.44962498089E+01  0.30346822696E+02  0.30863886241E+02  0.51100000000E-03 0.  1.
        -12    1    3    3    0    0  0.16168931091E+01 -0.94226737752E+00  0.11376237059E+01  0.21900682257E+01  0.00000000000E+00 0.  1.
</event>
<event>
 7    1  0.5646756E-010  0.4778727E+02  0.7816164E-02  0.1312668E+00
        -11   -1    0    0    0    0  0.00000000000E+00  0.00000000000E+00  0.45593999997E+02  0.45594000000E+02  0.51100000000E-03 0.  1.
         11   -1    0    0    0    0 -0.00000000000E+00 -0.00000000000E+00 -0.45593999997E+02  0.45594000000E+02  0.51100000000E-03 0. -1.
    9900012    2    1    2    0    0 -0.12852673968E+02 -0.10047302707E+02  0.40217953421E+02  0.47787270776E+02  0.19999998777E+02 0.  0.
         12    1    1    2    0    0  0.12852673968E+02  0.10047302707E+02 -0.40217953421E+02  0.43400729224E+02  0.00000000000E+00 0. -1.
         11    1    3    3    0    0 -0.35505410261E+00  0.11637598219E+01  0.38838971906E+00  0.12772028711E+01  0.51100000000E-03 0. -1.
        -11    1    3    3    0    0  0.26317393904E+01 -0.80822496651E+01  0.12505730143E+02  0.15120915929E+02  0.51100000000E-03 0.  1.
        -12    1    3    3    0    0 -0.15129359256E+02 -0.31288128642E+01  0.27323833559E+02  0.31389151976E+02  0.00000000000E+00 0.  1.
</event>
<event>
 7    1  0.5646756E-010  0.4778727E+02  0.7816164E-02  0.1312668E+00
        -11   -1    0    0    0    0  0.00000000000E+00  0.00000000000E+00  0.45593999997E+02  0.45594000000E+02  0.51100000000E-03 0.  1.
         11   -1    0    0    0    0 -0.00000000000E+00 -0.00000000000E+00 -0.45593999997E+02  0.45594000000E+02  0.51100000000E-03 0. -1.
    9900012    2    1    2    0    0 -0.13100500689E+02 -0.18743314246E+02  0.36887509234E+02  0.47787270919E+02  0.19999999428E+02 0.  0.
         12    1    1    2    0    0  0.13100500689E+02  0.18743314246E+02 -0.36887509234E+02  0.43400729081E+02  0.00000000000E+00 0. -1.
         11    1    3    3    0    0 -0.41118902748E-01  0.75641256188E+00  0.14782890587E+00  0.77181887413E+00  0.51100000000E-03 0. -1.
        -11    1    3    3    0    0 -0.68718508747E+01 -0.68744335469E+01  0.25520203193E+01  0.10049526308E+02  0.51100000000E-03 0.  1.
        -12    1    3    3    0    0 -0.61875309113E+01 -0.12625293261E+02  0.34187660009E+02  0.36965925737E+02  0.00000000000E+00 0.  1.
</event>
<event>
 7    1  0.5646756E-010  0.4778727E+02  0.7816164E-02  0.1312668E+00
        -11   -1    0    0    0    0  0.00000000000E+00  0.00000000000E+00  0.45593999997E+02  0.45594000000E+02  0.51100000000E-03 0.  1.
         11   -1    0    0    0    0 -0.00000000000E+00 -0.00000000000E+00 -0.45593999997E+02  0.45594000000E+02  0.51100000000E-03 0. -1.
    9900012    2    1    2    0    0 -0.10598923150E+02  0.32663277168E+02  0.26540467790E+02  0.47787270999E+02  0.19999999795E+02 0.  0.
         12    1    1    2    0    0  0.10598923150E+02 -0.32663277168E+02 -0.26540467790E+02  0.43400729001E+02  0.00000000000E+00 0. -1.
         11    1    3    3    0    0  0.51102872769E+01  0.86386095764E+01  0.98799894371E+01  0.14083849012E+02  0.51100000000E-03 0. -1.
        -11    1    3    3    0    0 -0.23089979787E+01  0.22444386612E+01  0.40987172412E+01  0.52123372736E+01  0.51100000000E-03 0.  1.
         12    1    3    3    0    0 -0.13400212449E+02  0.21780228930E+02  0.12561761111E+02  0.28491084713E+02  0.00000000000E+00 0. -1.
</event>
<event>
 7    1  0.5646756E-010  0.4778727E+02  0.7816164E-02  0.1312668E+00
        -11   -1    0    0    0    0  0.00000000000E+00  0.00000000000E+00  0.45593999997E+02  0.45594000000E+02  0.51100000000E-03 0. -1.
         11   -1    0    0    0    0 -0.00000000000E+00 -0.00000000000E+00 -0.45593999997E+02  0.45594000000E+02  0.51100000000E-03 0.  1.
    9900012    2    1    2    0    0  0.33244352907E+02  0.24725417839E+02  0.12926331125E+02  0.47787270468E+02  0.19999997372E+02 0.  0.
         12    1    1    2    0    0 -0.33244352907E+02 -0.24725417839E+02 -0.12926331125E+02  0.43400729532E+02  0.00000000000E+00 0. -1.
         11    1    3    3    0    0  0.52047546925E+01  0.65938125183E+01  0.99769242971E+01  0.13042501816E+02  0.51100000000E-03 0. -1.
        -11    1    3    3    0    0  0.22004142114E+02  0.92534088200E+01  0.24794550722E+01  0.23999073788E+02  0.51100000000E-03 0.  1.
         12    1    3    3    0    0  0.60354561008E+01  0.88781965009E+01  0.46995175542E+00  0.10745694864E+02  0.00000000000E+00 0. -1.
</event>
<event>
 7    1  0.5646756E-010  0.4778727E+02  0.7816164E-02  0.1312668E+00
        -11   -1    0    0    0    0  0.00000000000E+00  0.00000000000E+00  0.45593999997E+02  0.45594000000E+02  0.51100000000E-03 0. -1.
         11   -1    0    0    0    0 -0.00000000000E+00 -0.00000000000E+00 -0.45593999997E+02  0.45594000000E+02  0.51100000000E-03 0.  1.
    9900012    2    1    2    0    0 -0.20699864550E+02  0.25679357012E+02 -0.28208317262E+02  0.47787274986E+02  0.20000017972E+02 0.  0.
         12    1    1    2    0    0  0.20699864550E+02 -0.25679357012E+02  0.28208317262E+02  0.43400725014E+02  0.00000000000E+00 0. -1.
         11    1    3    3    0    0 -0.21632533577E+01  0.91839130429E+01 -0.15127173127E+02  0.17828496598E+02  0.51100000000E-03 0. -1.
        -11    1    3    3    0    0 -0.19312195743E+02  0.17221137816E+02 -0.12366118817E+02  0.28678378388E+02  0.51100000000E-03 0.  1.
        -12    1    3    3    0    0  0.77558455075E+00 -0.72569384689E+00 -0.71502531800E+00  0.12804000001E+01  0.00000000000E+00 0.  1.
</event>
<event>
 7    1  0.5646756E-010  0.4778727E+02  0.7816164E-02  0.1312668E+00
        -11   -1    0    0    0    0  0.00000000000E+00  0.00000000000E+00  0.45593999997E+02  0.45594000000E+02  0.51100000000E-03 0. -1.
         11   -1    0    0    0    0 -0.00000000000E+00 -0.00000000000E+00 -0.45593999997E+02  0.45594000000E+02  0.51100000000E-03 0.  1.
    9900012    2    1    2    0    0  0.32498396016E+02  0.10618959630E+02 -0.26734158055E+02  0.47787271272E+02  0.20000001036E+02 0.  0.
         12    1    1    2    0    0 -0.32498396016E+02 -0.10618959630E+02  0.26734158055E+02  0.43400728728E+02  0.00000000000E+00 0. -1.
         11    1    3    3    0    0  0.12817401377E+02 -0.23827623319E+01 -0.77232049546E+01  0.15152928081E+02  0.51100000000E-03 0. -1.
        -11    1    3    3    0    0  0.16055676484E+02  0.10102055716E+02 -0.20332779052E+02  0.27807520229E+02  0.51100000000E-03 0.  1.
        -12    1    3    3    0    0  0.36253181557E+01  0.28996662453E+01  0.13218259515E+01  0.48268229623E+01  0.00000000000E+00 0.  1.
</event>
<event>
 7    1  0.5646756E-010  0.4778727E+02  0.7816164E-02  0.1312668E+00
        -11   -1    0    0    0    0  0.00000000000E+00  0.00000000000E+00  0.45593999997E+02  0.45594000000E+02  0.51100000000E-03 0.  1.
         11   -1    0    0    0    0 -0.00000000000E+00 -0.00000000000E+00 -0.45593999997E+02  0.45594000000E+02  0.51100000000E-03 0. -1.
    9900012    2    1    2    0    0 -0.28114951851E+02  0.23815254912E+02  0.22934839542E+02  0.47787265572E+02  0.19999975049E+02 0.  0.
         12    1    1    2    0    0  0.28114951851E+02 -0.23815254912E+02 -0.22934839542E+02  0.43400734428E+02  0.00000000000E+00 0. -1.
         11    1    3    3    0    0  0.38915143020E+00 -0.62329088145E+00  0.55909905906E+00  0.92332138363E+00  0.51100000000E-03 0. -1.
        -11    1    3    3    0    0 -0.77853504025E+01  0.38076873083E+01  0.13971878647E+02  0.16441519294E+02  0.51100000000E-03 0.  1.
        -12    1    3    3    0    0 -0.20718752878E+02  0.20630858485E+02  0.84038618361E+01  0.30422424894E+02  0.00000000000E+00 0.  1.
</event>
<event>
 7    1  0.5646756E-010  0.4778728E+02  0.7816164E-02  0.1312668E+00
        -11   -1    0    0    0    0  0.00000000000E+00  0.00000000000E+00  0.45593999997E+02  0.45594000000E+02  0.51100000000E-03 0. -1.
         11   -1    0    0    0    0 -0.00000000000E+00 -0.00000000000E+00 -0.45593999997E+02  0.45594000000E+02  0.51100000000E-03 0.  1.
    9900012    2    1    2    0    0 -0.30834517058E+02 -0.23759075049E+02 -0.19192742438E+02  0.47787280517E+02  0.20000043188E+02 0.  0.
         12    1    1    2    0    0  0.30834517058E+02  0.23759075049E+02  0.19192742438E+02  0.43400719483E+02  0.00000000000E+00 0. -1.
         11    1    3    3    0    0 -0.99891588350E+01 -0.16847526544E+02 -0.12831364247E+02  0.23415088160E+02  0.51100000000E-03 0. -1.
        -11    1    3    3    0    0 -0.13927745080E+02 -0.82109286066E+00 -0.17344848683E+01  0.14059328381E+02  0.51100000000E-03 0.  1.
        -12    1    3    3    0    0 -0.69176131429E+01 -0.60904556450E+01 -0.46268933232E+01  0.10312863976E+02  0.00000000000E+00 0.  1.
</event>
<event>
 7    1  0.5646756E-010  0.4778727E+02  0.7816164E-02  0.1312668E+00
        -11   -1    0    0    0    0  0.00000000000E+00  0.00000000000E+00  0.45593999997E+02  0.45594000000E+02  0.51100000000E-03 0.  1.
         11   -1    0    0    0    0 -0.00000000000E+00 -0.00000000000E+00 -0.45593999997E+02  0.45594000000E+02  0.51100000000E-03 0. -1.
    9900012    2    1    2    0    0 -0.25797168075E+02 -0.31699064081E+02  0.14604741545E+02  0.47787273970E+02  0.20000013340E+02 0.  0.
         12    1    1    2    0    0  0.25797168075E+02  0.31699064081E+02 -0.14604741545E+02  0.43400726030E+02  0.00000000000E+00 0. -1.
         11    1    3    3    0    0  0.71617536758E+00 -0.63267162247E+01  0.64814558194E+01  0.90856763724E+01  0.51100000000E-03 0. -1.
        -11    1    3    3    0    0 -0.13869892181E+02 -0.16481677515E+02  0.87067274330E+01  0.23234171078E+02  0.51100000000E-03 0.  1.
         12    1    3    3    0    0 -0.12643451261E+02 -0.88906703415E+01 -0.58344170722E+00  0.15467426520E+02  0.00000000000E+00 0. -1.
</event>
<event>
 7    1  0.5646756E-010  0.4778727E+02  0.7816164E-02  0.1312668E+00
        -11   -1    0    0    0    0  0.00000000000E+00  0.00000000000E+00  0.45593999997E+02  0.45594000000E+02  0.51100000000E-03 0. -1.
         11   -1    0    0    0    0 -0.00000000000E+00 -0.00000000000E+00 -0.45593999997E+02  0.45594000000E+02  0.51100000000E-03 0.  1.
    9900012    2    1    2    0    0  0.95891926855E+00 -0.43329773960E+02 -0.22879235274E+01  0.47787269227E+02  0.19999991712E+02 0.  0.
         12    1    1    2    0    0 -0.95891926855E+00  0.43329773960E+02  0.22879235274E+01  0.43400730773E+02  0.00000000000E+00 0. -1.
         11    1    3    3    0    0 -0.41134667758E+01 -0.27877685981E+02  0.50412072153E+00  0.28184040210E+02  0.51100000000E-03 0. -1.
        -11    1    3    3    0    0  0.52039608474E+01 -0.11350581632E+02 -0.64958967067E+01  0.14075282810E+02  0.51100000000E-03 0.  1.
        -12    1    3    3    0    0 -0.13157480304E+00 -0.41015063464E+01  0.37038524577E+01  0.55279462069E+01  0.00000000000E+00 0.  1.
</event>
<event>
 7    1  0.8759554E-010  0.4778727E+02  0.7816164E-02  0.1312668E+00
        -11   -1    0    0    0    0  0.00000000000E+00  0.00000000000E+00  0.45593999997E+02  0.45594000000E+02  0.51100000000E-03 0. -1.
         11   -1    0    0    0    0 -0.00000000000E+00 -0.00000000000E+00 -0.45593999997E+02  0.45594000000E+02  0.51100000000E-03 0.  1.
    9900012    2    1    2    0    0 -0.84616328285E+01  0.26142821597E+02 -0.33594297286E+02  0.47787272341E+02  0.20000005911E+02 0.  0.
         12    1    1    2    0    0  0.84616328285E+01 -0.26142821597E+02  0.33594297286E+02  0.43400727659E+02  0.00000000000E+00 0. -1.
         11    1    3    3    0    0 -0.22651929443E+01  0.10835289486E+02 -0.37696190046E+01  0.11693785744E+02  0.51100000000E-03 0. -1.
        -11    1    3    3    0    0 -0.93794535998E+01  0.10817983167E+02 -0.24825480439E+02  0.28658461036E+02  0.51100000000E-03 0.  1.
        -12    1    3    3    0    0  0.31830137156E+01  0.44895489441E+01 -0.49991978426E+01  0.74350255618E+01  0.00000000000E+00 0.  1.
</event>
<event>
 7    1  0.5646756E-010  0.4778727E+02  0.7816164E-02  0.1312668E+00
        -11   -1    0    0    0    0  0.00000000000E+00  0.00000000000E+00  0.45593999997E+02  0.45594000000E+02  0.51100000000E-03 0. -1.
         11   -1    0    0    0    0 -0.00000000000E+00 -0.00000000000E+00 -0.45593999997E+02  0.45594000000E+02  0.51100000000E-03 0.  1.
    9900012    2    1    2    0    0 -0.26434639755E+02 -0.19873160487E+02 -0.28104989533E+02  0.47787272779E+02  0.20000007907E+02 0.  0.
         12    1    1    2    0    0  0.26434639755E+02  0.19873160487E+02  0.28104989533E+02  0.43400727221E+02  0.00000000000E+00 0. -1.
         11    1    3    3    0    0 -0.13469417263E+02 -0.11407153379E+01 -0.34462641895E+01  0.13950024014E+02  0.51100000000E-03 0. -1.
        -11    1    3    3    0    0 -0.45395907357E+01 -0.10196629822E+02 -0.11259829886E+02  0.15854428816E+02  0.51100000000E-03 0.  1.
         12    1    3    3    0    0 -0.84256317565E+01 -0.85358153270E+01 -0.13398895458E+02  0.17982819948E+02  0.00000000000E+00 0. -1.
</event>
<event>
 7    1  0.5646756E-010  0.4778727E+02  0.7816164E-02  0.1312668E+00
        -11   -1    0    0    0    0  0.00000000000E+00  0.00000000000E+00  0.45593999997E+02  0.45594000000E+02  0.51100000000E-03 0.  1.
         11   -1    0    0    0    0 -0.00000000000E+00 -0.00000000000E+00 -0.45593999997E+02  0.45594000000E+02  0.51100000000E-03 0. -1.
    9900012    2    1    2    0    0 -0.15684705463E+02 -0.38898791239E+02  0.11157835626E+02  0.47787271421E+02  0.20000001718E+02 0.  0.
         12    1    1    2    0    0  0.15684705463E+02  0.38898791239E+02 -0.11157835626E+02  0.43400728579E+02  0.00000000000E+00 0. -1.
         11    1    3    3    0    0  0.17739051189E+01 -0.13968649753E+02  0.98041021926E+01  0.17157806834E+02  0.51100000000E-03 0. -1.
        -11    1    3    3    0    0 -0.93776489701E+01 -0.12374205886E+02  0.21621292131E+01  0.15675971246E+02  0.51100000000E-03 0.  1.
         12    1    3    3    0    0 -0.80809616116E+01 -0.12555935600E+02 -0.80839577964E+00  0.14953493341E+02  0.00000000000E+00 0. -1.
</event>
<event>
 7    1  0.5646756E-010  0.4778727E+02  0.7816164E-02  0.1312668E+00
        -11   -1    0    0    0    0  0.00000000000E+00  0.00000000000E+00  0.45593999997E+02  0.45594000000E+02  0.51100000000E-03 0. -1.
         11   -1    0    0    0    0 -0.00000000000E+00 -0.00000000000E+00 -0.45593999997E+02  0.45594000000E+02  0.51100000000E-03 0.  1.
    9900012    2    1    2    0    0 -0.30517228619E+02  0.30528289132E+02  0.45106243859E+01  0.47787269450E+02  0.19999992732E+02 0.  0.
         12    1    1    2    0    0  0.30517228619E+02 -0.30528289132E+02 -0.45106243859E+01  0.43400730550E+02  0.00000000000E+00 0. -1.
         11    1    3    3    0    0 -0.50555195113E+01  0.98038113841E+00  0.49971383430E+01  0.71757101799E+01  0.51100000000E-03 0. -1.
        -11    1    3    3    0    0 -0.13392755410E+02  0.15375191939E+02 -0.58973030398E+01  0.21225941865E+02  0.51100000000E-03 0.  1.
        -12    1    3    3    0    0 -0.12068953697E+02  0.14172716055E+02  0.54107890828E+01  0.19385617406E+02  0.00000000000E+00 0.  1.
</event>
<event>
 7    1  0.5646756E-010  0.4778727E+02  0.7816164E-02  0.1312668E+00
        -11   -1    0    0    0    0  0.00000000000E+00  0.00000000000E+00  0.45593999997E+02  0.45594000000E+02  0.51100000000E-03 0.  1.
         11   -1    0    0    0    0 -0.00000000000E+00 -0.00000000000E+00 -0.45593999997E+02  0.45594000000E+02  0.51100000000E-03 0. -1.
    9900012    2    1    2    0    0  0.76552891431E+01 -0.19685118034E+02  0.37914584282E+02  0.47787273910E+02  0.20000013064E+02 0.  0.
         12    1    1    2    0    0 -0.76552891431E+01  0.19685118034E+02 -0.37914584282E+02  0.43400726090E+02  0.00000000000E+00 0. -1.
         11    1    3    3    0    0  0.94226027703E+01 -0.18887765387E+02  0.25699768075E+02  0.33256746738E+02  0.51100000000E-03 0. -1.
        -11    1    3    3    0    0 -0.30348187967E+01  0.26219797455E+01  0.80575031484E+01  0.90004588862E+01  0.51100000000E-03 0.  1.
        -12    1    3    3    0    0  0.12675051694E+01 -0.34193323930E+01  0.41573130590E+01  0.55300682852E+01  0.00000000000E+00 0.  1.
</event>
<event>
 7    1  0.5646756E-010  0.4778728E+02  0.7816164E-02  0.1312668E+00
        -11   -1    0    0    0    0  0.00000000000E+00  0.00000000000E+00  0.45593999997E+02  0.45594000000E+02  0.51100000000E-03 0.  1.
         11   -1    0    0    0    0 -0.00000000000E+00 -0.00000000000E+00 -0.45593999997E+02  0.45594000000E+02  0.51100000000E-03 0. -1.
    9900012    2    1    2    0    0 -0.34131210451E+02  0.10834181728E+02  0.24521495996E+02  0.47787276660E+02  0.20000025601E+02 0.  0.
         12    1    1    2    0    0  0.34131210451E+02 -0.10834181728E+02 -0.24521495996E+02  0.43400723340E+02  0.00000000000E+00 0. -1.
         11    1    3    3    0    0 -0.77296931520E+01  0.25912060333E+01 -0.25949290300E+01  0.85554755486E+01  0.51100000000E-03 0. -1.
        -11    1    3    3    0    0 -0.77909129467E+01  0.17224190481E+01  0.11883172841E+02  0.14313449932E+02  0.51100000000E-03 0.  1.
         12    1    3    3    0    0 -0.18610604352E+02  0.65205566470E+01  0.15233252186E+02  0.24918351179E+02  0.00000000000E+00 0. -1.
</event>
<event>
 7    1  0.5646756E-010  0.4778727E+02  0.7816164E-02  0.1312668E+00
        -11   -1    0    0    0    0  0.00000000000E+00  0.00000000000E+00  0.45593999997E+02  0.45594000000E+02  0.51100000000E-03 0.  1.
         11   -1    0    0    0    0 -0.00000000000E+00 -0.00000000000E+00 -0.45593999997E+02  0.45594000000E+02  0.51100000000E-03 0. -1.
    9900012    2    1    2    0    0 -0.13071481734E+02  0.18966101270E+02  0.36783782994E+02  0.47787270473E+02  0.19999997395E+02 0.  0.
         12    1    1    2    0    0  0.13071481734E+02 -0.18966101270E+02 -0.36783782994E+02  0.43400729527E+02  0.00000000000E+00 0. -1.
         11    1    3    3    0    0  0.34189339264E+01  0.63591691253E+01  0.47950288998E+01  0.86672050609E+01  0.51100000000E-03 0. -1.
        -11    1    3    3    0    0 -0.17471996500E+02  0.11101841819E+02  0.29869764777E+02  0.36341772130E+02  0.51100000000E-03 0.  1.
        -12    1    3    3    0    0  0.98158083920E+00  0.15050903264E+01  0.21189893174E+01  0.27782932822E+01  0.00000000000E+00 0.  1.
</event>
<event>
 7    1  0.5646756E-010  0.4778727E+02  0.7816164E-02  0.1312668E+00
        -11   -1    0    0    0    0  0.00000000000E+00  0.00000000000E+00  0.45593999997E+02  0.45594000000E+02  0.51100000000E-03 0.  1.
         11   -1    0    0    0    0 -0.00000000000E+00 -0.00000000000E+00 -0.45593999997E+02  0.45594000000E+02  0.51100000000E-03 0. -1.
    9900012    2    1    2    0    0  0.20099935112E+02  0.34466092708E+02  0.17079358665E+02  0.47787269240E+02  0.19999991774E+02 0.  0.
         12    1    1    2    0    0 -0.20099935112E+02 -0.34466092708E+02 -0.17079358665E+02  0.43400730760E+02  0.00000000000E+00 0. -1.
         11    1    3    3    0    0  0.78556973517E+01  0.51947312630E+01  0.21474374579E+01  0.96596429372E+01  0.51100000000E-03 0. -1.
        -11    1    3    3    0    0  0.13159140346E+02  0.24413875246E+02  0.17257165424E+02  0.32665119591E+02  0.51100000000E-03 0.  1.
        -12    1    3    3    0    0 -0.91490258530E+00  0.48574861994E+01 -0.23252442162E+01  0.54625067124E+01  0.00000000000E+00 0.  1.
</event>
<event>
 7    1  0.5646756E-010  0.4778727E+02  0.7816164E-02  0.1312668E+00
        -11   -1    0    0    0    0  0.00000000000E+00  0.00000000000E+00  0.45593999997E+02  0.45594000000E+02  0.51100000000E-03 0. -1.
         11   -1    0    0    0    0 -0.00000000000E+00 -0.00000000000E+00 -0.45593999997E+02  0.45594000000E+02  0.51100000000E-03 0.  1.
    9900012    2    1    2    0    0  0.32668322621E+01 -0.42609847594E+02 -0.75731109360E+01  0.47787270579E+02  0.19999997877E+02 0.  0.
         12    1    1    2    0    0 -0.32668322621E+01  0.42609847594E+02  0.75731109360E+01  0.43400729421E+02  0.00000000000E+00 0. -1.
         11    1    3    3    0    0 -0.74493609307E+01 -0.19928421957E+02 -0.55473534107E+01  0.21986543842E+02  0.51100000000E-03 0. -1.
        -11    1    3    3    0    0  0.63920588972E+01 -0.15905142521E+02  0.10980748748E+01  0.17176662780E+02  0.51100000000E-03 0.  1.
        -12    1    3    3    0    0  0.43241342955E+01 -0.67762831161E+01 -0.31238324002E+01  0.86240639573E+01  0.00000000000E+00 0.  1.
</event>
<event>
 7    1  0.5646756E-010  0.4778727E+02  0.7816164E-02  0.1312668E+00
        -11   -1    0    0    0    0  0.00000000000E+00  0.00000000000E+00  0.45593999997E+02  0.45594000000E+02  0.51100000000E-03 0.  1.
         11   -1    0    0    0    0 -0.00000000000E+00 -0.00000000000E+00 -0.45593999997E+02  0.45594000000E+02  0.51100000000E-03 0. -1.
    9900012    2    1    2    0    0  0.28419952387E+02  0.32801063945E+02 -0.14121572324E+00  0.47787269229E+02  0.19999991722E+02 0.  0.
         12    1    1    2    0    0 -0.28419952387E+02 -0.32801063945E+02  0.14121572324E+00  0.43400730771E+02  0.00000000000E+00 0. -1.
         11    1    3    3    0    0  0.11148657295E+02  0.40806358986E+01  0.51859966744E+01  0.12955258029E+02  0.51100000000E-03 0. -1.
        -11    1    3    3    0    0  0.26282843224E+01  0.11376412257E+02 -0.26775798498E+01  0.11979151407E+02  0.51100000000E-03 0.  1.
        -12    1    3    3    0    0  0.14643010769E+02  0.17344015789E+02 -0.26496325478E+01  0.22852859793E+02  0.00000000000E+00 0.  1.
</event>
<event>
 7    1  0.5646756E-010  0.4778727E+02  0.7816164E-02  0.1312668E+00
        -11   -1    0    0    0    0  0.00000000000E+00  0.00000000000E+00  0.45593999997E+02  0.45594000000E+02  0.51100000000E-03 0. -1.
         11   -1    0    0    0    0 -0.00000000000E+00 -0.00000000000E+00 -0.45593999997E+02  0.45594000000E+02  0.51100000000E-03 0.  1.
    9900012    2    1    2    0    0  0.30636388821E+02 -0.23368580608E+02  0.19973586405E+02  0.47787273813E+02  0.20000012624E+02 0.  0.
         12    1    1    2    0    0 -0.30636388821E+02  0.23368580608E+02 -0.19973586405E+02  0.43400726187E+02  0.00000000000E+00 0. -1.
         11    1    3    3    0    0 -0.15840631177E+01 -0.41271548226E+00  0.22987187802E+01  0.28220025375E+01  0.51100000000E-03 0. -1.
        -11    1    3    3    0    0  0.24576753367E+02 -0.22679092577E+02  0.12367170147E+02  0.35655363466E+02  0.51100000000E-03 0.  1.
        -12    1    3    3    0    0  0.76436985724E+01 -0.27677254882E+00  0.53076974784E+01  0.93099078101E+01  0.00000000000E+00 0.  1.
</event>
<event>
 7    1  0.5646756E-010  0.4778727E+02  0.7816164E-02  0.1312668E+00
        -11   -1    0    0    0    0  0.00000000000E+00  0.00000000000E+00  0.45593999997E+02  0.45594000000E+02  0.51100000000E-03 0.  1.
         11   -1    0    0    0    0 -0.00000000000E+00 -0.00000000000E+00 -0.45593999997E+02  0.45594000000E+02  0.51100000000E-03 0. -1.
    9900012    2    1    2    0    0  0.26854818595E+02 -0.30294651882E+02  0.15642122926E+02  0.47787271618E+02  0.20000002616E+02 0.  0.
         12    1    1    2    0    0 -0.26854818595E+02  0.30294651882E+02 -0.15642122926E+02  0.43400728382E+02  0.00000000000E+00 0. -1.
         11    1    3    3    0    0  0.65840831558E+01  0.37606231764E-01 -0.10076669409E+01  0.66608526599E+01  0.51100000000E-03 0. -1.
        -11    1    3    3    0    0  0.78430371591E+01 -0.64352523265E+01  0.15966156840E+01  0.10270096703E+02  0.51100000000E-03 0.  1.
         12    1    3    3    0    0  0.12427698280E+02 -0.23897005787E+02  0.15053174183E+02  0.30856322255E+02  0.00000000000E+00 0. -1.
</event>
<event>
 7    1  0.5646756E-010  0.4778727E+02  0.7816164E-02  0.1312668E+00
        -11   -1    0    0    0    0  0.00000000000E+00  0.00000000000E+00  0.45593999997E+02  0.45594000000E+02  0.51100000000E-03 0.  1.
         11   -1    0    0    0    0 -0.00000000000E+00 -0.00000000000E+00 -0.45593999997E+02  0.45594000000E+02  0.51100000000E-03 0. -1.
    9900012    2    1    2    0    0 -0.22006374753E+02  0.34193706143E+02  0.15170149757E+02  0.47787268288E+02  0.19999987430E+02 0.  0.
         12    1    1    2    0    0  0.22006374753E+02 -0.34193706143E+02 -0.15170149757E+02  0.43400731712E+02  0.00000000000E+00 0. -1.
         11    1    3    3    0    0 -0.48312339528E+01  0.21475561414E+02  0.51314619815E+01  0.22602487958E+02  0.51100000000E-03 0. -1.
        -11    1    3    3    0    0 -0.15899144755E+02  0.95012683547E+01  0.52037173623E+01  0.19238907946E+02  0.51100000000E-03 0.  1.
         12    1    3    3    0    0 -0.12759960445E+01  0.32168763740E+01  0.48349704127E+01  0.59458723837E+01  0.00000000000E+00 0. -1.
</event>
<event>
 7    1  0.5646756E-010  0.4778727E+02  0.7816164E-02  0.1312668E+00
        -11   -1    0    0    0    0  0.00000000000E+00  0.00000000000E+00  0.45593999997E+02  0.45594000000E+02  0.51100000000E-03 0. -1.
         11   -1    0    0    0    0 -0.00000000000E+00 -0.00000000000E+00 -0.45593999997E+02  0.45594000000E+02  0.51100000000E-03 0.  1.
    9900012    2    1    2    0    0 -0.31403702367E+02 -0.29945061322E+02 -0.85098614915E+00  0.47787269622E+02  0.19999993513E+02 0.  0.
         12    1    1    2    0    0  0.31403702367E+02  0.29945061322E+02  0.85098614915E+00  0.43400730378E+02  0.00000000000E+00 0. -1.
         11    1    3    3    0    0 -0.11166592164E+02 -0.18285801783E+02  0.45283146491E+01  0.21899063022E+02  0.51100000000E-03 0. -1.
        -11    1    3    3    0    0 -0.26714941691E+01 -0.52743703760E+01  0.12761972334E+01  0.60485158178E+01  0.51100000000E-03 0.  1.
         12    1    3    3    0    0 -0.17565616034E+02 -0.63848891627E+01 -0.66554980317E+01  0.19839690782E+02  0.00000000000E+00 0. -1.
</event>
<event>
 7    1  0.5646756E-010  0.4778727E+02  0.7816164E-02  0.1312668E+00
        -11   -1    0    0    0    0  0.00000000000E+00  0.00000000000E+00  0.45593999997E+02  0.45594000000E+02  0.51100000000E-03 0.  1.
         11   -1    0    0    0    0 -0.00000000000E+00 -0.00000000000E+00 -0.45593999997E+02  0.45594000000E+02  0.51100000000E-03 0. -1.
    9900012    2    1    2    0    0  0.31181655174E+02 -0.75288801749E-02  0.30188203605E+02  0.47787270594E+02  0.19999997947E+02 0.  0.
         12    1    1    2    0    0 -0.31181655174E+02  0.75288801749E-02 -0.30188203605E+02  0.43400729406E+02  0.00000000000E+00 0. -1.
         11    1    3    3    0    0  0.11702903536E+02  0.41102530473E+00  0.30983624770E+00  0.11714217505E+02  0.51100000000E-03 0. -1.
        -11    1    3    3    0    0  0.14704798239E+02 -0.12491996767E+01  0.18214573537E+02  0.23442744730E+02  0.51100000000E-03 0.  1.
         12    1    3    3    0    0  0.47739533991E+01  0.83064549184E+00  0.11663793820E+02  0.12630308360E+02  0.00000000000E+00 0. -1.
</event>
<event>
 7    1  0.5646756E-010  0.4778727E+02  0.7816164E-02  0.1312668E+00
        -11   -1    0    0    0    0  0.00000000000E+00  0.00000000000E+00  0.45593999997E+02  0.45594000000E+02  0.51100000000E-03 0.  1.
         11   -1    0    0    0    0 -0.00000000000E+00 -0.00000000000E+00 -0.45593999997E+02  0.45594000000E+02  0.51100000000E-03 0. -1.
    9900012    2    1    2    0    0 -0.28603364722E+02  0.10416101885E+02  0.30935025015E+02  0.47787269308E+02  0.19999992082E+02 0.  0.
         12    1    1    2    0    0  0.28603364722E+02 -0.10416101885E+02 -0.30935025015E+02  0.43400730692E+02  0.00000000000E+00 0. -1.
         11    1    3    3    0    0 -0.12091042151E+02  0.10921289579E+02  0.20520407274E+02  0.26202194208E+02  0.51100000000E-03 0.  1.
        -11    1    3    3    0    0 -0.12898444971E+02  0.22556241703E+01  0.39423276650E+01  0.13674782292E+02  0.51100000000E-03 0. -1.
        -12    1    3    3    0    0 -0.36138776009E+01 -0.27608118646E+01  0.64722900768E+01  0.79102928077E+01  0.00000000000E+00 0.  1.
</event>
<event>
 7    1  0.5646756E-010  0.4778727E+02  0.7816164E-02  0.1312668E+00
        -11   -1    0    0    0    0  0.00000000000E+00  0.00000000000E+00  0.45593999997E+02  0.45594000000E+02  0.51100000000E-03 0.  1.
         11   -1    0    0    0    0 -0.00000000000E+00 -0.00000000000E+00 -0.45593999997E+02  0.45594000000E+02  0.51100000000E-03 0. -1.
    9900012    2    1    2    0    0 -0.37992310773E+01 -0.10109293586E+02  0.42035595698E+02  0.47787270982E+02  0.19999999718E+02 0.  0.
         12    1    1    2    0    0  0.37992310773E+01  0.10109293586E+02 -0.42035595698E+02  0.43400729018E+02  0.00000000000E+00 0. -1.
         11    1    3    3    0    0 -0.62725244184E+01 -0.19562895768E+01  0.18085233424E+02  0.19241811238E+02  0.51100000000E-03 0. -1.
        -11    1    3    3    0    0  0.46216857987E+01 -0.18181023169E+01  0.16034805621E+01  0.52188720841E+01  0.51100000000E-03 0.  1.
        -12    1    3    3    0    0 -0.21483924576E+01 -0.63349016925E+01  0.22346881712E+02  0.23326587660E+02  0.00000000000E+00 0.  1.
</event>
<event>
 7    1  0.5646756E-010  0.4778727E+02  0.7816164E-02  0.1312668E+00
        -11   -1    0    0    0    0  0.00000000000E+00  0.00000000000E+00  0.45593999997E+02  0.45594000000E+02  0.51100000000E-03 0. -1.
         11   -1    0    0    0    0 -0.00000000000E+00 -0.00000000000E+00 -0.45593999997E+02  0.45594000000E+02  0.51100000000E-03 0.  1.
    9900012    2    1    2    0    0  0.22146025851E+01 -0.40742473923E+02 -0.14790870926E+02  0.47787268339E+02  0.19999987666E+02 0.  0.
         12    1    1    2    0    0 -0.22146025851E+01  0.40742473923E+02  0.14790870926E+02  0.43400731661E+02  0.00000000000E+00 0. -1.
         11    1    3    3    0    0 -0.14984314235E+01 -0.14665878225E+02  0.27942825235E+01  0.15004709125E+02  0.51100000000E-03 0. -1.
        -11    1    3    3    0    0  0.32450389308E-01 -0.22556608093E+02 -0.13887608713E+02  0.26489003336E+02  0.51100000000E-03 0.  1.
        -12    1    3    3    0    0  0.36805836193E+01 -0.35199876042E+01 -0.36975447365E+01  0.62935558782E+01  0.00000000000E+00 0.  1.
</event>
<event>
 7    1  0.5646756E-010  0.4778727E+02  0.7816164E-02  0.1312668E+00
        -11   -1    0    0    0    0  0.00000000000E+00  0.00000000000E+00  0.45593999997E+02  0.45594000000E+02  0.51100000000E-03 0.  1.
         11   -1    0    0    0    0 -0.00000000000E+00 -0.00000000000E+00 -0.45593999997E+02  0.45594000000E+02  0.51100000000E-03 0. -1.
    9900012    2    1    2    0    0  0.12524385443E+02  0.13467210513E+02  0.39311539170E+02  0.47787273029E+02  0.20000009047E+02 0.  0.
         12    1    1    2    0    0 -0.12524385443E+02 -0.13467210513E+02 -0.39311539170E+02  0.43400726971E+02  0.00000000000E+00 0. -1.
         11    1    3    3    0    0  0.44513301376E+01  0.26220876082E+01  0.46555254399E+00  0.51871401419E+01  0.51100000000E-03 0. -1.
        -11    1    3    3    0    0  0.60142706673E+01  0.12969276966E+02  0.34482050560E+02  0.37328078008E+02  0.51100000000E-03 0.  1.
        -12    1    3    3    0    0  0.20587846382E+01 -0.21241540608E+01  0.43639360657E+01  0.52720548789E+01  0.00000000000E+00 0.  1.
</event>
<event>
 7    1  0.5646756E-010  0.4778727E+02  0.7816164E-02  0.1312668E+00
        -11   -1    0    0    0    0  0.00000000000E+00  0.00000000000E+00  0.45593999997E+02  0.45594000000E+02  0.51100000000E-03 0.  1.
         11   -1    0    0    0    0 -0.00000000000E+00 -0.00000000000E+00 -0.45593999997E+02  0.45594000000E+02  0.51100000000E-03 0. -1.
    9900012    2    1    2    0    0  0.14628076540E+01 -0.23538667517E+02  0.36433703115E+02  0.47787269622E+02  0.19999993513E+02 0.  0.
         12    1    1    2    0    0 -0.14628076540E+01  0.23538667517E+02 -0.36433703115E+02  0.43400730378E+02  0.00000000000E+00 0. -1.
         11    1    3    3    0    0  0.74380124036E+01 -0.45028267026E+01  0.16548596928E+02  0.18693729895E+02  0.51100000000E-03 0. -1.
        -11    1    3    3    0    0 -0.59344059619E+00 -0.78840111265E+01  0.37386665711E+01  0.87457093008E+01  0.51100000000E-03 0.  1.
         12    1    3    3    0    0 -0.53817641533E+01 -0.11151829688E+02  0.16146439616E+02  0.20347830426E+02  0.00000000000E+00 0. -1.
</event>
<event>
 7    1  0.5646756E-010  0.4778727E+02  0.7816164E-02  0.1312668E+00
        -11   -1    0    0    0    0  0.00000000000E+00  0.00000000000E+00  0.45593999997E+02  0.45594000000E+02  0.51100000000E-03 0.  1.
         11   -1    0    0    0    0 -0.00000000000E+00 -0.00000000000E+00 -0.45593999997E+02  0.45594000000E+02  0.51100000000E-03 0. -1.
    9900012    2    1    2    0    0 -0.33325152579E+02 -0.25337089808E+02  0.11449423574E+02  0.47787271728E+02  0.20000003117E+02 0.  0.
         12    1    1    2    0    0  0.33325152579E+02  0.25337089808E+02 -0.11449423574E+02  0.43400728272E+02  0.00000000000E+00 0. -1.
         11    1    3    3    0    0 -0.36463360402E+01 -0.33843853434E+01 -0.41293045093E+01  0.64653682542E+01  0.51100000000E-03 0. -1.
        -11    1    3    3    0    0 -0.99363313345E+01 -0.13451548824E+02  0.57284852888E+01  0.17677397719E+02  0.51100000000E-03 0.  1.
         12    1    3    3    0    0 -0.19742485204E+02 -0.85011556406E+01  0.98502427949E+01  0.23644505755E+02  0.00000000000E+00 0. -1.
</event>
<event>
 7    1  0.5646756E-010  0.4778727E+02  0.7816164E-02  0.1312668E+00
        -11   -1    0    0    0    0  0.00000000000E+00  0.00000000000E+00  0.45593999997E+02  0.45594000000E+02  0.51100000000E-03 0. -1.
         11   -1    0    0    0    0 -0.00000000000E+00 -0.00000000000E+00 -0.45593999997E+02  0.45594000000E+02  0.51100000000E-03 0.  1.
    9900012    2    1    2    0    0 -0.31857121882E+02  0.98298600136E+01 -0.27787064714E+02  0.47787270422E+02  0.19999997161E+02 0.  0.
         12    1    1    2    0    0  0.31857121882E+02 -0.98298600136E+01  0.27787064714E+02  0.43400729578E+02  0.00000000000E+00 0. -1.
         11    1    3    3    0    0  0.15892906209E+01  0.88566032018E-01 -0.67854804805E+01  0.69696796363E+01  0.51100000000E-03 0. -1.
        -11    1    3    3    0    0 -0.24627524172E+02  0.73905878473E+01 -0.13733469864E+02  0.29150367585E+02  0.51100000000E-03 0.  1.
        -12    1    3    3    0    0 -0.88188883313E+01  0.23507061342E+01 -0.72681143689E+01  0.11667223200E+02  0.00000000000E+00 0.  1.
</event>
<event>
 7    1  0.5646756E-010  0.4778728E+02  0.7816164E-02  0.1312668E+00
        -11   -1    0    0    0    0  0.00000000000E+00  0.00000000000E+00  0.45593999997E+02  0.45594000000E+02  0.51100000000E-03 0.  1.
         11   -1    0    0    0    0 -0.00000000000E+00 -0.00000000000E+00 -0.45593999997E+02  0.45594000000E+02  0.51100000000E-03 0. -1.
    9900012    2    1    2    0    0  0.38022479718E+02 -0.34669530623E+01  0.20637201158E+02  0.47787276515E+02  0.20000024941E+02 0.  0.
         12    1    1    2    0    0 -0.38022479718E+02  0.34669530623E+01 -0.20637201158E+02  0.43400723485E+02  0.00000000000E+00 0. -1.
         11    1    3    3    0    0  0.15858431198E+02 -0.23609865806E+01  0.14871571022E+02  0.21868418384E+02  0.51100000000E-03 0.  1.
        -11    1    3    3    0    0  0.12784670335E+02 -0.39621556460E+01 -0.18396020366E+01  0.13510388923E+02  0.51100000000E-03 0. -1.
         12    1    3    3    0    0  0.93793781841E+01  0.28561891643E+01  0.76052321731E+01  0.12408469207E+02  0.00000000000E+00 0. -1.
</event>
<event>
 7    1  0.5646756E-010  0.4778728E+02  0.7816164E-02  0.1312668E+00
        -11   -1    0    0    0    0  0.00000000000E+00  0.00000000000E+00  0.45593999997E+02  0.45594000000E+02  0.51100000000E-03 0.  1.
         11   -1    0    0    0    0 -0.00000000000E+00 -0.00000000000E+00 -0.45593999997E+02  0.45594000000E+02  0.51100000000E-03 0. -1.
    9900012    2    1    2    0    0  0.46495301122E+01 -0.41780069556E+02 -0.10790294601E+02  0.47787276504E+02  0.20000024895E+02 0.  0.
         12    1    1    2    0    0 -0.46495301122E+01  0.41780069556E+02  0.10790294601E+02  0.43400723496E+02  0.00000000000E+00 0. -1.
         11    1    3    3    0    0 -0.34064951377E+01 -0.16946603085E+02  0.91915405788E+00  0.17310008946E+02  0.51100000000E-03 0. -1.
        -11    1    3    3    0    0  0.69341077158E+01 -0.25693369812E+02 -0.10472853342E+02  0.28599156622E+02  0.51100000000E-03 0.  1.
        -12    1    3    3    0    0  0.11219175341E+01  0.85990334188E+00 -0.12365953175E+01  0.18781109366E+01  0.00000000000E+00 0.  1.
</event>
<event>
 7    1  0.5646756E-010  0.4778727E+02  0.7816164E-02  0.1312668E+00
        -11   -1    0    0    0    0  0.00000000000E+00  0.00000000000E+00  0.45593999997E+02  0.45594000000E+02  0.51100000000E-03 0.  1.
         11   -1    0    0    0    0 -0.00000000000E+00 -0.00000000000E+00 -0.45593999997E+02  0.45594000000E+02  0.51100000000E-03 0. -1.
    9900012    2    1    2    0    0 -0.40983228237E+02  0.13869921044E+02 -0.34093661478E+01  0.47787268624E+02  0.19999988962E+02 0.  0.
         12    1    1    2    0    0  0.40983228237E+02 -0.13869921044E+02  0.34093661478E+01  0.43400731376E+02  0.00000000000E+00 0. -1.
         11    1    3    3    0    0 -0.14324256479E+01 -0.21116227194E+01 -0.43796009657E+00  0.25889385959E+01  0.51100000000E-03 0. -1.
        -11    1    3    3    0    0 -0.37637769154E+02  0.18051389982E+02 -0.45126811985E+01  0.41985933824E+02  0.51100000000E-03 0.  1.
        -12    1    3    3    0    0 -0.19130334348E+01 -0.20698462186E+01  0.15412751472E+01  0.32123962039E+01  0.00000000000E+00 0.  1.
</event>
<event>
 7    1  0.5646756E-010  0.4778727E+02  0.7816164E-02  0.1312668E+00
        -11   -1    0    0    0    0  0.00000000000E+00  0.00000000000E+00  0.45593999997E+02  0.45594000000E+02  0.51100000000E-03 0. -1.
         11   -1    0    0    0    0 -0.00000000000E+00 -0.00000000000E+00 -0.45593999997E+02  0.45594000000E+02  0.51100000000E-03 0.  1.
    9900012    2    1    2    0    0 -0.16524066713E+02  0.50474412535E+01 -0.39813336928E+02  0.47787271420E+02  0.20000001711E+02 0.  0.
         12    1    1    2    0    0  0.16524066713E+02 -0.50474412535E+01  0.39813336928E+02  0.43400728580E+02  0.00000000000E+00 0. -1.
         11    1    3    3    0    0  0.28336773993E+01  0.43706084659E+01 -0.10685763400E+02  0.11887703128E+02  0.51100000000E-03 0. -1.
        -11    1    3    3    0    0 -0.16074642263E+02  0.24374914821E+01 -0.18453434356E+02  0.24593997813E+02  0.51100000000E-03 0.  1.
         12    1    3    3    0    0 -0.32831018490E+01 -0.17606586945E+01 -0.10674139172E+02  0.11305570479E+02  0.00000000000E+00 0. -1.
</event>
<event>
 7    1  0.5646756E-010  0.4778727E+02  0.7816164E-02  0.1312668E+00
        -11   -1    0    0    0    0  0.00000000000E+00  0.00000000000E+00  0.45593999997E+02  0.45594000000E+02  0.51100000000E-03 0. -1.
         11   -1    0    0    0    0 -0.00000000000E+00 -0.00000000000E+00 -0.45593999997E+02  0.45594000000E+02  0.51100000000E-03 0.  1.
    9900012    2    1    2    0    0 -0.32137272122E+02 -0.15811178326E+02 -0.24511740739E+02  0.47787273583E+02  0.20000011574E+02 0.  0.
         12    1    1    2    0    0  0.32137272122E+02  0.15811178326E+02  0.24511740739E+02  0.43400726417E+02  0.00000000000E+00 0. -1.
         11    1    3    3    0    0 -0.26716023321E+01 -0.30109321040E+01 -0.10767145772E+02  0.11494981492E+02  0.51100000000E-03 0. -1.
        -11    1    3    3    0    0 -0.19050383654E+02 -0.89199082985E+01 -0.37949558769E+01  0.21374835012E+02  0.51100000000E-03 0.  1.
        -12    1    3    3    0    0 -0.10415286136E+02 -0.38803379237E+01 -0.99496390898E+01  0.14917457079E+02  0.00000000000E+00 0.  1.
</event>
<event>
 7    1  0.5646756E-010  0.4778727E+02  0.7816164E-02  0.1312668E+00
        -11   -1    0    0    0    0  0.00000000000E+00  0.00000000000E+00  0.45593999997E+02  0.45594000000E+02  0.51100000000E-03 0.  1.
         11   -1    0    0    0    0 -0.00000000000E+00 -0.00000000000E+00 -0.45593999997E+02  0.45594000000E+02  0.51100000000E-03 0. -1.
    9900012    2    1    2    0    0  0.16663219907E+02 -0.19231397531E+01  0.40028263124E+02  0.47787271747E+02  0.20000003205E+02 0.  0.
         12    1    1    2    0    0 -0.16663219907E+02  0.19231397531E+01 -0.40028263124E+02  0.43400728253E+02  0.00000000000E+00 0. -1.
         11    1    3    3    0    0  0.41878156832E+01 -0.23222269330E+01  0.94667793771E+01  0.10608979695E+02  0.51100000000E-03 0. -1.
        -11    1    3    3    0    0  0.91942593125E+01  0.47176835854E+01  0.29994854686E+02  0.31725104422E+02  0.51100000000E-03 0.  1.
        -12    1    3    3    0    0  0.32811449113E+01 -0.43185964056E+01  0.56662906085E+00  0.54531876307E+01  0.00000000000E+00 0.  1.
</event>
<event>
 7    1  0.5646756E-010  0.4778726E+02  0.7816164E-02  0.1312668E+00
        -11   -1    0    0    0    0  0.00000000000E+00  0.00000000000E+00  0.45593999997E+02  0.45594000000E+02  0.51100000000E-03 0. -1.
         11   -1    0    0    0    0 -0.00000000000E+00 -0.00000000000E+00 -0.45593999997E+02  0.45594000000E+02  0.51100000000E-03 0.  1.
    9900012    2    1    2    0    0 -0.12706577249E+02  0.22975953669E+02 -0.34558244852E+02  0.47787264527E+02  0.19999970285E+02 0.  0.
         12    1    1    2    0    0  0.12706577249E+02 -0.22975953669E+02  0.34558244852E+02  0.43400735473E+02  0.00000000000E+00 0. -1.
         11    1    3    3    0    0 -0.31079538397E+01  0.52390620246E+01 -0.19035847578E+02  0.19986761650E+02  0.51100000000E-03 0. -1.
        -11    1    3    3    0    0 -0.19782841041E+01  0.14740202476E+02 -0.98063662919E+01  0.17814376137E+02  0.51100000000E-03 0.  1.
        -12    1    3    3    0    0 -0.76203393052E+01  0.29966891678E+01 -0.57160309813E+01  0.99861267404E+01  0.00000000000E+00 0.  1.
</event>
<event>
 7    1  0.5646756E-010  0.4778723E+02  0.7816164E-02  0.1312668E+00
        -11   -1    0    0    0    0  0.00000000000E+00  0.00000000000E+00  0.45593999997E+02  0.45594000000E+02  0.51100000000E-03 0.  1.
         11   -1    0    0    0    0 -0.00000000000E+00 -0.00000000000E+00 -0.45593999997E+02  0.45594000000E+02  0.51100000000E-03 0. -1.
    9900012    2    1    2    0    0 -0.40624488665E+02 -0.45766939576E+01  0.14571610648E+02  0.47787227613E+02  0.19999801978E+02 0.  0.
         12    1    1    2    0    0  0.40624488665E+02  0.45766939576E+01 -0.14571610648E+02  0.43400772387E+02  0.00000000000E+00 0. -1.
         11    1    3    3    0    0  0.15542935718E+01  0.88447242919E+00  0.38899069892E-01  0.17887519068E+01  0.51100000000E-03 0. -1.
        -11    1    3    3    0    0 -0.20769144124E+02  0.55081843201E+00  0.10912741550E+02  0.23468035218E+02  0.51100000000E-03 0.  1.
        -12    1    3    3    0    0 -0.21409638113E+02 -0.60119848188E+01  0.36199700282E+01  0.22530440489E+02  0.00000000000E+00 0.  1.
</event>
<event>
 7    1  0.5656757E-010  0.4778727E+02  0.7816164E-02  0.1312668E+00
        -11   -1    0    0    0    0  0.00000000000E+00  0.00000000000E+00  0.45593999997E+02  0.45594000000E+02  0.51100000000E-03 0.  1.
         11   -1    0    0    0    0 -0.00000000000E+00 -0.00000000000E+00 -0.45593999997E+02  0.45594000000E+02  0.51100000000E-03 0. -1.
    9900012    2    1    2    0    0  0.43297209172E+02  0.26805409554E+01 -0.13376523179E+01  0.47787274941E+02  0.20000017766E+02 0.  0.
         12    1    1    2    0    0 -0.43297209172E+02 -0.26805409554E+01  0.13376523179E+01  0.43400725059E+02  0.00000000000E+00 0. -1.
         11    1    3    3    0    0  0.66131733775E+00 -0.32456653281E+01 -0.11437736329E+01  0.35042691717E+01  0.51100000000E-03 0. -1.
        -11    1    3    3    0    0  0.28241469125E+02  0.41531653349E+01  0.47961951675E+01  0.28945342440E+02  0.51100000000E-03 0.  1.
        -12    1    3    3    0    0  0.14394422710E+02  0.17730409486E+01 -0.49900738525E+01  0.15337663329E+02  0.00000000000E+00 0.  1.
</event>
<event>
 7    1  0.5646756E-010  0.4778727E+02  0.7816164E-02  0.1312668E+00
        -11   -1    0    0    0    0  0.00000000000E+00  0.00000000000E+00  0.45593999997E+02  0.45594000000E+02  0.51100000000E-03 0. -1.
         11   -1    0    0    0    0 -0.00000000000E+00 -0.00000000000E+00 -0.45593999997E+02  0.45594000000E+02  0.51100000000E-03 0.  1.
    9900012    2    1    2    0    0 -0.33707355491E+02 -0.15313071665E+02 -0.22648344957E+02  0.47787268355E+02  0.19999987739E+02 0.  0.
         12    1    1    2    0    0  0.33707355491E+02  0.15313071665E+02  0.22648344957E+02  0.43400731645E+02  0.00000000000E+00 0. -1.
         11    1    3    3    0    0 -0.43063589563E+01 -0.83555857065E-01  0.14278408388E+01  0.45376688689E+01  0.51100000000E-03 0. -1.
        -11    1    3    3    0    0 -0.27095745401E+02 -0.13090080131E+02 -0.25822157976E+02  0.39652407991E+02  0.51100000000E-03 0.  1.
        -12    1    3    3    0    0 -0.23052511333E+01 -0.21394356769E+01  0.17459721797E+01  0.35971914956E+01  0.00000000000E+00 0.  1.
</event>
<event>
 7    1  0.5646756E-010  0.4778727E+02  0.7816164E-02  0.1312668E+00
        -11   -1    0    0    0    0  0.00000000000E+00  0.00000000000E+00  0.45593999997E+02  0.45594000000E+02  0.51100000000E-03 0.  1.
         11   -1    0    0    0    0 -0.00000000000E+00 -0.00000000000E+00 -0.45593999997E+02  0.45594000000E+02  0.51100000000E-03 0. -1.
    9900012    2    1    2    0    0 -0.28916627370E+02 -0.32224008746E+02  0.30108439584E+01  0.47787271210E+02  0.20000000757E+02 0.  0.
         12    1    1    2    0    0  0.28916627370E+02  0.32224008746E+02 -0.30108439584E+01  0.43400728790E+02  0.00000000000E+00 0. -1.
         11    1    3    3    0    0 -0.38265159174E+01  0.21038411597E+01 -0.14806080062E+00  0.43692440941E+01  0.51100000000E-03 0. -1.
        -11    1    3    3    0    0 -0.14079908457E+02 -0.15773267543E+02  0.51178376581E+01  0.21753897438E+02  0.51100000000E-03 0.  1.
         12    1    3    3    0    0 -0.11010202995E+02 -0.18554582363E+02 -0.19589328991E+01  0.21664129679E+02  0.00000000000E+00 0. -1.
</event>
