<event>
 7    1  0.1023000E-012  0.5052886E+02  0.7816164E-02  0.1300439E+00
        -11   -1    0    0    0    0  0.00000000000E+00  0.00000000000E+00  0.45593999997E+02  0.45594000000E+02  0.51100000000E-03 0.  1.
         11   -1    0    0    0    0 -0.00000000000E+00 -0.00000000000E+00 -0.45593999997E+02  0.45594000000E+02  0.51100000000E-03 0. -1.
    9900012    2    1    2    0    0  0.30064546314E+02 -0.13042328538E+01 -0.27342050887E+02  0.50528859390E+02  0.29999998602E+02 0.  0.
        -12    1    1    2    0    0 -0.30064546314E+02  0.13042328538E+01  0.27342050887E+02  0.40659140610E+02  0.00000000000E+00 0.  1.
         11    1    3    3    0    0  0.56138576910E+01 -0.36254061581E+01 -0.13176430604E+02  0.14774210358E+02  0.51100000000E-03 0. -1.
        -11    1    3    3    0    0  0.20521049524E+02  0.41467738399E+01  0.55593623229E-02  0.20935836215E+02  0.51100000000E-03 0.  1.
        -12    1    3    3    0    0  0.39296390996E+01 -0.18256005355E+01 -0.14171179645E+02  0.14818812817E+02  0.00000000000E+00 0.  1.
</event>
<event>
 7    1  0.1023000E-012  0.5052886E+02  0.7816164E-02  0.1300439E+00
        -11   -1    0    0    0    0  0.00000000000E+00  0.00000000000E+00  0.45593999997E+02  0.45594000000E+02  0.51100000000E-03 0. -1.
         11   -1    0    0    0    0 -0.00000000000E+00 -0.00000000000E+00 -0.45593999997E+02  0.45594000000E+02  0.51100000000E-03 0.  1.
    9900012    2    1    2    0    0 -0.92807013313E+00  0.94163743996E+01  0.39542843829E+02  0.50528856882E+02  0.29999990980E+02 0.  0.
        -12    1    1    2    0    0  0.92807013313E+00 -0.94163743996E+01 -0.39542843829E+02  0.40659143118E+02  0.00000000000E+00 0.  1.
         11    1    3    3    0    0  0.52861555194E+01  0.25115123096E+01  0.11897943440E+02  0.13259419015E+02  0.51100000000E-03 0. -1.
        -11    1    3    3    0    0 -0.62504766030E+01 -0.38721058386E+01 -0.25845673900E+00  0.73572047367E+01  0.51100000000E-03 0.  1.
        -12    1    3    3    0    0  0.36250950543E-01  0.10776967929E+02  0.27903357128E+02  0.29912233131E+02  0.00000000000E+00 0.  1.
</event>
<event>
 7    1  0.1023000E-012  0.5052885E+02  0.7816164E-02  0.1300439E+00
        -11   -1    0    0    0    0  0.00000000000E+00  0.00000000000E+00  0.45593999997E+02  0.45594000000E+02  0.51100000000E-03 0. -1.
         11   -1    0    0    0    0 -0.00000000000E+00 -0.00000000000E+00 -0.45593999997E+02  0.45594000000E+02  0.51100000000E-03 0.  1.
    9900012    2    1    2    0    0  0.25379466755E+02 -0.12521514624E+02  0.29193505876E+02  0.50528850395E+02  0.29999971261E+02 0.  0.
        -12    1    1    2    0    0 -0.25379466755E+02  0.12521514624E+02 -0.29193505876E+02  0.40659149605E+02  0.00000000000E+00 0.  1.
         11    1    3    3    0    0  0.66526018956E+01 -0.19596052808E+02  0.11916939009E+02  0.23880448766E+02  0.51100000000E-03 0. -1.
        -11    1    3    3    0    0  0.14697967267E+02  0.63537434830E+01  0.15115844943E+02  0.22020196789E+02  0.51100000000E-03 0.  1.
         12    1    3    3    0    0  0.40288975928E+01  0.72079470145E+00  0.21607219245E+01  0.46282048409E+01  0.00000000000E+00 0. -1.
</event>
<event>
 7    1  0.1023000E-012  0.5052885E+02  0.7816164E-02  0.1300439E+00
        -11   -1    0    0    0    0  0.00000000000E+00  0.00000000000E+00  0.45593999997E+02  0.45594000000E+02  0.51100000000E-03 0.  1.
         11   -1    0    0    0    0 -0.00000000000E+00 -0.00000000000E+00 -0.45593999997E+02  0.45594000000E+02  0.51100000000E-03 0. -1.
    9900012    2    1    2    0    0 -0.38682165422E+02  0.97626987543E+01 -0.78451376021E+01  0.50528851058E+02  0.29999973277E+02 0.  0.
        -12    1    1    2    0    0  0.38682165422E+02 -0.97626987543E+01  0.78451376021E+01  0.40659148942E+02  0.00000000000E+00 0.  1.
         11    1    3    3    0    0 -0.12643280054E+02  0.85448396298E+01 -0.13006791054E+02  0.20051020638E+02  0.51100000000E-03 0. -1.
        -11    1    3    3    0    0 -0.74827415459E+01 -0.55216008237E+01 -0.19356207750E+01  0.94987433245E+01  0.51100000000E-03 0.  1.
         12    1    3    3    0    0 -0.18556143822E+02  0.67394599483E+01  0.70972742272E+01  0.20979087096E+02  0.00000000000E+00 0. -1.
</event>
<event>
 7    1  0.1023000E-012  0.5052886E+02  0.7816164E-02  0.1300439E+00
        -11   -1    0    0    0    0  0.00000000000E+00  0.00000000000E+00  0.45593999997E+02  0.45594000000E+02  0.51100000000E-03 0.  1.
         11   -1    0    0    0    0 -0.00000000000E+00 -0.00000000000E+00 -0.45593999997E+02  0.45594000000E+02  0.51100000000E-03 0. -1.
    9900012    2    1    2    0    0 -0.19329993622E+02  0.25710382958E+01 -0.35677815873E+02  0.50528862813E+02  0.30000009005E+02 0.  0.
        -12    1    1    2    0    0  0.19329993622E+02 -0.25710382958E+01  0.35677815873E+02  0.40659137187E+02  0.00000000000E+00 0.  1.
         11    1    3    3    0    0  0.43251800435E+01 -0.70611879960E+00 -0.40598106618E+01  0.59739307862E+01  0.51100000000E-03 0. -1.
        -11    1    3    3    0    0 -0.24406323976E+02  0.86200575159E+01 -0.27517582164E+02  0.37778186431E+02  0.51100000000E-03 0.  1.
        -12    1    3    3    0    0  0.75115031098E+00 -0.53429004205E+01 -0.41004230472E+01  0.67767455950E+01  0.00000000000E+00 0.  1.
</event>
<event>
 7    1  0.1023000E-012  0.5052886E+02  0.7816164E-02  0.1300439E+00
        -11   -1    0    0    0    0  0.00000000000E+00  0.00000000000E+00  0.45593999997E+02  0.45594000000E+02  0.51100000000E-03 0.  1.
         11   -1    0    0    0    0 -0.00000000000E+00 -0.00000000000E+00 -0.45593999997E+02  0.45594000000E+02  0.51100000000E-03 0. -1.
    9900012    2    1    2    0    0  0.37434481059E+01 -0.12526359407E+02 -0.38499903604E+02  0.50528860053E+02  0.30000000617E+02 0.  0.
        -12    1    1    2    0    0 -0.37434481059E+01  0.12526359407E+02  0.38499903604E+02  0.40659139947E+02  0.00000000000E+00 0.  1.
         11    1    3    3    0    0 -0.68958316009E+01 -0.16198644051E+02 -0.20859147590E+02  0.27295651687E+02  0.51100000000E-03 0. -1.
        -11    1    3    3    0    0  0.43710732569E+01 -0.17650122077E+01 -0.12739432096E+01  0.48830811045E+01  0.51100000000E-03 0.  1.
         12    1    3    3    0    0  0.62682064499E+01  0.54372968514E+01 -0.16366812804E+02  0.18350127262E+02  0.00000000000E+00 0. -1.
</event>
<event>
 7    1  0.1023000E-012  0.5052886E+02  0.7816164E-02  0.1300439E+00
        -11   -1    0    0    0    0  0.00000000000E+00  0.00000000000E+00  0.45593999997E+02  0.45594000000E+02  0.51100000000E-03 0.  1.
         11   -1    0    0    0    0 -0.00000000000E+00 -0.00000000000E+00 -0.45593999997E+02  0.45594000000E+02  0.51100000000E-03 0. -1.
    9900012    2    1    2    0    0  0.20039480905E+02  0.31441543402E+02 -0.16217723642E+02  0.50528855806E+02  0.29999987708E+02 0.  0.
        -12    1    1    2    0    0 -0.20039480905E+02 -0.31441543402E+02  0.16217723642E+02  0.40659144194E+02  0.00000000000E+00 0.  1.
         11    1    3    3    0    0  0.27138265498E+01 -0.44714593795E+01 -0.63698107086E+01  0.82421655073E+01  0.51100000000E-03 0. -1.
        -11    1    3    3    0    0  0.61282151508E+01  0.23791223278E+02 -0.48257528957E+01  0.25037276555E+02  0.51100000000E-03 0.  1.
         12    1    3    3    0    0  0.11197439205E+02  0.12121779504E+02 -0.50221600374E+01  0.17249413744E+02  0.00000000000E+00 0. -1.
</event>
<event>
 7    1  0.1023000E-012  0.5052887E+02  0.7816164E-02  0.1300439E+00
        -11   -1    0    0    0    0  0.00000000000E+00  0.00000000000E+00  0.45593999997E+02  0.45594000000E+02  0.51100000000E-03 0.  1.
         11   -1    0    0    0    0 -0.00000000000E+00 -0.00000000000E+00 -0.45593999997E+02  0.45594000000E+02  0.51100000000E-03 0. -1.
    9900012    2    1    2    0    0 -0.61974153715E+01  0.39607203147E+02 -0.67842658370E+01  0.50528871119E+02  0.30000034252E+02 0.  0.
        -12    1    1    2    0    0  0.61974153715E+01 -0.39607203147E+02  0.67842658370E+01  0.40659128881E+02  0.00000000000E+00 0.  1.
         11    1    3    3    0    0 -0.68323436751E+01  0.19280999127E+02  0.50566236718E+01  0.21071480504E+02  0.51100000000E-03 0. -1.
        -11    1    3    3    0    0 -0.66239806344E+01  0.33666986550E+01 -0.73914644782E+01  0.10480721668E+02  0.51100000000E-03 0.  1.
         12    1    3    3    0    0  0.72589089380E+01  0.16959505366E+02 -0.44494250306E+01  0.18976668947E+02  0.00000000000E+00 0. -1.
</event>
<event>
 7    1  0.1023000E-012  0.5052887E+02  0.7816164E-02  0.1300439E+00
        -11   -1    0    0    0    0  0.00000000000E+00  0.00000000000E+00  0.45593999997E+02  0.45594000000E+02  0.51100000000E-03 0. -1.
         11   -1    0    0    0    0 -0.00000000000E+00 -0.00000000000E+00 -0.45593999997E+02  0.45594000000E+02  0.51100000000E-03 0.  1.
    9900012    2    1    2    0    0  0.18257749912E+02  0.36313658554E+02 -0.10667005938E+01  0.50528867206E+02  0.30000022359E+02 0.  0.
        -12    1    1    2    0    0 -0.18257749912E+02 -0.36313658554E+02  0.10667005938E+01  0.40659132794E+02  0.00000000000E+00 0.  1.
         11    1    3    3    0    0  0.84146223297E+00  0.65195358806E+01  0.53004650231E+01  0.84443671469E+01  0.51100000000E-03 0. -1.
        -11    1    3    3    0    0  0.96494222321E+01 -0.89784198460E+00 -0.34665663311E+01  0.10292451216E+02  0.51100000000E-03 0.  1.
        -12    1    3    3    0    0  0.77668654468E+01  0.30691964658E+02 -0.29005992859E+01  0.31792048843E+02  0.00000000000E+00 0.  1.
</event>
<event>
 7    1  0.1023000E-012  0.5052886E+02  0.7816164E-02  0.1300439E+00
        -11   -1    0    0    0    0  0.00000000000E+00  0.00000000000E+00  0.45593999997E+02  0.45594000000E+02  0.51100000000E-03 0.  1.
         11   -1    0    0    0    0 -0.00000000000E+00 -0.00000000000E+00 -0.45593999997E+02  0.45594000000E+02  0.51100000000E-03 0. -1.
    9900012    2    1    2    0    0 -0.18613333194E+02  0.46730100149E+01 -0.35845120361E+02  0.50528857745E+02  0.29999993603E+02 0.  0.
        -12    1    1    2    0    0  0.18613333194E+02 -0.46730100149E+01  0.35845120361E+02  0.40659142255E+02  0.00000000000E+00 0.  1.
         11    1    3    3    0    0  0.39011253136E+00  0.43869067539E+01 -0.11411182350E+02  0.12231607479E+02  0.51100000000E-03 0. -1.
        -11    1    3    3    0    0 -0.23999994284E+02  0.32813356262E+00 -0.22620213366E+02  0.32981531957E+02  0.51100000000E-03 0.  1.
        -12    1    3    3    0    0  0.49965485589E+01 -0.42030301640E-01 -0.18137246454E+01  0.53157183086E+01  0.00000000000E+00 0.  1.
</event>
<event>
 7    1  0.1023000E-012  0.5052886E+02  0.7816164E-02  0.1300439E+00
        -11   -1    0    0    0    0  0.00000000000E+00  0.00000000000E+00  0.45593999997E+02  0.45594000000E+02  0.51100000000E-03 0.  1.
         11   -1    0    0    0    0 -0.00000000000E+00 -0.00000000000E+00 -0.45593999997E+02  0.45594000000E+02  0.51100000000E-03 0. -1.
    9900012    2    1    2    0    0 -0.28126208291E+02  0.25677969274E+02 -0.14238121441E+02  0.50528858334E+02  0.29999995393E+02 0.  0.
        -12    1    1    2    0    0  0.28126208291E+02 -0.25677969274E+02  0.14238121441E+02  0.40659141666E+02  0.00000000000E+00 0.  1.
         11    1    3    3    0    0 -0.33540482464E+02  0.22629532977E+02 -0.15105304377E+02  0.43188307993E+02  0.51100000000E-03 0. -1.
        -11    1    3    3    0    0  0.19110010434E+01  0.24266336694E+01  0.19115402968E+01  0.36324182745E+01  0.51100000000E-03 0.  1.
         12    1    3    3    0    0  0.35032731300E+01  0.62180262713E+00 -0.10443573606E+01  0.37081320671E+01  0.00000000000E+00 0. -1.
</event>
<event>
 7    1  0.1023000E-012  0.5052886E+02  0.7816164E-02  0.1300439E+00
        -11   -1    0    0    0    0  0.00000000000E+00  0.00000000000E+00  0.45593999997E+02  0.45594000000E+02  0.51100000000E-03 0.  1.
         11   -1    0    0    0    0 -0.00000000000E+00 -0.00000000000E+00 -0.45593999997E+02  0.45594000000E+02  0.51100000000E-03 0. -1.
    9900012    2    1    2    0    0 -0.86993484637E+00  0.17172435991E+02 -0.36844485499E+02  0.50528862574E+02  0.30000008280E+02 0.  0.
        -12    1    1    2    0    0  0.86993484637E+00 -0.17172435991E+02  0.36844485499E+02  0.40659137426E+02  0.00000000000E+00 0.  1.
         11    1    3    3    0    0  0.10678686316E+02  0.60400231322E+01 -0.22317815597E+02  0.25467648383E+02  0.51100000000E-03 0. -1.
        -11    1    3    3    0    0 -0.13454520501E+02  0.12097151132E+02 -0.13955621777E+02  0.22850045227E+02  0.51100000000E-03 0.  1.
         12    1    3    3    0    0  0.19058993387E+01 -0.96473827337E+00 -0.57104812562E+00  0.22111689640E+01  0.00000000000E+00 0. -1.
</event>
<event>
 7    1  0.1023000E-012  0.5052886E+02  0.7816164E-02  0.1300439E+00
        -11   -1    0    0    0    0  0.00000000000E+00  0.00000000000E+00  0.45593999997E+02  0.45594000000E+02  0.51100000000E-03 0.  1.
         11   -1    0    0    0    0 -0.00000000000E+00 -0.00000000000E+00 -0.45593999997E+02  0.45594000000E+02  0.51100000000E-03 0. -1.
    9900012    2    1    2    0    0  0.17508649180E+02  0.32405048705E+02 -0.17219913944E+02  0.50528863095E+02  0.30000009862E+02 0.  0.
        -12    1    1    2    0    0 -0.17508649180E+02 -0.32405048705E+02  0.17219913944E+02  0.40659136905E+02  0.00000000000E+00 0.  1.
         11    1    3    3    0    0  0.18145618544E+02  0.15349691516E+02 -0.13196041426E+02  0.27184775363E+02  0.51100000000E-03 0. -1.
        -11    1    3    3    0    0 -0.65023715770E+01  0.38401690144E+01  0.17894659042E+01  0.77607939457E+01  0.51100000000E-03 0.  1.
         12    1    3    3    0    0  0.58654022135E+01  0.13215188174E+02 -0.58133384222E+01  0.15583293786E+02  0.00000000000E+00 0. -1.
</event>
<event>
 7    1  0.1023000E-012  0.5052884E+02  0.7816164E-02  0.1300439E+00
        -11   -1    0    0    0    0  0.00000000000E+00  0.00000000000E+00  0.45593999997E+02  0.45594000000E+02  0.51100000000E-03 0.  1.
         11   -1    0    0    0    0 -0.00000000000E+00 -0.00000000000E+00 -0.45593999997E+02  0.45594000000E+02  0.51100000000E-03 0. -1.
    9900012    2    1    2    0    0  0.19011081233E+02  0.20755916841E+02 -0.29341739663E+02  0.50528843836E+02  0.29999951323E+02 0.  0.
        -12    1    1    2    0    0 -0.19011081233E+02 -0.20755916841E+02  0.29341739663E+02  0.40659156164E+02  0.00000000000E+00 0.  1.
         11    1    3    3    0    0  0.13143701918E+02  0.12751126970E+02 -0.18605188436E+02  0.26105577490E+02  0.51100000000E-03 0. -1.
        -11    1    3    3    0    0  0.43814213269E+01 -0.41259635099E+01  0.24014201051E+01  0.64797566707E+01  0.51100000000E-03 0.  1.
        -12    1    3    3    0    0  0.14859579878E+01  0.12130753380E+02 -0.13137971332E+02  0.17943509675E+02  0.00000000000E+00 0.  1.
</event>
<event>
 7    1  0.1023000E-012  0.5052887E+02  0.7816164E-02  0.1300439E+00
        -11   -1    0    0    0    0  0.00000000000E+00  0.00000000000E+00  0.45593999997E+02  0.45594000000E+02  0.51100000000E-03 0.  1.
         11   -1    0    0    0    0 -0.00000000000E+00 -0.00000000000E+00 -0.45593999997E+02  0.45594000000E+02  0.51100000000E-03 0. -1.
    9900012    2    1    2    0    0 -0.11114153590E+01 -0.36828276083E+02 -0.17193251089E+02  0.50528867614E+02  0.30000023599E+02 0.  0.
        -12    1    1    2    0    0  0.11114153590E+01  0.36828276083E+02  0.17193251089E+02  0.40659132386E+02  0.00000000000E+00 0.  1.
         11    1    3    3    0    0  0.71938554531E+01 -0.27926279511E+02 -0.17440581555E+02  0.33701669526E+02  0.51100000000E-03 0. -1.
        -11    1    3    3    0    0  0.93184297619E+00 -0.46673169247E+01  0.37707633128E+01  0.60721359364E+01  0.51100000000E-03 0.  1.
         12    1    3    3    0    0 -0.92371137882E+01 -0.42346796476E+01 -0.35234328477E+01  0.10755062152E+02  0.00000000000E+00 0. -1.
</event>
<event>
 7    1  0.1023000E-012  0.5052886E+02  0.7816164E-02  0.1300439E+00
        -11   -1    0    0    0    0  0.00000000000E+00  0.00000000000E+00  0.45593999997E+02  0.45594000000E+02  0.51100000000E-03 0.  1.
         11   -1    0    0    0    0 -0.00000000000E+00 -0.00000000000E+00 -0.45593999997E+02  0.45594000000E+02  0.51100000000E-03 0. -1.
    9900012    2    1    2    0    0  0.73664644244E+01 -0.85629801015E+01 -0.39058622704E+02  0.50528862849E+02  0.30000009117E+02 0.  0.
        -12    1    1    2    0    0 -0.73664644244E+01  0.85629801015E+01  0.39058622704E+02  0.40659137151E+02  0.00000000000E+00 0.  1.
         11    1    3    3    0    0  0.10611413553E+02 -0.14315728403E+02 -0.23591325708E+02  0.29565060903E+02  0.51100000000E-03 0. -1.
        -11    1    3    3    0    0  0.45165986065E+01  0.43028522395E+01 -0.73360836937E+01  0.96297624368E+01  0.51100000000E-03 0.  1.
         12    1    3    3    0    0 -0.77615477351E+01  0.14498960618E+01 -0.81312133023E+01  0.11334039509E+02  0.00000000000E+00 0. -1.
</event>
<event>
 7    1  0.1023000E-012  0.5052886E+02  0.7816164E-02  0.1300439E+00
        -11   -1    0    0    0    0  0.00000000000E+00  0.00000000000E+00  0.45593999997E+02  0.45594000000E+02  0.51100000000E-03 0. -1.
         11   -1    0    0    0    0 -0.00000000000E+00 -0.00000000000E+00 -0.45593999997E+02  0.45594000000E+02  0.51100000000E-03 0.  1.
    9900012    2    1    2    0    0 -0.18436668927E+02 -0.23246525229E+01  0.36164218623E+02  0.50528862293E+02  0.30000007425E+02 0.  0.
        -12    1    1    2    0    0  0.18436668927E+02  0.23246525229E+01 -0.36164218623E+02  0.40659137707E+02  0.00000000000E+00 0.  1.
         11    1    3    3    0    0  0.22827041189E+01  0.14107492927E+01  0.20286693420E+02  0.20463403477E+02  0.51100000000E-03 0. -1.
        -11    1    3    3    0    0 -0.22951111184E+02 -0.38619617932E+01  0.14121542612E+02  0.27222898807E+02  0.51100000000E-03 0.  1.
        -12    1    3    3    0    0  0.22317381381E+01  0.12655997759E+00  0.17559825909E+01  0.28425600089E+01  0.00000000000E+00 0.  1.
</event>
<event>
 7    1  0.1023000E-012  0.5052887E+02  0.7816164E-02  0.1300439E+00
        -11   -1    0    0    0    0  0.00000000000E+00  0.00000000000E+00  0.45593999997E+02  0.45594000000E+02  0.51100000000E-03 0.  1.
         11   -1    0    0    0    0 -0.00000000000E+00 -0.00000000000E+00 -0.45593999997E+02  0.45594000000E+02  0.51100000000E-03 0. -1.
    9900012    2    1    2    0    0  0.46580638190E+01 -0.40312345622E+02  0.25262842118E+01  0.50528869660E+02  0.30000029820E+02 0.  0.
        -12    1    1    2    0    0 -0.46580638190E+01  0.40312345622E+02 -0.25262842118E+01  0.40659130340E+02  0.00000000000E+00 0.  1.
         11    1    3    3    0    0  0.40577398381E+01 -0.36874414017E+02 -0.23640735475E+01  0.37172254515E+02  0.51100000000E-03 0. -1.
        -11    1    3    3    0    0  0.23949062590E+01 -0.60836272552E+01  0.69592331590E+01  0.95486660321E+01  0.51100000000E-03 0.  1.
         12    1    3    3    0    0 -0.17945822781E+01  0.26456956511E+01 -0.20688753997E+01  0.38079491134E+01  0.00000000000E+00 0. -1.
</event>
<event>
 7    1  0.1023000E-012  0.5052888E+02  0.7816164E-02  0.1300439E+00
        -11   -1    0    0    0    0  0.00000000000E+00  0.00000000000E+00  0.45593999997E+02  0.45594000000E+02  0.51100000000E-03 0.  1.
         11   -1    0    0    0    0 -0.00000000000E+00 -0.00000000000E+00 -0.45593999997E+02  0.45594000000E+02  0.51100000000E-03 0. -1.
    9900012    2    1    2    0    0  0.71750050409E+01  0.26764324126E+02 -0.29754900242E+02  0.50528882552E+02  0.30000069004E+02 0.  0.
        -12    1    1    2    0    0 -0.71750050409E+01 -0.26764324126E+02  0.29754900242E+02  0.40659117448E+02  0.00000000000E+00 0.  1.
         11    1    3    3    0    0  0.44661816328E+01  0.96661085864E+01 -0.21053992857E+02  0.23593453522E+02  0.51100000000E-03 0. -1.
        -11    1    3    3    0    0 -0.80226433519E+01  0.58458585153E+01 -0.38502591240E+01  0.10647129365E+02  0.51100000000E-03 0.  1.
        -12    1    3    3    0    0  0.10731466760E+02  0.11252357024E+02 -0.48506482607E+01  0.16288299665E+02  0.00000000000E+00 0.  1.
</event>
<event>
 7    1  0.1023000E-012  0.5052887E+02  0.7816164E-02  0.1300439E+00
        -11   -1    0    0    0    0  0.00000000000E+00  0.00000000000E+00  0.45593999997E+02  0.45594000000E+02  0.51100000000E-03 0. -1.
         11   -1    0    0    0    0 -0.00000000000E+00 -0.00000000000E+00 -0.45593999997E+02  0.45594000000E+02  0.51100000000E-03 0.  1.
    9900012    2    1    2    0    0 -0.19112381406E+02  0.35217352480E+01  0.35713853399E+02  0.50528867363E+02  0.30000022838E+02 0.  0.
        -12    1    1    2    0    0  0.19112381406E+02 -0.35217352480E+01 -0.35713853399E+02  0.40659132637E+02  0.00000000000E+00 0.  1.
         11    1    3    3    0    0 -0.10592926293E+02 -0.70247901969E+01  0.27671791273E+02  0.30451367740E+02  0.51100000000E-03 0. -1.
        -11    1    3    3    0    0 -0.10680827662E+02  0.97007175286E+01  0.33047992782E+01  0.14802219383E+02  0.51100000000E-03 0.  1.
        -12    1    3    3    0    0  0.21613725487E+01  0.84580791627E+00  0.47372628478E+01  0.52752802404E+01  0.00000000000E+00 0.  1.
</event>
<event>
 7    1  0.1023000E-012  0.5052886E+02  0.7816164E-02  0.1300439E+00
        -11   -1    0    0    0    0  0.00000000000E+00  0.00000000000E+00  0.45593999997E+02  0.45594000000E+02  0.51100000000E-03 0.  1.
         11   -1    0    0    0    0 -0.00000000000E+00 -0.00000000000E+00 -0.45593999997E+02  0.45594000000E+02  0.51100000000E-03 0. -1.
    9900012    2    1    2    0    0 -0.33461750040E+02 -0.20818192688E+02  0.10004007752E+02  0.50528855473E+02  0.29999986697E+02 0.  0.
        -12    1    1    2    0    0  0.33461750040E+02  0.20818192688E+02 -0.10004007752E+02  0.40659144527E+02  0.00000000000E+00 0.  1.
         11    1    3    3    0    0 -0.14162394762E+02 -0.19066542030E+02  0.11096861072E+02  0.26215391973E+02  0.51100000000E-03 0. -1.
        -11    1    3    3    0    0 -0.10213751267E+02 -0.32317632046E+01 -0.75179424250E+01  0.13087569175E+02  0.51100000000E-03 0.  1.
        -12    1    3    3    0    0 -0.90856040109E+01  0.14801125462E+01  0.64250891054E+01  0.11225894325E+02  0.00000000000E+00 0.  1.
</event>
<event>
 7    1  0.1023000E-012  0.5052886E+02  0.7816164E-02  0.1300439E+00
        -11   -1    0    0    0    0  0.00000000000E+00  0.00000000000E+00  0.45593999997E+02  0.45594000000E+02  0.51100000000E-03 0. -1.
         11   -1    0    0    0    0 -0.00000000000E+00 -0.00000000000E+00 -0.45593999997E+02  0.45594000000E+02  0.51100000000E-03 0.  1.
    9900012    2    1    2    0    0 -0.35769663949E+02 -0.18847971729E+02  0.42954262430E+01  0.50528861003E+02  0.30000003506E+02 0.  0.
        -12    1    1    2    0    0  0.35769663949E+02  0.18847971729E+02 -0.42954262430E+01  0.40659138997E+02  0.00000000000E+00 0.  1.
         11    1    3    3    0    0 -0.50864685323E+01 -0.98082073768E+01 -0.12172349997E+01  0.11115518674E+02  0.51100000000E-03 0. -1.
        -11    1    3    3    0    0 -0.66105244953E+01  0.72654720860E+01  0.27893717764E+01  0.10211107379E+02  0.51100000000E-03 0.  1.
        -12    1    3    3    0    0 -0.24072670921E+02 -0.16305236439E+02  0.27232894663E+01  0.29202234951E+02  0.00000000000E+00 0.  1.
</event>
<event>
 7    1  0.1023000E-012  0.5052882E+02  0.7816164E-02  0.1300439E+00
        -11   -1    0    0    0    0  0.00000000000E+00  0.00000000000E+00  0.45593999997E+02  0.45594000000E+02  0.51100000000E-03 0.  1.
         11   -1    0    0    0    0 -0.00000000000E+00 -0.00000000000E+00 -0.45593999997E+02  0.45594000000E+02  0.51100000000E-03 0. -1.
    9900012    2    1    2    0    0  0.95027156745E+01  0.25608796742E+02 -0.30117381949E+02  0.50528821808E+02  0.29999884367E+02 0.  0.
        -12    1    1    2    0    0 -0.95027156745E+01 -0.25608796742E+02  0.30117381949E+02  0.40659178192E+02  0.00000000000E+00 0.  1.
         11    1    3    3    0    0 -0.41702277251E+01  0.91898901026E+01  0.31336234663E+01  0.10567141320E+02  0.51100000000E-03 0.  1.
        -11    1    3    3    0    0  0.10359534839E+02  0.10274853921E+02 -0.17865187217E+02  0.23066371620E+02  0.51100000000E-03 0. -1.
        -12    1    3    3    0    0  0.33134085604E+01  0.61440527190E+01 -0.15385818199E+02  0.16895308868E+02  0.00000000000E+00 0.  1.
</event>
<event>
 7    1  0.1023000E-012  0.5052886E+02  0.7816164E-02  0.1300439E+00
        -11   -1    0    0    0    0  0.00000000000E+00  0.00000000000E+00  0.45593999997E+02  0.45594000000E+02  0.51100000000E-03 0.  1.
         11   -1    0    0    0    0 -0.00000000000E+00 -0.00000000000E+00 -0.45593999997E+02  0.45594000000E+02  0.51100000000E-03 0. -1.
    9900012    2    1    2    0    0  0.76017892550E+00 -0.13530068733E+01 -0.40629510931E+02  0.50528860091E+02  0.30000000733E+02 0.  0.
        -12    1    1    2    0    0 -0.76017892550E+00  0.13530068733E+01  0.40629510931E+02  0.40659139909E+02  0.00000000000E+00 0.  1.
         11    1    3    3    0    0  0.47634640993E+01  0.10131705472E+02 -0.34397182791E+02  0.36173308256E+02  0.51100000000E-03 0. -1.
        -11    1    3    3    0    0 -0.40472495352E+01 -0.95636046326E+01 -0.33889343325E+01  0.10923719080E+02  0.51100000000E-03 0.  1.
         12    1    3    3    0    0  0.43964361452E-01 -0.19211077129E+01 -0.28433938082E+01  0.34318327549E+01  0.00000000000E+00 0. -1.
</event>
<event>
 7    1  0.1023000E-012  0.5052886E+02  0.7816164E-02  0.1300439E+00
        -11   -1    0    0    0    0  0.00000000000E+00  0.00000000000E+00  0.45593999997E+02  0.45594000000E+02  0.51100000000E-03 0. -1.
         11   -1    0    0    0    0 -0.00000000000E+00 -0.00000000000E+00 -0.45593999997E+02  0.45594000000E+02  0.51100000000E-03 0.  1.
    9900012    2    1    2    0    0 -0.23072166853E+02  0.29832023875E+02  0.15195108228E+02  0.50528857783E+02  0.29999993716E+02 0.  0.
        -12    1    1    2    0    0  0.23072166853E+02 -0.29832023875E+02 -0.15195108228E+02  0.40659142217E+02  0.00000000000E+00 0.  1.
         11    1    3    3    0    0 -0.73566886255E+01  0.92026321546E+01  0.16616228584E+02  0.20369299417E+02  0.51100000000E-03 0. -1.
        -11    1    3    3    0    0 -0.13796427500E+02  0.54662307675E+01 -0.87785455800E+00  0.14865790240E+02  0.51100000000E-03 0.  1.
         12    1    3    3    0    0 -0.19190507280E+01  0.15163160953E+02 -0.54326579807E+00  0.15293768126E+02  0.00000000000E+00 0. -1.
</event>
<event>
 7    1  0.1023000E-012  0.5052886E+02  0.7816164E-02  0.1300439E+00
        -11   -1    0    0    0    0  0.00000000000E+00  0.00000000000E+00  0.45593999997E+02  0.45594000000E+02  0.51100000000E-03 0.  1.
         11   -1    0    0    0    0 -0.00000000000E+00 -0.00000000000E+00 -0.45593999997E+02  0.45594000000E+02  0.51100000000E-03 0. -1.
    9900012    2    1    2    0    0 -0.81664998008E+01 -0.38544096507E+02  0.10041240272E+02  0.50528860797E+02  0.30000002880E+02 0.  0.
        -12    1    1    2    0    0  0.81664998008E+01  0.38544096507E+02 -0.10041240272E+02  0.40659139203E+02  0.00000000000E+00 0.  1.
         11    1    3    3    0    0 -0.98347459590E+01 -0.39556505237E+02  0.36676029062E+01  0.40925427866E+02  0.51100000000E-03 0. -1.
        -11    1    3    3    0    0 -0.18349625155E+01 -0.90585944667E+00  0.49617860415E+01  0.53672143383E+01  0.51100000000E-03 0.  1.
         12    1    3    3    0    0  0.35032086737E+01  0.19182681772E+01  0.14118513238E+01  0.42362185935E+01  0.00000000000E+00 0. -1.
</event>
<event>
 7    1  0.1023000E-012  0.5052886E+02  0.7816164E-02  0.1300439E+00
        -11   -1    0    0    0    0  0.00000000000E+00  0.00000000000E+00  0.45593999997E+02  0.45594000000E+02  0.51100000000E-03 0. -1.
         11   -1    0    0    0    0 -0.00000000000E+00 -0.00000000000E+00 -0.45593999997E+02  0.45594000000E+02  0.51100000000E-03 0.  1.
    9900012    2    1    2    0    0  0.40256271405E+02 -0.20064309748E+01  0.53453146328E+01  0.50528861529E+02  0.30000005102E+02 0.  0.
        -12    1    1    2    0    0 -0.40256271405E+02  0.20064309748E+01 -0.53453146328E+01  0.40659138471E+02  0.00000000000E+00 0.  1.
         11    1    3    3    0    0  0.24543890364E+02 -0.32227918249E+01 -0.26445676590E+00  0.24755986731E+02  0.51100000000E-03 0. -1.
        -11    1    3    3    0    0 -0.69979277813E+00 -0.63046253067E+01 -0.12405473408E+01  0.64635105133E+01  0.51100000000E-03 0.  1.
        -12    1    3    3    0    0  0.16412173819E+02  0.75209861568E+01  0.68503187395E+01  0.19309364284E+02  0.00000000000E+00 0.  1.
</event>
<event>
 7    1  0.1023000E-012  0.5052882E+02  0.7816164E-02  0.1300439E+00
        -11   -1    0    0    0    0  0.00000000000E+00  0.00000000000E+00  0.45593999997E+02  0.45594000000E+02  0.51100000000E-03 0.  1.
         11   -1    0    0    0    0 -0.00000000000E+00 -0.00000000000E+00 -0.45593999997E+02  0.45594000000E+02  0.51100000000E-03 0. -1.
    9900012    2    1    2    0    0  0.26262907772E+02  0.14001166506E+02 -0.27701909711E+02  0.50528821580E+02  0.29999883674E+02 0.  0.
        -12    1    1    2    0    0 -0.26262907772E+02 -0.14001166506E+02  0.27701909711E+02  0.40659178420E+02  0.00000000000E+00 0.  1.
         11    1    3    3    0    0  0.10164856786E+02  0.19838921905E+01 -0.18719625647E+02  0.21393562731E+02  0.51100000000E-03 0. -1.
        -11    1    3    3    0    0  0.16170707792E+02  0.14546768580E+02 -0.21589012833E+01  0.21857747405E+02  0.51100000000E-03 0.  1.
        -12    1    3    3    0    0 -0.72656806003E-01 -0.25294942643E+01 -0.68233827811E+01  0.72775114443E+01  0.00000000000E+00 0.  1.
</event>
<event>
 7    1  0.1023000E-012  0.5052886E+02  0.7816164E-02  0.1300439E+00
        -11   -1    0    0    0    0  0.00000000000E+00  0.00000000000E+00  0.45593999997E+02  0.45594000000E+02  0.51100000000E-03 0. -1.
         11   -1    0    0    0    0 -0.00000000000E+00 -0.00000000000E+00 -0.45593999997E+02  0.45594000000E+02  0.51100000000E-03 0.  1.
    9900012    2    1    2    0    0  0.14003368606E+02  0.32084263287E+02  0.20680212589E+02  0.50528862334E+02  0.30000007552E+02 0.  0.
        -12    1    1    2    0    0 -0.14003368606E+02 -0.32084263287E+02 -0.20680212589E+02  0.40659137666E+02  0.00000000000E+00 0.  1.
         11    1    3    3    0    0  0.90511864028E+00  0.36046779197E+01  0.17392699433E+02  0.17785357361E+02  0.51100000000E-03 0. -1.
        -11    1    3    3    0    0 -0.19451662344E+00  0.52599229308E+01 -0.16918096413E+01  0.55287291558E+01  0.51100000000E-03 0.  1.
         12    1    3    3    0    0  0.13292766590E+02  0.23219662436E+02  0.49793227976E+01  0.27214775817E+02  0.00000000000E+00 0. -1.
</event>
<event>
 7    1  0.1023000E-012  0.5052886E+02  0.7816164E-02  0.1300439E+00
        -11   -1    0    0    0    0  0.00000000000E+00  0.00000000000E+00  0.45593999997E+02  0.45594000000E+02  0.51100000000E-03 0.  1.
         11   -1    0    0    0    0 -0.00000000000E+00 -0.00000000000E+00 -0.45593999997E+02  0.45594000000E+02  0.51100000000E-03 0. -1.
    9900012    2    1    2    0    0 -0.17892378020E+02 -0.24089332906E+02 -0.27435971793E+02  0.50528859585E+02  0.29999999194E+02 0.  0.
        -12    1    1    2    0    0  0.17892378020E+02  0.24089332906E+02  0.27435971793E+02  0.40659140415E+02  0.00000000000E+00 0.  1.
         11    1    3    3    0    0 -0.35068609925E+01 -0.15473939620E+02 -0.27219751482E+02  0.31506439856E+02  0.51100000000E-03 0. -1.
        -11    1    3    3    0    0 -0.17481085637E+01 -0.57951164283E+01 -0.47402518320E+00  0.60715696573E+01  0.51100000000E-03 0.  1.
         12    1    3    3    0    0 -0.12637408464E+02 -0.28202768580E+01  0.25780487211E+00  0.12950850072E+02  0.00000000000E+00 0. -1.
</event>
<event>
 7    1  0.1023000E-012  0.5052887E+02  0.7816164E-02  0.1300439E+00
        -11   -1    0    0    0    0  0.00000000000E+00  0.00000000000E+00  0.45593999997E+02  0.45594000000E+02  0.51100000000E-03 0. -1.
         11   -1    0    0    0    0 -0.00000000000E+00 -0.00000000000E+00 -0.45593999997E+02  0.45594000000E+02  0.51100000000E-03 0.  1.
    9900012    2    1    2    0    0 -0.39133052223E+01  0.15586856735E+02  0.37348371960E+02  0.50528868815E+02  0.30000027250E+02 0.  0.
        -12    1    1    2    0    0  0.39133052223E+01 -0.15586856735E+02 -0.37348371960E+02  0.40659131185E+02  0.00000000000E+00 0.  1.
         11    1    3    3    0    0  0.67454761319E+00 -0.41352900623E+01  0.41697093744E+01  0.59111855757E+01  0.51100000000E-03 0. -1.
        -11    1    3    3    0    0  0.71673470308E+01  0.15949030850E+02  0.19482908241E+02  0.26178734926E+02  0.51100000000E-03 0.  1.
        -12    1    3    3    0    0 -0.11755199866E+02  0.37731159476E+01  0.13695754344E+02  0.18438948314E+02  0.00000000000E+00 0.  1.
</event>
<event>
 7    1  0.1023000E-012  0.5052885E+02  0.7816164E-02  0.1300439E+00
        -11   -1    0    0    0    0  0.00000000000E+00  0.00000000000E+00  0.45593999997E+02  0.45594000000E+02  0.51100000000E-03 0.  1.
         11   -1    0    0    0    0 -0.00000000000E+00 -0.00000000000E+00 -0.45593999997E+02  0.45594000000E+02  0.51100000000E-03 0. -1.
    9900012    2    1    2    0    0  0.57388873359E+01  0.63254852201E+01 -0.39751977391E+02  0.50528852227E+02  0.29999976828E+02 0.  0.
        -12    1    1    2    0    0 -0.57388873359E+01 -0.63254852201E+01  0.39751977391E+02  0.40659147773E+02  0.00000000000E+00 0.  1.
         11    1    3    3    0    0 -0.10161065820E+02  0.57407287899E+01 -0.71812075177E+01  0.13703027670E+02  0.51100000000E-03 0. -1.
        -11    1    3    3    0    0  0.82388389750E+01  0.95889979038E+00 -0.23642424231E+02  0.25055182702E+02  0.51100000000E-03 0.  1.
         12    1    3    3    0    0  0.76611141814E+01 -0.37414336011E+00 -0.89283456428E+01  0.11770641855E+02  0.00000000000E+00 0. -1.
</event>
<event>
 7    1  0.1023000E-012  0.5052885E+02  0.7816164E-02  0.1300439E+00
        -11   -1    0    0    0    0  0.00000000000E+00  0.00000000000E+00  0.45593999997E+02  0.45594000000E+02  0.51100000000E-03 0.  1.
         11   -1    0    0    0    0 -0.00000000000E+00 -0.00000000000E+00 -0.45593999997E+02  0.45594000000E+02  0.51100000000E-03 0. -1.
    9900012    2    1    2    0    0 -0.96674243380E+01  0.13197515946E+02 -0.37222747340E+02  0.50528850476E+02  0.29999971506E+02 0.  0.
        -12    1    1    2    0    0  0.96674243380E+01 -0.13197515946E+02  0.37222747340E+02  0.40659149524E+02  0.00000000000E+00 0.  1.
         11    1    3    3    0    0 -0.15339712714E+02  0.11858184293E+02 -0.22532869296E+02  0.29726310229E+02  0.51100000000E-03 0. -1.
        -11    1    3    3    0    0  0.85720882774E+01  0.45867508978E+01 -0.12756354805E+02  0.16038814464E+02  0.51100000000E-03 0.  1.
        -12    1    3    3    0    0 -0.28997999014E+01 -0.32474192441E+01 -0.19335232389E+01  0.47637257824E+01  0.00000000000E+00 0.  1.
</event>
<event>
 7    1  0.1023000E-012  0.5052886E+02  0.7816164E-02  0.1300439E+00
        -11   -1    0    0    0    0  0.00000000000E+00  0.00000000000E+00  0.45593999997E+02  0.45594000000E+02  0.51100000000E-03 0.  1.
         11   -1    0    0    0    0 -0.00000000000E+00 -0.00000000000E+00 -0.45593999997E+02  0.45594000000E+02  0.51100000000E-03 0. -1.
    9900012    2    1    2    0    0 -0.26848144508E+02 -0.18860753241E+02 -0.24012800063E+02  0.50528862735E+02  0.30000008768E+02 0.  0.
        -12    1    1    2    0    0  0.26848144508E+02  0.18860753241E+02  0.24012800063E+02  0.40659137265E+02  0.00000000000E+00 0.  1.
         11    1    3    3    0    0 -0.29965064475E-01 -0.70276086257E+01 -0.18015157115E+02  0.19337374875E+02  0.51100000000E-03 0. -1.
        -11    1    3    3    0    0 -0.57579270309E+01 -0.48573872693E+01  0.16743041722E+01  0.77169443110E+01  0.51100000000E-03 0.  1.
         12    1    3    3    0    0 -0.21060252412E+02 -0.69757573455E+01 -0.76719471194E+01  0.23474543549E+02  0.00000000000E+00 0. -1.
</event>
<event>
 7    1  0.1023000E-012  0.5052887E+02  0.7816164E-02  0.1300439E+00
        -11   -1    0    0    0    0  0.00000000000E+00  0.00000000000E+00  0.45593999997E+02  0.45594000000E+02  0.51100000000E-03 0. -1.
         11   -1    0    0    0    0 -0.00000000000E+00 -0.00000000000E+00 -0.45593999997E+02  0.45594000000E+02  0.51100000000E-03 0.  1.
    9900012    2    1    2    0    0  0.39704366767E+02  0.22818147929E+01  0.84570436280E+01  0.50528868110E+02  0.30000025107E+02 0.  0.
        -12    1    1    2    0    0 -0.39704366767E+02 -0.22818147929E+01 -0.84570436280E+01  0.40659131890E+02  0.00000000000E+00 0.  1.
         11    1    3    3    0    0  0.24506544132E+02 -0.24101933116E+01 -0.73563470414E+01  0.25700108544E+02  0.51100000000E-03 0. -1.
        -11    1    3    3    0    0  0.11141516358E+02  0.27858171241E+01  0.39464419195E+01  0.12143663693E+02  0.51100000000E-03 0.  1.
         12    1    3    3    0    0  0.40563062764E+01  0.19061909803E+01  0.11866948750E+02  0.12685095873E+02  0.00000000000E+00 0. -1.
</event>
<event>
 7    1  0.1023000E-012  0.5052886E+02  0.7816164E-02  0.1300439E+00
        -11   -1    0    0    0    0  0.00000000000E+00  0.00000000000E+00  0.45593999997E+02  0.45594000000E+02  0.51100000000E-03 0.  1.
         11   -1    0    0    0    0 -0.00000000000E+00 -0.00000000000E+00 -0.45593999997E+02  0.45594000000E+02  0.51100000000E-03 0. -1.
    9900012    2    1    2    0    0 -0.42714457446E+01  0.33273548635E+02 -0.22973711164E+02  0.50528859673E+02  0.29999999461E+02 0.  0.
        -12    1    1    2    0    0  0.42714457446E+01 -0.33273548635E+02  0.22973711164E+02  0.40659140327E+02  0.00000000000E+00 0.  1.
         11    1    3    3    0    0 -0.41214127351E+01  0.15863083152E+02 -0.20691199864E+02  0.26396007314E+02  0.51100000000E-03 0. -1.
        -11    1    3    3    0    0  0.66083518751E+01  0.16925033167E+01 -0.16163806163E+01  0.70105326859E+01  0.51100000000E-03 0.  1.
        -12    1    3    3    0    0 -0.67583848845E+01  0.15717962166E+02 -0.66613068356E+00  0.17122319673E+02  0.00000000000E+00 0.  1.
</event>
<event>
 7    1  0.1023000E-012  0.5052886E+02  0.7816164E-02  0.1300439E+00
        -11   -1    0    0    0    0  0.00000000000E+00  0.00000000000E+00  0.45593999997E+02  0.45594000000E+02  0.51100000000E-03 0.  1.
         11   -1    0    0    0    0 -0.00000000000E+00 -0.00000000000E+00 -0.45593999997E+02  0.45594000000E+02  0.51100000000E-03 0. -1.
    9900012    2    1    2    0    0 -0.33426935347E+01  0.40508158144E+02  0.10399551895E+01  0.50528856095E+02  0.29999988587E+02 0.  0.
        -12    1    1    2    0    0  0.33426935347E+01 -0.40508158144E+02 -0.10399551895E+01  0.40659143905E+02  0.00000000000E+00 0.  1.
         11    1    3    3    0    0  0.77416347873E+01  0.10863044459E+02 -0.89804784509E+01  0.16080660359E+02  0.51100000000E-03 0. -1.
        -11    1    3    3    0    0 -0.24628571450E+01  0.48884018144E+00  0.12465542616E+01  0.28033065883E+01  0.51100000000E-03 0.  1.
         12    1    3    3    0    0 -0.86214711770E+01  0.29156273503E+02  0.87738793788E+01  0.31644889148E+02  0.00000000000E+00 0. -1.
</event>
<event>
 7    1  0.1023000E-012  0.5052885E+02  0.7816164E-02  0.1300439E+00
        -11   -1    0    0    0    0  0.00000000000E+00  0.00000000000E+00  0.45593999997E+02  0.45594000000E+02  0.51100000000E-03 0. -1.
         11   -1    0    0    0    0 -0.00000000000E+00 -0.00000000000E+00 -0.45593999997E+02  0.45594000000E+02  0.51100000000E-03 0.  1.
    9900012    2    1    2    0    0  0.19349357649E+02  0.20594600727E+02  0.29234074480E+02  0.50528851814E+02  0.29999975573E+02 0.  0.
        -12    1    1    2    0    0 -0.19349357649E+02 -0.20594600727E+02 -0.29234074480E+02  0.40659148186E+02  0.00000000000E+00 0.  1.
         11    1    3    3    0    0  0.54722303450E+01  0.18514664032E+02  0.16903886242E+02  0.25660854613E+02  0.51100000000E-03 0. -1.
        -11    1    3    3    0    0  0.20933507355E+01 -0.29884734847E+01 -0.31101447858E+01  0.47943812865E+01  0.51100000000E-03 0.  1.
        -12    1    3    3    0    0  0.11783776569E+02  0.50684101797E+01  0.15440333024E+02  0.20073615914E+02  0.00000000000E+00 0.  1.
</event>
<event>
 7    1  0.1185448E-012  0.5052886E+02  0.7816164E-02  0.1300439E+00
        -11   -1    0    0    0    0  0.00000000000E+00  0.00000000000E+00  0.45593999997E+02  0.45594000000E+02  0.51100000000E-03 0. -1.
         11   -1    0    0    0    0 -0.00000000000E+00 -0.00000000000E+00 -0.45593999997E+02  0.45594000000E+02  0.51100000000E-03 0.  1.
    9900012    2    1    2    0    0  0.29939202718E+01  0.24550684534E+02  0.32271756204E+02  0.50528856893E+02  0.29999991013E+02 0.  0.
        -12    1    1    2    0    0 -0.29939202718E+01 -0.24550684534E+02 -0.32271756204E+02  0.40659143107E+02  0.00000000000E+00 0.  1.
         11    1    3    3    0    0  0.53624956910E+01  0.14715827291E+02  0.90722099068E+01  0.18100191318E+02  0.51100000000E-03 0. -1.
        -11    1    3    3    0    0 -0.46124526932E+01  0.37121520260E+00  0.22170612924E+02  0.22648368556E+02  0.51100000000E-03 0.  1.
        -12    1    3    3    0    0  0.22438772740E+01  0.94636420410E+01  0.10289333730E+01  0.97802970193E+01  0.00000000000E+00 0.  1.
</event>
<event>
 7    1  0.1023000E-012  0.5052885E+02  0.7816164E-02  0.1300439E+00
        -11   -1    0    0    0    0  0.00000000000E+00  0.00000000000E+00  0.45593999997E+02  0.45594000000E+02  0.51100000000E-03 0.  1.
         11   -1    0    0    0    0 -0.00000000000E+00 -0.00000000000E+00 -0.45593999997E+02  0.45594000000E+02  0.51100000000E-03 0. -1.
    9900012    2    1    2    0    0 -0.35740852262E+02  0.10911111361E+02  0.16022028661E+02  0.50528852518E+02  0.29999977712E+02 0.  0.
        -12    1    1    2    0    0  0.35740852262E+02 -0.10911111361E+02 -0.16022028661E+02  0.40659147482E+02  0.00000000000E+00 0.  1.
         11    1    3    3    0    0 -0.22979222590E+02 -0.58430545893E+01  0.15459502047E+02  0.28305161395E+02  0.51100000000E-03 0. -1.
        -11    1    3    3    0    0 -0.86748330293E+01  0.83741065463E+01 -0.26816606064E+01  0.12351910476E+02  0.51100000000E-03 0.  1.
         12    1    3    3    0    0 -0.40867966434E+01  0.83800594042E+01  0.32441872205E+01  0.98717806471E+01  0.00000000000E+00 0. -1.
</event>
<event>
 7    1  0.1023000E-012  0.5052884E+02  0.7816164E-02  0.1300439E+00
        -11   -1    0    0    0    0  0.00000000000E+00  0.00000000000E+00  0.45593999997E+02  0.45594000000E+02  0.51100000000E-03 0. -1.
         11   -1    0    0    0    0 -0.00000000000E+00 -0.00000000000E+00 -0.45593999997E+02  0.45594000000E+02  0.51100000000E-03 0.  1.
    9900012    2    1    2    0    0 -0.15247941025E+02 -0.18172035131E+02  0.33021876924E+02  0.50528844550E+02  0.29999953495E+02 0.  0.
        -12    1    1    2    0    0  0.15247941025E+02  0.18172035131E+02 -0.33021876924E+02  0.40659155450E+02  0.00000000000E+00 0.  1.
         11    1    3    3    0    0 -0.38362212841E+01 -0.10751906370E+02  0.65664381509E+01  0.13169593562E+02  0.51100000000E-03 0. -1.
        -11    1    3    3    0    0 -0.17814092997E+02 -0.23632779047E+01  0.20481559638E+02  0.27247408633E+02  0.51100000000E-03 0.  1.
        -12    1    3    3    0    0  0.64023732563E+01 -0.50568508565E+01  0.59738791350E+01  0.10111842355E+02  0.00000000000E+00 0.  1.
</event>
<event>
 7    1  0.1023000E-012  0.5052882E+02  0.7816164E-02  0.1300439E+00
        -11   -1    0    0    0    0  0.00000000000E+00  0.00000000000E+00  0.45593999997E+02  0.45594000000E+02  0.51100000000E-03 0.  1.
         11   -1    0    0    0    0 -0.00000000000E+00 -0.00000000000E+00 -0.45593999997E+02  0.45594000000E+02  0.51100000000E-03 0. -1.
    9900012    2    1    2    0    0  0.12944606482E+02 -0.27043657668E+02 -0.27463547532E+02  0.50528822683E+02  0.29999887029E+02 0.  0.
        -12    1    1    2    0    0 -0.12944606482E+02  0.27043657668E+02  0.27463547532E+02  0.40659177317E+02  0.00000000000E+00 0.  1.
         11    1    3    3    0    0  0.16678885652E+02 -0.20098354628E+02 -0.14624362312E+02  0.29933276778E+02  0.51100000000E-03 0. -1.
        -11    1    3    3    0    0 -0.29380289389E+01  0.37984889841E+01 -0.16876233070E+01  0.50900496358E+01  0.51100000000E-03 0.  1.
         12    1    3    3    0    0 -0.79625023158E+00 -0.10743792024E+02 -0.11151561913E+02  0.15505496270E+02  0.00000000000E+00 0. -1.
</event>
<event>
 7    1  0.1023000E-012  0.5052885E+02  0.7816164E-02  0.1300439E+00
        -11   -1    0    0    0    0  0.00000000000E+00  0.00000000000E+00  0.45593999997E+02  0.45594000000E+02  0.51100000000E-03 0.  1.
         11   -1    0    0    0    0 -0.00000000000E+00 -0.00000000000E+00 -0.45593999997E+02  0.45594000000E+02  0.51100000000E-03 0. -1.
    9900012    2    1    2    0    0  0.10560831694E+02  0.83317514608E+01 -0.38369478170E+02  0.50528854614E+02  0.29999984083E+02 0.  0.
        -12    1    1    2    0    0 -0.10560831694E+02 -0.83317514608E+01  0.38369478170E+02  0.40659145386E+02  0.00000000000E+00 0.  1.
         11    1    3    3    0    0  0.16381322320E+02  0.59460126990E+01 -0.14141777239E+02  0.22443098086E+02  0.51100000000E-03 0. -1.
        -11    1    3    3    0    0 -0.48311321804E+01  0.36655768495E+01 -0.29449005137E+01  0.67415674053E+01  0.51100000000E-03 0.  1.
         12    1    3    3    0    0 -0.98935844516E+00 -0.12798380877E+01 -0.21282800417E+02  0.21344189122E+02  0.00000000000E+00 0. -1.
</event>
<event>
 7    1  0.1023000E-012  0.5052886E+02  0.7816164E-02  0.1300439E+00
        -11   -1    0    0    0    0  0.00000000000E+00  0.00000000000E+00  0.45593999997E+02  0.45594000000E+02  0.51100000000E-03 0. -1.
         11   -1    0    0    0    0 -0.00000000000E+00 -0.00000000000E+00 -0.45593999997E+02  0.45594000000E+02  0.51100000000E-03 0.  1.
    9900012    2    1    2    0    0  0.72106392183E+00  0.37155165772E+02  0.16496644354E+02  0.50528861401E+02  0.30000004713E+02 0.  0.
        -12    1    1    2    0    0 -0.72106392183E+00 -0.37155165772E+02 -0.16496644354E+02  0.40659138599E+02  0.00000000000E+00 0.  1.
         11    1    3    3    0    0 -0.11354591460E+02  0.25715528694E+02  0.54077017557E+01  0.28626183850E+02  0.51100000000E-03 0. -1.
        -11    1    3    3    0    0  0.10549747749E+02  0.10931617126E+02  0.12568694111E+02  0.19717238713E+02  0.51100000000E-03 0.  1.
        -12    1    3    3    0    0  0.15259076330E+01  0.50801995212E+00 -0.14797515125E+01  0.21854388381E+01  0.00000000000E+00 0.  1.
</event>
<event>
 7    1  0.1023000E-012  0.5052886E+02  0.7816164E-02  0.1300439E+00
        -11   -1    0    0    0    0  0.00000000000E+00  0.00000000000E+00  0.45593999997E+02  0.45594000000E+02  0.51100000000E-03 0.  1.
         11   -1    0    0    0    0 -0.00000000000E+00 -0.00000000000E+00 -0.45593999997E+02  0.45594000000E+02  0.51100000000E-03 0. -1.
    9900012    2    1    2    0    0  0.30514191546E+02 -0.71449559200E+01 -0.25903652143E+02  0.50528862342E+02  0.30000007574E+02 0.  0.
        -12    1    1    2    0    0 -0.30514191546E+02  0.71449559200E+01  0.25903652143E+02  0.40659137658E+02  0.00000000000E+00 0.  1.
         11    1    3    3    0    0  0.52920231844E+01 -0.80331197900E+00  0.22707442371E+01  0.58143872567E+01  0.51100000000E-03 0. -1.
        -11    1    3    3    0    0  0.19841628322E+02 -0.29711572644E+01 -0.31652392449E+02  0.37475217650E+02  0.51100000000E-03 0.  1.
        -12    1    3    3    0    0  0.53805400396E+01 -0.33704866765E+01  0.34779960686E+01  0.72392574348E+01  0.00000000000E+00 0.  1.
</event>
<event>
 7    1  0.1023000E-012  0.5052887E+02  0.7816164E-02  0.1300439E+00
        -11   -1    0    0    0    0  0.00000000000E+00  0.00000000000E+00  0.45593999997E+02  0.45594000000E+02  0.51100000000E-03 0.  1.
         11   -1    0    0    0    0 -0.00000000000E+00 -0.00000000000E+00 -0.45593999997E+02  0.45594000000E+02  0.51100000000E-03 0. -1.
    9900012    2    1    2    0    0 -0.12377809802E+02  0.22526599575E+02 -0.31504084479E+02  0.50528865691E+02  0.30000017755E+02 0.  0.
        -12    1    1    2    0    0  0.12377809802E+02 -0.22526599575E+02  0.31504084479E+02  0.40659134309E+02  0.00000000000E+00 0.  1.
         11    1    3    3    0    0 -0.94339205526E+01  0.26408042761E+02 -0.18348008804E+02  0.33511684631E+02  0.51100000000E-03 0. -1.
        -11    1    3    3    0    0  0.19736453048E+01 -0.38900528347E+01 -0.10626954822E+02  0.11487382465E+02  0.51100000000E-03 0.  1.
         12    1    3    3    0    0 -0.49175345543E+01  0.86096485965E-02 -0.25291208523E+01  0.55297985953E+01  0.00000000000E+00 0. -1.
</event>
<event>
 7    1  0.1023000E-012  0.5052890E+02  0.7816164E-02  0.1300439E+00
        -11   -1    0    0    0    0  0.00000000000E+00  0.00000000000E+00  0.45593999997E+02  0.45594000000E+02  0.51100000000E-03 0.  1.
         11   -1    0    0    0    0 -0.00000000000E+00 -0.00000000000E+00 -0.45593999997E+02  0.45594000000E+02  0.51100000000E-03 0. -1.
    9900012    2    1    2    0    0  0.82465491000E+01  0.83871120424E+01 -0.38920601705E+02  0.50528899450E+02  0.30000120367E+02 0.  0.
        -12    1    1    2    0    0 -0.82465491000E+01 -0.83871120424E+01  0.38920601705E+02  0.40659100550E+02  0.00000000000E+00 0.  1.
         11    1    3    3    0    0  0.10980630412E+02  0.17260682157E+01 -0.48399135243E+01  0.12123461507E+02  0.51100000000E-03 0. -1.
        -11    1    3    3    0    0 -0.85304076884E+01  0.18374589213E+01 -0.10523328443E+02  0.13670572497E+02  0.51100000000E-03 0.  1.
         12    1    3    3    0    0  0.57963263768E+01  0.48235849054E+01 -0.23557359738E+02  0.24734865446E+02  0.00000000000E+00 0. -1.
</event>
<event>
 7    1  0.1023000E-012  0.5052885E+02  0.7816164E-02  0.1300439E+00
        -11   -1    0    0    0    0  0.00000000000E+00  0.00000000000E+00  0.45593999997E+02  0.45594000000E+02  0.51100000000E-03 0.  1.
         11   -1    0    0    0    0 -0.00000000000E+00 -0.00000000000E+00 -0.45593999997E+02  0.45594000000E+02  0.51100000000E-03 0. -1.
    9900012    2    1    2    0    0 -0.36059678486E+02 -0.66848637830E+01  0.17555012813E+02  0.50528852306E+02  0.29999977070E+02 0.  0.
        -12    1    1    2    0    0  0.36059678486E+02  0.66848637830E+01 -0.17555012813E+02  0.40659147694E+02  0.00000000000E+00 0.  1.
         11    1    3    3    0    0 -0.15116328127E+02 -0.13290225664E+02  0.16603342029E+02  0.26092229515E+02  0.51100000000E-03 0. -1.
        -11    1    3    3    0    0 -0.11851043343E+02  0.87093331015E+01 -0.15111560038E+01  0.14784563035E+02  0.51100000000E-03 0.  1.
        -12    1    3    3    0    0 -0.90923070153E+01 -0.21039712206E+01  0.24628267878E+01  0.96520597565E+01  0.00000000000E+00 0.  1.
</event>
<event>
 7    1  0.1023000E-012  0.5052887E+02  0.7816164E-02  0.1300439E+00
        -11   -1    0    0    0    0  0.00000000000E+00  0.00000000000E+00  0.45593999997E+02  0.45594000000E+02  0.51100000000E-03 0.  1.
         11   -1    0    0    0    0 -0.00000000000E+00 -0.00000000000E+00 -0.45593999997E+02  0.45594000000E+02  0.51100000000E-03 0. -1.
    9900012    2    1    2    0    0 -0.17386687111E+02  0.26424444601E+02 -0.25546364079E+02  0.50528869675E+02  0.30000029863E+02 0.  0.
        -12    1    1    2    0    0  0.17386687111E+02 -0.26424444601E+02  0.25546364079E+02  0.40659130325E+02  0.00000000000E+00 0.  1.
         11    1    3    3    0    0 -0.18475105257E+02  0.81608341464E+01 -0.12680158021E+02  0.23847749074E+02  0.51100000000E-03 0. -1.
        -11    1    3    3    0    0  0.11255033399E+01  0.13442333631E+02 -0.60151153492E+00  0.13502774070E+02  0.51100000000E-03 0.  1.
         12    1    3    3    0    0 -0.37085193805E-01  0.48212768239E+01 -0.12264694523E+02  0.13178346530E+02  0.00000000000E+00 0. -1.
</event>
<event>
 7    1  0.1023000E-012  0.5052886E+02  0.7816164E-02  0.1300439E+00
        -11   -1    0    0    0    0  0.00000000000E+00  0.00000000000E+00  0.45593999997E+02  0.45594000000E+02  0.51100000000E-03 0.  1.
         11   -1    0    0    0    0 -0.00000000000E+00 -0.00000000000E+00 -0.45593999997E+02  0.45594000000E+02  0.51100000000E-03 0. -1.
    9900012    2    1    2    0    0 -0.26532055032E+02 -0.30809196608E+02  0.93449425052E-01  0.50528864832E+02  0.30000015143E+02 0.  0.
        -12    1    1    2    0    0  0.26532055032E+02  0.30809196608E+02 -0.93449425052E-01  0.40659135168E+02  0.00000000000E+00 0.  1.
         11    1    3    3    0    0 -0.80870695508E+01 -0.16341198812E+02 -0.59040554360E+01  0.19164898732E+02  0.51100000000E-03 0. -1.
        -11    1    3    3    0    0 -0.12206712281E+02  0.15705248447E+01  0.69399465356E+01  0.14129162437E+02  0.51100000000E-03 0.  1.
        -12    1    3    3    0    0 -0.62382732002E+01 -0.16038522640E+02 -0.94244167456E+00  0.17234803663E+02  0.00000000000E+00 0.  1.
</event>
<event>
 7    1  0.1023000E-012  0.5052886E+02  0.7816164E-02  0.1300439E+00
        -11   -1    0    0    0    0  0.00000000000E+00  0.00000000000E+00  0.45593999997E+02  0.45594000000E+02  0.51100000000E-03 0. -1.
         11   -1    0    0    0    0 -0.00000000000E+00 -0.00000000000E+00 -0.45593999997E+02  0.45594000000E+02  0.51100000000E-03 0.  1.
    9900012    2    1    2    0    0  0.35117157601E+02 -0.14053734386E+02  0.14914535856E+02  0.50528860954E+02  0.30000003355E+02 0.  0.
        -12    1    1    2    0    0 -0.35117157601E+02  0.14053734386E+02 -0.14914535856E+02  0.40659139046E+02  0.00000000000E+00 0.  1.
         11    1    3    3    0    0  0.39963059786E+01 -0.13924068500E+02  0.33954859791E+01  0.14878826243E+02  0.51100000000E-03 0. -1.
        -11    1    3    3    0    0  0.30173690566E+02  0.18785005852E+01  0.13075440009E+02  0.32938541232E+02  0.51100000000E-03 0.  1.
        -12    1    3    3    0    0  0.94716105655E+00 -0.20081664710E+01 -0.15563901319E+01  0.27114934787E+01  0.00000000000E+00 0.  1.
</event>
<event>
 7    1  0.1023000E-012  0.5052886E+02  0.7816164E-02  0.1300439E+00
        -11   -1    0    0    0    0  0.00000000000E+00  0.00000000000E+00  0.45593999997E+02  0.45594000000E+02  0.51100000000E-03 0.  1.
         11   -1    0    0    0    0 -0.00000000000E+00 -0.00000000000E+00 -0.45593999997E+02  0.45594000000E+02  0.51100000000E-03 0. -1.
    9900012    2    1    2    0    0  0.24187557486E+02  0.95722769455E+01 -0.31248984779E+02  0.50528862371E+02  0.30000007662E+02 0.  0.
        -12    1    1    2    0    0 -0.24187557486E+02 -0.95722769455E+01  0.31248984779E+02  0.40659137629E+02  0.00000000000E+00 0.  1.
         11    1    3    3    0    0  0.23927104492E+02 -0.56951966676E-02 -0.21192628320E+02  0.31963007636E+02  0.51100000000E-03 0. -1.
        -11    1    3    3    0    0 -0.29372783515E+00  0.59285065461E+01  0.17560814466E+01  0.61900959780E+01  0.51100000000E-03 0.  1.
         12    1    3    3    0    0  0.55418082995E+00  0.36494655960E+01 -0.11812437905E+02  0.12375758756E+02  0.00000000000E+00 0. -1.
</event>
<event>
 7    1  0.1023000E-012  0.5052881E+02  0.7816164E-02  0.1300439E+00
        -11   -1    0    0    0    0  0.00000000000E+00  0.00000000000E+00  0.45593999997E+02  0.45594000000E+02  0.51100000000E-03 0.  1.
         11   -1    0    0    0    0 -0.00000000000E+00 -0.00000000000E+00 -0.45593999997E+02  0.45594000000E+02  0.51100000000E-03 0. -1.
    9900012    2    1    2    0    0 -0.18086825381E+02  0.35951606134E+02 -0.57895009663E+01  0.50528812140E+02  0.29999854981E+02 0.  0.
        -12    1    1    2    0    0  0.18086825381E+02 -0.35951606134E+02  0.57895009663E+01  0.40659187860E+02  0.00000000000E+00 0.  1.
         11    1    3    3    0    0 -0.72349904086E+01  0.54204722313E+01 -0.13898701765E+02  0.16580124138E+02  0.51100000000E-03 0. -1.
        -11    1    3    3    0    0 -0.97920082642E+01  0.29921564256E+02  0.69024883449E+01  0.32230851353E+02  0.51100000000E-03 0.  1.
         12    1    3    3    0    0 -0.10598267080E+01  0.60956964708E+00  0.12067124537E+01  0.17178366487E+01  0.00000000000E+00 0. -1.
</event>
<event>
 7    1  0.1023000E-012  0.5052886E+02  0.7816164E-02  0.1300439E+00
        -11   -1    0    0    0    0  0.00000000000E+00  0.00000000000E+00  0.45593999997E+02  0.45594000000E+02  0.51100000000E-03 0. -1.
         11   -1    0    0    0    0 -0.00000000000E+00 -0.00000000000E+00 -0.45593999997E+02  0.45594000000E+02  0.51100000000E-03 0.  1.
    9900012    2    1    2    0    0 -0.24631630472E+02  0.23561450872E+02  0.22165440037E+02  0.50528856884E+02  0.29999990985E+02 0.  0.
        -12    1    1    2    0    0  0.24631630472E+02 -0.23561450872E+02 -0.22165440037E+02  0.40659143116E+02  0.00000000000E+00 0.  1.
         11    1    3    3    0    0 -0.30392993447E+01  0.87694624630E+01  0.97525865293E+01  0.13463051536E+02  0.51100000000E-03 0. -1.
        -11    1    3    3    0    0 -0.19196918547E+02  0.17863760042E+02  0.24124727900E+01  0.26333545712E+02  0.51100000000E-03 0.  1.
        -12    1    3    3    0    0 -0.23954125807E+01 -0.30717716336E+01  0.10000380717E+02  0.10732259636E+02  0.00000000000E+00 0.  1.
</event>
<event>
 7    1  0.1023000E-012  0.5052887E+02  0.7816164E-02  0.1300439E+00
        -11   -1    0    0    0    0  0.00000000000E+00  0.00000000000E+00  0.45593999997E+02  0.45594000000E+02  0.51100000000E-03 0. -1.
         11   -1    0    0    0    0 -0.00000000000E+00 -0.00000000000E+00 -0.45593999997E+02  0.45594000000E+02  0.51100000000E-03 0.  1.
    9900012    2    1    2    0    0 -0.16013622479E+02 -0.28739346278E+02  0.23890971158E+02  0.50528872707E+02  0.30000039080E+02 0.  0.
        -12    1    1    2    0    0  0.16013622479E+02  0.28739346278E+02 -0.23890971158E+02  0.40659127293E+02  0.00000000000E+00 0.  1.
         11    1    3    3    0    0 -0.83118135551E+01 -0.21289828632E+02  0.17774836304E+02  0.28953201095E+02  0.51100000000E-03 0. -1.
        -11    1    3    3    0    0 -0.57712655860E+01  0.33516325401E+01 -0.29936194556E+01  0.73145543168E+01  0.51100000000E-03 0.  1.
        -12    1    3    3    0    0 -0.19305433379E+01 -0.10801150185E+02  0.91097543099E+01  0.14261117295E+02  0.00000000000E+00 0.  1.
</event>
<event>
 7    1  0.1023000E-012  0.5052886E+02  0.7816164E-02  0.1300439E+00
        -11   -1    0    0    0    0  0.00000000000E+00  0.00000000000E+00  0.45593999997E+02  0.45594000000E+02  0.51100000000E-03 0.  1.
         11   -1    0    0    0    0 -0.00000000000E+00 -0.00000000000E+00 -0.45593999997E+02  0.45594000000E+02  0.51100000000E-03 0. -1.
    9900012    2    1    2    0    0 -0.14829530046E+02  0.14159332367E+02 -0.35110738680E+02  0.50528860497E+02  0.30000001967E+02 0.  0.
        -12    1    1    2    0    0  0.14829530046E+02 -0.14159332367E+02  0.35110738680E+02  0.40659139503E+02  0.00000000000E+00 0.  1.
         11    1    3    3    0    0 -0.89488082885E+01  0.55006830413E+01 -0.24645630794E+01  0.10789474275E+02  0.51100000000E-03 0. -1.
        -11    1    3    3    0    0 -0.98306026729E+01  0.75340395045E+01 -0.33347313084E+02  0.35573104874E+02  0.51100000000E-03 0.  1.
        -12    1    3    3    0    0  0.39498809156E+01  0.11246098208E+01  0.70113748344E+00  0.41662813476E+01  0.00000000000E+00 0.  1.
</event>
<event>
 7    1  0.1023000E-012  0.5052885E+02  0.7816164E-02  0.1300439E+00
        -11   -1    0    0    0    0  0.00000000000E+00  0.00000000000E+00  0.45593999997E+02  0.45594000000E+02  0.51100000000E-03 0.  1.
         11   -1    0    0    0    0 -0.00000000000E+00 -0.00000000000E+00 -0.45593999997E+02  0.45594000000E+02  0.51100000000E-03 0. -1.
    9900012    2    1    2    0    0 -0.25933302623E+02  0.27660459109E+02  0.14680906982E+02  0.50528853269E+02  0.29999979997E+02 0.  0.
        -12    1    1    2    0    0  0.25933302623E+02 -0.27660459109E+02 -0.14680906982E+02  0.40659146731E+02  0.00000000000E+00 0.  1.
         11    1    3    3    0    0 -0.16754157602E+01  0.88707626365E+01  0.64506396229E+01  0.11095413446E+02  0.51100000000E-03 0. -1.
        -11    1    3    3    0    0  0.18339934156E-01 -0.22230651984E+00 -0.56244940842E+01  0.56289155711E+01  0.51100000000E-03 0.  1.
        -12    1    3    3    0    0 -0.24276226797E+02  0.19012002992E+02  0.13854761443E+02  0.33804524252E+02  0.00000000000E+00 0.  1.
</event>
<event>
 7    1  0.1023000E-012  0.5052885E+02  0.7816164E-02  0.1300439E+00
        -11   -1    0    0    0    0  0.00000000000E+00  0.00000000000E+00  0.45593999997E+02  0.45594000000E+02  0.51100000000E-03 0.  1.
         11   -1    0    0    0    0 -0.00000000000E+00 -0.00000000000E+00 -0.45593999997E+02  0.45594000000E+02  0.51100000000E-03 0. -1.
    9900012    2    1    2    0    0  0.21763510013E+02  0.12284518715E+01 -0.34322109635E+02  0.50528847625E+02  0.29999962840E+02 0.  0.
        -12    1    1    2    0    0 -0.21763510013E+02 -0.12284518715E+01  0.34322109635E+02  0.40659152375E+02  0.00000000000E+00 0.  1.
         11    1    3    3    0    0  0.52792235764E+01  0.35981656633E+01 -0.28528943260E+02  0.29235553723E+02  0.51100000000E-03 0. -1.
        -11    1    3    3    0    0  0.73925366121E+01  0.32666357103E+01  0.16663443204E+01  0.82521033731E+01  0.51100000000E-03 0.  1.
         12    1    3    3    0    0  0.90917498246E+01 -0.56363495022E+01 -0.74595106957E+01  0.13041190529E+02  0.00000000000E+00 0. -1.
</event>
<event>
 7    1  0.1023000E-012  0.5052883E+02  0.7816164E-02  0.1300439E+00
        -11   -1    0    0    0    0  0.00000000000E+00  0.00000000000E+00  0.45593999997E+02  0.45594000000E+02  0.51100000000E-03 0.  1.
         11   -1    0    0    0    0 -0.00000000000E+00 -0.00000000000E+00 -0.45593999997E+02  0.45594000000E+02  0.51100000000E-03 0. -1.
    9900012    2    1    2    0    0 -0.15055598419E+02  0.25937500682E+01 -0.37679828819E+02  0.50528830271E+02  0.29999910093E+02 0.  0.
        -12    1    1    2    0    0  0.15055598419E+02 -0.25937500682E+01  0.37679828819E+02  0.40659169729E+02  0.00000000000E+00 0.  1.
         11    1    3    3    0    0 -0.16132773689E+02 -0.33538337093E+01 -0.29695654882E+02  0.33960955619E+02  0.51100000000E-03 0. -1.
        -11    1    3    3    0    0  0.26593330487E+01  0.23196574910E+01  0.31629851694E+01  0.47389174484E+01  0.51100000000E-03 0.  1.
         12    1    3    3    0    0 -0.15821577793E+01  0.36279262864E+01 -0.11147159107E+02  0.11828957204E+02  0.00000000000E+00 0. -1.
</event>
<event>
 7    1  0.1023000E-012  0.5052880E+02  0.7816164E-02  0.1300439E+00
        -11   -1    0    0    0    0  0.00000000000E+00  0.00000000000E+00  0.45593999997E+02  0.45594000000E+02  0.51100000000E-03 0.  1.
         11   -1    0    0    0    0 -0.00000000000E+00 -0.00000000000E+00 -0.45593999997E+02  0.45594000000E+02  0.51100000000E-03 0. -1.
    9900012    2    1    2    0    0 -0.32031021354E+02 -0.24765749252E+02 -0.37204714154E+01  0.50528799657E+02  0.29999817036E+02 0.  0.
        -12    1    1    2    0    0  0.32031021354E+02  0.24765749252E+02  0.37204714154E+01  0.40659200343E+02  0.00000000000E+00 0.  1.
         11    1    3    3    0    0 -0.22593252181E+02 -0.29996541285E+02 -0.23915943483E+01  0.37629340373E+02  0.51100000000E-03 0. -1.
        -11    1    3    3    0    0 -0.12456798115E+01  0.16477196260E+01 -0.31573574478E+01  0.37730100017E+01  0.51100000000E-03 0.  1.
         12    1    3    3    0    0 -0.81920893621E+01  0.35830724068E+01  0.18284803806E+01  0.91264492817E+01  0.00000000000E+00 0. -1.
</event>
<event>
 7    1  0.1023000E-012  0.5052886E+02  0.7816164E-02  0.1300439E+00
        -11   -1    0    0    0    0  0.00000000000E+00  0.00000000000E+00  0.45593999997E+02  0.45594000000E+02  0.51100000000E-03 0.  1.
         11   -1    0    0    0    0 -0.00000000000E+00 -0.00000000000E+00 -0.45593999997E+02  0.45594000000E+02  0.51100000000E-03 0. -1.
    9900012    2    1    2    0    0  0.31339345163E+02  0.19543920926E+02 -0.17001365342E+02  0.50528858053E+02  0.29999994537E+02 0.  0.
        -12    1    1    2    0    0 -0.31339345163E+02 -0.19543920926E+02  0.17001365342E+02  0.40659141947E+02  0.00000000000E+00 0.  1.
         11    1    3    3    0    0  0.28924045467E+02  0.54974235566E+01 -0.16245577989E+02  0.33626490694E+02  0.51100000000E-03 0. -1.
        -11    1    3    3    0    0  0.48533876217E+00  0.33805441597E+01  0.38313466019E+01  0.51325285752E+01  0.51100000000E-03 0.  1.
         12    1    3    3    0    0  0.19299609341E+01  0.10665953209E+02 -0.45871339551E+01  0.11769838784E+02  0.00000000000E+00 0. -1.
</event>
<event>
 7    1  0.1023000E-012  0.5052885E+02  0.7816164E-02  0.1300439E+00
        -11   -1    0    0    0    0  0.00000000000E+00  0.00000000000E+00  0.45593999997E+02  0.45594000000E+02  0.51100000000E-03 0. -1.
         11   -1    0    0    0    0 -0.00000000000E+00 -0.00000000000E+00 -0.45593999997E+02  0.45594000000E+02  0.51100000000E-03 0.  1.
    9900012    2    1    2    0    0  0.48816919415E+01 -0.37793484409E+02  0.14177033514E+02  0.50528847780E+02  0.29999963314E+02 0.  0.
        -12    1    1    2    0    0 -0.48816919415E+01  0.37793484409E+02 -0.14177033514E+02  0.40659152220E+02  0.00000000000E+00 0.  1.
         11    1    3    3    0    0 -0.85495808224E+01 -0.20048841091E+02  0.74768621070E+01  0.23042457086E+02  0.51100000000E-03 0. -1.
        -11    1    3    3    0    0  0.13703193369E+02 -0.92502822356E+01  0.88040152783E+01  0.18731148263E+02  0.51100000000E-03 0.  1.
         12    1    3    3    0    0 -0.27192060545E+00 -0.84943610819E+01 -0.21038438713E+01  0.87552424318E+01  0.00000000000E+00 0. -1.
</event>
<event>
 7    1  0.1023000E-012  0.5052886E+02  0.7816164E-02  0.1300439E+00
        -11   -1    0    0    0    0  0.00000000000E+00  0.00000000000E+00  0.45593999997E+02  0.45594000000E+02  0.51100000000E-03 0.  1.
         11   -1    0    0    0    0 -0.00000000000E+00 -0.00000000000E+00 -0.45593999997E+02  0.45594000000E+02  0.51100000000E-03 0. -1.
    9900012    2    1    2    0    0  0.34680190864E+02  0.16613578373E+02 -0.13207530786E+02  0.50528862107E+02  0.30000006860E+02 0.  0.
        -12    1    1    2    0    0 -0.34680190864E+02 -0.16613578373E+02  0.13207530786E+02  0.40659137893E+02  0.00000000000E+00 0.  1.
         11    1    3    3    0    0  0.16604391557E+02  0.68778865069E+01 -0.65524842331E+01  0.19129720115E+02  0.51100000000E-03 0. -1.
        -11    1    3    3    0    0 -0.22278146844E+01  0.98388372493E+01 -0.42746368488E+01  0.10956203591E+02  0.51100000000E-03 0.  1.
        -12    1    3    3    0    0  0.20303613992E+02 -0.10314538359E+00 -0.23804097044E+01  0.20442938401E+02  0.00000000000E+00 0.  1.
</event>
<event>
 7    1  0.1023000E-012  0.5052878E+02  0.7816164E-02  0.1300439E+00
        -11   -1    0    0    0    0  0.00000000000E+00  0.00000000000E+00  0.45593999997E+02  0.45594000000E+02  0.51100000000E-03 0.  1.
         11   -1    0    0    0    0 -0.00000000000E+00 -0.00000000000E+00 -0.45593999997E+02  0.45594000000E+02  0.51100000000E-03 0. -1.
    9900012    2    1    2    0    0  0.14436470354E+02  0.28102144972E+02 -0.25593550149E+02  0.50528781642E+02  0.29999762277E+02 0.  0.
        -12    1    1    2    0    0 -0.14436470354E+02 -0.28102144972E+02  0.25593550149E+02  0.40659218358E+02  0.00000000000E+00 0.  1.
         11    1    3    3    0    0  0.12931075161E+02  0.17323865019E+02 -0.36603165701E+00  0.21620892291E+02  0.51100000000E-03 0.  1.
        -11    1    3    3    0    0 -0.37678489194E+01  0.53484281870E+01 -0.11362542124E+02  0.13111435213E+02  0.51100000000E-03 0. -1.
        -12    1    3    3    0    0  0.52732441125E+01  0.54298517659E+01 -0.13864976368E+02  0.15796454138E+02  0.00000000000E+00 0.  1.
</event>
<event>
 7    1  0.1023000E-012  0.5052884E+02  0.7816164E-02  0.1300439E+00
        -11   -1    0    0    0    0  0.00000000000E+00  0.00000000000E+00  0.45593999997E+02  0.45594000000E+02  0.51100000000E-03 0.  1.
         11   -1    0    0    0    0 -0.00000000000E+00 -0.00000000000E+00 -0.45593999997E+02  0.45594000000E+02  0.51100000000E-03 0. -1.
    9900012    2    1    2    0    0 -0.16479621382E+02 -0.16627182314E+02 -0.33243440891E+02  0.50528837750E+02  0.29999932826E+02 0.  0.
        -12    1    1    2    0    0  0.16479621382E+02  0.16627182314E+02  0.33243440891E+02  0.40659162250E+02  0.00000000000E+00 0.  1.
         11    1    3    3    0    0  0.67258449188E+01 -0.20191947191E+01 -0.98262147051E+01  0.12077608740E+02  0.51100000000E-03 0. -1.
        -11    1    3    3    0    0 -0.92907935939E+01 -0.13663017510E+02 -0.13527503198E+02  0.21353927885E+02  0.51100000000E-03 0.  1.
         12    1    3    3    0    0 -0.13914672706E+02 -0.94497008452E+00 -0.98897229879E+01  0.17097301125E+02  0.00000000000E+00 0. -1.
</event>
<event>
 7    1  0.1023000E-012  0.5052886E+02  0.7816164E-02  0.1300439E+00
        -11   -1    0    0    0    0  0.00000000000E+00  0.00000000000E+00  0.45593999997E+02  0.45594000000E+02  0.51100000000E-03 0. -1.
         11   -1    0    0    0    0 -0.00000000000E+00 -0.00000000000E+00 -0.45593999997E+02  0.45594000000E+02  0.51100000000E-03 0.  1.
    9900012    2    1    2    0    0 -0.35468154868E+02  0.10741028448E+02  0.16727393604E+02  0.50528863282E+02  0.30000010431E+02 0.  0.
        -12    1    1    2    0    0  0.35468154868E+02 -0.10741028448E+02 -0.16727393604E+02  0.40659136718E+02  0.00000000000E+00 0.  1.
         11    1    3    3    0    0 -0.42280256955E+01 -0.76693239495E+01  0.78209414571E+01  0.11741458881E+02  0.51100000000E-03 0. -1.
        -11    1    3    3    0    0 -0.84201168012E+01  0.69951346264E+01 -0.18410207400E+01  0.11100433911E+02  0.51100000000E-03 0.  1.
         12    1    3    3    0    0 -0.22820012372E+02  0.11415217771E+02  0.10747472887E+02  0.27686970489E+02  0.00000000000E+00 0. -1.
</event>
<event>
 7    1  0.1023000E-012  0.5052885E+02  0.7816164E-02  0.1300439E+00
        -11   -1    0    0    0    0  0.00000000000E+00  0.00000000000E+00  0.45593999997E+02  0.45594000000E+02  0.51100000000E-03 0.  1.
         11   -1    0    0    0    0 -0.00000000000E+00 -0.00000000000E+00 -0.45593999997E+02  0.45594000000E+02  0.51100000000E-03 0. -1.
    9900012    2    1    2    0    0 -0.17347751336E+02  0.12661475511E+02 -0.34524035478E+02  0.50528850179E+02  0.29999970604E+02 0.  0.
        -12    1    1    2    0    0  0.17347751336E+02 -0.12661475511E+02  0.34524035478E+02  0.40659149821E+02  0.00000000000E+00 0.  1.
         11    1    3    3    0    0 -0.45406155602E+01 -0.10883252185E+01 -0.24824894084E+02  0.25260186223E+02  0.51100000000E-03 0. -1.
        -11    1    3    3    0    0 -0.44424833397E+00  0.10200188684E+01  0.31626259618E+01  0.33526106707E+01  0.51100000000E-03 0.  1.
        -12    1    3    3    0    0 -0.12362887442E+02  0.12729781861E+02 -0.12861767355E+02  0.21916053285E+02  0.00000000000E+00 0.  1.
</event>
<event>
 7    1  0.1023000E-012  0.5052888E+02  0.7816164E-02  0.1300439E+00
        -11   -1    0    0    0    0  0.00000000000E+00  0.00000000000E+00  0.45593999997E+02  0.45594000000E+02  0.51100000000E-03 0.  1.
         11   -1    0    0    0    0 -0.00000000000E+00 -0.00000000000E+00 -0.45593999997E+02  0.45594000000E+02  0.51100000000E-03 0. -1.
    9900012    2    1    2    0    0 -0.18686249069E+02  0.88651441702E+01 -0.35005678791E+02  0.50528877616E+02  0.30000054000E+02 0.  0.
        -12    1    1    2    0    0  0.18686249069E+02 -0.88651441702E+01  0.35005678791E+02  0.40659122384E+02  0.00000000000E+00 0.  1.
         11    1    3    3    0    0 -0.53488624385E+01  0.59246537962E+01 -0.20482014181E+01  0.82405692341E+01  0.51100000000E-03 0. -1.
        -11    1    3    3    0    0 -0.16942267734E+02  0.10017882499E+00 -0.33623441613E+02  0.37650847241E+02  0.51100000000E-03 0.  1.
        -12    1    3    3    0    0  0.36048811032E+01  0.28403115490E+01  0.66596424003E+00  0.46374611408E+01  0.00000000000E+00 0.  1.
</event>
<event>
 7    1  0.1023000E-012  0.5052887E+02  0.7816164E-02  0.1300439E+00
        -11   -1    0    0    0    0  0.00000000000E+00  0.00000000000E+00  0.45593999997E+02  0.45594000000E+02  0.51100000000E-03 0.  1.
         11   -1    0    0    0    0 -0.00000000000E+00 -0.00000000000E+00 -0.45593999997E+02  0.45594000000E+02  0.51100000000E-03 0. -1.
    9900012    2    1    2    0    0  0.33024819770E+02 -0.23673009860E+02 -0.14543281377E+01  0.50528865885E+02  0.30000018343E+02 0.  0.
        -12    1    1    2    0    0 -0.33024819770E+02  0.23673009860E+02  0.14543281377E+01  0.40659134115E+02  0.00000000000E+00 0.  1.
         11    1    3    3    0    0 -0.35379246765E+01 -0.89773425060E+00 -0.19206977783E+01  0.41245506444E+01  0.51100000000E-03 0. -1.
        -11    1    3    3    0    0  0.34103715593E+02 -0.24885683156E+02  0.29508626166E+01  0.42321014093E+02  0.51100000000E-03 0.  1.
        -12    1    3    3    0    0  0.24590288527E+01  0.21104075465E+01 -0.24844929761E+01  0.40833011472E+01  0.00000000000E+00 0.  1.
</event>
<event>
 7    1  0.1023000E-012  0.5052887E+02  0.7816164E-02  0.1300439E+00
        -11   -1    0    0    0    0  0.00000000000E+00  0.00000000000E+00  0.45593999997E+02  0.45594000000E+02  0.51100000000E-03 0.  1.
         11   -1    0    0    0    0 -0.00000000000E+00 -0.00000000000E+00 -0.45593999997E+02  0.45594000000E+02  0.51100000000E-03 0. -1.
    9900012    2    1    2    0    0  0.12747735801E+02 -0.28682328832E+02 -0.25845381644E+02  0.50528874239E+02  0.30000043738E+02 0.  0.
        -12    1    1    2    0    0 -0.12747735801E+02  0.28682328832E+02  0.25845381644E+02  0.40659125761E+02  0.00000000000E+00 0.  1.
         11    1    3    3    0    0  0.17068967606E+02 -0.30676819212E+02 -0.18451349648E+02  0.39659414976E+02  0.51100000000E-03 0. -1.
        -11    1    3    3    0    0 -0.29461483740E+01 -0.13430524539E+01 -0.63236725632E+01  0.71043940687E+01  0.51100000000E-03 0.  1.
         12    1    3    3    0    0 -0.13750834310E+01  0.33375428336E+01 -0.10703594325E+01  0.37650651951E+01  0.00000000000E+00 0. -1.
</event>
<event>
 7    1  0.1023000E-012  0.5052886E+02  0.7816164E-02  0.1300439E+00
        -11   -1    0    0    0    0  0.00000000000E+00  0.00000000000E+00  0.45593999997E+02  0.45594000000E+02  0.51100000000E-03 0. -1.
         11   -1    0    0    0    0 -0.00000000000E+00 -0.00000000000E+00 -0.45593999997E+02  0.45594000000E+02  0.51100000000E-03 0.  1.
    9900012    2    1    2    0    0  0.56053582551E+00 -0.24690307674E+02  0.32299227235E+02  0.50528861133E+02  0.30000003900E+02 0.  0.
        -12    1    1    2    0    0 -0.56053582551E+00  0.24690307674E+02 -0.32299227235E+02  0.40659138867E+02  0.00000000000E+00 0.  1.
         11    1    3    3    0    0 -0.11009630257E+02 -0.12511572214E+02  0.18052703483E+02  0.24569320319E+02  0.51100000000E-03 0. -1.
        -11    1    3    3    0    0  0.83593801355E+01  0.11024272348E+00  0.88045718219E+01  0.12141329208E+02  0.51100000000E-03 0.  1.
        -12    1    3    3    0    0  0.32107859466E+01 -0.12288978183E+02  0.54419519300E+01  0.13818211606E+02  0.00000000000E+00 0.  1.
</event>
<event>
 7    1  0.1023000E-012  0.5052886E+02  0.7816164E-02  0.1300439E+00
        -11   -1    0    0    0    0  0.00000000000E+00  0.00000000000E+00  0.45593999997E+02  0.45594000000E+02  0.51100000000E-03 0. -1.
         11   -1    0    0    0    0 -0.00000000000E+00 -0.00000000000E+00 -0.45593999997E+02  0.45594000000E+02  0.51100000000E-03 0.  1.
    9900012    2    1    2    0    0 -0.16717013556E+02 -0.36501513636E+02  0.64301341512E+01  0.50528860005E+02  0.30000000470E+02 0.  0.
        -12    1    1    2    0    0  0.16717013556E+02  0.36501513636E+02 -0.64301341512E+01  0.40659139995E+02  0.00000000000E+00 0.  1.
         11    1    3    3    0    0 -0.37505098569E+01 -0.19836474453E+02  0.14763996924E+02  0.25010550740E+02  0.51100000000E-03 0. -1.
        -11    1    3    3    0    0 -0.32154929075E-01 -0.90398092027E+01 -0.40410236432E+01  0.99019723645E+01  0.51100000000E-03 0.  1.
         12    1    3    3    0    0 -0.12934348770E+02 -0.76252299805E+01 -0.42928391296E+01  0.15616336900E+02  0.00000000000E+00 0. -1.
</event>
<event>
 7    1  0.1023000E-012  0.5052886E+02  0.7816164E-02  0.1300439E+00
        -11   -1    0    0    0    0  0.00000000000E+00  0.00000000000E+00  0.45593999997E+02  0.45594000000E+02  0.51100000000E-03 0.  1.
         11   -1    0    0    0    0 -0.00000000000E+00 -0.00000000000E+00 -0.45593999997E+02  0.45594000000E+02  0.51100000000E-03 0. -1.
    9900012    2    1    2    0    0  0.19106093417E+02  0.29837860655E+02 -0.19945552115E+02  0.50528858551E+02  0.29999996053E+02 0.  0.
        -12    1    1    2    0    0 -0.19106093417E+02 -0.29837860655E+02  0.19945552115E+02  0.40659141449E+02  0.00000000000E+00 0.  1.
         11    1    3    3    0    0  0.94612716533E+01 -0.10740319096E+01 -0.55930700147E+01  0.11043171568E+02  0.51100000000E-03 0. -1.
        -11    1    3    3    0    0 -0.27575930032E+01  0.10743268659E+02  0.12022426282E+01  0.11156501613E+02  0.51100000000E-03 0.  1.
        -12    1    3    3    0    0  0.12402414767E+02  0.20168623906E+02 -0.15554724729E+02  0.28329185370E+02  0.00000000000E+00 0.  1.
</event>
<event>
 7    1  0.1023000E-012  0.5052886E+02  0.7816164E-02  0.1300439E+00
        -11   -1    0    0    0    0  0.00000000000E+00  0.00000000000E+00  0.45593999997E+02  0.45594000000E+02  0.51100000000E-03 0. -1.
         11   -1    0    0    0    0 -0.00000000000E+00 -0.00000000000E+00 -0.45593999997E+02  0.45594000000E+02  0.51100000000E-03 0.  1.
    9900012    2    1    2    0    0  0.39322082786E+02  0.42252886947E+01 -0.94385574368E+01  0.50528860490E+02  0.30000001946E+02 0.  0.
        -12    1    1    2    0    0 -0.39322082786E+02 -0.42252886947E+01  0.94385574368E+01  0.40659139510E+02  0.00000000000E+00 0.  1.
         11    1    3    3    0    0  0.30290064412E+02  0.12496221922E+02 -0.39897364870E+01  0.33008507417E+02  0.51100000000E-03 0. -1.
        -11    1    3    3    0    0 -0.26627740062E+01 -0.12063275509E+01 -0.38200558397E+00  0.29481384119E+01  0.51100000000E-03 0.  1.
         12    1    3    3    0    0  0.11694792380E+02 -0.70646056765E+01 -0.50668153659E+01  0.14572214661E+02  0.00000000000E+00 0. -1.
</event>
<event>
 7    1  0.1023000E-012  0.5052887E+02  0.7816164E-02  0.1300439E+00
        -11   -1    0    0    0    0  0.00000000000E+00  0.00000000000E+00  0.45593999997E+02  0.45594000000E+02  0.51100000000E-03 0.  1.
         11   -1    0    0    0    0 -0.00000000000E+00 -0.00000000000E+00 -0.45593999997E+02  0.45594000000E+02  0.51100000000E-03 0. -1.
    9900012    2    1    2    0    0  0.30788977011E+02  0.25689684178E+02 -0.67263827123E+01  0.50528865688E+02  0.30000017746E+02 0.  0.
        -12    1    1    2    0    0 -0.30788977011E+02 -0.25689684178E+02  0.67263827123E+01  0.40659134312E+02  0.00000000000E+00 0.  1.
         11    1    3    3    0    0  0.85801196898E+01  0.11932442834E+01  0.95129639394E+00  0.87147719937E+01  0.51100000000E-03 0. -1.
        -11    1    3    3    0    0  0.18434821719E+02  0.29519325510E+02 -0.60598634117E+01  0.35326409034E+02  0.51100000000E-03 0.  1.
        -12    1    3    3    0    0  0.37740356030E+01 -0.50228856152E+01 -0.16178156945E+01  0.64876846608E+01  0.00000000000E+00 0.  1.
</event>
<event>
 7    1  0.1023000E-012  0.5052887E+02  0.7816164E-02  0.1300439E+00
        -11   -1    0    0    0    0  0.00000000000E+00  0.00000000000E+00  0.45593999997E+02  0.45594000000E+02  0.51100000000E-03 0. -1.
         11   -1    0    0    0    0 -0.00000000000E+00 -0.00000000000E+00 -0.45593999997E+02  0.45594000000E+02  0.51100000000E-03 0.  1.
    9900012    2    1    2    0    0  0.40579469324E+02 -0.25060821017E+01  0.43735217044E+00  0.50528867507E+02  0.30000023275E+02 0.  0.
        -12    1    1    2    0    0 -0.40579469324E+02  0.25060821017E+01 -0.43735217044E+00  0.40659132493E+02  0.00000000000E+00 0.  1.
         11    1    3    3    0    0  0.29735844361E+02  0.10090936842E+01 -0.12014000597E+02  0.32086989896E+02  0.51100000000E-03 0. -1.
        -11    1    3    3    0    0  0.31800241868E+01 -0.33325264301E+01  0.10854896369E+01  0.47325019016E+01  0.51100000000E-03 0.  1.
         12    1    3    3    0    0  0.76636007761E+01 -0.18264935585E+00  0.11365863131E+02  0.13709375710E+02  0.00000000000E+00 0. -1.
</event>
<event>
 7    1  0.1023000E-012  0.5052886E+02  0.7816164E-02  0.1300439E+00
        -11   -1    0    0    0    0  0.00000000000E+00  0.00000000000E+00  0.45593999997E+02  0.45594000000E+02  0.51100000000E-03 0.  1.
         11   -1    0    0    0    0 -0.00000000000E+00 -0.00000000000E+00 -0.45593999997E+02  0.45594000000E+02  0.51100000000E-03 0. -1.
    9900012    2    1    2    0    0  0.22562897625E+02 -0.15557160702E+02 -0.30034252317E+02  0.50528856987E+02  0.29999991296E+02 0.  0.
        -12    1    1    2    0    0 -0.22562897625E+02  0.15557160702E+02  0.30034252317E+02  0.40659143013E+02  0.00000000000E+00 0.  1.
         11    1    3    3    0    0 -0.67035598534E+01 -0.22363894607E+01 -0.82235548311E+01  0.10842785936E+02  0.51100000000E-03 0. -1.
        -11    1    3    3    0    0  0.17987163685E+02 -0.83937487791E+01 -0.18015463588E+02  0.26805783043E+02  0.51100000000E-03 0.  1.
         12    1    3    3    0    0  0.11279293794E+02 -0.49270224620E+01 -0.37952338983E+01  0.12880288008E+02  0.00000000000E+00 0. -1.
</event>
<event>
 7    1  0.1023000E-012  0.5052886E+02  0.7816164E-02  0.1300439E+00
        -11   -1    0    0    0    0  0.00000000000E+00  0.00000000000E+00  0.45593999997E+02  0.45594000000E+02  0.51100000000E-03 0.  1.
         11   -1    0    0    0    0 -0.00000000000E+00 -0.00000000000E+00 -0.45593999997E+02  0.45594000000E+02  0.51100000000E-03 0. -1.
    9900012    2    1    2    0    0 -0.30731475646E+02 -0.18096415878E+02 -0.19525934993E+02  0.50528855883E+02  0.29999987941E+02 0.  0.
        -12    1    1    2    0    0  0.30731475646E+02  0.18096415878E+02  0.19525934993E+02  0.40659144117E+02  0.00000000000E+00 0.  1.
         11    1    3    3    0    0 -0.26793783777E+02 -0.19105193209E+02 -0.20591528773E+02  0.38819148807E+02  0.51100000000E-03 0. -1.
        -11    1    3    3    0    0 -0.55462685774E+01  0.24649502390E+01 -0.32460586606E+01  0.68828752643E+01  0.51100000000E-03 0.  1.
         12    1    3    3    0    0  0.16085767082E+01 -0.14561729079E+01  0.43116524408E+01  0.48268318112E+01  0.00000000000E+00 0. -1.
</event>
<event>
 7    1  0.1023000E-012  0.5052886E+02  0.7816164E-02  0.1300439E+00
        -11   -1    0    0    0    0  0.00000000000E+00  0.00000000000E+00  0.45593999997E+02  0.45594000000E+02  0.51100000000E-03 0. -1.
         11   -1    0    0    0    0 -0.00000000000E+00 -0.00000000000E+00 -0.45593999997E+02  0.45594000000E+02  0.51100000000E-03 0.  1.
    9900012    2    1    2    0    0  0.38551451911E+01 -0.40168466290E+02  0.49797424346E+01  0.50528860028E+02  0.30000000542E+02 0.  0.
        -12    1    1    2    0    0 -0.38551451911E+01  0.40168466290E+02 -0.49797424346E+01  0.40659139972E+02  0.00000000000E+00 0.  1.
         11    1    3    3    0    0  0.99657740560E+01 -0.64250774392E+01 -0.34438816754E+01  0.12347412437E+02  0.51100000000E-03 0. -1.
        -11    1    3    3    0    0 -0.10044033857E+01 -0.15591161734E+02 -0.33125081811E+01  0.15970781480E+02  0.51100000000E-03 0.  1.
         12    1    3    3    0    0 -0.51062254792E+01 -0.18152227117E+02  0.11736132291E+02  0.22210666111E+02  0.00000000000E+00 0. -1.
</event>
<event>
 7    1  0.1023000E-012  0.5052883E+02  0.7816164E-02  0.1300439E+00
        -11   -1    0    0    0    0  0.00000000000E+00  0.00000000000E+00  0.45593999997E+02  0.45594000000E+02  0.51100000000E-03 0.  1.
         11   -1    0    0    0    0 -0.00000000000E+00 -0.00000000000E+00 -0.45593999997E+02  0.45594000000E+02  0.51100000000E-03 0. -1.
    9900012    2    1    2    0    0  0.32043496016E+02  0.19659005057E+02  0.15488899136E+02  0.50528829900E+02  0.29999908965E+02 0.  0.
        -12    1    1    2    0    0 -0.32043496016E+02 -0.19659005057E+02 -0.15488899136E+02  0.40659170100E+02  0.00000000000E+00 0.  1.
         11    1    3    3    0    0  0.10387773213E+02  0.94979293110E+01  0.10625862411E+02  0.17635913522E+02  0.51100000000E-03 0. -1.
        -11    1    3    3    0    0  0.19388319900E+02  0.13322060055E+00 -0.34228172294E+01  0.19688584873E+02  0.51100000000E-03 0.  1.
        -12    1    3    3    0    0  0.22674029030E+01  0.10027855145E+02  0.82858539549E+01  0.13204331505E+02  0.00000000000E+00 0.  1.
</event>
<event>
 7    1  0.1023000E-012  0.5052886E+02  0.7816164E-02  0.1300439E+00
        -11   -1    0    0    0    0  0.00000000000E+00  0.00000000000E+00  0.45593999997E+02  0.45594000000E+02  0.51100000000E-03 0.  1.
         11   -1    0    0    0    0 -0.00000000000E+00 -0.00000000000E+00 -0.45593999997E+02  0.45594000000E+02  0.51100000000E-03 0. -1.
    9900012    2    1    2    0    0 -0.10565729727E+01  0.36450496189E+02 -0.17983625407E+02  0.50528858326E+02  0.29999995368E+02 0.  0.
        -12    1    1    2    0    0  0.10565729727E+01 -0.36450496189E+02  0.17983625407E+02  0.40659141674E+02  0.00000000000E+00 0.  1.
         11    1    3    3    0    0  0.38628589847E+01  0.10570960145E+02  0.43052541802E+00  0.11262869542E+02  0.51100000000E-03 0. -1.
        -11    1    3    3    0    0 -0.16470822303E+01  0.86198831118E+01 -0.19786498426E+02  0.21645340953E+02  0.51100000000E-03 0.  1.
        -12    1    3    3    0    0 -0.32723497271E+01  0.17259652932E+02  0.13723476005E+01  0.17620647831E+02  0.00000000000E+00 0.  1.
</event>
<event>
 7    1  0.1023000E-012  0.5052886E+02  0.7816164E-02  0.1300439E+00
        -11   -1    0    0    0    0  0.00000000000E+00  0.00000000000E+00  0.45593999997E+02  0.45594000000E+02  0.51100000000E-03 0.  1.
         11   -1    0    0    0    0 -0.00000000000E+00 -0.00000000000E+00 -0.45593999997E+02  0.45594000000E+02  0.51100000000E-03 0. -1.
    9900012    2    1    2    0    0 -0.21436835239E+02  0.29396992924E+02 -0.18150614578E+02  0.50528857023E+02  0.29999991407E+02 0.  0.
        -12    1    1    2    0    0  0.21436835239E+02 -0.29396992924E+02  0.18150614578E+02  0.40659142977E+02  0.00000000000E+00 0.  1.
         11    1    3    3    0    0 -0.23786065319E+02  0.14428782415E+02 -0.66125383300E+01  0.28595320050E+02  0.51100000000E-03 0. -1.
        -11    1    3    3    0    0  0.47630370064E+01  0.13671196906E+02 -0.12399242836E+02  0.19061200632E+02  0.51100000000E-03 0.  1.
        -12    1    3    3    0    0 -0.24138069259E+01  0.12970136041E+01  0.86116658733E+00  0.28723363410E+01  0.00000000000E+00 0.  1.
</event>
<event>
 7    1  0.1023000E-012  0.5052886E+02  0.7816164E-02  0.1300439E+00
        -11   -1    0    0    0    0  0.00000000000E+00  0.00000000000E+00  0.45593999997E+02  0.45594000000E+02  0.51100000000E-03 0. -1.
         11   -1    0    0    0    0 -0.00000000000E+00 -0.00000000000E+00 -0.45593999997E+02  0.45594000000E+02  0.51100000000E-03 0.  1.
    9900012    2    1    2    0    0  0.31247322463E+02 -0.40042453756E+01  0.25704796468E+02  0.50528859532E+02  0.29999999034E+02 0.  0.
        -12    1    1    2    0    0 -0.31247322463E+02  0.40042453756E+01 -0.25704796468E+02  0.40659140468E+02  0.00000000000E+00 0.  1.
         11    1    3    3    0    0  0.59355342032E+01  0.10791051409E+02  0.10486058246E+02  0.16175128271E+02  0.51100000000E-03 0. -1.
        -11    1    3    3    0    0  0.11993483603E+02 -0.11602294257E+02  0.55377552048E+01  0.17581911555E+02  0.51100000000E-03 0.  1.
         12    1    3    3    0    0  0.13318304657E+02 -0.31930025281E+01  0.96809830169E+01  0.16771819706E+02  0.00000000000E+00 0. -1.
</event>
<event>
 7    1  0.1023000E-012  0.5052885E+02  0.7816164E-02  0.1300439E+00
        -11   -1    0    0    0    0  0.00000000000E+00  0.00000000000E+00  0.45593999997E+02  0.45594000000E+02  0.51100000000E-03 0.  1.
         11   -1    0    0    0    0 -0.00000000000E+00 -0.00000000000E+00 -0.45593999997E+02  0.45594000000E+02  0.51100000000E-03 0. -1.
    9900012    2    1    2    0    0  0.25536530326E+02 -0.78376364609E+01 -0.30653282934E+02  0.50528847513E+02  0.29999962499E+02 0.  0.
        -12    1    1    2    0    0 -0.25536530326E+02  0.78376364609E+01  0.30653282934E+02  0.40659152487E+02  0.00000000000E+00 0.  1.
         11    1    3    3    0    0  0.27141062300E+02 -0.11183796280E+02 -0.19891958511E+02  0.35459900954E+02  0.51100000000E-03 0. -1.
        -11    1    3    3    0    0 -0.17403100578E+01  0.16971838181E+01 -0.12461613189E+02  0.12696492253E+02  0.51100000000E-03 0.  1.
         12    1    3    3    0    0  0.13577808363E+00  0.16489760006E+01  0.17002887668E+01  0.23724543050E+01  0.00000000000E+00 0. -1.
</event>
<event>
 7    1  0.1023000E-012  0.5052885E+02  0.7816164E-02  0.1300439E+00
        -11   -1    0    0    0    0  0.00000000000E+00  0.00000000000E+00  0.45593999997E+02  0.45594000000E+02  0.51100000000E-03 0.  1.
         11   -1    0    0    0    0 -0.00000000000E+00 -0.00000000000E+00 -0.45593999997E+02  0.45594000000E+02  0.51100000000E-03 0. -1.
    9900012    2    1    2    0    0 -0.26360558724E+02 -0.26715179936E+02 -0.15639252097E+02  0.50528854640E+02  0.29999984165E+02 0.  0.
        -12    1    1    2    0    0  0.26360558724E+02  0.26715179936E+02  0.15639252097E+02  0.40659145360E+02  0.00000000000E+00 0.  1.
         11    1    3    3    0    0 -0.22078249087E+02 -0.10460739325E+02 -0.21568650566E+02  0.32589612417E+02  0.51100000000E-03 0. -1.
        -11    1    3    3    0    0 -0.39366841215E+01 -0.14998310105E+02  0.60185284075E+01  0.16633384272E+02  0.51100000000E-03 0.  1.
        -12    1    3    3    0    0 -0.34562551490E+00 -0.12561305052E+01 -0.89129937778E-01  0.13058579511E+01  0.00000000000E+00 0.  1.
</event>
<event>
 7    1  0.1023000E-012  0.5052884E+02  0.7816164E-02  0.1300439E+00
        -11   -1    0    0    0    0  0.00000000000E+00  0.00000000000E+00  0.45593999997E+02  0.45594000000E+02  0.51100000000E-03 0.  1.
         11   -1    0    0    0    0 -0.00000000000E+00 -0.00000000000E+00 -0.45593999997E+02  0.45594000000E+02  0.51100000000E-03 0. -1.
    9900012    2    1    2    0    0 -0.33355111619E+02  0.85463496366E+01 -0.21623214623E+02  0.50528843911E+02  0.29999951551E+02 0.  0.
        -12    1    1    2    0    0  0.33355111619E+02 -0.85463496366E+01  0.21623214623E+02  0.40659156089E+02  0.00000000000E+00 0.  1.
         11    1    3    3    0    0 -0.22417776956E+02 -0.22633079100E+00  0.14455884924E+01  0.22465477418E+02  0.51100000000E-03 0. -1.
        -11    1    3    3    0    0  0.83179379695E+00 -0.17678509134E+00 -0.31133529042E+01  0.32273984038E+01  0.51100000000E-03 0.  1.
         12    1    3    3    0    0 -0.11769128460E+02  0.89494655189E+01 -0.19955450211E+02  0.24835968089E+02  0.00000000000E+00 0. -1.
</event>
<event>
 7    1  0.1023000E-012  0.5052886E+02  0.7816164E-02  0.1300439E+00
        -11   -1    0    0    0    0  0.00000000000E+00  0.00000000000E+00  0.45593999997E+02  0.45594000000E+02  0.51100000000E-03 0.  1.
         11   -1    0    0    0    0 -0.00000000000E+00 -0.00000000000E+00 -0.45593999997E+02  0.45594000000E+02  0.51100000000E-03 0. -1.
    9900012    2    1    2    0    0  0.37823362859E+02 -0.11140132267E+02 -0.99225147245E+01  0.50528860519E+02  0.30000002035E+02 0.  0.
        -12    1    1    2    0    0 -0.37823362859E+02  0.11140132267E+02  0.99225147245E+01  0.40659139481E+02  0.00000000000E+00 0.  1.
         11    1    3    3    0    0  0.15516257716E+02 -0.10418590766E+02 -0.17906096385E+02  0.25882997799E+02  0.51100000000E-03 0. -1.
        -11    1    3    3    0    0  0.20990864692E+02  0.11186731894E+01  0.75925598506E+01  0.22349827641E+02  0.51100000000E-03 0.  1.
         12    1    3    3    0    0  0.13162404509E+01 -0.18402146907E+01  0.39102180994E+00  0.22960350799E+01  0.00000000000E+00 0. -1.
</event>
<event>
 7    1  0.1023000E-012  0.5052888E+02  0.7816164E-02  0.1300439E+00
        -11   -1    0    0    0    0  0.00000000000E+00  0.00000000000E+00  0.45593999997E+02  0.45594000000E+02  0.51100000000E-03 0.  1.
         11   -1    0    0    0    0 -0.00000000000E+00 -0.00000000000E+00 -0.45593999997E+02  0.45594000000E+02  0.51100000000E-03 0. -1.
    9900012    2    1    2    0    0  0.23554289403E+02  0.30009426080E+02 -0.14063914975E+02  0.50528881621E+02  0.30000066175E+02 0.  0.
        -12    1    1    2    0    0 -0.23554289403E+02 -0.30009426080E+02  0.14063914975E+02  0.40659118379E+02  0.00000000000E+00 0.  1.
         11    1    3    3    0    0  0.11915189228E+01  0.15415005278E+02 -0.47642443462E+01  0.16178384639E+02  0.51100000000E-03 0. -1.
        -11    1    3    3    0    0  0.44000968258E+01  0.12399545962E+01 -0.10990872004E+02  0.11903680403E+02  0.51100000000E-03 0.  1.
         12    1    3    3    0    0  0.17962673654E+02  0.13354466206E+02  0.16912013752E+01  0.22446816579E+02  0.00000000000E+00 0. -1.
</event>
<event>
 7    1  0.1023000E-012  0.5052883E+02  0.7816164E-02  0.1300439E+00
        -11   -1    0    0    0    0  0.00000000000E+00  0.00000000000E+00  0.45593999997E+02  0.45594000000E+02  0.51100000000E-03 0. -1.
         11   -1    0    0    0    0 -0.00000000000E+00 -0.00000000000E+00 -0.45593999997E+02  0.45594000000E+02  0.51100000000E-03 0.  1.
    9900012    2    1    2    0    0  0.70172491962E+01 -0.20339129929E+02  0.34499949334E+02  0.50528825186E+02  0.29999894635E+02 0.  0.
        -12    1    1    2    0    0 -0.70172491962E+01  0.20339129929E+02 -0.34499949334E+02  0.40659174814E+02  0.00000000000E+00 0.  1.
         11    1    3    3    0    0  0.19747751378E+01 -0.17813481663E+01  0.68047474364E+01  0.73059924767E+01  0.51100000000E-03 0. -1.
        -11    1    3    3    0    0  0.88381385851E+01  0.23425703731E+01  0.11359231955E+01  0.92136122867E+01  0.51100000000E-03 0.  1.
        -12    1    3    3    0    0 -0.37956645268E+01 -0.20900352136E+02  0.26559278702E+02  0.34009220423E+02  0.00000000000E+00 0.  1.
</event>
<event>
 7    1  0.1023000E-012  0.5052887E+02  0.7816164E-02  0.1300439E+00
        -11   -1    0    0    0    0  0.00000000000E+00  0.00000000000E+00  0.45593999997E+02  0.45594000000E+02  0.51100000000E-03 0.  1.
         11   -1    0    0    0    0 -0.00000000000E+00 -0.00000000000E+00 -0.45593999997E+02  0.45594000000E+02  0.51100000000E-03 0. -1.
    9900012    2    1    2    0    0  0.17145633220E+02  0.23425335403E+02 -0.28468334889E+02  0.50528866111E+02  0.30000019032E+02 0.  0.
        -12    1    1    2    0    0 -0.17145633220E+02 -0.23425335403E+02  0.28468334889E+02  0.40659133889E+02  0.00000000000E+00 0.  1.
         11    1    3    3    0    0 -0.63018608964E+01  0.10352209969E+02 -0.83355910539E+01  0.14709309314E+02  0.51100000000E-03 0.  1.
        -11    1    3    3    0    0  0.19846660386E+02  0.10977199251E+02 -0.21679810994E+02  0.31375197798E+02  0.51100000000E-03 0. -1.
        -12    1    3    3    0    0  0.36008337302E+01  0.20959261829E+01  0.15470671598E+01  0.44443589992E+01  0.00000000000E+00 0.  1.
</event>
<event>
 7    1  0.1023000E-012  0.5052891E+02  0.7816164E-02  0.1300439E+00
        -11   -1    0    0    0    0  0.00000000000E+00  0.00000000000E+00  0.45593999997E+02  0.45594000000E+02  0.51100000000E-03 0.  1.
         11   -1    0    0    0    0 -0.00000000000E+00 -0.00000000000E+00 -0.45593999997E+02  0.45594000000E+02  0.51100000000E-03 0. -1.
    9900012    2    1    2    0    0 -0.30261348207E+02 -0.26004058915E+02 -0.78231430944E+01  0.50528907004E+02  0.30000143331E+02 0.  0.
        -12    1    1    2    0    0  0.30261348207E+02  0.26004058915E+02  0.78231430944E+01  0.40659092996E+02  0.00000000000E+00 0.  1.
         11    1    3    3    0    0 -0.76748786120E+01 -0.11525227481E+02  0.11126010504E+01  0.13891454623E+02  0.51100000000E-03 0. -1.
        -11    1    3    3    0    0 -0.56731036237E+01  0.34358527998E-01 -0.12816005252E+02  0.14015536954E+02  0.51100000000E-03 0.  1.
        -12    1    3    3    0    0 -0.16913365971E+02 -0.14513189962E+02  0.38802611068E+01  0.22621915427E+02  0.00000000000E+00 0.  1.
</event>
<event>
 7    1  0.1023000E-012  0.5052886E+02  0.7816164E-02  0.1300439E+00
        -11   -1    0    0    0    0  0.00000000000E+00  0.00000000000E+00  0.45593999997E+02  0.45594000000E+02  0.51100000000E-03 0.  1.
         11   -1    0    0    0    0 -0.00000000000E+00 -0.00000000000E+00 -0.45593999997E+02  0.45594000000E+02  0.51100000000E-03 0. -1.
    9900012    2    1    2    0    0  0.38660100791E+02 -0.10470938211E+02 -0.69944034883E+01  0.50528860556E+02  0.30000002146E+02 0.  0.
        -12    1    1    2    0    0 -0.38660100791E+02  0.10470938211E+02  0.69944034883E+01  0.40659139444E+02  0.00000000000E+00 0.  1.
         11    1    3    3    0    0  0.40439550671E+02 -0.16581278745E+01 -0.47873360129E+01  0.40755677308E+02  0.51100000000E-03 0. -1.
        -11    1    3    3    0    0 -0.19101963757E+01 -0.31626774866E+01 -0.17917294467E+01  0.41062968413E+01  0.51100000000E-03 0.  1.
         12    1    3    3    0    0  0.13074649585E+00 -0.56501328495E+01 -0.41533802881E+00  0.56668864063E+01  0.00000000000E+00 0. -1.
</event>
<event>
 7    1  0.1023000E-012  0.5052886E+02  0.7816164E-02  0.1300439E+00
        -11   -1    0    0    0    0  0.00000000000E+00  0.00000000000E+00  0.45593999997E+02  0.45594000000E+02  0.51100000000E-03 0. -1.
         11   -1    0    0    0    0 -0.00000000000E+00 -0.00000000000E+00 -0.45593999997E+02  0.45594000000E+02  0.51100000000E-03 0.  1.
    9900012    2    1    2    0    0 -0.27965271356E+02  0.29397360723E+02 -0.26276534279E+01  0.50528858568E+02  0.29999996102E+02 0.  0.
        -12    1    1    2    0    0  0.27965271356E+02 -0.29397360723E+02  0.26276534279E+01  0.40659141432E+02  0.00000000000E+00 0.  1.
         11    1    3    3    0    0  0.36695213668E+01  0.62465326957E+01  0.44380621507E+01  0.84959374817E+01  0.51100000000E-03 0.  1.
        -11    1    3    3    0    0 -0.11415319672E+02  0.40508256307E+01 -0.74415919131E+01  0.14216047340E+02  0.51100000000E-03 0. -1.
        -12    1    3    3    0    0 -0.20219473051E+02  0.19100002397E+02  0.37587633461E+00  0.27816873746E+02  0.00000000000E+00 0.  1.
</event>
<event>
 7    1  0.1023000E-012  0.5052886E+02  0.7816164E-02  0.1300439E+00
        -11   -1    0    0    0    0  0.00000000000E+00  0.00000000000E+00  0.45593999997E+02  0.45594000000E+02  0.51100000000E-03 0.  1.
         11   -1    0    0    0    0 -0.00000000000E+00 -0.00000000000E+00 -0.45593999997E+02  0.45594000000E+02  0.51100000000E-03 0. -1.
    9900012    2    1    2    0    0  0.18705939924E+02  0.62303660995E+01 -0.35558909577E+02  0.50528859570E+02  0.29999999149E+02 0.  0.
        -12    1    1    2    0    0 -0.18705939924E+02 -0.62303660995E+01  0.35558909577E+02  0.40659140430E+02  0.00000000000E+00 0.  1.
         11    1    3    3    0    0  0.19015947054E+02  0.37958075454E+01 -0.29622536124E+02  0.35404929656E+02  0.51100000000E-03 0. -1.
        -11    1    3    3    0    0 -0.18434419738E+01  0.76367729842E+01 -0.12474939580E+01  0.79545472127E+01  0.51100000000E-03 0.  1.
        -12    1    3    3    0    0  0.15334348442E+01 -0.52022144302E+01 -0.46888794957E+01  0.71693827017E+01  0.00000000000E+00 0.  1.
</event>
<event>
 7    1  0.1023000E-012  0.5052888E+02  0.7816164E-02  0.1300439E+00
        -11   -1    0    0    0    0  0.00000000000E+00  0.00000000000E+00  0.45593999997E+02  0.45594000000E+02  0.51100000000E-03 0. -1.
         11   -1    0    0    0    0 -0.00000000000E+00 -0.00000000000E+00 -0.45593999997E+02  0.45594000000E+02  0.51100000000E-03 0.  1.
    9900012    2    1    2    0    0  0.23576334357E+01 -0.40526521066E+02 -0.22818038632E+01  0.50528880802E+02  0.30000063685E+02 0.  0.
        -12    1    1    2    0    0 -0.23576334357E+01  0.40526521066E+02  0.22818038632E+01  0.40659119198E+02  0.00000000000E+00 0.  1.
         11    1    3    3    0    0 -0.34952345114E+01 -0.23546867305E+02  0.81571396255E+01  0.25163675235E+02  0.51100000000E-03 0. -1.
        -11    1    3    3    0    0  0.65878842568E+00 -0.14752178060E+02 -0.12502468877E+02  0.19348707657E+02  0.51100000000E-03 0.  1.
         12    1    3    3    0    0  0.51940795214E+01 -0.22274757003E+01  0.20635253886E+01  0.60164979099E+01  0.00000000000E+00 0. -1.
</event>
<event>
 7    1  0.1191911E-012  0.5052889E+02  0.7816164E-02  0.1300439E+00
        -11   -1    0    0    0    0  0.00000000000E+00  0.00000000000E+00  0.45593999997E+02  0.45594000000E+02  0.51100000000E-03 0.  1.
         11   -1    0    0    0    0 -0.00000000000E+00 -0.00000000000E+00 -0.45593999997E+02  0.45594000000E+02  0.51100000000E-03 0. -1.
    9900012    2    1    2    0    0 -0.30592780158E+02  0.13962012868E+02 -0.22854041275E+02  0.50528890274E+02  0.30000092476E+02 0.  0.
        -12    1    1    2    0    0  0.30592780158E+02 -0.13962012868E+02  0.22854041275E+02  0.40659109726E+02  0.00000000000E+00 0.  1.
         11    1    3    3    0    0 -0.23351464307E+02  0.15863459578E+02 -0.16605920737E+02  0.32752050910E+02  0.51100000000E-03 0. -1.
        -11    1    3    3    0    0 -0.30532481239E+00  0.20494210145E+00  0.46629142654E+01  0.46773918175E+01  0.51100000000E-03 0.  1.
        -12    1    3    3    0    0 -0.69359910394E+01 -0.21063888118E+01 -0.10911034804E+02  0.13099447546E+02  0.00000000000E+00 0.  1.
</event>
<event>
 7    1  0.1023000E-012  0.5052886E+02  0.7816164E-02  0.1300439E+00
        -11   -1    0    0    0    0  0.00000000000E+00  0.00000000000E+00  0.45593999997E+02  0.45594000000E+02  0.51100000000E-03 0.  1.
         11   -1    0    0    0    0 -0.00000000000E+00 -0.00000000000E+00 -0.45593999997E+02  0.45594000000E+02  0.51100000000E-03 0. -1.
    9900012    2    1    2    0    0 -0.84589899071E+01 -0.12130957040E+02 -0.37874145971E+02  0.50528861274E+02  0.30000004328E+02 0.  0.
        -12    1    1    2    0    0  0.84589899071E+01  0.12130957040E+02  0.37874145971E+02  0.40659138726E+02  0.00000000000E+00 0.  1.
         11    1    3    3    0    0  0.99596395332E+01 -0.22838934582E+01 -0.85559355544E+01  0.13327213603E+02  0.51100000000E-03 0. -1.
        -11    1    3    3    0    0 -0.11518155002E+01 -0.37813953300E+00  0.62438597576E+00  0.13636445874E+01  0.51100000000E-03 0.  1.
         12    1    3    3    0    0 -0.17266813940E+02 -0.94689240483E+01 -0.29942596392E+02  0.35838003083E+02  0.00000000000E+00 0. -1.
</event>
<event>
 7    1  0.1023000E-012  0.5052883E+02  0.7816164E-02  0.1300439E+00
        -11   -1    0    0    0    0  0.00000000000E+00  0.00000000000E+00  0.45593999997E+02  0.45594000000E+02  0.51100000000E-03 0.  1.
         11   -1    0    0    0    0 -0.00000000000E+00 -0.00000000000E+00 -0.45593999997E+02  0.45594000000E+02  0.51100000000E-03 0. -1.
    9900012    2    1    2    0    0 -0.40657080719E+02 -0.19941181560E+00 -0.36098979380E+00  0.50528827711E+02  0.29999902309E+02 0.  0.
        -12    1    1    2    0    0  0.40657080719E+02  0.19941181560E+00  0.36098979380E+00  0.40659172289E+02  0.00000000000E+00 0.  1.
         11    1    3    3    0    0 -0.13978000814E+02 -0.11751897727E+02  0.17650167543E+01  0.18346849630E+02  0.51100000000E-03 0. -1.
        -11    1    3    3    0    0 -0.46237692482E+01  0.46596221158E+01  0.47161931477E+01  0.80829325365E+01  0.51100000000E-03 0.  1.
         12    1    3    3    0    0 -0.22055310657E+02  0.68928637956E+01 -0.68421996958E+01  0.24099045544E+02  0.00000000000E+00 0. -1.
</event>
<event>
 7    1  0.1023000E-012  0.5052886E+02  0.7816164E-02  0.1300439E+00
        -11   -1    0    0    0    0  0.00000000000E+00  0.00000000000E+00  0.45593999997E+02  0.45594000000E+02  0.51100000000E-03 0.  1.
         11   -1    0    0    0    0 -0.00000000000E+00 -0.00000000000E+00 -0.45593999997E+02  0.45594000000E+02  0.51100000000E-03 0. -1.
    9900012    2    1    2    0    0  0.32655024973E+02  0.41403117873E+01 -0.23867817992E+02  0.50528861133E+02  0.30000003901E+02 0.  0.
        -12    1    1    2    0    0 -0.32655024973E+02 -0.41403117873E+01  0.23867817992E+02  0.40659138867E+02  0.00000000000E+00 0.  1.
         11    1    3    3    0    0  0.12791857034E+02 -0.83739857623E+01  0.18071011549E+01  0.15395481765E+02  0.51100000000E-03 0. -1.
        -11    1    3    3    0    0  0.16792833330E+02  0.10480779703E+02 -0.18625827934E+02  0.27180277057E+02  0.51100000000E-03 0.  1.
         12    1    3    3    0    0  0.30703346087E+01  0.20335178463E+01 -0.70490912133E+01  0.79531023113E+01  0.00000000000E+00 0. -1.
</event>
<event>
 7    1  0.1023000E-012  0.5052886E+02  0.7816164E-02  0.1300439E+00
        -11   -1    0    0    0    0  0.00000000000E+00  0.00000000000E+00  0.45593999997E+02  0.45594000000E+02  0.51100000000E-03 0. -1.
         11   -1    0    0    0    0 -0.00000000000E+00 -0.00000000000E+00 -0.45593999997E+02  0.45594000000E+02  0.51100000000E-03 0.  1.
    9900012    2    1    2    0    0 -0.12363293943E+02  0.36418900870E+02  0.13190079055E+02  0.50528861259E+02  0.30000004282E+02 0.  0.
        -12    1    1    2    0    0  0.12363293943E+02 -0.36418900870E+02 -0.13190079055E+02  0.40659138741E+02  0.00000000000E+00 0.  1.
         11    1    3    3    0    0  0.29112640039E+01 -0.26227986192E+01  0.65538829563E+00  0.39729164070E+01  0.51100000000E-03 0.  1.
        -11    1    3    3    0    0 -0.55834478099E+01  0.32882754865E+02  0.94431541983E+01  0.34664443143E+02  0.51100000000E-03 0. -1.
         12    1    3    3    0    0 -0.96911101372E+01  0.61589446247E+01  0.30915365612E+01  0.11891501709E+02  0.00000000000E+00 0. -1.
</event>
<event>
 7    1  0.1023000E-012  0.5052887E+02  0.7816164E-02  0.1300439E+00
        -11   -1    0    0    0    0  0.00000000000E+00  0.00000000000E+00  0.45593999997E+02  0.45594000000E+02  0.51100000000E-03 0. -1.
         11   -1    0    0    0    0 -0.00000000000E+00 -0.00000000000E+00 -0.45593999997E+02  0.45594000000E+02  0.51100000000E-03 0.  1.
    9900012    2    1    2    0    0  0.33376911319E+01 -0.38561346160E+02  0.12451809309E+02  0.50528866281E+02  0.30000019547E+02 0.  0.
        -12    1    1    2    0    0 -0.33376911319E+01  0.38561346160E+02 -0.12451809309E+02  0.40659133719E+02  0.00000000000E+00 0.  1.
         11    1    3    3    0    0  0.56551049928E+01 -0.41692917330E+02  0.10867038385E+02  0.43455403479E+02  0.51100000000E-03 0. -1.
        -11    1    3    3    0    0 -0.94362003401E+00  0.62211455790E+00  0.34685628778E+01  0.36480644170E+01  0.51100000000E-03 0.  1.
         12    1    3    3    0    0 -0.13737938269E+01  0.25094566126E+01 -0.18837919545E+01  0.34253983852E+01  0.00000000000E+00 0. -1.
</event>
<event>
 7    1  0.1023000E-012  0.5052887E+02  0.7816164E-02  0.1300439E+00
        -11   -1    0    0    0    0  0.00000000000E+00  0.00000000000E+00  0.45593999997E+02  0.45594000000E+02  0.51100000000E-03 0. -1.
         11   -1    0    0    0    0 -0.00000000000E+00 -0.00000000000E+00 -0.45593999997E+02  0.45594000000E+02  0.51100000000E-03 0.  1.
    9900012    2    1    2    0    0  0.15447973234E+02 -0.34462328804E+02  0.15062298532E+02  0.50528870389E+02  0.30000032035E+02 0.  0.
        -12    1    1    2    0    0 -0.15447973234E+02  0.34462328804E+02 -0.15062298532E+02  0.40659129611E+02  0.00000000000E+00 0.  1.
         11    1    3    3    0    0  0.17530935798E+01 -0.81633778689E+01  0.68292552255E+00  0.83773780421E+01  0.51100000000E-03 0. -1.
        -11    1    3    3    0    0  0.57024161244E+01  0.45867019712E+01  0.42604755501E+00  0.73305457783E+01  0.51100000000E-03 0.  1.
        -12    1    3    3    0    0  0.79924635302E+01 -0.30885652906E+02  0.13953325455E+02  0.34820946569E+02  0.00000000000E+00 0.  1.
</event>
<event>
 7    1  0.1023000E-012  0.5052887E+02  0.7816164E-02  0.1300439E+00
        -11   -1    0    0    0    0  0.00000000000E+00  0.00000000000E+00  0.45593999997E+02  0.45594000000E+02  0.51100000000E-03 0.  1.
         11   -1    0    0    0    0 -0.00000000000E+00 -0.00000000000E+00 -0.45593999997E+02  0.45594000000E+02  0.51100000000E-03 0. -1.
    9900012    2    1    2    0    0 -0.43528829008E+01  0.53594946934E-01 -0.40425414963E+02  0.50528872649E+02  0.30000038905E+02 0.  0.
        -12    1    1    2    0    0  0.43528829008E+01 -0.53594946934E-01  0.40425414963E+02  0.40659127351E+02  0.00000000000E+00 0.  1.
         11    1    3    3    0    0  0.67020152674E+01  0.86583946506E+00 -0.16754415107E+02  0.18065910231E+02  0.51100000000E-03 0. -1.
        -11    1    3    3    0    0 -0.27312807250E+01 -0.77023343870E+00  0.32323940836E+01  0.43013399914E+01  0.51100000000E-03 0.  1.
        -12    1    3    3    0    0 -0.83236174432E+01 -0.42011079420E-01 -0.26903393940E+02  0.28161622427E+02  0.00000000000E+00 0.  1.
</event>
<event>
 7    1  0.1023000E-012  0.5052886E+02  0.7816164E-02  0.1300439E+00
        -11   -1    0    0    0    0  0.00000000000E+00  0.00000000000E+00  0.45593999997E+02  0.45594000000E+02  0.51100000000E-03 0.  1.
         11   -1    0    0    0    0 -0.00000000000E+00 -0.00000000000E+00 -0.45593999997E+02  0.45594000000E+02  0.51100000000E-03 0. -1.
    9900012    2    1    2    0    0  0.21108945328E+02 -0.14396584746E+02 -0.31627785315E+02  0.50528855528E+02  0.29999986864E+02 0.  0.
        -12    1    1    2    0    0 -0.21108945328E+02  0.14396584746E+02  0.31627785315E+02  0.40659144472E+02  0.00000000000E+00 0.  1.
         11    1    3    3    0    0  0.46158695936E+01 -0.14962697806E+02 -0.90581984175E+01  0.18089763309E+02  0.51100000000E-03 0. -1.
        -11    1    3    3    0    0  0.98136842150E+01  0.83234725608E+01 -0.14631952108E+02  0.19485446263E+02  0.51100000000E-03 0.  1.
        -12    1    3    3    0    0  0.66793915194E+01 -0.77573595009E+01 -0.79376347901E+01  0.12953645956E+02  0.00000000000E+00 0.  1.
</event>
<event>
 7    1  0.1023000E-012  0.5052883E+02  0.7816164E-02  0.1300439E+00
        -11   -1    0    0    0    0  0.00000000000E+00  0.00000000000E+00  0.45593999997E+02  0.45594000000E+02  0.51100000000E-03 0. -1.
         11   -1    0    0    0    0 -0.00000000000E+00 -0.00000000000E+00 -0.45593999997E+02  0.45594000000E+02  0.51100000000E-03 0.  1.
    9900012    2    1    2    0    0  0.28514034169E+02 -0.24238586323E+02  0.15893678952E+02  0.50528828314E+02  0.29999904144E+02 0.  0.
        -12    1    1    2    0    0 -0.28514034169E+02  0.24238586323E+02 -0.15893678952E+02  0.40659171686E+02  0.00000000000E+00 0.  1.
         11    1    3    3    0    0  0.13659138030E+02 -0.25336287432E+02  0.13111376961E+02  0.31629222542E+02  0.51100000000E-03 0. -1.
        -11    1    3    3    0    0  0.15792245470E+02  0.42125536121E+00  0.48544086154E+01  0.16526879812E+02  0.51100000000E-03 0.  1.
         12    1    3    3    0    0 -0.93734933073E+00  0.67644574761E+00 -0.20721066246E+01  0.23727259599E+01  0.00000000000E+00 0. -1.
</event>
<event>
 7    1  0.1023000E-012  0.5052886E+02  0.7816164E-02  0.1300439E+00
        -11   -1    0    0    0    0  0.00000000000E+00  0.00000000000E+00  0.45593999997E+02  0.45594000000E+02  0.51100000000E-03 0.  1.
         11   -1    0    0    0    0 -0.00000000000E+00 -0.00000000000E+00 -0.45593999997E+02  0.45594000000E+02  0.51100000000E-03 0. -1.
    9900012    2    1    2    0    0 -0.13729269519E+02 -0.17152379562E+02 -0.34212117725E+02  0.50528856313E+02  0.29999989250E+02 0.  0.
        -12    1    1    2    0    0  0.13729269519E+02  0.17152379562E+02  0.34212117725E+02  0.40659143687E+02  0.00000000000E+00 0.  1.
         11    1    3    3    0    0  0.22248620164E+00 -0.17078727254E+02 -0.14649463722E+02  0.22501982409E+02  0.51100000000E-03 0. -1.
        -11    1    3    3    0    0 -0.12511726297E+02  0.37894106022E+01 -0.19986642074E+02  0.23882394966E+02  0.51100000000E-03 0.  1.
        -12    1    3    3    0    0 -0.14400294235E+01 -0.38630629094E+01  0.42398807172E+00  0.41444789380E+01  0.00000000000E+00 0.  1.
</event>
<event>
 7    1  0.1023000E-012  0.5052876E+02  0.7816164E-02  0.1300439E+00
        -11   -1    0    0    0    0  0.00000000000E+00  0.00000000000E+00  0.45593999997E+02  0.45594000000E+02  0.51100000000E-03 0. -1.
         11   -1    0    0    0    0 -0.00000000000E+00 -0.00000000000E+00 -0.45593999997E+02  0.45594000000E+02  0.51100000000E-03 0.  1.
    9900012    2    1    2    0    0 -0.21145568191E+02 -0.29553694502E+02  0.18237804648E+02  0.50528764503E+02  0.29999710181E+02 0.  0.
        -12    1    1    2    0    0  0.21145568191E+02  0.29553694502E+02 -0.18237804648E+02  0.40659235497E+02  0.00000000000E+00 0.  1.
         11    1    3    3    0    0 -0.64989231087E+01 -0.24051734406E+02  0.16699507692E+02  0.29993257358E+02  0.51100000000E-03 0. -1.
        -11    1    3    3    0    0  0.17757177769E+01 -0.11331234208E+01 -0.22948169049E+01  0.31150164042E+01  0.51100000000E-03 0.  1.
         12    1    3    3    0    0 -0.16422362859E+02 -0.43688366752E+01  0.38331138611E+01  0.17420490741E+02  0.00000000000E+00 0. -1.
</event>
<event>
 7    1  0.1023000E-012  0.5052886E+02  0.7816164E-02  0.1300439E+00
        -11   -1    0    0    0    0  0.00000000000E+00  0.00000000000E+00  0.45593999997E+02  0.45594000000E+02  0.51100000000E-03 0.  1.
         11   -1    0    0    0    0 -0.00000000000E+00 -0.00000000000E+00 -0.45593999997E+02  0.45594000000E+02  0.51100000000E-03 0. -1.
    9900012    2    1    2    0    0 -0.42923316775E+01  0.35376059426E+02 -0.19577425244E+02  0.50528864852E+02  0.30000015205E+02 0.  0.
        -12    1    1    2    0    0  0.42923316775E+01 -0.35376059426E+02  0.19577425244E+02  0.40659135148E+02  0.00000000000E+00 0.  1.
         11    1    3    3    0    0 -0.11985441167E+02  0.80366984792E+01 -0.38157998356E+01  0.14926474837E+02  0.51100000000E-03 0. -1.
        -11    1    3    3    0    0  0.10596486209E+02  0.22048865617E+02 -0.16522197126E+02  0.29519840669E+02  0.51100000000E-03 0.  1.
        -12    1    3    3    0    0 -0.29033767194E+01  0.52904953299E+01  0.76057171763E+00  0.60825493461E+01  0.00000000000E+00 0.  1.
</event>
<event>
 7    1  0.1023000E-012  0.5052885E+02  0.7816164E-02  0.1300439E+00
        -11   -1    0    0    0    0  0.00000000000E+00  0.00000000000E+00  0.45593999997E+02  0.45594000000E+02  0.51100000000E-03 0.  1.
         11   -1    0    0    0    0 -0.00000000000E+00 -0.00000000000E+00 -0.45593999997E+02  0.45594000000E+02  0.51100000000E-03 0. -1.
    9900012    2    1    2    0    0  0.22236237603E+02 -0.27082825026E+02 -0.20621262588E+02  0.50528854106E+02  0.29999982541E+02 0.  0.
        -12    1    1    2    0    0 -0.22236237603E+02  0.27082825026E+02  0.20621262588E+02  0.40659145894E+02  0.00000000000E+00 0.  1.
         11    1    3    3    0    0  0.18417227947E+01 -0.81558694567E+01 -0.14122538494E+02  0.16412076140E+02  0.51100000000E-03 0. -1.
        -11    1    3    3    0    0  0.82469034983E+01  0.16197163633E+01  0.22408730706E+01  0.86980693712E+01  0.51100000000E-03 0.  1.
        -12    1    3    3    0    0  0.12147611310E+02 -0.20546671933E+02 -0.87395971640E+01  0.25418708595E+02  0.00000000000E+00 0.  1.
</event>
<event>
 7    1  0.1023000E-012  0.5052885E+02  0.7816164E-02  0.1300439E+00
        -11   -1    0    0    0    0  0.00000000000E+00  0.00000000000E+00  0.45593999997E+02  0.45594000000E+02  0.51100000000E-03 0. -1.
         11   -1    0    0    0    0 -0.00000000000E+00 -0.00000000000E+00 -0.45593999997E+02  0.45594000000E+02  0.51100000000E-03 0.  1.
    9900012    2    1    2    0    0  0.30408222966E+02  0.16684653549E+02 -0.21216246567E+02  0.50528845970E+02  0.29999957812E+02 0.  0.
        -12    1    1    2    0    0 -0.30408222966E+02 -0.16684653549E+02  0.21216246567E+02  0.40659154030E+02  0.00000000000E+00 0.  1.
         11    1    3    3    0    0  0.21812812956E+02  0.20778708690E+01 -0.10239169115E+02  0.24185883089E+02  0.51100000000E-03 0. -1.
        -11    1    3    3    0    0  0.86649973608E+01  0.17761977656E+02 -0.63806078124E+01  0.20767334586E+02  0.51100000000E-03 0.  1.
        -12    1    3    3    0    0 -0.69587350108E-01 -0.31551949757E+01 -0.45964696396E+01  0.55756282948E+01  0.00000000000E+00 0.  1.
</event>
<event>
 7    1  0.1023000E-012  0.5052886E+02  0.7816164E-02  0.1300439E+00
        -11   -1    0    0    0    0  0.00000000000E+00  0.00000000000E+00  0.45593999997E+02  0.45594000000E+02  0.51100000000E-03 0.  1.
         11   -1    0    0    0    0 -0.00000000000E+00 -0.00000000000E+00 -0.45593999997E+02  0.45594000000E+02  0.51100000000E-03 0. -1.
    9900012    2    1    2    0    0 -0.31419137633E+02 -0.17580394495E+01 -0.25747099908E+02  0.50528855075E+02  0.29999985487E+02 0.  0.
        -12    1    1    2    0    0  0.31419137633E+02  0.17580394495E+01  0.25747099908E+02  0.40659144925E+02  0.00000000000E+00 0.  1.
         11    1    3    3    0    0 -0.20448237602E+02 -0.99998236785E+01 -0.26164256839E+02  0.34679896637E+02  0.51100000000E-03 0. -1.
        -11    1    3    3    0    0 -0.88595950946E+01  0.18621969847E+01  0.97725612317E+00  0.91057801776E+01  0.51100000000E-03 0.  1.
         12    1    3    3    0    0 -0.21113049369E+01  0.63795872443E+01 -0.56009919306E+00  0.67431782603E+01  0.00000000000E+00 0. -1.
</event>
<event>
 7    1  0.1023000E-012  0.5052886E+02  0.7816164E-02  0.1300439E+00
        -11   -1    0    0    0    0  0.00000000000E+00  0.00000000000E+00  0.45593999997E+02  0.45594000000E+02  0.51100000000E-03 0.  1.
         11   -1    0    0    0    0 -0.00000000000E+00 -0.00000000000E+00 -0.45593999997E+02  0.45594000000E+02  0.51100000000E-03 0. -1.
    9900012    2    1    2    0    0 -0.28443423099E+02 -0.18274725450E+02 -0.22586982505E+02  0.50528859742E+02  0.29999999672E+02 0.  0.
        -12    1    1    2    0    0  0.28443423099E+02  0.18274725450E+02  0.22586982505E+02  0.40659140258E+02  0.00000000000E+00 0.  1.
         11    1    3    3    0    0 -0.14184405477E+01 -0.27195967513E+01 -0.74856855290E+01  0.80897260879E+01  0.51100000000E-03 0. -1.
        -11    1    3    3    0    0 -0.10049350665E+02 -0.78030384876E+01  0.61713917529E+01  0.14140825112E+02  0.51100000000E-03 0.  1.
        -12    1    3    3    0    0 -0.16975631886E+02 -0.77520902107E+01 -0.21272688729E+02  0.28298308542E+02  0.00000000000E+00 0.  1.
</event>
<event>
 7    1  0.1023000E-012  0.5052886E+02  0.7816164E-02  0.1300439E+00
        -11   -1    0    0    0    0  0.00000000000E+00  0.00000000000E+00  0.45593999997E+02  0.45594000000E+02  0.51100000000E-03 0.  1.
         11   -1    0    0    0    0 -0.00000000000E+00 -0.00000000000E+00 -0.45593999997E+02  0.45594000000E+02  0.51100000000E-03 0. -1.
    9900012    2    1    2    0    0  0.23173031411E+01 -0.39101342611E+02  0.10903249748E+02  0.50528859049E+02  0.29999997565E+02 0.  0.
        -12    1    1    2    0    0 -0.23173031411E+01  0.39101342611E+02 -0.10903249748E+02  0.40659140951E+02  0.00000000000E+00 0.  1.
         11    1    3    3    0    0  0.44318338255E+01 -0.36712075078E+02 -0.87886065714E+00  0.36989052487E+02  0.51100000000E-03 0. -1.
        -11    1    3    3    0    0  0.77165442715E+00 -0.23045151527E+01  0.96478124441E+01  0.99491972471E+01  0.51100000000E-03 0.  1.
        -12    1    3    3    0    0 -0.28861851116E+01 -0.84752380585E-01  0.21342979613E+01  0.35906093149E+01  0.00000000000E+00 0.  1.
</event>
<event>
 7    1  0.1023000E-012  0.5052886E+02  0.7816164E-02  0.1300439E+00
        -11   -1    0    0    0    0  0.00000000000E+00  0.00000000000E+00  0.45593999997E+02  0.45594000000E+02  0.51100000000E-03 0.  1.
         11   -1    0    0    0    0 -0.00000000000E+00 -0.00000000000E+00 -0.45593999997E+02  0.45594000000E+02  0.51100000000E-03 0. -1.
    9900012    2    1    2    0    0  0.33233492993E+01  0.32326602712E+02 -0.24435873565E+02  0.50528858219E+02  0.29999995044E+02 0.  0.
        -12    1    1    2    0    0 -0.33233492993E+01 -0.32326602712E+02  0.24435873565E+02  0.40659141781E+02  0.00000000000E+00 0.  1.
         11    1    3    3    0    0 -0.56122809862E+01  0.27475367452E+01  0.36916817572E+01  0.72577662191E+01  0.51100000000E-03 0. -1.
        -11    1    3    3    0    0  0.11229799279E+02  0.21482446434E+02 -0.18565421595E+02  0.30533240508E+02  0.51100000000E-03 0.  1.
         12    1    3    3    0    0 -0.22941689940E+01  0.80966195327E+01 -0.95621337274E+01  0.12737851493E+02  0.00000000000E+00 0. -1.
</event>
<event>
 7    1  0.1023000E-012  0.5052885E+02  0.7816164E-02  0.1300439E+00
        -11   -1    0    0    0    0  0.00000000000E+00  0.00000000000E+00  0.45593999997E+02  0.45594000000E+02  0.51100000000E-03 0. -1.
         11   -1    0    0    0    0 -0.00000000000E+00 -0.00000000000E+00 -0.45593999997E+02  0.45594000000E+02  0.51100000000E-03 0.  1.
    9900012    2    1    2    0    0  0.49434011369E+01  0.15432171513E+02  0.37290441687E+02  0.50528853752E+02  0.29999981464E+02 0.  0.
        -12    1    1    2    0    0 -0.49434011369E+01 -0.15432171513E+02 -0.37290441687E+02  0.40659146248E+02  0.00000000000E+00 0.  1.
         11    1    3    3    0    0 -0.90301627949E+01  0.10081567270E+02  0.22094267599E+02  0.25910200688E+02  0.51100000000E-03 0. -1.
        -11    1    3    3    0    0  0.11569101871E+02 -0.15813629913E+01  0.11555750775E+02  0.16428031022E+02  0.51100000000E-03 0.  1.
         12    1    3    3    0    0  0.24044620608E+01  0.69319672341E+01  0.36404233133E+01  0.81906220421E+01  0.00000000000E+00 0. -1.
</event>
<event>
 7    1  0.1023000E-012  0.5052886E+02  0.7816164E-02  0.1300439E+00
        -11   -1    0    0    0    0  0.00000000000E+00  0.00000000000E+00  0.45593999997E+02  0.45594000000E+02  0.51100000000E-03 0.  1.
         11   -1    0    0    0    0 -0.00000000000E+00 -0.00000000000E+00 -0.45593999997E+02  0.45594000000E+02  0.51100000000E-03 0. -1.
    9900012    2    1    2    0    0 -0.84279888106E+01 -0.16713152243E+02 -0.36094398050E+02  0.50528855594E+02  0.29999987063E+02 0.  0.
        -12    1    1    2    0    0  0.84279888106E+01  0.16713152243E+02  0.36094398050E+02  0.40659144406E+02  0.00000000000E+00 0.  1.
         11    1    3    3    0    0  0.50521837495E+01 -0.66761680691E+01 -0.16600485569E+02  0.18592253820E+02  0.51100000000E-03 0. -1.
        -11    1    3    3    0    0 -0.18115441412E+02 -0.99015854828E+01 -0.15488225452E+02  0.25808830670E+02  0.51100000000E-03 0.  1.
        -12    1    3    3    0    0  0.46352688517E+01 -0.13539869098E+00 -0.40056870286E+01  0.61277711041E+01  0.00000000000E+00 0.  1.
</event>
<event>
 7    1  0.1023000E-012  0.5052886E+02  0.7816164E-02  0.1300439E+00
        -11   -1    0    0    0    0  0.00000000000E+00  0.00000000000E+00  0.45593999997E+02  0.45594000000E+02  0.51100000000E-03 0.  1.
         11   -1    0    0    0    0 -0.00000000000E+00 -0.00000000000E+00 -0.45593999997E+02  0.45594000000E+02  0.51100000000E-03 0. -1.
    9900012    2    1    2    0    0 -0.25413365224E+01  0.32324932279E+02 -0.24531730620E+02  0.50528862708E+02  0.30000008687E+02 0.  0.
        -12    1    1    2    0    0  0.25413365224E+01 -0.32324932279E+02  0.24531730620E+02  0.40659137292E+02  0.00000000000E+00 0.  1.
         11    1    3    3    0    0 -0.41811957041E+01  0.31497251299E+02 -0.16254845344E+02  0.35690043911E+02  0.51100000000E-03 0. -1.
        -11    1    3    3    0    0  0.36153601636E+01  0.21095658662E+01  0.17516054258E+01  0.45375344720E+01  0.51100000000E-03 0.  1.
         12    1    3    3    0    0 -0.19755009820E+01 -0.12818848869E+01 -0.10028490702E+02  0.10301284325E+02  0.00000000000E+00 0. -1.
</event>
<event>
 7    1  0.1023000E-012  0.5052886E+02  0.7816164E-02  0.1300439E+00
        -11   -1    0    0    0    0  0.00000000000E+00  0.00000000000E+00  0.45593999997E+02  0.45594000000E+02  0.51100000000E-03 0.  1.
         11   -1    0    0    0    0 -0.00000000000E+00 -0.00000000000E+00 -0.45593999997E+02  0.45594000000E+02  0.51100000000E-03 0. -1.
    9900012    2    1    2    0    0 -0.80638638197E+01  0.51499555957E+01 -0.39517311373E+02  0.50528857848E+02  0.29999993916E+02 0.  0.
        -12    1    1    2    0    0  0.80638638197E+01 -0.51499555957E+01  0.39517311373E+02  0.40659142152E+02  0.00000000000E+00 0.  1.
         11    1    3    3    0    0 -0.13765623551E+02  0.53055621391E+00 -0.24168846766E+02  0.27819184674E+02  0.51100000000E-03 0. -1.
        -11    1    3    3    0    0  0.69472499904E+01  0.57577628642E+01 -0.19833867224E+01  0.92385030595E+01  0.51100000000E-03 0.  1.
        -12    1    3    3    0    0 -0.12454902587E+01 -0.11383634824E+01 -0.13365077885E+02  0.13471170115E+02  0.00000000000E+00 0.  1.
</event>
<event>
 7    1  0.1023000E-012  0.5052887E+02  0.7816164E-02  0.1300439E+00
        -11   -1    0    0    0    0  0.00000000000E+00  0.00000000000E+00  0.45593999997E+02  0.45594000000E+02  0.51100000000E-03 0.  1.
         11   -1    0    0    0    0 -0.00000000000E+00 -0.00000000000E+00 -0.45593999997E+02  0.45594000000E+02  0.51100000000E-03 0. -1.
    9900012    2    1    2    0    0 -0.24292052149E+01 -0.14296342647E+02 -0.37985238327E+02  0.50528870867E+02  0.30000033488E+02 0.  0.
        -12    1    1    2    0    0  0.24292052149E+01  0.14296342647E+02  0.37985238327E+02  0.40659129133E+02  0.00000000000E+00 0.  1.
         11    1    3    3    0    0 -0.30024960015E+01  0.75405250229E+01 -0.14450397339E+02  0.16573728710E+02  0.51100000000E-03 0. -1.
        -11    1    3    3    0    0 -0.30146157933E+01 -0.19264889624E+02 -0.21701716030E+02  0.29175132553E+02  0.51100000000E-03 0.  1.
         12    1    3    3    0    0  0.35879065798E+01 -0.25719780465E+01 -0.18331249590E+01  0.47800096038E+01  0.00000000000E+00 0. -1.
</event>
<event>
 7    1  0.1023000E-012  0.5052886E+02  0.7816164E-02  0.1300439E+00
        -11   -1    0    0    0    0  0.00000000000E+00  0.00000000000E+00  0.45593999997E+02  0.45594000000E+02  0.51100000000E-03 0.  1.
         11   -1    0    0    0    0 -0.00000000000E+00 -0.00000000000E+00 -0.45593999997E+02  0.45594000000E+02  0.51100000000E-03 0. -1.
    9900012    2    1    2    0    0  0.39997759820E+02 -0.62373923816E+01 -0.38000131861E+01  0.50528856446E+02  0.29999989652E+02 0.  0.
        -12    1    1    2    0    0 -0.39997759820E+02  0.62373923816E+01  0.38000131861E+01  0.40659143554E+02  0.00000000000E+00 0.  1.
         11    1    3    3    0    0  0.18924285506E+01 -0.82912181432E+01  0.54289793651E+01  0.10089568937E+02  0.51100000000E-03 0. -1.
        -11    1    3    3    0    0 -0.52626669611E-01 -0.11207279037E+00  0.89358501414E+00  0.90212211774E+00  0.51100000000E-03 0.  1.
         12    1    3    3    0    0  0.38157957939E+02  0.21658985520E+01 -0.10122577565E+02  0.39537165391E+02  0.00000000000E+00 0. -1.
</event>
<event>
 7    1  0.1023000E-012  0.5052885E+02  0.7816164E-02  0.1300439E+00
        -11   -1    0    0    0    0  0.00000000000E+00  0.00000000000E+00  0.45593999997E+02  0.45594000000E+02  0.51100000000E-03 0.  1.
         11   -1    0    0    0    0 -0.00000000000E+00 -0.00000000000E+00 -0.45593999997E+02  0.45594000000E+02  0.51100000000E-03 0. -1.
    9900012    2    1    2    0    0  0.25334761601E+02  0.57038608471E+01 -0.31285491100E+02  0.50528854321E+02  0.29999983194E+02 0.  0.
        -12    1    1    2    0    0 -0.25334761601E+02 -0.57038608471E+01  0.31285491100E+02  0.40659145679E+02  0.00000000000E+00 0.  1.
         11    1    3    3    0    0  0.22319029381E+01 -0.78425988520E+01 -0.92193716070E+01  0.12307906425E+02  0.51100000000E-03 0. -1.
        -11    1    3    3    0    0  0.23430066265E+02  0.16148868792E+02 -0.21101221452E+02  0.35426198152E+02  0.51100000000E-03 0.  1.
        -12    1    3    3    0    0 -0.32720760184E+00 -0.26024090933E+01 -0.96489804170E+00  0.27947497445E+01  0.00000000000E+00 0.  1.
</event>
<event>
 7    1  0.1023000E-012  0.5052886E+02  0.7816164E-02  0.1300439E+00
        -11   -1    0    0    0    0  0.00000000000E+00  0.00000000000E+00  0.45593999997E+02  0.45594000000E+02  0.51100000000E-03 0.  1.
         11   -1    0    0    0    0 -0.00000000000E+00 -0.00000000000E+00 -0.45593999997E+02  0.45594000000E+02  0.51100000000E-03 0. -1.
    9900012    2    1    2    0    0  0.77777350660E+01 -0.28254953018E+02 -0.28183860135E+02  0.50528861975E+02  0.30000006459E+02 0.  0.
        -12    1    1    2    0    0 -0.77777350660E+01  0.28254953018E+02  0.28183860135E+02  0.40659138025E+02  0.00000000000E+00 0.  1.
         11    1    3    3    0    0  0.86143138995E+01 -0.24168548750E+02 -0.22755196989E+02  0.34294666392E+02  0.51100000000E-03 0. -1.
        -11    1    3    3    0    0  0.57811585809E+01  0.37215336751E+00  0.11334383671E+01  0.59029632779E+01  0.51100000000E-03 0.  1.
         12    1    3    3    0    0 -0.66177374144E+01 -0.44585576357E+01 -0.65621015133E+01  0.10331232305E+02  0.00000000000E+00 0. -1.
</event>
<event>
 7    1  0.1023000E-012  0.5052883E+02  0.7816164E-02  0.1300439E+00
        -11   -1    0    0    0    0  0.00000000000E+00  0.00000000000E+00  0.45593999997E+02  0.45594000000E+02  0.51100000000E-03 0.  1.
         11   -1    0    0    0    0 -0.00000000000E+00 -0.00000000000E+00 -0.45593999997E+02  0.45594000000E+02  0.51100000000E-03 0. -1.
    9900012    2    1    2    0    0 -0.30149567734E+01  0.31098785417E+02 -0.26018145441E+02  0.50528827468E+02  0.29999901573E+02 0.  0.
        -12    1    1    2    0    0  0.30149567734E+01 -0.31098785417E+02  0.26018145441E+02  0.40659172532E+02  0.00000000000E+00 0.  1.
         11    1    3    3    0    0 -0.14759284005E+02  0.12339359773E+02 -0.88682856211E+01  0.21183549137E+02  0.51100000000E-03 0. -1.
        -11    1    3    3    0    0  0.11297782327E+02  0.11200472546E+02 -0.92502366357E+01  0.18402645159E+02  0.51100000000E-03 0.  1.
         12    1    3    3    0    0  0.44654490479E+00  0.75589530983E+01 -0.78996231840E+01  0.10942633172E+02  0.00000000000E+00 0. -1.
</event>
<event>
 7    1  0.1023000E-012  0.5052885E+02  0.7816164E-02  0.1300439E+00
        -11   -1    0    0    0    0  0.00000000000E+00  0.00000000000E+00  0.45593999997E+02  0.45594000000E+02  0.51100000000E-03 0.  1.
         11   -1    0    0    0    0 -0.00000000000E+00 -0.00000000000E+00 -0.45593999997E+02  0.45594000000E+02  0.51100000000E-03 0. -1.
    9900012    2    1    2    0    0  0.63343634869E+01  0.18775576276E+02 -0.35503800510E+02  0.50528852493E+02  0.29999977639E+02 0.  0.
        -12    1    1    2    0    0 -0.63343634869E+01 -0.18775576276E+02  0.35503800510E+02  0.40659147507E+02  0.00000000000E+00 0.  1.
         11    1    3    3    0    0  0.23719172246E+00  0.24152914392E+02 -0.24516955034E+02  0.34416574756E+02  0.51100000000E-03 0. -1.
        -11    1    3    3    0    0  0.90106141457E+00 -0.45172587621E+01 -0.84317894426E+00  0.46827864984E+01  0.51100000000E-03 0.  1.
         12    1    3    3    0    0  0.51961103499E+01 -0.86007935383E+00 -0.10143666533E+02  0.11429491239E+02  0.00000000000E+00 0. -1.
</event>
<event>
 7    1  0.1023000E-012  0.5052886E+02  0.7816164E-02  0.1300439E+00
        -11   -1    0    0    0    0  0.00000000000E+00  0.00000000000E+00  0.45593999997E+02  0.45594000000E+02  0.51100000000E-03 0. -1.
         11   -1    0    0    0    0 -0.00000000000E+00 -0.00000000000E+00 -0.45593999997E+02  0.45594000000E+02  0.51100000000E-03 0.  1.
    9900012    2    1    2    0    0  0.24604605232E+02 -0.25152427548E+02  0.20374848442E+02  0.50528860078E+02  0.30000000692E+02 0.  0.
        -12    1    1    2    0    0 -0.24604605232E+02  0.25152427548E+02 -0.20374848442E+02  0.40659139922E+02  0.00000000000E+00 0.  1.
         11    1    3    3    0    0  0.51168043973E+00  0.22881951025E+01  0.79863846786E+01  0.83234604699E+01  0.51100000000E-03 0. -1.
        -11    1    3    3    0    0  0.19144674021E+02 -0.20461932757E+02  0.16705043246E+02  0.32623116124E+02  0.51100000000E-03 0.  1.
        -12    1    3    3    0    0  0.49482507715E+01 -0.69786898942E+01 -0.43165794831E+01  0.95822834842E+01  0.00000000000E+00 0.  1.
</event>
<event>
 7    1  0.1023000E-012  0.5052886E+02  0.7816164E-02  0.1300439E+00
        -11   -1    0    0    0    0  0.00000000000E+00  0.00000000000E+00  0.45593999997E+02  0.45594000000E+02  0.51100000000E-03 0.  1.
         11   -1    0    0    0    0 -0.00000000000E+00 -0.00000000000E+00 -0.45593999997E+02  0.45594000000E+02  0.51100000000E-03 0. -1.
    9900012    2    1    2    0    0  0.17968346429E+02  0.33133926120E+02 -0.15246208188E+02  0.50528863295E+02  0.30000010471E+02 0.  0.
        -12    1    1    2    0    0 -0.17968346429E+02 -0.33133926120E+02  0.15246208188E+02  0.40659136705E+02  0.00000000000E+00 0.  1.
         11    1    3    3    0    0  0.22159886109E+02  0.25753805387E+02 -0.19608969900E+02  0.39227933225E+02  0.51100000000E-03 0. -1.
        -11    1    3    3    0    0 -0.51915006942E+01  0.51008088144E+01  0.48748301959E+01  0.87597887942E+01  0.51100000000E-03 0.  1.
        -12    1    3    3    0    0  0.99996101372E+00  0.22793119183E+01 -0.51206848364E+00  0.25411412755E+01  0.00000000000E+00 0.  1.
</event>
<event>
 7    1  0.1023000E-012  0.5052884E+02  0.7816164E-02  0.1300439E+00
        -11   -1    0    0    0    0  0.00000000000E+00  0.00000000000E+00  0.45593999997E+02  0.45594000000E+02  0.51100000000E-03 0. -1.
         11   -1    0    0    0    0 -0.00000000000E+00 -0.00000000000E+00 -0.45593999997E+02  0.45594000000E+02  0.51100000000E-03 0.  1.
    9900012    2    1    2    0    0  0.10553723717E+02  0.18509293732E+02  0.34629358286E+02  0.50528837514E+02  0.29999932108E+02 0.  0.
        -12    1    1    2    0    0 -0.10553723717E+02 -0.18509293732E+02 -0.34629358286E+02  0.40659162486E+02  0.00000000000E+00 0.  1.
         11    1    3    3    0    0 -0.12980759618E+01 -0.50519828694E+01  0.67022106827E+01  0.84927710679E+01  0.51100000000E-03 0. -1.
        -11    1    3    3    0    0  0.16238349391E+02  0.18429058722E+02  0.23263383789E+02  0.33830448148E+02  0.51100000000E-03 0.  1.
        -12    1    3    3    0    0 -0.43865497124E+01  0.51322178798E+01  0.46637638141E+01  0.82056182984E+01  0.00000000000E+00 0.  1.
</event>
<event>
 7    1  0.1023000E-012  0.5052886E+02  0.7816164E-02  0.1300439E+00
        -11   -1    0    0    0    0  0.00000000000E+00  0.00000000000E+00  0.45593999997E+02  0.45594000000E+02  0.51100000000E-03 0. -1.
         11   -1    0    0    0    0 -0.00000000000E+00 -0.00000000000E+00 -0.45593999997E+02  0.45594000000E+02  0.51100000000E-03 0.  1.
    9900012    2    1    2    0    0  0.33308704605E+02  0.69277280101E+01  0.22264379795E+02  0.50528858033E+02  0.29999994476E+02 0.  0.
        -12    1    1    2    0    0 -0.33308704605E+02 -0.69277280101E+01 -0.22264379795E+02  0.40659141967E+02  0.00000000000E+00 0.  1.
         11    1    3    3    0    0  0.14207256793E+02  0.89657738639E+01  0.22128331199E+02  0.27782985594E+02  0.51100000000E-03 0. -1.
        -11    1    3    3    0    0  0.17561883671E+02  0.19911858771E+01 -0.22491937312E+01  0.17816942835E+02  0.51100000000E-03 0.  1.
         12    1    3    3    0    0  0.15395641405E+01 -0.40292317310E+01  0.23852423266E+01  0.49289296040E+01  0.00000000000E+00 0. -1.
</event>
<event>
 7    1  0.1023000E-012  0.5052885E+02  0.7816164E-02  0.1300439E+00
        -11   -1    0    0    0    0  0.00000000000E+00  0.00000000000E+00  0.45593999997E+02  0.45594000000E+02  0.51100000000E-03 0.  1.
         11   -1    0    0    0    0 -0.00000000000E+00 -0.00000000000E+00 -0.45593999997E+02  0.45594000000E+02  0.51100000000E-03 0. -1.
    9900012    2    1    2    0    0  0.27748678773E+02 -0.57017118231E+01 -0.29166205383E+02  0.50528853086E+02  0.29999979439E+02 0.  0.
        -12    1    1    2    0    0 -0.27748678773E+02  0.57017118231E+01  0.29166205383E+02  0.40659146914E+02  0.00000000000E+00 0.  1.
         11    1    3    3    0    0 -0.65950861502E+00 -0.62620982374E+01 -0.15240390470E+02  0.16489946267E+02  0.51100000000E-03 0. -1.
        -11    1    3    3    0    0  0.17106396699E+02 -0.57824200545E+01 -0.89834975024E+01  0.20168500622E+02  0.51100000000E-03 0.  1.
         12    1    3    3    0    0  0.11301790688E+02  0.63428064689E+01 -0.49423174113E+01  0.13870406197E+02  0.00000000000E+00 0. -1.
</event>
<event>
 7    1  0.1023000E-012  0.5052887E+02  0.7816164E-02  0.1300439E+00
        -11   -1    0    0    0    0  0.00000000000E+00  0.00000000000E+00  0.45593999997E+02  0.45594000000E+02  0.51100000000E-03 0. -1.
         11   -1    0    0    0    0 -0.00000000000E+00 -0.00000000000E+00 -0.45593999997E+02  0.45594000000E+02  0.51100000000E-03 0.  1.
    9900012    2    1    2    0    0 -0.50577065668E+01  0.69337601381E-01  0.40343276254E+02  0.50528866435E+02  0.30000020015E+02 0.  0.
        -12    1    1    2    0    0  0.50577065668E+01 -0.69337601381E-01 -0.40343276254E+02  0.40659133565E+02  0.00000000000E+00 0.  1.
         11    1    3    3    0    0  0.54733446581E+01  0.64322309691E+01  0.14432222207E+02  0.16721846043E+02  0.51100000000E-03 0. -1.
        -11    1    3    3    0    0 -0.93965144518E+01  0.13898214080E+01  0.35964601209E+01  0.10156801320E+02  0.51100000000E-03 0.  1.
        -12    1    3    3    0    0 -0.11345367732E+01 -0.77527147757E+01  0.22314593925E+02  0.23650219072E+02  0.00000000000E+00 0.  1.
</event>
<event>
 7    1  0.1023000E-012  0.5052885E+02  0.7816164E-02  0.1300439E+00
        -11   -1    0    0    0    0  0.00000000000E+00  0.00000000000E+00  0.45593999997E+02  0.45594000000E+02  0.51100000000E-03 0.  1.
         11   -1    0    0    0    0 -0.00000000000E+00 -0.00000000000E+00 -0.45593999997E+02  0.45594000000E+02  0.51100000000E-03 0. -1.
    9900012    2    1    2    0    0 -0.14586993171E+01 -0.32530231505E+02 -0.24347954721E+02  0.50528847715E+02  0.29999963114E+02 0.  0.
        -12    1    1    2    0    0  0.14586993171E+01  0.32530231505E+02  0.24347954721E+02  0.40659152285E+02  0.00000000000E+00 0.  1.
         11    1    3    3    0    0 -0.50477552227E+01 -0.23757418031E+02 -0.33144738240E+01  0.24512863588E+02  0.51100000000E-03 0. -1.
        -11    1    3    3    0    0 -0.19573459620E+01 -0.36587875749E+01 -0.16923629601E+02  0.17424900828E+02  0.51100000000E-03 0.  1.
        -12    1    3    3    0    0  0.55464018677E+01 -0.51140258983E+01 -0.41098512965E+01  0.85910832987E+01  0.00000000000E+00 0.  1.
</event>
<event>
 7    1  0.1023000E-012  0.5052886E+02  0.7816164E-02  0.1300439E+00
        -11   -1    0    0    0    0  0.00000000000E+00  0.00000000000E+00  0.45593999997E+02  0.45594000000E+02  0.51100000000E-03 0.  1.
         11   -1    0    0    0    0 -0.00000000000E+00 -0.00000000000E+00 -0.45593999997E+02  0.45594000000E+02  0.51100000000E-03 0. -1.
    9900012    2    1    2    0    0 -0.11467652113E+02 -0.35373519957E+02 -0.16443018926E+02  0.50528857971E+02  0.29999994288E+02 0.  0.
        -12    1    1    2    0    0  0.11467652113E+02  0.35373519957E+02  0.16443018926E+02  0.40659142029E+02  0.00000000000E+00 0.  1.
         11    1    3    3    0    0 -0.13309025283E+02 -0.22827080885E+02 -0.11545844006E+02  0.28835954810E+02  0.51100000000E-03 0. -1.
        -11    1    3    3    0    0  0.48498263564E+01  0.25778828730E+01 -0.26878648154E+01  0.61148109800E+01  0.51100000000E-03 0.  1.
         12    1    3    3    0    0 -0.30084531861E+01 -0.15124321945E+02 -0.22093101051E+01  0.15578092181E+02  0.00000000000E+00 0. -1.
</event>
<event>
 7    1  0.1023000E-012  0.5052887E+02  0.7816164E-02  0.1300439E+00
        -11   -1    0    0    0    0  0.00000000000E+00  0.00000000000E+00  0.45593999997E+02  0.45594000000E+02  0.51100000000E-03 0.  1.
         11   -1    0    0    0    0 -0.00000000000E+00 -0.00000000000E+00 -0.45593999997E+02  0.45594000000E+02  0.51100000000E-03 0. -1.
    9900012    2    1    2    0    0  0.24309539323E+02  0.12228600252E+02 -0.30210475499E+02  0.50528865773E+02  0.30000018004E+02 0.  0.
        -12    1    1    2    0    0 -0.24309539323E+02 -0.12228600252E+02  0.30210475499E+02  0.40659134227E+02  0.00000000000E+00 0.  1.
         11    1    3    3    0    0  0.67269365833E+01  0.38797398174E+00 -0.99315742542E+01  0.12001598520E+02  0.51100000000E-03 0. -1.
        -11    1    3    3    0    0  0.15416591061E+02  0.19421221150E+02 -0.16501025732E+02  0.29784878065E+02  0.51100000000E-03 0.  1.
        -12    1    3    3    0    0  0.21660116788E+01 -0.75805948800E+01 -0.37778755123E+01  0.87423891879E+01  0.00000000000E+00 0.  1.
</event>
<event>
 7    1  0.1023000E-012  0.5052888E+02  0.7816164E-02  0.1300439E+00
        -11   -1    0    0    0    0  0.00000000000E+00  0.00000000000E+00  0.45593999997E+02  0.45594000000E+02  0.51100000000E-03 0.  1.
         11   -1    0    0    0    0 -0.00000000000E+00 -0.00000000000E+00 -0.45593999997E+02  0.45594000000E+02  0.51100000000E-03 0. -1.
    9900012    2    1    2    0    0 -0.35904699088E+02 -0.19070922026E+02 -0.56250547001E+00  0.50528881762E+02  0.30000066603E+02 0.  0.
        -12    1    1    2    0    0  0.35904699088E+02  0.19070922026E+02  0.56250547001E+00  0.40659118238E+02  0.00000000000E+00 0.  1.
         11    1    3    3    0    0 -0.38036686632E+02 -0.10975831628E+02 -0.59609326218E+01  0.40034873896E+02  0.51100000000E-03 0. -1.
        -11    1    3    3    0    0  0.26975264214E+01 -0.53391227820E+01  0.25891364681E+01  0.65181675943E+01  0.51100000000E-03 0.  1.
        -12    1    3    3    0    0 -0.56553887759E+00 -0.27559676160E+01  0.28092906836E+01  0.39758402719E+01  0.00000000000E+00 0.  1.
</event>
<event>
 7    1  0.1023000E-012  0.5052886E+02  0.7816164E-02  0.1300439E+00
        -11   -1    0    0    0    0  0.00000000000E+00  0.00000000000E+00  0.45593999997E+02  0.45594000000E+02  0.51100000000E-03 0.  1.
         11   -1    0    0    0    0 -0.00000000000E+00 -0.00000000000E+00 -0.45593999997E+02  0.45594000000E+02  0.51100000000E-03 0. -1.
    9900012    2    1    2    0    0  0.32580005573E+02  0.20483749558E+02 -0.13119645944E+02  0.50528857500E+02  0.29999992858E+02 0.  0.
        -12    1    1    2    0    0 -0.32580005573E+02 -0.20483749558E+02  0.13119645944E+02  0.40659142500E+02  0.00000000000E+00 0.  1.
         11    1    3    3    0    0 -0.24241480023E+01  0.10996700492E+02 -0.71348282927E+01  0.13330779807E+02  0.51100000000E-03 0. -1.
        -11    1    3    3    0    0  0.22590353203E+02  0.39384448638E+01 -0.19459919855E+01  0.23013524085E+02  0.51100000000E-03 0.  1.
         12    1    3    3    0    0  0.12413800373E+02  0.55486042020E+01 -0.40388256663E+01  0.14184553608E+02  0.00000000000E+00 0. -1.
</event>
<event>
 7    1  0.1023000E-012  0.5052887E+02  0.7816164E-02  0.1300439E+00
        -11   -1    0    0    0    0  0.00000000000E+00  0.00000000000E+00  0.45593999997E+02  0.45594000000E+02  0.51100000000E-03 0. -1.
         11   -1    0    0    0    0 -0.00000000000E+00 -0.00000000000E+00 -0.45593999997E+02  0.45594000000E+02  0.51100000000E-03 0.  1.
    9900012    2    1    2    0    0  0.68534370054E+01 -0.28689019881E+02  0.27984549080E+02  0.50528874976E+02  0.30000045976E+02 0.  0.
        -12    1    1    2    0    0 -0.68534370054E+01  0.28689019881E+02 -0.27984549080E+02  0.40659125024E+02  0.00000000000E+00 0.  1.
         11    1    3    3    0    0 -0.39793749918E+01 -0.10639845176E+02 -0.17351877797E+01  0.11491414516E+02  0.51100000000E-03 0. -1.
        -11    1    3    3    0    0  0.74662247192E+01 -0.26976779804E+01  0.17201304581E+02  0.18944837228E+02  0.51100000000E-03 0.  1.
         12    1    3    3    0    0  0.33665872780E+01 -0.15351496725E+02  0.12518432279E+02  0.20092623231E+02  0.00000000000E+00 0. -1.
</event>
<event>
 7    1  0.1023000E-012  0.5052886E+02  0.7816164E-02  0.1300439E+00
        -11   -1    0    0    0    0  0.00000000000E+00  0.00000000000E+00  0.45593999997E+02  0.45594000000E+02  0.51100000000E-03 0.  1.
         11   -1    0    0    0    0 -0.00000000000E+00 -0.00000000000E+00 -0.45593999997E+02  0.45594000000E+02  0.51100000000E-03 0. -1.
    9900012    2    1    2    0    0 -0.11949812593E+02  0.19762203472E+02 -0.33463758636E+02  0.50528857742E+02  0.29999993594E+02 0.  0.
        -12    1    1    2    0    0  0.11949812593E+02 -0.19762203472E+02  0.33463758636E+02  0.40659142258E+02  0.00000000000E+00 0.  1.
         11    1    3    3    0    0 -0.10040894602E+02  0.29629510289E+01 -0.10125235203E+02  0.14564306760E+02  0.51100000000E-03 0. -1.
        -11    1    3    3    0    0  0.47044312961E+01  0.12906652477E+02 -0.24611486639E+02  0.28185787674E+02  0.51100000000E-03 0.  1.
        -12    1    3    3    0    0 -0.66133492867E+01  0.38925999660E+01  0.12729632061E+01  0.77787633083E+01  0.00000000000E+00 0.  1.
</event>
<event>
 7    1  0.1023000E-012  0.5052886E+02  0.7816164E-02  0.1300439E+00
        -11   -1    0    0    0    0  0.00000000000E+00  0.00000000000E+00  0.45593999997E+02  0.45594000000E+02  0.51100000000E-03 0. -1.
         11   -1    0    0    0    0 -0.00000000000E+00 -0.00000000000E+00 -0.45593999997E+02  0.45594000000E+02  0.51100000000E-03 0.  1.
    9900012    2    1    2    0    0  0.35493071613E+02 -0.16999084648E+02  0.10219539595E+02  0.50528855875E+02  0.29999987918E+02 0.  0.
        -12    1    1    2    0    0 -0.35493071613E+02  0.16999084648E+02 -0.10219539595E+02  0.40659144125E+02  0.00000000000E+00 0.  1.
         11    1    3    3    0    0  0.11582251610E+02  0.30914002287E+01  0.11824885821E+02  0.16838445079E+02  0.51100000000E-03 0. -1.
        -11    1    3    3    0    0  0.23597063634E+02 -0.19588972816E+02 -0.42670130548E+01  0.30963796098E+02  0.51100000000E-03 0.  1.
        -12    1    3    3    0    0  0.31375636922E+00 -0.50151206083E+00  0.26616668286E+01  0.27266146983E+01  0.00000000000E+00 0.  1.
</event>
<event>
 7    1  0.1023000E-012  0.5052885E+02  0.7816164E-02  0.1300439E+00
        -11   -1    0    0    0    0  0.00000000000E+00  0.00000000000E+00  0.45593999997E+02  0.45594000000E+02  0.51100000000E-03 0.  1.
         11   -1    0    0    0    0 -0.00000000000E+00 -0.00000000000E+00 -0.45593999997E+02  0.45594000000E+02  0.51100000000E-03 0. -1.
    9900012    2    1    2    0    0  0.21098749297E+02  0.14574888827E+02 -0.31552845045E+02  0.50528848058E+02  0.29999964156E+02 0.  0.
        -12    1    1    2    0    0 -0.21098749297E+02 -0.14574888827E+02  0.31552845045E+02  0.40659151942E+02  0.00000000000E+00 0.  1.
         11    1    3    3    0    0 -0.19636118090E+01  0.11059773967E+02 -0.13844393548E+02  0.17828112758E+02  0.51100000000E-03 0. -1.
        -11    1    3    3    0    0  0.20022688378E+02  0.30502915452E+01 -0.20302590606E+02  0.28677648334E+02  0.51100000000E-03 0.  1.
        -12    1    3    3    0    0  0.30396727279E+01  0.46482331490E+00  0.25941391096E+01  0.40230869648E+01  0.00000000000E+00 0.  1.
</event>
<event>
 7    1  0.1023000E-012  0.5052886E+02  0.7816164E-02  0.1300439E+00
        -11   -1    0    0    0    0  0.00000000000E+00  0.00000000000E+00  0.45593999997E+02  0.45594000000E+02  0.51100000000E-03 0.  1.
         11   -1    0    0    0    0 -0.00000000000E+00 -0.00000000000E+00 -0.45593999997E+02  0.45594000000E+02  0.51100000000E-03 0. -1.
    9900012    2    1    2    0    0 -0.39879020484E+02  0.10093407395E+01  0.78619853415E+01  0.50528857645E+02  0.29999993299E+02 0.  0.
        -12    1    1    2    0    0  0.39879020484E+02 -0.10093407395E+01 -0.78619853415E+01  0.40659142355E+02  0.00000000000E+00 0.  1.
         11    1    3    3    0    0 -0.32250289050E+02 -0.11389807421E+02  0.78714980439E+01  0.35096571608E+02  0.51100000000E-03 0. -1.
        -11    1    3    3    0    0 -0.11896019322E+01  0.34086761252E+01  0.20967032191E+01  0.41749718962E+01  0.51100000000E-03 0.  1.
         12    1    3    3    0    0 -0.64391295014E+01  0.89904720357E+01 -0.21062159216E+01  0.11257314141E+02  0.00000000000E+00 0. -1.
</event>
<event>
 7    1  0.1023000E-012  0.5052886E+02  0.7816164E-02  0.1300439E+00
        -11   -1    0    0    0    0  0.00000000000E+00  0.00000000000E+00  0.45593999997E+02  0.45594000000E+02  0.51100000000E-03 0.  1.
         11   -1    0    0    0    0 -0.00000000000E+00 -0.00000000000E+00 -0.45593999997E+02  0.45594000000E+02  0.51100000000E-03 0. -1.
    9900012    2    1    2    0    0 -0.12276245596E+02  0.30945074913E+02 -0.23342270409E+02  0.50528862587E+02  0.30000008320E+02 0.  0.
        -12    1    1    2    0    0  0.12276245596E+02 -0.30945074913E+02  0.23342270409E+02  0.40659137413E+02  0.00000000000E+00 0.  1.
         11    1    3    3    0    0 -0.38781401469E+01  0.23546463865E+02 -0.40733028676E+01  0.24208835744E+02  0.51100000000E-03 0. -1.
        -11    1    3    3    0    0 -0.70812949321E+01 -0.26209384342E+01 -0.60197431942E+01  0.96566746127E+01  0.51100000000E-03 0.  1.
         12    1    3    3    0    0 -0.13168105169E+01  0.10019549482E+02 -0.13249224347E+02  0.16663352231E+02  0.00000000000E+00 0. -1.
</event>
<event>
 7    1  0.1023000E-012  0.5052887E+02  0.7816164E-02  0.1300439E+00
        -11   -1    0    0    0    0  0.00000000000E+00  0.00000000000E+00  0.45593999997E+02  0.45594000000E+02  0.51100000000E-03 0. -1.
         11   -1    0    0    0    0 -0.00000000000E+00 -0.00000000000E+00 -0.45593999997E+02  0.45594000000E+02  0.51100000000E-03 0.  1.
    9900012    2    1    2    0    0  0.23723962790E+02  0.77811779724E+01  0.32090372233E+02  0.50528866572E+02  0.30000020431E+02 0.  0.
        -12    1    1    2    0    0 -0.23723962790E+02 -0.77811779724E+01 -0.32090372233E+02  0.40659133428E+02  0.00000000000E+00 0.  1.
         11    1    3    3    0    0  0.70821496823E+01  0.56943109215E+01  0.21202946432E+02  0.23068310702E+02  0.51100000000E-03 0. -1.
        -11    1    3    3    0    0  0.23060954080E+01 -0.75187951301E+01  0.44937432684E+01  0.90578190014E+01  0.51100000000E-03 0.  1.
         12    1    3    3    0    0  0.14335717700E+02  0.96056621810E+01  0.63936825322E+01  0.18402736868E+02  0.00000000000E+00 0. -1.
</event>
<event>
 7    1  0.1023000E-012  0.5052886E+02  0.7816164E-02  0.1300439E+00
        -11   -1    0    0    0    0  0.00000000000E+00  0.00000000000E+00  0.45593999997E+02  0.45594000000E+02  0.51100000000E-03 0. -1.
         11   -1    0    0    0    0 -0.00000000000E+00 -0.00000000000E+00 -0.45593999997E+02  0.45594000000E+02  0.51100000000E-03 0.  1.
    9900012    2    1    2    0    0  0.34855937105E+02 -0.19228316163E+02  0.82765591684E+01  0.50528856802E+02  0.29999990736E+02 0.  0.
        -12    1    1    2    0    0 -0.34855937105E+02  0.19228316163E+02 -0.82765591684E+01  0.40659143198E+02  0.00000000000E+00 0.  1.
         11    1    3    3    0    0  0.12710496281E+02 -0.41420897331E+01 -0.43452703271E+01  0.14056848777E+02  0.51100000000E-03 0. -1.
        -11    1    3    3    0    0  0.14008190624E+02 -0.20172855905E+02  0.80748367043E+01  0.25852978706E+02  0.51100000000E-03 0.  1.
        -12    1    3    3    0    0  0.81372501995E+01  0.50866294755E+01  0.45469927912E+01  0.10619029319E+02  0.00000000000E+00 0.  1.
</event>
<event>
 7    1  0.1023000E-012  0.5052886E+02  0.7816164E-02  0.1300439E+00
        -11   -1    0    0    0    0  0.00000000000E+00  0.00000000000E+00  0.45593999997E+02  0.45594000000E+02  0.51100000000E-03 0.  1.
         11   -1    0    0    0    0 -0.00000000000E+00 -0.00000000000E+00 -0.45593999997E+02  0.45594000000E+02  0.51100000000E-03 0. -1.
    9900012    2    1    2    0    0  0.99436138174E+01 -0.37360746903E+01 -0.39247059581E+02  0.50528863319E+02  0.30000010545E+02 0.  0.
        -12    1    1    2    0    0 -0.99436138174E+01  0.37360746903E+01  0.39247059581E+02  0.40659136681E+02  0.00000000000E+00 0.  1.
         11    1    3    3    0    0  0.90522403546E+01  0.93033189507E+01 -0.10680117489E+02  0.16809512449E+02  0.51100000000E-03 0. -1.
        -11    1    3    3    0    0 -0.49349212825E+01 -0.54528800319E+01 -0.18114797808E+02  0.19550786393E+02  0.51100000000E-03 0.  1.
        -12    1    3    3    0    0  0.58262947453E+01 -0.75865136090E+01 -0.10452144284E+02  0.14168564477E+02  0.00000000000E+00 0.  1.
</event>
<event>
 7    1  0.1023000E-012  0.5052886E+02  0.7816164E-02  0.1300439E+00
        -11   -1    0    0    0    0  0.00000000000E+00  0.00000000000E+00  0.45593999997E+02  0.45594000000E+02  0.51100000000E-03 0. -1.
         11   -1    0    0    0    0 -0.00000000000E+00 -0.00000000000E+00 -0.45593999997E+02  0.45594000000E+02  0.51100000000E-03 0.  1.
    9900012    2    1    2    0    0  0.19408922864E+02 -0.60904744017E+01  0.35204624460E+02  0.50528858979E+02  0.29999997353E+02 0.  0.
        -12    1    1    2    0    0 -0.19408922864E+02  0.60904744017E+01 -0.35204624460E+02  0.40659141021E+02  0.00000000000E+00 0.  1.
         11    1    3    3    0    0  0.80665045145E+01 -0.46599846409E+01  0.33259322853E+00  0.93217257229E+01  0.51100000000E-03 0. -1.
        -11    1    3    3    0    0  0.68853756058E+01  0.41385793561E+01  0.32814162866E+02  0.33783213600E+02  0.51100000000E-03 0.  1.
        -12    1    3    3    0    0  0.44570427437E+01 -0.55690691168E+01  0.20578683658E+01  0.74239196559E+01  0.00000000000E+00 0.  1.
</event>
<event>
 7    1  0.1023000E-012  0.5052886E+02  0.7816164E-02  0.1300439E+00
        -11   -1    0    0    0    0  0.00000000000E+00  0.00000000000E+00  0.45593999997E+02  0.45594000000E+02  0.51100000000E-03 0.  1.
         11   -1    0    0    0    0 -0.00000000000E+00 -0.00000000000E+00 -0.45593999997E+02  0.45594000000E+02  0.51100000000E-03 0. -1.
    9900012    2    1    2    0    0  0.16755511534E+02  0.16115888410E+01 -0.37011099230E+02  0.50528857712E+02  0.29999993502E+02 0.  0.
        -12    1    1    2    0    0 -0.16755511534E+02 -0.16115888410E+01  0.37011099230E+02  0.40659142288E+02  0.00000000000E+00 0.  1.
         11    1    3    3    0    0  0.20392570492E+02  0.40869943266E+01 -0.12420074860E+02  0.24224341347E+02  0.51100000000E-03 0. -1.
        -11    1    3    3    0    0 -0.19813037466E+01  0.30095328495E+01 -0.90386598905E+01  0.97303764257E+01  0.51100000000E-03 0.  1.
         12    1    3    3    0    0 -0.16557552112E+01 -0.54849383351E+01 -0.15552364479E+02  0.16574139940E+02  0.00000000000E+00 0. -1.
</event>
<event>
 7    1  0.1023000E-012  0.5052886E+02  0.7816164E-02  0.1300439E+00
        -11   -1    0    0    0    0  0.00000000000E+00  0.00000000000E+00  0.45593999997E+02  0.45594000000E+02  0.51100000000E-03 0.  1.
         11   -1    0    0    0    0 -0.00000000000E+00 -0.00000000000E+00 -0.45593999997E+02  0.45594000000E+02  0.51100000000E-03 0. -1.
    9900012    2    1    2    0    0  0.14094315473E+02  0.17481292296E+02 -0.33895725895E+02  0.50528861508E+02  0.30000005039E+02 0.  0.
        -12    1    1    2    0    0 -0.14094315473E+02 -0.17481292296E+02  0.33895725895E+02  0.40659138492E+02  0.00000000000E+00 0.  1.
         11    1    3    3    0    0  0.15329653488E+02  0.14155800163E+02 -0.35836754507E+02  0.41468758459E+02  0.51100000000E-03 0. -1.
        -11    1    3    3    0    0 -0.30515145083E+01 -0.37962435956E+00 -0.17376856323E+01  0.35320542276E+01  0.51100000000E-03 0.  1.
         12    1    3    3    0    0  0.18161764927E+01  0.37051164927E+01  0.36787142440E+01  0.55280488209E+01  0.00000000000E+00 0. -1.
</event>
<event>
 7    1  0.1023000E-012  0.5052885E+02  0.7816164E-02  0.1300439E+00
        -11   -1    0    0    0    0  0.00000000000E+00  0.00000000000E+00  0.45593999997E+02  0.45594000000E+02  0.51100000000E-03 0.  1.
         11   -1    0    0    0    0 -0.00000000000E+00 -0.00000000000E+00 -0.45593999997E+02  0.45594000000E+02  0.51100000000E-03 0. -1.
    9900012    2    1    2    0    0  0.38857881458E+02  0.35050232117E+01 -0.11443190368E+02  0.50528846727E+02  0.29999960111E+02 0.  0.
        -12    1    1    2    0    0 -0.38857881458E+02 -0.35050232117E+01  0.11443190368E+02  0.40659153273E+02  0.00000000000E+00 0.  1.
         11    1    3    3    0    0  0.16074444301E+02  0.18140323547E+01 -0.37212290391E+01  0.16598976438E+02  0.51100000000E-03 0. -1.
        -11    1    3    3    0    0  0.79927855434E+00 -0.56258378391E+01  0.49369667907E+01  0.75274523548E+01  0.51100000000E-03 0.  1.
        -12    1    3    3    0    0  0.21984158603E+02  0.73168286961E+01 -0.12658928119E+02  0.26402417934E+02  0.00000000000E+00 0.  1.
</event>
<event>
 7    1  0.1023000E-012  0.5052886E+02  0.7816164E-02  0.1300439E+00
        -11   -1    0    0    0    0  0.00000000000E+00  0.00000000000E+00  0.45593999997E+02  0.45594000000E+02  0.51100000000E-03 0. -1.
         11   -1    0    0    0    0 -0.00000000000E+00 -0.00000000000E+00 -0.45593999997E+02  0.45594000000E+02  0.51100000000E-03 0.  1.
    9900012    2    1    2    0    0  0.15767278739E+02 -0.15289958582E+01  0.37446238970E+02  0.50528859328E+02  0.29999998414E+02 0.  0.
        -12    1    1    2    0    0 -0.15767278739E+02  0.15289958582E+01 -0.37446238970E+02  0.40659140672E+02  0.00000000000E+00 0.  1.
         11    1    3    3    0    0  0.90117380712E+01  0.24848998971E+01 -0.18990160268E+01  0.95389943230E+01  0.51100000000E-03 0. -1.
        -11    1    3    3    0    0 -0.32082673477E+00 -0.43951033232E+01  0.15338420765E+02  0.15958916469E+02  0.51100000000E-03 0.  1.
         12    1    3    3    0    0  0.70763674022E+01  0.38120756783E+00  0.24006834232E+02  0.25030948537E+02  0.00000000000E+00 0. -1.
</event>
<event>
 7    1  0.1023000E-012  0.5052886E+02  0.7816164E-02  0.1300439E+00
        -11   -1    0    0    0    0  0.00000000000E+00  0.00000000000E+00  0.45593999997E+02  0.45594000000E+02  0.51100000000E-03 0.  1.
         11   -1    0    0    0    0 -0.00000000000E+00 -0.00000000000E+00 -0.45593999997E+02  0.45594000000E+02  0.51100000000E-03 0. -1.
    9900012    2    1    2    0    0 -0.51989098898E+01 -0.60951285062E+01 -0.39862097347E+02  0.50528855144E+02  0.29999985695E+02 0.  0.
        -12    1    1    2    0    0  0.51989098898E+01  0.60951285062E+01  0.39862097347E+02  0.40659144856E+02  0.00000000000E+00 0.  1.
         11    1    3    3    0    0 -0.69848723058E+01 -0.88077215076E+01 -0.35006373811E+02  0.36766977126E+02  0.51100000000E-03 0. -1.
        -11    1    3    3    0    0  0.36613946732E-01  0.53024962458E+01 -0.78239995390E+01  0.94516017725E+01  0.51100000000E-03 0.  1.
         12    1    3    3    0    0  0.17493484693E+01 -0.25899032443E+01  0.29682760034E+01  0.43102762457E+01  0.00000000000E+00 0. -1.
</event>
<event>
 7    1  0.1023000E-012  0.5052886E+02  0.7816164E-02  0.1300439E+00
        -11   -1    0    0    0    0  0.00000000000E+00  0.00000000000E+00  0.45593999997E+02  0.45594000000E+02  0.51100000000E-03 0. -1.
         11   -1    0    0    0    0 -0.00000000000E+00 -0.00000000000E+00 -0.45593999997E+02  0.45594000000E+02  0.51100000000E-03 0.  1.
    9900012    2    1    2    0    0 -0.64533877689E+01 -0.33318540701E+02  0.22391829323E+02  0.50528863406E+02  0.30000010809E+02 0.  0.
        -12    1    1    2    0    0  0.64533877689E+01  0.33318540701E+02 -0.22391829323E+02  0.40659136594E+02  0.00000000000E+00 0.  1.
         11    1    3    3    0    0 -0.19406134511E+01 -0.41877841975E+01  0.18521034951E+02  0.19087489436E+02  0.51100000000E-03 0. -1.
        -11    1    3    3    0    0 -0.32762254807E+01 -0.19281484830E+02 -0.23930445351E+01  0.19703704552E+02  0.51100000000E-03 0.  1.
         12    1    3    3    0    0 -0.12365488370E+01 -0.98492716732E+01  0.62638389066E+01  0.11737669418E+02  0.00000000000E+00 0. -1.
</event>
<event>
 7    1  0.1023000E-012  0.5052886E+02  0.7816164E-02  0.1300439E+00
        -11   -1    0    0    0    0  0.00000000000E+00  0.00000000000E+00  0.45593999997E+02  0.45594000000E+02  0.51100000000E-03 0.  1.
         11   -1    0    0    0    0 -0.00000000000E+00 -0.00000000000E+00 -0.45593999997E+02  0.45594000000E+02  0.51100000000E-03 0. -1.
    9900012    2    1    2    0    0  0.23082003723E+02 -0.31502871802E+02 -0.11311749551E+02  0.50528861967E+02  0.30000006436E+02 0.  0.
        -12    1    1    2    0    0 -0.23082003723E+02  0.31502871802E+02  0.11311749551E+02  0.40659138033E+02  0.00000000000E+00 0.  1.
         11    1    3    3    0    0  0.11817971676E+02 -0.20452623104E+02 -0.19190363296E+02  0.30434261780E+02  0.51100000000E-03 0. -1.
        -11    1    3    3    0    0  0.55833684671E+01  0.12893509968E+00  0.43172330979E+01  0.70589751085E+01  0.51100000000E-03 0.  1.
         12    1    3    3    0    0  0.56806635797E+01 -0.11179183797E+02  0.35613806474E+01  0.13035625079E+02  0.00000000000E+00 0. -1.
</event>
<event>
 7    1  0.1023000E-012  0.5052887E+02  0.7816164E-02  0.1300439E+00
        -11   -1    0    0    0    0  0.00000000000E+00  0.00000000000E+00  0.45593999997E+02  0.45594000000E+02  0.51100000000E-03 0. -1.
         11   -1    0    0    0    0 -0.00000000000E+00 -0.00000000000E+00 -0.45593999997E+02  0.45594000000E+02  0.51100000000E-03 0.  1.
    9900012    2    1    2    0    0  0.20038631778E+02  0.33597046929E+02 -0.11084069466E+02  0.50528869146E+02  0.30000028255E+02 0.  0.
        -12    1    1    2    0    0 -0.20038631778E+02 -0.33597046929E+02  0.11084069466E+02  0.40659130854E+02  0.00000000000E+00 0.  1.
         11    1    3    3    0    0  0.18527569947E+02  0.21990565757E+02  0.37866562417E+01  0.29003354913E+02  0.51100000000E-03 0. -1.
        -11    1    3    3    0    0  0.50348508706E+01  0.85220843302E+01 -0.62251242287E+01  0.11693067029E+02  0.51100000000E-03 0.  1.
         12    1    3    3    0    0 -0.35237890394E+01  0.30843968413E+01 -0.86456014793E+01  0.98324472034E+01  0.00000000000E+00 0. -1.
</event>
<event>
 7    1  0.1023000E-012  0.5052886E+02  0.7816164E-02  0.1300439E+00
        -11   -1    0    0    0    0  0.00000000000E+00  0.00000000000E+00  0.45593999997E+02  0.45594000000E+02  0.51100000000E-03 0. -1.
         11   -1    0    0    0    0 -0.00000000000E+00 -0.00000000000E+00 -0.45593999997E+02  0.45594000000E+02  0.51100000000E-03 0.  1.
    9900012    2    1    2    0    0 -0.29865360883E+02 -0.26723793034E+02 -0.68603928363E+01  0.50528857306E+02  0.29999992266E+02 0.  0.
        -12    1    1    2    0    0  0.29865360883E+02  0.26723793034E+02  0.68603928363E+01  0.40659142694E+02  0.00000000000E+00 0.  1.
         11    1    3    3    0    0 -0.13848371387E+02  0.76993838207E+00  0.58082758594E+01  0.15036830248E+02  0.51100000000E-03 0. -1.
        -11    1    3    3    0    0 -0.15539462949E+01 -0.10846865796E+02 -0.57821051695E+01  0.12389591887E+02  0.51100000000E-03 0.  1.
         12    1    3    3    0    0 -0.14463043201E+02 -0.16646865620E+02 -0.68865635263E+01  0.23102435170E+02  0.00000000000E+00 0. -1.
</event>
<event>
 7    1  0.1023000E-012  0.5052886E+02  0.7816164E-02  0.1300439E+00
        -11   -1    0    0    0    0  0.00000000000E+00  0.00000000000E+00  0.45593999997E+02  0.45594000000E+02  0.51100000000E-03 0.  1.
         11   -1    0    0    0    0 -0.00000000000E+00 -0.00000000000E+00 -0.45593999997E+02  0.45594000000E+02  0.51100000000E-03 0. -1.
    9900012    2    1    2    0    0  0.20733251725E+02  0.34563209563E+02 -0.53555990778E+01  0.50528860512E+02  0.30000002012E+02 0.  0.
        -12    1    1    2    0    0 -0.20733251725E+02 -0.34563209563E+02  0.53555990778E+01  0.40659139488E+02  0.00000000000E+00 0.  1.
         11    1    3    3    0    0  0.15469027573E+02  0.21769921697E+02  0.17015525920E+01  0.26760336063E+02  0.51100000000E-03 0. -1.
        -11    1    3    3    0    0 -0.44086108102E+01  0.11540423844E+02 -0.65949369327E+01  0.14003943201E+02  0.51100000000E-03 0.  1.
        -12    1    3    3    0    0  0.96728349627E+01  0.12528640227E+01 -0.46221473708E+00  0.97645812475E+01  0.00000000000E+00 0.  1.
</event>
<event>
 7    1  0.1023000E-012  0.5052886E+02  0.7816164E-02  0.1300439E+00
        -11   -1    0    0    0    0  0.00000000000E+00  0.00000000000E+00  0.45593999997E+02  0.45594000000E+02  0.51100000000E-03 0. -1.
         11   -1    0    0    0    0 -0.00000000000E+00 -0.00000000000E+00 -0.45593999997E+02  0.45594000000E+02  0.51100000000E-03 0.  1.
    9900012    2    1    2    0    0  0.36218424127E+01 -0.53776525368E+01  0.40138869371E+02  0.50528859286E+02  0.29999998285E+02 0.  0.
        -12    1    1    2    0    0 -0.36218424127E+01  0.53776525368E+01 -0.40138869371E+02  0.40659140714E+02  0.00000000000E+00 0.  1.
         11    1    3    3    0    0  0.52869346444E+01 -0.18127812403E+01  0.37704798249E+02  0.38116789805E+02  0.51100000000E-03 0. -1.
        -11    1    3    3    0    0 -0.51222588734E+01 -0.60312107715E+01  0.18402338596E+01  0.81240076474E+01  0.51100000000E-03 0.  1.
        -12    1    3    3    0    0  0.34571666416E+01  0.24663394750E+01  0.59383726195E+00  0.42880618335E+01  0.00000000000E+00 0.  1.
</event>
<event>
 7    1  0.1023000E-012  0.5052887E+02  0.7816164E-02  0.1300439E+00
        -11   -1    0    0    0    0  0.00000000000E+00  0.00000000000E+00  0.45593999997E+02  0.45594000000E+02  0.51100000000E-03 0.  1.
         11   -1    0    0    0    0 -0.00000000000E+00 -0.00000000000E+00 -0.45593999997E+02  0.45594000000E+02  0.51100000000E-03 0. -1.
    9900012    2    1    2    0    0 -0.29818888412E+02  0.27527069674E+02 -0.25019088556E+01  0.50528865493E+02  0.30000017152E+02 0.  0.
        -12    1    1    2    0    0  0.29818888412E+02 -0.27527069674E+02  0.25019088556E+01  0.40659134507E+02  0.00000000000E+00 0.  1.
         11    1    3    3    0    0  0.27550750927E+01  0.36987041813E+01  0.66910490168E+01  0.81265606867E+01  0.51100000000E-03 0.  1.
        -11    1    3    3    0    0 -0.11142970840E+02  0.12423976766E+02 -0.67532585003E+01  0.18003541275E+02  0.51100000000E-03 0. -1.
         12    1    3    3    0    0 -0.21430992664E+02  0.11404388727E+02 -0.24396993722E+01  0.24398763531E+02  0.00000000000E+00 0. -1.
</event>
<event>
 7    1  0.1023000E-012  0.5052886E+02  0.7816164E-02  0.1300439E+00
        -11   -1    0    0    0    0  0.00000000000E+00  0.00000000000E+00  0.45593999997E+02  0.45594000000E+02  0.51100000000E-03 0.  1.
         11   -1    0    0    0    0 -0.00000000000E+00 -0.00000000000E+00 -0.45593999997E+02  0.45594000000E+02  0.51100000000E-03 0. -1.
    9900012    2    1    2    0    0  0.20018952340E+02 -0.32001804465E+02  0.15109317979E+02  0.50528862877E+02  0.30000009200E+02 0.  0.
        -12    1    1    2    0    0 -0.20018952340E+02  0.32001804465E+02 -0.15109317979E+02  0.40659137123E+02  0.00000000000E+00 0.  1.
         11    1    3    3    0    0  0.10428575372E+02 -0.16406698729E+02 -0.57650203605E+01  0.20277337288E+02  0.51100000000E-03 0. -1.
        -11    1    3    3    0    0  0.11029870681E+02 -0.68048121828E+01  0.13119829051E+02  0.18441622235E+02  0.51100000000E-03 0.  1.
         12    1    3    3    0    0 -0.14394937131E+01 -0.87902935531E+01  0.77545092893E+01  0.11809903353E+02  0.00000000000E+00 0. -1.
</event>
<event>
 7    1  0.1023000E-012  0.5052886E+02  0.7816164E-02  0.1300439E+00
        -11   -1    0    0    0    0  0.00000000000E+00  0.00000000000E+00  0.45593999997E+02  0.45594000000E+02  0.51100000000E-03 0.  1.
         11   -1    0    0    0    0 -0.00000000000E+00 -0.00000000000E+00 -0.45593999997E+02  0.45594000000E+02  0.51100000000E-03 0. -1.
    9900012    2    1    2    0    0  0.19322389171E+02  0.10586690614E+02 -0.34172106463E+02  0.50528860787E+02  0.30000002848E+02 0.  0.
        -12    1    1    2    0    0 -0.19322389171E+02 -0.10586690614E+02  0.34172106463E+02  0.40659139213E+02  0.00000000000E+00 0.  1.
         11    1    3    3    0    0 -0.46460921773E+01  0.63173726649E+01 -0.12891197739E+02  0.15089014193E+02  0.51100000000E-03 0. -1.
        -11    1    3    3    0    0  0.18767558487E+02  0.83082265264E+01 -0.11151528813E+02  0.23358177898E+02  0.51100000000E-03 0.  1.
        -12    1    3    3    0    0  0.52009228613E+01 -0.40389085778E+01 -0.10129379911E+02  0.12081668697E+02  0.00000000000E+00 0.  1.
</event>
<event>
 7    1  0.1026747E-012  0.5052885E+02  0.7816164E-02  0.1300439E+00
        -11   -1    0    0    0    0  0.00000000000E+00  0.00000000000E+00  0.45593999997E+02  0.45594000000E+02  0.51100000000E-03 0. -1.
         11   -1    0    0    0    0 -0.00000000000E+00 -0.00000000000E+00 -0.45593999997E+02  0.45594000000E+02  0.51100000000E-03 0.  1.
    9900012    2    1    2    0    0  0.30320570846E+02 -0.45615075270E+01  0.26702474433E+02  0.50528849638E+02  0.29999968960E+02 0.  0.
        -12    1    1    2    0    0 -0.30320570846E+02  0.45615075270E+01 -0.26702474433E+02  0.40659150362E+02  0.00000000000E+00 0.  1.
         11    1    3    3    0    0  0.20408123718E+02 -0.10795632676E+02  0.19379132077E+02  0.30142792819E+02  0.51100000000E-03 0. -1.
        -11    1    3    3    0    0  0.13137635266E+01  0.95461089772E+01  0.51198200322E+01  0.10911770188E+02  0.51100000000E-03 0.  1.
        -12    1    3    3    0    0  0.85986836009E+01 -0.33119838277E+01  0.22035223231E+01  0.94742866313E+01  0.00000000000E+00 0.  1.
</event>
<event>
 7    1  0.1023000E-012  0.5052878E+02  0.7816164E-02  0.1300439E+00
        -11   -1    0    0    0    0  0.00000000000E+00  0.00000000000E+00  0.45593999997E+02  0.45594000000E+02  0.51100000000E-03 0.  1.
         11   -1    0    0    0    0 -0.00000000000E+00 -0.00000000000E+00 -0.45593999997E+02  0.45594000000E+02  0.51100000000E-03 0. -1.
    9900012    2    1    2    0    0 -0.17225107347E+02 -0.98763087065E+01 -0.35481350523E+02  0.50528781712E+02  0.29999762492E+02 0.  0.
        -12    1    1    2    0    0  0.17225107347E+02  0.98763087065E+01  0.35481350523E+02  0.40659218288E+02  0.00000000000E+00 0.  1.
         11    1    3    3    0    0 -0.16387768821E+02 -0.16055460329E+02 -0.19917157468E+02  0.30381407722E+02  0.51100000000E-03 0. -1.
        -11    1    3    3    0    0 -0.57371339486E+01  0.19921440310E+01 -0.54833668039E+01  0.81823380248E+01  0.51100000000E-03 0.  1.
         12    1    3    3    0    0  0.48997954219E+01  0.41870075916E+01 -0.10080826252E+02  0.11965035966E+02  0.00000000000E+00 0. -1.
</event>
<event>
 7    1  0.1023000E-012  0.5052886E+02  0.7816164E-02  0.1300439E+00
        -11   -1    0    0    0    0  0.00000000000E+00  0.00000000000E+00  0.45593999997E+02  0.45594000000E+02  0.51100000000E-03 0.  1.
         11   -1    0    0    0    0 -0.00000000000E+00 -0.00000000000E+00 -0.45593999997E+02  0.45594000000E+02  0.51100000000E-03 0. -1.
    9900012    2    1    2    0    0  0.15659625773E+02 -0.33852000334E+02 -0.16185911774E+02  0.50528861471E+02  0.30000004927E+02 0.  0.
        -12    1    1    2    0    0 -0.15659625773E+02  0.33852000334E+02  0.16185911774E+02  0.40659138529E+02  0.00000000000E+00 0.  1.
         11    1    3    3    0    0  0.12058095820E+02 -0.74142705143E+01 -0.11866870864E+02  0.18471375325E+02  0.51100000000E-03 0. -1.
        -11    1    3    3    0    0 -0.69259463376E+01 -0.11802808689E+02 -0.27760640544E+01  0.13963579681E+02  0.51100000000E-03 0.  1.
        -12    1    3    3    0    0  0.10527476290E+02 -0.14634921131E+02 -0.15429768562E+01  0.18093906464E+02  0.00000000000E+00 0.  1.
</event>
<event>
 7    1  0.1023000E-012  0.5052886E+02  0.7816164E-02  0.1300439E+00
        -11   -1    0    0    0    0  0.00000000000E+00  0.00000000000E+00  0.45593999997E+02  0.45594000000E+02  0.51100000000E-03 0.  1.
         11   -1    0    0    0    0 -0.00000000000E+00 -0.00000000000E+00 -0.45593999997E+02  0.45594000000E+02  0.51100000000E-03 0. -1.
    9900012    2    1    2    0    0  0.29689429504E+02 -0.23912926550E+02  0.14137737169E+02  0.50528857206E+02  0.29999991965E+02 0.  0.
        -12    1    1    2    0    0 -0.29689429504E+02  0.23912926550E+02 -0.14137737169E+02  0.40659142794E+02  0.00000000000E+00 0.  1.
         11    1    3    3    0    0  0.11804316553E+02 -0.60773502509E+01  0.36068029976E+01  0.13758092291E+02  0.51100000000E-03 0. -1.
        -11    1    3    3    0    0 -0.44042236329E+01 -0.66628136055E+01 -0.28426757192E+01  0.84776810777E+01  0.51100000000E-03 0.  1.
        -12    1    3    3    0    0  0.22289336584E+02 -0.11172762693E+02  0.13373609890E+02  0.28293083838E+02  0.00000000000E+00 0.  1.
</event>
<event>
 7    1  0.1023000E-012  0.5052886E+02  0.7816164E-02  0.1300439E+00
        -11   -1    0    0    0    0  0.00000000000E+00  0.00000000000E+00  0.45593999997E+02  0.45594000000E+02  0.51100000000E-03 0.  1.
         11   -1    0    0    0    0 -0.00000000000E+00 -0.00000000000E+00 -0.45593999997E+02  0.45594000000E+02  0.51100000000E-03 0. -1.
    9900012    2    1    2    0    0  0.11453110911E+02  0.30537913596E+02 -0.24278136888E+02  0.50528857767E+02  0.29999993669E+02 0.  0.
        -12    1    1    2    0    0 -0.11453110911E+02 -0.30537913596E+02  0.24278136888E+02  0.40659142233E+02  0.00000000000E+00 0.  1.
         11    1    3    3    0    0  0.13553010916E+02  0.25041091556E+02 -0.95222907352E+01  0.30023563950E+02  0.51100000000E-03 0. -1.
        -11    1    3    3    0    0 -0.70436450939E+01  0.75654423063E+00 -0.53863276077E+01  0.88993157457E+01  0.51100000000E-03 0.  1.
         12    1    3    3    0    0  0.49437450894E+01  0.47402778101E+01 -0.93695185449E+01  0.11605978071E+02  0.00000000000E+00 0. -1.
</event>
<event>
 7    1  0.1023000E-012  0.5052886E+02  0.7816164E-02  0.1300439E+00
        -11   -1    0    0    0    0  0.00000000000E+00  0.00000000000E+00  0.45593999997E+02  0.45594000000E+02  0.51100000000E-03 0.  1.
         11   -1    0    0    0    0 -0.00000000000E+00 -0.00000000000E+00 -0.45593999997E+02  0.45594000000E+02  0.51100000000E-03 0. -1.
    9900012    2    1    2    0    0  0.11237840006E+02  0.39038482117E+02 -0.16951307621E+01  0.50528860777E+02  0.30000002819E+02 0.  0.
        -12    1    1    2    0    0 -0.11237840006E+02 -0.39038482117E+02  0.16951307621E+01  0.40659139223E+02  0.00000000000E+00 0.  1.
         11    1    3    3    0    0  0.14044371156E+01  0.15293143609E+02 -0.45149378615E+01  0.16007415444E+02  0.51100000000E-03 0. -1.
        -11    1    3    3    0    0  0.11458610542E+02  0.18044559629E+02  0.11297159322E+02  0.24177090329E+02  0.51100000000E-03 0.  1.
        -12    1    3    3    0    0 -0.16252076518E+01  0.57007788792E+01 -0.84773522228E+01  0.10344355004E+02  0.00000000000E+00 0.  1.
</event>
<event>
 7    1  0.1023000E-012  0.5052886E+02  0.7816164E-02  0.1300439E+00
        -11   -1    0    0    0    0  0.00000000000E+00  0.00000000000E+00  0.45593999997E+02  0.45594000000E+02  0.51100000000E-03 0.  1.
         11   -1    0    0    0    0 -0.00000000000E+00 -0.00000000000E+00 -0.45593999997E+02  0.45594000000E+02  0.51100000000E-03 0. -1.
    9900012    2    1    2    0    0 -0.20512461356E+02 -0.11452377943E+02 -0.33185048772E+02  0.50528862116E+02  0.30000006889E+02 0.  0.
        -12    1    1    2    0    0  0.20512461356E+02  0.11452377943E+02  0.33185048772E+02  0.40659137884E+02  0.00000000000E+00 0.  1.
         11    1    3    3    0    0 -0.13825207074E+02 -0.55503339880E+01 -0.64481945201E+01  0.16233353654E+02  0.51100000000E-03 0. -1.
        -11    1    3    3    0    0 -0.45213503123E+01  0.42022991907E+01 -0.22141727654E+02  0.22986039914E+02  0.51100000000E-03 0.  1.
         12    1    3    3    0    0 -0.21659039698E+01 -0.10104343146E+02 -0.45951265978E+01  0.11309468549E+02  0.00000000000E+00 0. -1.
</event>
<event>
 7    1  0.1023000E-012  0.5052886E+02  0.7816164E-02  0.1300439E+00
        -11   -1    0    0    0    0  0.00000000000E+00  0.00000000000E+00  0.45593999997E+02  0.45594000000E+02  0.51100000000E-03 0.  1.
         11   -1    0    0    0    0 -0.00000000000E+00 -0.00000000000E+00 -0.45593999997E+02  0.45594000000E+02  0.51100000000E-03 0. -1.
    9900012    2    1    2    0    0 -0.12921460440E+02 -0.23083783361E+02 -0.30876216423E+02  0.50528856689E+02  0.29999990393E+02 0.  0.
        -12    1    1    2    0    0  0.12921460440E+02  0.23083783361E+02  0.30876216423E+02  0.40659143311E+02  0.00000000000E+00 0.  1.
         11    1    3    3    0    0 -0.14288975556E+02 -0.60424210081E+01 -0.13384326891E+02  0.20489653015E+02  0.51100000000E-03 0. -1.
        -11    1    3    3    0    0  0.48248919158E+01 -0.57854822302E+01  0.15115176674E+01  0.76834935124E+01  0.51100000000E-03 0.  1.
         12    1    3    3    0    0 -0.34573767994E+01 -0.11255880122E+02 -0.19003407200E+02  0.22355710162E+02  0.00000000000E+00 0. -1.
</event>
<event>
 7    1  0.1023000E-012  0.5052887E+02  0.7816164E-02  0.1300439E+00
        -11   -1    0    0    0    0  0.00000000000E+00  0.00000000000E+00  0.45593999997E+02  0.45594000000E+02  0.51100000000E-03 0.  1.
         11   -1    0    0    0    0 -0.00000000000E+00 -0.00000000000E+00 -0.45593999997E+02  0.45594000000E+02  0.51100000000E-03 0. -1.
    9900012    2    1    2    0    0 -0.15904867228E+02 -0.32315954883E+02 -0.18864769181E+02  0.50528865015E+02  0.30000015699E+02 0.  0.
        -12    1    1    2    0    0  0.15904867228E+02  0.32315954883E+02  0.18864769181E+02  0.40659134985E+02  0.00000000000E+00 0.  1.
         11    1    3    3    0    0 -0.28109759669E+01 -0.15593905108E+02 -0.52733633434E+01  0.16699695315E+02  0.51100000000E-03 0. -1.
        -11    1    3    3    0    0 -0.77178072821E+01  0.40871828524E+01 -0.68692037076E+00  0.87602210457E+01  0.51100000000E-03 0.  1.
         12    1    3    3    0    0 -0.53760839788E+01 -0.20809232627E+02 -0.12904485466E+02  0.25068948654E+02  0.00000000000E+00 0. -1.
</event>
<event>
 7    1  0.1023000E-012  0.5052886E+02  0.7816164E-02  0.1300439E+00
        -11   -1    0    0    0    0  0.00000000000E+00  0.00000000000E+00  0.45593999997E+02  0.45594000000E+02  0.51100000000E-03 0.  1.
         11   -1    0    0    0    0 -0.00000000000E+00 -0.00000000000E+00 -0.45593999997E+02  0.45594000000E+02  0.51100000000E-03 0. -1.
    9900012    2    1    2    0    0 -0.93110802080E+01 -0.31848298356E+02 -0.23497987593E+02  0.50528859038E+02  0.29999997533E+02 0.  0.
        -12    1    1    2    0    0  0.93110802080E+01  0.31848298356E+02  0.23497987593E+02  0.40659140962E+02  0.00000000000E+00 0.  1.
         11    1    3    3    0    0 -0.73922424201E+01 -0.29202882601E+02 -0.18601622408E+02  0.35404434138E+02  0.51100000000E-03 0. -1.
        -11    1    3    3    0    0 -0.79725346875E+01 -0.16940016818E+01 -0.22977873670E+01  0.84682216602E+01  0.51100000000E-03 0.  1.
         12    1    3    3    0    0  0.60536968996E+01 -0.95141407376E+00 -0.25985778186E+01  0.66562032400E+01  0.00000000000E+00 0. -1.
</event>
<event>
 7    1  0.1023000E-012  0.5052887E+02  0.7816164E-02  0.1300439E+00
        -11   -1    0    0    0    0  0.00000000000E+00  0.00000000000E+00  0.45593999997E+02  0.45594000000E+02  0.51100000000E-03 0. -1.
         11   -1    0    0    0    0 -0.00000000000E+00 -0.00000000000E+00 -0.45593999997E+02  0.45594000000E+02  0.51100000000E-03 0.  1.
    9900012    2    1    2    0    0  0.13013414664E+02  0.35681753214E+02  0.14513045665E+02  0.50528868576E+02  0.30000026524E+02 0.  0.
        -12    1    1    2    0    0 -0.13013414664E+02 -0.35681753214E+02 -0.14513045665E+02  0.40659131424E+02  0.00000000000E+00 0.  1.
         11    1    3    3    0    0 -0.33566373136E+01  0.14530632623E+02  0.47186808806E+01  0.15642002685E+02  0.51100000000E-03 0.  1.
        -11    1    3    3    0    0  0.19604517675E+02  0.22443046659E+02  0.99031646157E+01  0.31402231231E+02  0.51100000000E-03 0. -1.
        -12    1    3    3    0    0 -0.32344656972E+01 -0.12919260679E+01 -0.10879983129E+00  0.34846346602E+01  0.00000000000E+00 0.  1.
</event>
<event>
 7    1  0.1023000E-012  0.5052887E+02  0.7816164E-02  0.1300439E+00
        -11   -1    0    0    0    0  0.00000000000E+00  0.00000000000E+00  0.45593999997E+02  0.45594000000E+02  0.51100000000E-03 0.  1.
         11   -1    0    0    0    0 -0.00000000000E+00 -0.00000000000E+00 -0.45593999997E+02  0.45594000000E+02  0.51100000000E-03 0. -1.
    9900012    2    1    2    0    0  0.28885522628E+02 -0.16684980913E+02 -0.23246564156E+02  0.50528871251E+02  0.30000034656E+02 0.  0.
        -12    1    1    2    0    0 -0.28885522628E+02  0.16684980913E+02  0.23246564156E+02  0.40659128749E+02  0.00000000000E+00 0.  1.
         11    1    3    3    0    0  0.60947274783E+01  0.84777071781E+00 -0.10652960185E+02  0.12302437937E+02  0.51100000000E-03 0. -1.
        -11    1    3    3    0    0  0.16627681708E+02 -0.94031814315E+00 -0.26579653384E+00  0.16656369510E+02  0.51100000000E-03 0.  1.
        -12    1    3    3    0    0  0.61631134415E+01 -0.16592433487E+02 -0.12327807436E+02  0.21570063804E+02  0.00000000000E+00 0.  1.
</event>
<event>
 7    1  0.1023000E-012  0.5052885E+02  0.7816164E-02  0.1300439E+00
        -11   -1    0    0    0    0  0.00000000000E+00  0.00000000000E+00  0.45593999997E+02  0.45594000000E+02  0.51100000000E-03 0. -1.
         11   -1    0    0    0    0 -0.00000000000E+00 -0.00000000000E+00 -0.45593999997E+02  0.45594000000E+02  0.51100000000E-03 0.  1.
    9900012    2    1    2    0    0  0.26577145600E+02 -0.67761756921E+01  0.30015082936E+02  0.50528850612E+02  0.29999971921E+02 0.  0.
        -12    1    1    2    0    0 -0.26577145600E+02  0.67761756921E+01 -0.30015082936E+02  0.40659149388E+02  0.00000000000E+00 0.  1.
         11    1    3    3    0    0  0.12432829415E+02  0.27149361498E+01  0.21350208657E+02  0.24855130969E+02  0.51100000000E-03 0. -1.
        -11    1    3    3    0    0  0.13337388302E+02 -0.59812709193E+01 -0.16861294846E+01  0.14714093972E+02  0.51100000000E-03 0.  1.
        -12    1    3    3    0    0  0.80692788343E+00 -0.35098409226E+01  0.10351003764E+02  0.10959625670E+02  0.00000000000E+00 0.  1.
</event>
<event>
 7    1  0.1023000E-012  0.5052886E+02  0.7816164E-02  0.1300439E+00
        -11   -1    0    0    0    0  0.00000000000E+00  0.00000000000E+00  0.45593999997E+02  0.45594000000E+02  0.51100000000E-03 0.  1.
         11   -1    0    0    0    0 -0.00000000000E+00 -0.00000000000E+00 -0.45593999997E+02  0.45594000000E+02  0.51100000000E-03 0. -1.
    9900012    2    1    2    0    0  0.34255838820E+02  0.89944082018E+01 -0.19970078262E+02  0.50528857142E+02  0.29999991769E+02 0.  0.
        -12    1    1    2    0    0 -0.34255838820E+02 -0.89944082018E+01  0.19970078262E+02  0.40659142858E+02  0.00000000000E+00 0.  1.
         11    1    3    3    0    0  0.26158296444E+01  0.23662169034E+01  0.24612945024E+01  0.43011066077E+01  0.51100000000E-03 0. -1.
        -11    1    3    3    0    0  0.29863048704E+02  0.97280644123E+01 -0.26297517337E+02  0.40963353542E+02  0.51100000000E-03 0.  1.
        -12    1    3    3    0    0  0.17769604715E+01 -0.30998731140E+01  0.38661445721E+01  0.52643969922E+01  0.00000000000E+00 0.  1.
</event>
<event>
 7    1  0.1023000E-012  0.5052885E+02  0.7816164E-02  0.1300439E+00
        -11   -1    0    0    0    0  0.00000000000E+00  0.00000000000E+00  0.45593999997E+02  0.45594000000E+02  0.51100000000E-03 0. -1.
         11   -1    0    0    0    0 -0.00000000000E+00 -0.00000000000E+00 -0.45593999997E+02  0.45594000000E+02  0.51100000000E-03 0.  1.
    9900012    2    1    2    0    0  0.38853557726E+02  0.21192968507E+01  0.11793042743E+02  0.50528853129E+02  0.29999979572E+02 0.  0.
        -12    1    1    2    0    0 -0.38853557726E+02 -0.21192968507E+01 -0.11793042743E+02  0.40659146871E+02  0.00000000000E+00 0.  1.
         11    1    3    3    0    0  0.23981127735E+02  0.86993407792E+01  0.12703178662E+02  0.28498136181E+02  0.51100000000E-03 0. -1.
        -11    1    3    3    0    0  0.42248434472E+01 -0.99710968567E+01 -0.74754879107E+00  0.10854994433E+02  0.51100000000E-03 0.  1.
        -12    1    3    3    0    0  0.10647586544E+02  0.33910529282E+01 -0.16258712779E+00  0.11175722515E+02  0.00000000000E+00 0.  1.
</event>
<event>
 7    1  0.1023000E-012  0.5052881E+02  0.7816164E-02  0.1300439E+00
        -11   -1    0    0    0    0  0.00000000000E+00  0.00000000000E+00  0.45593999997E+02  0.45594000000E+02  0.51100000000E-03 0. -1.
         11   -1    0    0    0    0 -0.00000000000E+00 -0.00000000000E+00 -0.45593999997E+02  0.45594000000E+02  0.51100000000E-03 0.  1.
    9900012    2    1    2    0    0  0.31202244130E+02 -0.46758364131E+01  0.25646178660E+02  0.50528807131E+02  0.29999839755E+02 0.  0.
        -12    1    1    2    0    0 -0.31202244130E+02  0.46758364131E+01 -0.25646178660E+02  0.40659192869E+02  0.00000000000E+00 0.  1.
         11    1    3    3    0    0  0.32223295922E+02 -0.12734897812E+02  0.21950060102E+02  0.41016137813E+02  0.51100000000E-03 0. -1.
        -11    1    3    3    0    0 -0.84911331916E+00  0.34735210163E+00  0.96071016026E+00  0.13283866848E+01  0.51100000000E-03 0.  1.
         12    1    3    3    0    0 -0.17193847275E+00  0.77117092971E+01  0.27354083971E+01  0.81842826332E+01  0.00000000000E+00 0. -1.
</event>
<event>
 7    1  0.1023000E-012  0.5052889E+02  0.7816164E-02  0.1300439E+00
        -11   -1    0    0    0    0  0.00000000000E+00  0.00000000000E+00  0.45593999997E+02  0.45594000000E+02  0.51100000000E-03 0. -1.
         11   -1    0    0    0    0 -0.00000000000E+00 -0.00000000000E+00 -0.45593999997E+02  0.45594000000E+02  0.51100000000E-03 0.  1.
    9900012    2    1    2    0    0  0.13525234455E+02  0.36742441570E+02  0.10964680854E+02  0.50528890248E+02  0.30000092398E+02 0.  0.
        -12    1    1    2    0    0 -0.13525234455E+02 -0.36742441570E+02 -0.10964680854E+02  0.40659109752E+02  0.00000000000E+00 0.  1.
         11    1    3    3    0    0  0.42150279448E+01  0.86734831507E+01  0.10990853387E+02  0.14621717716E+02  0.51100000000E-03 0. -1.
        -11    1    3    3    0    0 -0.30818719577E+01  0.20229894921E+02 -0.36892118850E+01  0.20793192825E+02  0.51100000000E-03 0.  1.
        -12    1    3    3    0    0  0.12392078467E+02  0.78390634984E+01  0.36630393521E+01  0.15113979707E+02  0.00000000000E+00 0.  1.
</event>
<event>
 7    1  0.1023000E-012  0.5052887E+02  0.7816164E-02  0.1300439E+00
        -11   -1    0    0    0    0  0.00000000000E+00  0.00000000000E+00  0.45593999997E+02  0.45594000000E+02  0.51100000000E-03 0. -1.
         11   -1    0    0    0    0 -0.00000000000E+00 -0.00000000000E+00 -0.45593999997E+02  0.45594000000E+02  0.51100000000E-03 0.  1.
    9900012    2    1    2    0    0  0.14719207860E+02  0.37206409202E+01  0.37718257720E+02  0.50528865549E+02  0.30000017323E+02 0.  0.
        -12    1    1    2    0    0 -0.14719207860E+02 -0.37206409202E+01 -0.37718257720E+02  0.40659134451E+02  0.00000000000E+00 0.  1.
         11    1    3    3    0    0 -0.69728544632E+01  0.55998508054E+01  0.40131429673E+01  0.98022622463E+01  0.51100000000E-03 0. -1.
        -11    1    3    3    0    0  0.16219205043E+01 -0.22656716055E+01  0.40064650385E+01  0.48801287188E+01  0.51100000000E-03 0.  1.
         12    1    3    3    0    0  0.20070141818E+02  0.38646172030E+00  0.29698649714E+02  0.35846474584E+02  0.00000000000E+00 0. -1.
</event>
<event>
 7    1  0.1023000E-012  0.5052886E+02  0.7816164E-02  0.1300439E+00
        -11   -1    0    0    0    0  0.00000000000E+00  0.00000000000E+00  0.45593999997E+02  0.45594000000E+02  0.51100000000E-03 0. -1.
         11   -1    0    0    0    0 -0.00000000000E+00 -0.00000000000E+00 -0.45593999997E+02  0.45594000000E+02  0.51100000000E-03 0.  1.
    9900012    2    1    2    0    0  0.32569792581E+02 -0.23845542605E+02  0.48748846390E+01  0.50528858455E+02  0.29999995760E+02 0.  0.
        -12    1    1    2    0    0 -0.32569792581E+02  0.23845542605E+02 -0.48748846390E+01  0.40659141545E+02  0.00000000000E+00 0.  1.
         11    1    3    3    0    0  0.14415176146E+02 -0.21091497418E+02  0.13860088257E+02  0.29064593811E+02  0.51100000000E-03 0. -1.
        -11    1    3    3    0    0  0.15714330918E+02 -0.19083478337E+01 -0.47914445417E+01  0.16539042557E+02  0.51100000000E-03 0.  1.
         12    1    3    3    0    0  0.24402855178E+01 -0.84569735359E+00 -0.41937590760E+01  0.49252220874E+01  0.00000000000E+00 0. -1.
</event>
<event>
 7    1  0.1023000E-012  0.5052886E+02  0.7816164E-02  0.1300439E+00
        -11   -1    0    0    0    0  0.00000000000E+00  0.00000000000E+00  0.45593999997E+02  0.45594000000E+02  0.51100000000E-03 0. -1.
         11   -1    0    0    0    0 -0.00000000000E+00 -0.00000000000E+00 -0.45593999997E+02  0.45594000000E+02  0.51100000000E-03 0.  1.
    9900012    2    1    2    0    0  0.33045668800E+02  0.10811666704E+02  0.21077406223E+02  0.50528863063E+02  0.30000009766E+02 0.  0.
        -12    1    1    2    0    0 -0.33045668800E+02 -0.10811666704E+02 -0.21077406223E+02  0.40659136937E+02  0.00000000000E+00 0.  1.
         11    1    3    3    0    0  0.27831398058E+02  0.78987334668E+01  0.36369007999E+01  0.29158253650E+02  0.51100000000E-03 0. -1.
        -11    1    3    3    0    0 -0.98431449909E+00  0.30151695619E+01  0.13845663225E+02  0.14204313180E+02  0.51100000000E-03 0.  1.
        -12    1    3    3    0    0  0.61985852412E+01 -0.10223632513E+00  0.35948421986E+01  0.71662962325E+01  0.00000000000E+00 0.  1.
</event>
<event>
 7    1  0.1023000E-012  0.5052886E+02  0.7816164E-02  0.1300439E+00
        -11   -1    0    0    0    0  0.00000000000E+00  0.00000000000E+00  0.45593999997E+02  0.45594000000E+02  0.51100000000E-03 0. -1.
         11   -1    0    0    0    0 -0.00000000000E+00 -0.00000000000E+00 -0.45593999997E+02  0.45594000000E+02  0.51100000000E-03 0.  1.
    9900012    2    1    2    0    0 -0.17771404245E+02  0.35770601484E+02  0.76030694288E+01  0.50528863215E+02  0.30000010229E+02 0.  0.
        -12    1    1    2    0    0  0.17771404245E+02 -0.35770601484E+02 -0.76030694288E+01  0.40659136785E+02  0.00000000000E+00 0.  1.
         11    1    3    3    0    0 -0.17149282367E+02  0.25247039341E+02  0.86148513117E+01  0.31713191964E+02  0.51100000000E-03 0. -1.
        -11    1    3    3    0    0  0.26862963245E+01  0.25279611595E+01 -0.72594495922E+01  0.81428732159E+01  0.51100000000E-03 0.  1.
         12    1    3    3    0    0 -0.33084182030E+01  0.79956009833E+01  0.62476677093E+01  0.10672798035E+02  0.00000000000E+00 0. -1.
</event>
<event>
 7    1  0.1023000E-012  0.5052886E+02  0.7816164E-02  0.1300439E+00
        -11   -1    0    0    0    0  0.00000000000E+00  0.00000000000E+00  0.45593999997E+02  0.45594000000E+02  0.51100000000E-03 0.  1.
         11   -1    0    0    0    0 -0.00000000000E+00 -0.00000000000E+00 -0.45593999997E+02  0.45594000000E+02  0.51100000000E-03 0. -1.
    9900012    2    1    2    0    0 -0.19820709247E+02 -0.15799998013E+01 -0.35465600404E+02  0.50528859251E+02  0.29999998178E+02 0.  0.
        -12    1    1    2    0    0  0.19820709247E+02  0.15799998013E+01  0.35465600404E+02  0.40659140749E+02  0.00000000000E+00 0.  1.
         11    1    3    3    0    0 -0.10078112893E+02 -0.29542896114E+01 -0.30183072533E+02  0.31958004543E+02  0.51100000000E-03 0. -1.
        -11    1    3    3    0    0 -0.88095794492E+01  0.40932973246E+01 -0.94208755592E+01  0.13532060805E+02  0.51100000000E-03 0.  1.
         12    1    3    3    0    0 -0.93301690538E+00 -0.27190075145E+01  0.41383476877E+01  0.50387939027E+01  0.00000000000E+00 0. -1.
</event>
<event>
 7    1  0.1023000E-012  0.5052886E+02  0.7816164E-02  0.1300439E+00
        -11   -1    0    0    0    0  0.00000000000E+00  0.00000000000E+00  0.45593999997E+02  0.45594000000E+02  0.51100000000E-03 0. -1.
         11   -1    0    0    0    0 -0.00000000000E+00 -0.00000000000E+00 -0.45593999997E+02  0.45594000000E+02  0.51100000000E-03 0.  1.
    9900012    2    1    2    0    0  0.32433191671E+02 -0.13704426051E+02  0.20333293650E+02  0.50528855321E+02  0.29999986235E+02 0.  0.
        -12    1    1    2    0    0 -0.32433191671E+02  0.13704426051E+02 -0.20333293650E+02  0.40659144679E+02  0.00000000000E+00 0.  1.
         11    1    3    3    0    0  0.12125055823E+02 -0.59949559956E+01  0.85362886929E+00  0.13553049789E+02  0.51100000000E-03 0. -1.
        -11    1    3    3    0    0  0.65410648563E+01 -0.83584130453E+00  0.20519533721E+02  0.21553083875E+02  0.51100000000E-03 0.  1.
        -12    1    3    3    0    0  0.13767070992E+02 -0.68736287512E+01 -0.10398689395E+01  0.15422721657E+02  0.00000000000E+00 0.  1.
</event>
<event>
 7    1  0.1023000E-012  0.5052886E+02  0.7816164E-02  0.1300439E+00
        -11   -1    0    0    0    0  0.00000000000E+00  0.00000000000E+00  0.45593999997E+02  0.45594000000E+02  0.51100000000E-03 0.  1.
         11   -1    0    0    0    0 -0.00000000000E+00 -0.00000000000E+00 -0.45593999997E+02  0.45594000000E+02  0.51100000000E-03 0. -1.
    9900012    2    1    2    0    0 -0.10775453872E+02  0.11230412597E+02 -0.37562390513E+02  0.50528858909E+02  0.29999997138E+02 0.  0.
        -12    1    1    2    0    0  0.10775453872E+02 -0.11230412597E+02  0.37562390513E+02  0.40659141091E+02  0.00000000000E+00 0.  1.
         11    1    3    3    0    0  0.92968404876E+01  0.23796668700E+01 -0.56991473428E+01  0.11161287478E+02  0.51100000000E-03 0. -1.
        -11    1    3    3    0    0 -0.69457034492E+01  0.64354713278E-01 -0.66571060468E+01  0.96210186110E+01  0.51100000000E-03 0.  1.
         12    1    3    3    0    0 -0.13126590911E+02  0.87863910137E+01 -0.25206137123E+02  0.29746552820E+02  0.00000000000E+00 0. -1.
</event>
<event>
 7    1  0.1023000E-012  0.5052885E+02  0.7816164E-02  0.1300439E+00
        -11   -1    0    0    0    0  0.00000000000E+00  0.00000000000E+00  0.45593999997E+02  0.45594000000E+02  0.51100000000E-03 0. -1.
         11   -1    0    0    0    0 -0.00000000000E+00 -0.00000000000E+00 -0.45593999997E+02  0.45594000000E+02  0.51100000000E-03 0.  1.
    9900012    2    1    2    0    0 -0.28183060982E+02  0.17405375558E+02  0.23578255458E+02  0.50528853980E+02  0.29999982157E+02 0.  0.
        -12    1    1    2    0    0  0.28183060982E+02 -0.17405375558E+02 -0.23578255458E+02  0.40659146020E+02  0.00000000000E+00 0.  1.
         11    1    3    3    0    0 -0.80458339737E+01  0.67306409359E+01  0.10038132249E+02  0.14518990015E+02  0.51100000000E-03 0. -1.
        -11    1    3    3    0    0 -0.14014623531E+02 -0.54789810113E+01  0.10792225577E+02  0.18517587283E+02  0.51100000000E-03 0.  1.
        -12    1    3    3    0    0 -0.61226034782E+01  0.16153715634E+02  0.27478976325E+01  0.17492276682E+02  0.00000000000E+00 0.  1.
</event>
<event>
 7    1  0.1023000E-012  0.5052875E+02  0.7816164E-02  0.1300439E+00
        -11   -1    0    0    0    0  0.00000000000E+00  0.00000000000E+00  0.45593999997E+02  0.45594000000E+02  0.51100000000E-03 0.  1.
         11   -1    0    0    0    0 -0.00000000000E+00 -0.00000000000E+00 -0.45593999997E+02  0.45594000000E+02  0.51100000000E-03 0. -1.
    9900012    2    1    2    0    0 -0.35599328383E+02  0.13693492259E+02 -0.14083704394E+02  0.50528749625E+02  0.29999664958E+02 0.  0.
        -12    1    1    2    0    0  0.35599328383E+02 -0.13693492259E+02  0.14083704394E+02  0.40659250375E+02  0.00000000000E+00 0.  1.
         11    1    3    3    0    0 -0.91329886136E+01  0.10976379756E+02 -0.44362848212E+01  0.14952358237E+02  0.51100000000E-03 0. -1.
        -11    1    3    3    0    0 -0.25446555964E+02 -0.50421269121E+01 -0.48316348217E+01  0.26387401341E+02  0.51100000000E-03 0.  1.
        -12    1    3    3    0    0 -0.10197838058E+01  0.77592394155E+01 -0.48157847513E+01  0.91889900472E+01  0.00000000000E+00 0.  1.
</event>
<event>
 7    1  0.1023000E-012  0.5052886E+02  0.7816164E-02  0.1300439E+00
        -11   -1    0    0    0    0  0.00000000000E+00  0.00000000000E+00  0.45593999997E+02  0.45594000000E+02  0.51100000000E-03 0.  1.
         11   -1    0    0    0    0 -0.00000000000E+00 -0.00000000000E+00 -0.45593999997E+02  0.45594000000E+02  0.51100000000E-03 0. -1.
    9900012    2    1    2    0    0  0.32785848500E+02 -0.17904343484E+02 -0.16052678066E+02  0.50528857725E+02  0.29999993540E+02 0.  0.
        -12    1    1    2    0    0 -0.32785848500E+02  0.17904343484E+02  0.16052678066E+02  0.40659142275E+02  0.00000000000E+00 0.  1.
         11    1    3    3    0    0  0.23838890638E+01 -0.76637980536E+00 -0.12769957702E+02  0.13013150465E+02  0.51100000000E-03 0.  1.
        -11    1    3    3    0    0  0.19729467143E+02 -0.62531400630E+01 -0.69577289035E+01  0.21834917589E+02  0.51100000000E-03 0. -1.
         12    1    3    3    0    0  0.10672492294E+02 -0.10884823616E+02  0.36750085391E+01  0.15680789670E+02  0.00000000000E+00 0. -1.
</event>
<event>
 7    1  0.1023000E-012  0.5052886E+02  0.7816164E-02  0.1300439E+00
        -11   -1    0    0    0    0  0.00000000000E+00  0.00000000000E+00  0.45593999997E+02  0.45594000000E+02  0.51100000000E-03 0. -1.
         11   -1    0    0    0    0 -0.00000000000E+00 -0.00000000000E+00 -0.45593999997E+02  0.45594000000E+02  0.51100000000E-03 0.  1.
    9900012    2    1    2    0    0  0.16396918762E+02 -0.33599649164E+02  0.15980303353E+02  0.50528862477E+02  0.30000007986E+02 0.  0.
        -12    1    1    2    0    0 -0.16396918762E+02  0.33599649164E+02 -0.15980303353E+02  0.40659137523E+02  0.00000000000E+00 0.  1.
         11    1    3    3    0    0  0.29743632898E+01 -0.15039565585E+02  0.13927202938E+02  0.20712371952E+02  0.51100000000E-03 0. -1.
        -11    1    3    3    0    0  0.10194356450E+02 -0.11242829163E+02 -0.78505613159E+01  0.17086761666E+02  0.51100000000E-03 0.  1.
        -12    1    3    3    0    0  0.32281990218E+01 -0.73172544169E+01  0.99036617310E+01  0.12729728858E+02  0.00000000000E+00 0.  1.
</event>
<event>
 7    1  0.1023000E-012  0.5052886E+02  0.7816164E-02  0.1300439E+00
        -11   -1    0    0    0    0  0.00000000000E+00  0.00000000000E+00  0.45593999997E+02  0.45594000000E+02  0.51100000000E-03 0. -1.
         11   -1    0    0    0    0 -0.00000000000E+00 -0.00000000000E+00 -0.45593999997E+02  0.45594000000E+02  0.51100000000E-03 0.  1.
    9900012    2    1    2    0    0 -0.26838499586E+02 -0.30424815140E+02 -0.26816840223E+01  0.50528857540E+02  0.29999992980E+02 0.  0.
        -12    1    1    2    0    0  0.26838499586E+02  0.30424815140E+02  0.26816840223E+01  0.40659142460E+02  0.00000000000E+00 0.  1.
         11    1    3    3    0    0 -0.18202606846E+02 -0.12687409950E+02  0.47020615188E+01  0.22680710968E+02  0.51100000000E-03 0. -1.
        -11    1    3    3    0    0 -0.78750420018E+00 -0.10517348623E+02 -0.12217035900E+02  0.16139725876E+02  0.51100000000E-03 0.  1.
        -12    1    3    3    0    0 -0.78483885401E+01 -0.72200565674E+01  0.48332903585E+01  0.11708420696E+02  0.00000000000E+00 0.  1.
</event>
<event>
 7    1  0.1023000E-012  0.5052886E+02  0.7816164E-02  0.1300439E+00
        -11   -1    0    0    0    0  0.00000000000E+00  0.00000000000E+00  0.45593999997E+02  0.45594000000E+02  0.51100000000E-03 0.  1.
         11   -1    0    0    0    0 -0.00000000000E+00 -0.00000000000E+00 -0.45593999997E+02  0.45594000000E+02  0.51100000000E-03 0. -1.
    9900012    2    1    2    0    0  0.32899083981E+02  0.59849921641E+01 -0.23129982706E+02  0.50528856404E+02  0.29999989525E+02 0.  0.
        -12    1    1    2    0    0 -0.32899083981E+02 -0.59849921641E+01  0.23129982706E+02  0.40659143596E+02  0.00000000000E+00 0.  1.
         11    1    3    3    0    0  0.58915640103E+01  0.86767506323E+01 -0.16305209725E+02  0.19387016079E+02  0.51100000000E-03 0. -1.
        -11    1    3    3    0    0  0.11860962277E+02 -0.79488799320E+01 -0.21340847454E+01  0.14436808382E+02  0.51100000000E-03 0.  1.
         12    1    3    3    0    0  0.15146557694E+02  0.52571214638E+01 -0.46906882356E+01  0.16705031942E+02  0.00000000000E+00 0. -1.
</event>
<event>
 7    1  0.1023000E-012  0.5052889E+02  0.7816164E-02  0.1300439E+00
        -11   -1    0    0    0    0  0.00000000000E+00  0.00000000000E+00  0.45593999997E+02  0.45594000000E+02  0.51100000000E-03 0.  1.
         11   -1    0    0    0    0 -0.00000000000E+00 -0.00000000000E+00 -0.45593999997E+02  0.45594000000E+02  0.51100000000E-03 0. -1.
    9900012    2    1    2    0    0 -0.29823765558E+02  0.13386622557E+02 -0.24176531947E+02  0.50528888444E+02  0.30000086915E+02 0.  0.
        -12    1    1    2    0    0  0.29823765558E+02 -0.13386622557E+02  0.24176531947E+02  0.40659111556E+02  0.00000000000E+00 0.  1.
         11    1    3    3    0    0 -0.16580778095E+02 -0.83559402450E-01 -0.16113799981E+02  0.23121066898E+02  0.51100000000E-03 0. -1.
        -11    1    3    3    0    0 -0.12742011268E+02  0.17427114465E+02 -0.88678542329E+01  0.23338851914E+02  0.51100000000E-03 0.  1.
        -12    1    3    3    0    0 -0.50097619511E+00 -0.39569325052E+01  0.80512226761E+00  0.40689696318E+01  0.00000000000E+00 0.  1.
</event>
<event>
 7    1  0.1023000E-012  0.5052886E+02  0.7816164E-02  0.1300439E+00
        -11   -1    0    0    0    0  0.00000000000E+00  0.00000000000E+00  0.45593999997E+02  0.45594000000E+02  0.51100000000E-03 0.  1.
         11   -1    0    0    0    0 -0.00000000000E+00 -0.00000000000E+00 -0.45593999997E+02  0.45594000000E+02  0.51100000000E-03 0. -1.
    9900012    2    1    2    0    0 -0.22385414464E+02  0.33852192104E+02 -0.24673823124E+01  0.50528859988E+02  0.30000000421E+02 0.  0.
        -12    1    1    2    0    0  0.22385414464E+02 -0.33852192104E+02  0.24673823124E+01  0.40659140012E+02  0.00000000000E+00 0.  1.
         11    1    3    3    0    0 -0.23081417946E+02  0.28710209240E+02 -0.15004846003E+01  0.36868406845E+02  0.51100000000E-03 0. -1.
        -11    1    3    3    0    0  0.35759109246E+01  0.19600472702E+01 -0.58680692838E+01  0.71458492583E+01  0.51100000000E-03 0.  1.
        -12    1    3    3    0    0 -0.28799074430E+01  0.31819355941E+01  0.49011715717E+01  0.65146038851E+01  0.00000000000E+00 0.  1.
</event>
<event>
 7    1  0.1650438E-012  0.5052884E+02  0.7816164E-02  0.1300439E+00
        -11   -1    0    0    0    0  0.00000000000E+00  0.00000000000E+00  0.45593999997E+02  0.45594000000E+02  0.51100000000E-03 0. -1.
         11   -1    0    0    0    0 -0.00000000000E+00 -0.00000000000E+00 -0.45593999997E+02  0.45594000000E+02  0.51100000000E-03 0.  1.
    9900012    2    1    2    0    0  0.19381003409E+02  0.92218193223E+01  0.34532624328E+02  0.50528838821E+02  0.29999936080E+02 0.  0.
        -12    1    1    2    0    0 -0.19381003409E+02 -0.92218193223E+01 -0.34532624328E+02  0.40659161179E+02  0.00000000000E+00 0.  1.
         11    1    3    3    0    0  0.12968512925E+02  0.64925430507E+01  0.11480332731E+02  0.18496850614E+02  0.51100000000E-03 0. -1.
        -11    1    3    3    0    0 -0.21034022636E+01  0.84749595374E+01  0.19142704362E+02  0.21040255958E+02  0.51100000000E-03 0.  1.
        -12    1    3    3    0    0  0.85158927479E+01 -0.57456832658E+01  0.39095872361E+01  0.10991732249E+02  0.00000000000E+00 0.  1.
</event>
<event>
 7    1  0.1023000E-012  0.5052886E+02  0.7816164E-02  0.1300439E+00
        -11   -1    0    0    0    0  0.00000000000E+00  0.00000000000E+00  0.45593999997E+02  0.45594000000E+02  0.51100000000E-03 0.  1.
         11   -1    0    0    0    0 -0.00000000000E+00 -0.00000000000E+00 -0.45593999997E+02  0.45594000000E+02  0.51100000000E-03 0. -1.
    9900012    2    1    2    0    0  0.25480271121E+01 -0.37024025058E+02 -0.16610072185E+02  0.50528863614E+02  0.30000011441E+02 0.  0.
        -12    1    1    2    0    0 -0.25480271121E+01  0.37024025058E+02  0.16610072185E+02  0.40659136386E+02  0.00000000000E+00 0.  1.
         11    1    3    3    0    0  0.95081259156E+01 -0.33436674163E+02 -0.85901212939E+01  0.35807901665E+02  0.51100000000E-03 0. -1.
        -11    1    3    3    0    0 -0.17887596738E+01  0.13567090199E+01  0.15821439213E+01  0.27465433156E+01  0.51100000000E-03 0.  1.
         12    1    3    3    0    0 -0.51713391297E+01 -0.49440599149E+01 -0.96020948123E+01  0.11974418634E+02  0.00000000000E+00 0. -1.
</event>
<event>
 7    1  0.1023000E-012  0.5052890E+02  0.7816164E-02  0.1300439E+00
        -11   -1    0    0    0    0  0.00000000000E+00  0.00000000000E+00  0.45593999997E+02  0.45594000000E+02  0.51100000000E-03 0.  1.
         11   -1    0    0    0    0 -0.00000000000E+00 -0.00000000000E+00 -0.45593999997E+02  0.45594000000E+02  0.51100000000E-03 0. -1.
    9900012    2    1    2    0    0  0.97879244084E+01  0.22397872859E+02 -0.32491451158E+02  0.50528898052E+02  0.30000116119E+02 0.  0.
        -12    1    1    2    0    0 -0.97879244084E+01 -0.22397872859E+02  0.32491451158E+02  0.40659101948E+02  0.00000000000E+00 0.  1.
         11    1    3    3    0    0 -0.10001288159E+01  0.46382207992E+01 -0.25592698703E+02  0.26028822044E+02  0.51100000000E-03 0. -1.
        -11    1    3    3    0    0 -0.64877186875E+00  0.70880702258E+01  0.61975040701E+00  0.71446298219E+01  0.51100000000E-03 0.  1.
         12    1    3    3    0    0  0.11436825093E+02  0.10671581834E+02 -0.75185028625E+01  0.17355446187E+02  0.00000000000E+00 0. -1.
</event>
<event>
 7    1  0.1023000E-012  0.5052880E+02  0.7816164E-02  0.1300439E+00
        -11   -1    0    0    0    0  0.00000000000E+00  0.00000000000E+00  0.45593999997E+02  0.45594000000E+02  0.51100000000E-03 0. -1.
         11   -1    0    0    0    0 -0.00000000000E+00 -0.00000000000E+00 -0.45593999997E+02  0.45594000000E+02  0.51100000000E-03 0.  1.
    9900012    2    1    2    0    0 -0.18624807678E+02 -0.36012359755E+02  0.30654727952E+01  0.50528798832E+02  0.29999814529E+02 0.  0.
        -12    1    1    2    0    0  0.18624807678E+02  0.36012359755E+02 -0.30654727952E+01  0.40659201168E+02  0.00000000000E+00 0.  1.
         11    1    3    3    0    0 -0.17602600553E+02 -0.11093364023E+02  0.68678476115E+01  0.21910764538E+02  0.51100000000E-03 0. -1.
        -11    1    3    3    0    0  0.15913044165E+01 -0.91995801302E+01 -0.78263476475E+01  0.12182620493E+02  0.51100000000E-03 0.  1.
        -12    1    3    3    0    0 -0.26135115415E+01 -0.15719415602E+02  0.40239728312E+01  0.16435413800E+02  0.00000000000E+00 0.  1.
</event>
<event>
 7    1  0.1023000E-012  0.5052886E+02  0.7816164E-02  0.1300439E+00
        -11   -1    0    0    0    0  0.00000000000E+00  0.00000000000E+00  0.45593999997E+02  0.45594000000E+02  0.51100000000E-03 0. -1.
         11   -1    0    0    0    0 -0.00000000000E+00 -0.00000000000E+00 -0.45593999997E+02  0.45594000000E+02  0.51100000000E-03 0.  1.
    9900012    2    1    2    0    0 -0.27462330345E+02  0.29965372319E+02  0.10309394550E+01  0.50528856350E+02  0.29999989361E+02 0.  0.
        -12    1    1    2    0    0  0.27462330345E+02 -0.29965372319E+02 -0.10309394550E+01  0.40659143650E+02  0.00000000000E+00 0.  1.
         11    1    3    3    0    0 -0.45981349219E+01  0.24104573414E+01  0.74937815188E+01  0.91164637370E+01  0.51100000000E-03 0. -1.
        -11    1    3    3    0    0 -0.55063837702E+01  0.58600014403E+01 -0.10617957203E+02  0.13319192714E+02  0.51100000000E-03 0.  1.
         12    1    3    3    0    0 -0.17357811653E+02  0.21694913537E+02  0.41551151397E+01  0.28093199899E+02  0.00000000000E+00 0. -1.
</event>
<event>
 7    1  0.1023000E-012  0.5052886E+02  0.7816164E-02  0.1300439E+00
        -11   -1    0    0    0    0  0.00000000000E+00  0.00000000000E+00  0.45593999997E+02  0.45594000000E+02  0.51100000000E-03 0.  1.
         11   -1    0    0    0    0 -0.00000000000E+00 -0.00000000000E+00 -0.45593999997E+02  0.45594000000E+02  0.51100000000E-03 0. -1.
    9900012    2    1    2    0    0  0.24607425816E+01  0.36644428620E+02 -0.17444095341E+02  0.50528857545E+02  0.29999992994E+02 0.  0.
        -12    1    1    2    0    0 -0.24607425816E+01 -0.36644428620E+02  0.17444095341E+02  0.40659142455E+02  0.00000000000E+00 0.  1.
         11    1    3    3    0    0 -0.10974634552E+01  0.75668604149E+01  0.20371100693E+01  0.79127504870E+01  0.51100000000E-03 0. -1.
        -11    1    3    3    0    0  0.23227622849E+01 -0.39333370980E+01 -0.42518991219E+01  0.62405938630E+01  0.51100000000E-03 0.  1.
        -12    1    3    3    0    0  0.12354437519E+01  0.33010905303E+02 -0.15229306288E+02  0.36375513195E+02  0.00000000000E+00 0.  1.
</event>
<event>
 7    1  0.1114978E-012  0.5052886E+02  0.7816164E-02  0.1300439E+00
        -11   -1    0    0    0    0  0.00000000000E+00  0.00000000000E+00  0.45593999997E+02  0.45594000000E+02  0.51100000000E-03 0.  1.
         11   -1    0    0    0    0 -0.00000000000E+00 -0.00000000000E+00 -0.45593999997E+02  0.45594000000E+02  0.51100000000E-03 0. -1.
    9900012    2    1    2    0    0  0.36770234748E+02  0.11300079747E+02 -0.13169042875E+02  0.50528860118E+02  0.30000000815E+02 0.  0.
        -12    1    1    2    0    0 -0.36770234748E+02 -0.11300079747E+02  0.13169042875E+02  0.40659139882E+02  0.00000000000E+00 0.  1.
         11    1    3    3    0    0  0.15895657685E+02  0.14289543581E+02 -0.97147895457E+01  0.23478503470E+02  0.51100000000E-03 0. -1.
        -11    1    3    3    0    0  0.22875410887E+02  0.16080446207E+00 -0.17357468496E+01  0.22941732688E+02  0.51100000000E-03 0.  1.
        -12    1    3    3    0    0 -0.20008338240E+01 -0.31502682963E+01 -0.17185064798E+01  0.41086239608E+01  0.00000000000E+00 0.  1.
</event>
<event>
 7    1  0.1023000E-012  0.5052887E+02  0.7816164E-02  0.1300439E+00
        -11   -1    0    0    0    0  0.00000000000E+00  0.00000000000E+00  0.45593999997E+02  0.45594000000E+02  0.51100000000E-03 0.  1.
         11   -1    0    0    0    0 -0.00000000000E+00 -0.00000000000E+00 -0.45593999997E+02  0.45594000000E+02  0.51100000000E-03 0. -1.
    9900012    2    1    2    0    0 -0.11892986201E+02 -0.38854851483E+02  0.14221808320E+01  0.50528865690E+02  0.30000017750E+02 0.  0.
        -12    1    1    2    0    0  0.11892986201E+02  0.38854851483E+02 -0.14221808320E+01  0.40659134310E+02  0.00000000000E+00 0.  1.
         11    1    3    3    0    0  0.72374612093E+01 -0.19451700453E+02  0.11898597753E+01  0.20788584892E+02  0.51100000000E-03 0. -1.
        -11    1    3    3    0    0 -0.13128065461E+02 -0.50593239713E+01  0.14491832054E+01  0.14143655610E+02  0.51100000000E-03 0.  1.
        -12    1    3    3    0    0 -0.60023819496E+01 -0.14343827059E+02 -0.12168621487E+01  0.15596625188E+02  0.00000000000E+00 0.  1.
</event>
<event>
 7    1  0.1023000E-012  0.5052883E+02  0.7816164E-02  0.1300439E+00
        -11   -1    0    0    0    0  0.00000000000E+00  0.00000000000E+00  0.45593999997E+02  0.45594000000E+02  0.51100000000E-03 0. -1.
         11   -1    0    0    0    0 -0.00000000000E+00 -0.00000000000E+00 -0.45593999997E+02  0.45594000000E+02  0.51100000000E-03 0.  1.
    9900012    2    1    2    0    0  0.11663292632E+02 -0.35961948692E+02 -0.14962409683E+02  0.50528833109E+02  0.29999918718E+02 0.  0.
        -12    1    1    2    0    0 -0.11663292632E+02  0.35961948692E+02  0.14962409683E+02  0.40659166891E+02  0.00000000000E+00 0.  1.
         11    1    3    3    0    0  0.66978019846E+01 -0.43854125618E+01 -0.45569777906E+01  0.92118641765E+01  0.51100000000E-03 0. -1.
        -11    1    3    3    0    0 -0.10420032210E+01 -0.29813842347E+02 -0.15152830381E+02  0.33459815227E+02  0.51100000000E-03 0.  1.
        -12    1    3    3    0    0  0.60074938679E+01 -0.17626937837E+01  0.47473984886E+01  0.78571537059E+01  0.00000000000E+00 0.  1.
</event>
<event>
 7    1  0.1023000E-012  0.5052885E+02  0.7816164E-02  0.1300439E+00
        -11   -1    0    0    0    0  0.00000000000E+00  0.00000000000E+00  0.45593999997E+02  0.45594000000E+02  0.51100000000E-03 0.  1.
         11   -1    0    0    0    0 -0.00000000000E+00 -0.00000000000E+00 -0.45593999997E+02  0.45594000000E+02  0.51100000000E-03 0. -1.
    9900012    2    1    2    0    0 -0.76272854495E+01  0.29402133777E+02 -0.27027858289E+02  0.50528854932E+02  0.29999985052E+02 0.  0.
        -12    1    1    2    0    0  0.76272854495E+01 -0.29402133777E+02  0.27027858289E+02  0.40659145068E+02  0.00000000000E+00 0.  1.
         11    1    3    3    0    0  0.23045287777E+01 -0.31774251349E+01 -0.15773706649E+01  0.42302460745E+01  0.51100000000E-03 0. -1.
        -11    1    3    3    0    0  0.84904016016E+00  0.17695859851E+02 -0.20836932581E+02  0.27350358036E+02  0.51100000000E-03 0.  1.
        -12    1    3    3    0    0 -0.10780854387E+02  0.14883699061E+02 -0.46135550427E+01  0.18948250822E+02  0.00000000000E+00 0.  1.
</event>
<event>
 7    1  0.1023000E-012  0.5052885E+02  0.7816164E-02  0.1300439E+00
        -11   -1    0    0    0    0  0.00000000000E+00  0.00000000000E+00  0.45593999997E+02  0.45594000000E+02  0.51100000000E-03 0.  1.
         11   -1    0    0    0    0 -0.00000000000E+00 -0.00000000000E+00 -0.45593999997E+02  0.45594000000E+02  0.51100000000E-03 0. -1.
    9900012    2    1    2    0    0  0.28313257715E+02 -0.13308388207E+02 -0.25969454401E+02  0.50528851939E+02  0.29999975955E+02 0.  0.
        -12    1    1    2    0    0 -0.28313257715E+02  0.13308388207E+02  0.25969454401E+02  0.40659148061E+02  0.00000000000E+00 0.  1.
         11    1    3    3    0    0  0.13003111883E+02  0.12148607401E+00  0.34567604217E+01  0.13455291538E+02  0.51100000000E-03 0. -1.
        -11    1    3    3    0    0  0.96930918570E+01 -0.13833646204E+02 -0.22848376778E+02  0.28414329461E+02  0.51100000000E-03 0.  1.
         12    1    3    3    0    0  0.56170539750E+01  0.40377192303E+00 -0.65778380449E+01  0.86592309398E+01  0.00000000000E+00 0. -1.
</event>
<event>
 7    1  0.1023000E-012  0.5052886E+02  0.7816164E-02  0.1300439E+00
        -11   -1    0    0    0    0  0.00000000000E+00  0.00000000000E+00  0.45593999997E+02  0.45594000000E+02  0.51100000000E-03 0.  1.
         11   -1    0    0    0    0 -0.00000000000E+00 -0.00000000000E+00 -0.45593999997E+02  0.45594000000E+02  0.51100000000E-03 0. -1.
    9900012    2    1    2    0    0  0.36109129902E+02 -0.17568946220E+01 -0.18606708573E+02  0.50528861484E+02  0.30000004966E+02 0.  0.
        -12    1    1    2    0    0 -0.36109129902E+02  0.17568946220E+01  0.18606708573E+02  0.40659138516E+02  0.00000000000E+00 0.  1.
         11    1    3    3    0    0  0.13671562868E+02 -0.19257888237E+01 -0.61525232285E+00  0.13820232615E+02  0.51100000000E-03 0. -1.
        -11    1    3    3    0    0  0.21432848292E+02 -0.38872173057E+01 -0.21970626903E+02  0.30938420953E+02  0.51100000000E-03 0.  1.
        -12    1    3    3    0    0  0.10047187421E+01  0.40561115074E+01  0.39791706527E+01  0.57702079161E+01  0.00000000000E+00 0.  1.
</event>
<event>
 7    1  0.1023000E-012  0.5052887E+02  0.7816164E-02  0.1300439E+00
        -11   -1    0    0    0    0  0.00000000000E+00  0.00000000000E+00  0.45593999997E+02  0.45594000000E+02  0.51100000000E-03 0.  1.
         11   -1    0    0    0    0 -0.00000000000E+00 -0.00000000000E+00 -0.45593999997E+02  0.45594000000E+02  0.51100000000E-03 0. -1.
    9900012    2    1    2    0    0 -0.75942242554E+01  0.18200900805E+02 -0.35555872773E+02  0.50528866699E+02  0.30000020818E+02 0.  0.
        -12    1    1    2    0    0  0.75942242554E+01 -0.18200900805E+02  0.35555872773E+02  0.40659133301E+02  0.00000000000E+00 0.  1.
         11    1    3    3    0    0 -0.34287107911E+01  0.66319220598E+01 -0.27047469721E+01  0.79406614548E+01  0.51100000000E-03 0. -1.
        -11    1    3    3    0    0  0.51056138165E+01  0.80122925488E+01 -0.31082363019E+02  0.32501960178E+02  0.51100000000E-03 0.  1.
        -12    1    3    3    0    0 -0.92711272808E+01  0.35566861967E+01 -0.17687627820E+01  0.10086245066E+02  0.00000000000E+00 0.  1.
</event>
<event>
 7    1  0.1023000E-012  0.5052886E+02  0.7816164E-02  0.1300439E+00
        -11   -1    0    0    0    0  0.00000000000E+00  0.00000000000E+00  0.45593999997E+02  0.45594000000E+02  0.51100000000E-03 0.  1.
         11   -1    0    0    0    0 -0.00000000000E+00 -0.00000000000E+00 -0.45593999997E+02  0.45594000000E+02  0.51100000000E-03 0. -1.
    9900012    2    1    2    0    0  0.15559893725E+02 -0.40415286322E+01 -0.37345971902E+02  0.50528857563E+02  0.29999993048E+02 0.  0.
        -12    1    1    2    0    0 -0.15559893725E+02  0.40415286322E+01  0.37345971902E+02  0.40659142437E+02  0.00000000000E+00 0.  1.
         11    1    3    3    0    0  0.16865000785E+01  0.13306252562E+01 -0.33893107612E+00  0.21747920873E+01  0.51100000000E-03 0. -1.
        -11    1    3    3    0    0  0.33384442747E+01 -0.17457740140E+01  0.42147793302E+01  0.56530789971E+01  0.51100000000E-03 0.  1.
        -12    1    3    3    0    0  0.10534949371E+02 -0.36263798744E+01 -0.41221820156E+02  0.42700986479E+02  0.00000000000E+00 0.  1.
</event>
<event>
 7    1  0.1023000E-012  0.5052885E+02  0.7816164E-02  0.1300439E+00
        -11   -1    0    0    0    0  0.00000000000E+00  0.00000000000E+00  0.45593999997E+02  0.45594000000E+02  0.51100000000E-03 0.  1.
         11   -1    0    0    0    0 -0.00000000000E+00 -0.00000000000E+00 -0.45593999997E+02  0.45594000000E+02  0.51100000000E-03 0. -1.
    9900012    2    1    2    0    0 -0.27548989791E+02  0.22690142608E+02 -0.19477607838E+02  0.50528848298E+02  0.29999964886E+02 0.  0.
        -12    1    1    2    0    0  0.27548989791E+02 -0.22690142608E+02  0.19477607838E+02  0.40659151702E+02  0.00000000000E+00 0.  1.
         11    1    3    3    0    0 -0.45178015718E+01  0.33695360473E+01 -0.12071708838E+02  0.13322554513E+02  0.51100000000E-03 0. -1.
        -11    1    3    3    0    0 -0.23057002458E+01  0.15089088471E+02 -0.40122628812E+01  0.15782746852E+02  0.51100000000E-03 0.  1.
        -12    1    3    3    0    0 -0.20725487973E+02  0.42315180893E+01 -0.33936361185E+01  0.21423546932E+02  0.00000000000E+00 0.  1.
</event>
<event>
 7    1  0.1023000E-012  0.5052887E+02  0.7816164E-02  0.1300439E+00
        -11   -1    0    0    0    0  0.00000000000E+00  0.00000000000E+00  0.45593999997E+02  0.45594000000E+02  0.51100000000E-03 0.  1.
         11   -1    0    0    0    0 -0.00000000000E+00 -0.00000000000E+00 -0.45593999997E+02  0.45594000000E+02  0.51100000000E-03 0. -1.
    9900012    2    1    2    0    0  0.88291245858E+01  0.30789275680E+02 -0.25044596014E+02  0.50528871537E+02  0.30000035523E+02 0.  0.
        -12    1    1    2    0    0 -0.88291245858E+01 -0.30789275680E+02  0.25044596014E+02  0.40659128463E+02  0.00000000000E+00 0.  1.
         11    1    3    3    0    0 -0.35465404162E-01  0.30830166779E+01 -0.93268335376E+01  0.98232415083E+01  0.51100000000E-03 0. -1.
        -11    1    3    3    0    0  0.16254942973E+02  0.24111990547E+02 -0.10241701944E+02  0.30830240320E+02  0.51100000000E-03 0.  1.
        -12    1    3    3    0    0 -0.73903529831E+01  0.35942684552E+01 -0.54760605322E+01  0.98753897084E+01  0.00000000000E+00 0.  1.
</event>
<event>
 7    1  0.1023000E-012  0.5052885E+02  0.7816164E-02  0.1300439E+00
        -11   -1    0    0    0    0  0.00000000000E+00  0.00000000000E+00  0.45593999997E+02  0.45594000000E+02  0.51100000000E-03 0. -1.
         11   -1    0    0    0    0 -0.00000000000E+00 -0.00000000000E+00 -0.45593999997E+02  0.45594000000E+02  0.51100000000E-03 0.  1.
    9900012    2    1    2    0    0  0.37849405612E+02 -0.14646877179E+02 -0.24612261569E+01  0.50528854037E+02  0.29999982330E+02 0.  0.
        -12    1    1    2    0    0 -0.37849405612E+02  0.14646877179E+02  0.24612261569E+01  0.40659145963E+02  0.00000000000E+00 0.  1.
         11    1    3    3    0    0  0.18607052701E+02 -0.17054311764E+02  0.47650942764E+01  0.25686145754E+02  0.51100000000E-03 0. -1.
        -11    1    3    3    0    0  0.11641813538E+01  0.47597315133E+01  0.72537918610E+00  0.49534369410E+01  0.51100000000E-03 0.  1.
         12    1    3    3    0    0  0.18078171557E+02 -0.23522969289E+01 -0.79516996194E+01  0.19889271342E+02  0.00000000000E+00 0. -1.
</event>
<event>
 7    1  0.1023000E-012  0.5052887E+02  0.7816164E-02  0.1300439E+00
        -11   -1    0    0    0    0  0.00000000000E+00  0.00000000000E+00  0.45593999997E+02  0.45594000000E+02  0.51100000000E-03 0.  1.
         11   -1    0    0    0    0 -0.00000000000E+00 -0.00000000000E+00 -0.45593999997E+02  0.45594000000E+02  0.51100000000E-03 0. -1.
    9900012    2    1    2    0    0  0.14189646131E+02  0.27860371394E+02 -0.25992664486E+02  0.50528868693E+02  0.30000026880E+02 0.  0.
        -12    1    1    2    0    0 -0.14189646131E+02 -0.27860371394E+02  0.25992664486E+02  0.40659131307E+02  0.00000000000E+00 0.  1.
         11    1    3    3    0    0 -0.29389943168E+01  0.17926431488E+02 -0.16001479473E+02  0.24208303928E+02  0.51100000000E-03 0. -1.
        -11    1    3    3    0    0  0.12310486754E+02  0.43051985547E+01  0.98384535238E+00  0.13078637951E+02  0.51100000000E-03 0.  1.
        -12    1    3    3    0    0  0.48181536939E+01  0.56287413514E+01 -0.10975030366E+02  0.13241926814E+02  0.00000000000E+00 0.  1.
</event>
<event>
 7    1  0.1023000E-012  0.5052886E+02  0.7816164E-02  0.1300439E+00
        -11   -1    0    0    0    0  0.00000000000E+00  0.00000000000E+00  0.45593999997E+02  0.45594000000E+02  0.51100000000E-03 0.  1.
         11   -1    0    0    0    0 -0.00000000000E+00 -0.00000000000E+00 -0.45593999997E+02  0.45594000000E+02  0.51100000000E-03 0. -1.
    9900012    2    1    2    0    0 -0.33823466232E+02 -0.94105244376E+01 -0.20508060276E+02  0.50528863579E+02  0.30000011336E+02 0.  0.
        -12    1    1    2    0    0  0.33823466232E+02  0.94105244376E+01  0.20508060276E+02  0.40659136421E+02  0.00000000000E+00 0.  1.
         11    1    3    3    0    0 -0.19331931697E+02  0.18070479858E+01 -0.11263878249E+01  0.19448849718E+02  0.51100000000E-03 0. -1.
        -11    1    3    3    0    0 -0.93182488741E+01 -0.13718370510E+02 -0.81821175764E+01  0.18492444398E+02  0.51100000000E-03 0.  1.
        -12    1    3    3    0    0 -0.51732856615E+01  0.25007980861E+01 -0.11199554875E+02  0.12587569464E+02  0.00000000000E+00 0.  1.
</event>
<event>
 7    1  0.1023000E-012  0.5052887E+02  0.7816164E-02  0.1300439E+00
        -11   -1    0    0    0    0  0.00000000000E+00  0.00000000000E+00  0.45593999997E+02  0.45594000000E+02  0.51100000000E-03 0.  1.
         11   -1    0    0    0    0 -0.00000000000E+00 -0.00000000000E+00 -0.45593999997E+02  0.45594000000E+02  0.51100000000E-03 0. -1.
    9900012    2    1    2    0    0  0.20551058234E+02  0.31332475302E+02 -0.15782744622E+02  0.50528867804E+02  0.30000024177E+02 0.  0.
        -12    1    1    2    0    0 -0.20551058234E+02 -0.31332475302E+02  0.15782744622E+02  0.40659132196E+02  0.00000000000E+00 0.  1.
         11    1    3    3    0    0  0.93650194914E+01  0.28401786315E+02 -0.19695617810E+02  0.35808971182E+02  0.51100000000E-03 0. -1.
        -11    1    3    3    0    0  0.66848747762E+01 -0.18274327650E+01 -0.29234658085E+00  0.69363194901E+01  0.51100000000E-03 0.  1.
         12    1    3    3    0    0  0.45011639668E+01  0.47581217522E+01  0.42052197685E+01  0.77835771318E+01  0.00000000000E+00 0. -1.
</event>
<event>
 7    1  0.1023000E-012  0.5052886E+02  0.7816164E-02  0.1300439E+00
        -11   -1    0    0    0    0  0.00000000000E+00  0.00000000000E+00  0.45593999997E+02  0.45594000000E+02  0.51100000000E-03 0. -1.
         11   -1    0    0    0    0 -0.00000000000E+00 -0.00000000000E+00 -0.45593999997E+02  0.45594000000E+02  0.51100000000E-03 0.  1.
    9900012    2    1    2    0    0  0.24133315285E+02  0.31177403742E+02  0.99357003854E+01  0.50528861385E+02  0.30000004665E+02 0.  0.
        -12    1    1    2    0    0 -0.24133315285E+02 -0.31177403742E+02 -0.99357003854E+01  0.40659138615E+02  0.00000000000E+00 0.  1.
         11    1    3    3    0    0  0.25931291286E+02  0.26260839648E+02  0.13967117868E+02  0.39460663306E+02  0.51100000000E-03 0. -1.
        -11    1    3    3    0    0  0.34533293123E+01  0.60587504760E+00 -0.11688210348E+01  0.36957693089E+01  0.51100000000E-03 0.  1.
         12    1    3    3    0    0 -0.52513053125E+01  0.43106890467E+01 -0.28625964475E+01  0.73724287697E+01  0.00000000000E+00 0. -1.
</event>
<event>
 7    1  0.1023000E-012  0.5052885E+02  0.7816164E-02  0.1300439E+00
        -11   -1    0    0    0    0  0.00000000000E+00  0.00000000000E+00  0.45593999997E+02  0.45594000000E+02  0.51100000000E-03 0.  1.
         11   -1    0    0    0    0 -0.00000000000E+00 -0.00000000000E+00 -0.45593999997E+02  0.45594000000E+02  0.51100000000E-03 0. -1.
    9900012    2    1    2    0    0 -0.15469932809E+02  0.14757847835E+02 -0.34584003185E+02  0.50528853795E+02  0.29999981594E+02 0.  0.
        -12    1    1    2    0    0  0.15469932809E+02 -0.14757847835E+02  0.34584003185E+02  0.40659146205E+02  0.00000000000E+00 0.  1.
         11    1    3    3    0    0 -0.73803096949E+01  0.93403764636E+01 -0.16195632427E+02  0.20100002827E+02  0.51100000000E-03 0. -1.
        -11    1    3    3    0    0  0.73907968821E+00  0.64482210010E+01  0.30866171054E+01  0.71870020370E+01  0.51100000000E-03 0.  1.
        -12    1    3    3    0    0 -0.88287028019E+01 -0.10307496292E+01 -0.21474987864E+02  0.23241848930E+02  0.00000000000E+00 0.  1.
</event>
<event>
 7    1  0.1023000E-012  0.5052886E+02  0.7816164E-02  0.1300439E+00
        -11   -1    0    0    0    0  0.00000000000E+00  0.00000000000E+00  0.45593999997E+02  0.45594000000E+02  0.51100000000E-03 0.  1.
         11   -1    0    0    0    0 -0.00000000000E+00 -0.00000000000E+00 -0.45593999997E+02  0.45594000000E+02  0.51100000000E-03 0. -1.
    9900012    2    1    2    0    0 -0.69750670993E+00 -0.13253638525E+02 -0.38432021290E+02  0.50528859451E+02  0.29999998787E+02 0.  0.
        -12    1    1    2    0    0  0.69750670993E+00  0.13253638525E+02  0.38432021290E+02  0.40659140549E+02  0.00000000000E+00 0.  1.
         11    1    3    3    0    0  0.39983872088E+01  0.94969882333E+00 -0.15037823726E+02  0.15589264601E+02  0.51100000000E-03 0. -1.
        -11    1    3    3    0    0  0.28657278466E+01 -0.11607697483E+02 -0.20284217961E+01  0.12127057854E+02  0.51100000000E-03 0.  1.
        -12    1    3    3    0    0 -0.75616217653E+01 -0.25956398660E+01 -0.21365775768E+02  0.22812536996E+02  0.00000000000E+00 0.  1.
</event>
<event>
 7    1  0.1023000E-012  0.5052886E+02  0.7816164E-02  0.1300439E+00
        -11   -1    0    0    0    0  0.00000000000E+00  0.00000000000E+00  0.45593999997E+02  0.45594000000E+02  0.51100000000E-03 0.  1.
         11   -1    0    0    0    0 -0.00000000000E+00 -0.00000000000E+00 -0.45593999997E+02  0.45594000000E+02  0.51100000000E-03 0. -1.
    9900012    2    1    2    0    0 -0.12380216406E+02  0.36591107172E+02 -0.12688049283E+02  0.50528862319E+02  0.30000007505E+02 0.  0.
        -12    1    1    2    0    0  0.12380216406E+02 -0.36591107172E+02  0.12688049283E+02  0.40659137681E+02  0.00000000000E+00 0.  1.
         11    1    3    3    0    0 -0.67584244375E+01  0.34476195793E+02 -0.18411506480E+02  0.39664441864E+02  0.51100000000E-03 0. -1.
        -11    1    3    3    0    0 -0.41001318398E+01  0.10462956232E+01 -0.59945397381E+00  0.42737759608E+01  0.51100000000E-03 0.  1.
         12    1    3    3    0    0 -0.15216601290E+01  0.10686157560E+01  0.63229111707E+01  0.65906444946E+01  0.00000000000E+00 0. -1.
</event>
<event>
 7    1  0.1023000E-012  0.5052886E+02  0.7816164E-02  0.1300439E+00
        -11   -1    0    0    0    0  0.00000000000E+00  0.00000000000E+00  0.45593999997E+02  0.45594000000E+02  0.51100000000E-03 0.  1.
         11   -1    0    0    0    0 -0.00000000000E+00 -0.00000000000E+00 -0.45593999997E+02  0.45594000000E+02  0.51100000000E-03 0. -1.
    9900012    2    1    2    0    0  0.22593502556E+02  0.32096589564E+02 -0.10606985360E+02  0.50528861325E+02  0.30000004484E+02 0.  0.
        -12    1    1    2    0    0 -0.22593502556E+02 -0.32096589564E+02  0.10606985360E+02  0.40659138675E+02  0.00000000000E+00 0.  1.
         11    1    3    3    0    0  0.23540543065E+02  0.11910923835E+02  0.14187415151E+01  0.26420448561E+02  0.51100000000E-03 0. -1.
        -11    1    3    3    0    0 -0.16306063638E+01  0.20692211725E+01 -0.67749987498E+00  0.27202131747E+01  0.51100000000E-03 0.  1.
         12    1    3    3    0    0  0.68356585454E+00  0.18116444556E+02 -0.11348227000E+02  0.21388199590E+02  0.00000000000E+00 0. -1.
</event>
<event>
 7    1  0.1023000E-012  0.5052884E+02  0.7816164E-02  0.1300439E+00
        -11   -1    0    0    0    0  0.00000000000E+00  0.00000000000E+00  0.45593999997E+02  0.45594000000E+02  0.51100000000E-03 0. -1.
         11   -1    0    0    0    0 -0.00000000000E+00 -0.00000000000E+00 -0.45593999997E+02  0.45594000000E+02  0.51100000000E-03 0.  1.
    9900012    2    1    2    0    0  0.26452600429E+02  0.22710759603E+02  0.20920054074E+02  0.50528839486E+02  0.29999938103E+02 0.  0.
        -12    1    1    2    0    0 -0.26452600429E+02 -0.22710759603E+02 -0.20920054074E+02  0.40659160514E+02  0.00000000000E+00 0.  1.
         11    1    3    3    0    0  0.27327850324E+02  0.12988957008E+02  0.15951710564E+02  0.34204991999E+02  0.51100000000E-03 0. -1.
        -11    1    3    3    0    0 -0.61358454379E+01  0.37833969615E+01  0.42256829710E+01  0.83557817491E+01  0.51100000000E-03 0.  1.
        -12    1    3    3    0    0  0.52605955427E+01  0.59384056332E+01  0.74266053966E+00  0.79680657380E+01  0.00000000000E+00 0.  1.
</event>
<event>
 7    1  0.1023000E-012  0.5052887E+02  0.7816164E-02  0.1300439E+00
        -11   -1    0    0    0    0  0.00000000000E+00  0.00000000000E+00  0.45593999997E+02  0.45594000000E+02  0.51100000000E-03 0. -1.
         11   -1    0    0    0    0 -0.00000000000E+00 -0.00000000000E+00 -0.45593999997E+02  0.45594000000E+02  0.51100000000E-03 0.  1.
    9900012    2    1    2    0    0  0.23553832196E+02 -0.31692834985E+02  0.96925759625E+01  0.50528870284E+02  0.30000031715E+02 0.  0.
        -12    1    1    2    0    0 -0.23553832196E+02  0.31692834985E+02 -0.96925759625E+01  0.40659129716E+02  0.00000000000E+00 0.  1.
         11    1    3    3    0    0  0.10820665164E+02 -0.31885541183E+02  0.12391829105E+02  0.35879408579E+02  0.51100000000E-03 0. -1.
        -11    1    3    3    0    0  0.88094768456E+01 -0.30180137022E+01 -0.14106332887E+01  0.94183425047E+01  0.51100000000E-03 0.  1.
         12    1    3    3    0    0  0.39236901865E+01  0.32107199008E+01 -0.12886198538E+01  0.52311192004E+01  0.00000000000E+00 0. -1.
</event>
<event>
 7    1  0.1023000E-012  0.5052887E+02  0.7816164E-02  0.1300439E+00
        -11   -1    0    0    0    0  0.00000000000E+00  0.00000000000E+00  0.45593999997E+02  0.45594000000E+02  0.51100000000E-03 0. -1.
         11   -1    0    0    0    0 -0.00000000000E+00 -0.00000000000E+00 -0.45593999997E+02  0.45594000000E+02  0.51100000000E-03 0.  1.
    9900012    2    1    2    0    0  0.15312217237E+02  0.27715433926E+02  0.25505994556E+02  0.50528867782E+02  0.30000024111E+02 0.  0.
        -12    1    1    2    0    0 -0.15312217237E+02 -0.27715433926E+02 -0.25505994556E+02  0.40659132218E+02  0.00000000000E+00 0.  1.
         11    1    3    3    0    0  0.48242272786E+01  0.18526223639E+02  0.24073848471E+02  0.30757833338E+02  0.51100000000E-03 0. -1.
        -11    1    3    3    0    0  0.71391470451E+01  0.10775037187E+02 -0.36966897485E+01  0.13443748073E+02  0.51100000000E-03 0.  1.
         12    1    3    3    0    0  0.33488429131E+01 -0.15858268998E+01  0.51288358338E+01  0.63272863712E+01  0.00000000000E+00 0. -1.
</event>
<event>
 7    1  0.1023000E-012  0.5052886E+02  0.7816164E-02  0.1300439E+00
        -11   -1    0    0    0    0  0.00000000000E+00  0.00000000000E+00  0.45593999997E+02  0.45594000000E+02  0.51100000000E-03 0. -1.
         11   -1    0    0    0    0 -0.00000000000E+00 -0.00000000000E+00 -0.45593999997E+02  0.45594000000E+02  0.51100000000E-03 0.  1.
    9900012    2    1    2    0    0 -0.10430794358E+02 -0.10932802911E+02  0.37747023855E+02  0.50528862523E+02  0.30000008126E+02 0.  0.
        -12    1    1    2    0    0  0.10430794358E+02  0.10932802911E+02 -0.37747023855E+02  0.40659137477E+02  0.00000000000E+00 0.  1.
         11    1    3    3    0    0  0.42634827952E+01 -0.91055468080E+01  0.15719802320E+02  0.18660130049E+02  0.51100000000E-03 0. -1.
        -11    1    3    3    0    0 -0.16944556727E+02  0.32752791377E+01  0.18339631059E+02  0.25183080108E+02  0.51100000000E-03 0.  1.
        -12    1    3    3    0    0  0.22502795733E+01 -0.51025352405E+01  0.36875904761E+01  0.66856523659E+01  0.00000000000E+00 0.  1.
</event>
<event>
 7    1  0.1023000E-012  0.5052886E+02  0.7816164E-02  0.1300439E+00
        -11   -1    0    0    0    0  0.00000000000E+00  0.00000000000E+00  0.45593999997E+02  0.45594000000E+02  0.51100000000E-03 0.  1.
         11   -1    0    0    0    0 -0.00000000000E+00 -0.00000000000E+00 -0.45593999997E+02  0.45594000000E+02  0.51100000000E-03 0. -1.
    9900012    2    1    2    0    0  0.34396132609E+02 -0.22417131058E+01 -0.21564929980E+02  0.50528863005E+02  0.30000009591E+02 0.  0.
        -12    1    1    2    0    0 -0.34396132609E+02  0.22417131058E+01  0.21564929980E+02  0.40659136995E+02  0.00000000000E+00 0.  1.
         11    1    3    3    0    0  0.49615489326E+01 -0.41342483521E+01 -0.15690586106E+02  0.16967718463E+02  0.51100000000E-03 0. -1.
        -11    1    3    3    0    0  0.15359038981E+02  0.84300689444E+01 -0.33375313922E+01  0.17835505512E+02  0.51100000000E-03 0.  1.
         12    1    3    3    0    0  0.14075544696E+02 -0.65375336981E+01 -0.25368124821E+01  0.15725639030E+02  0.00000000000E+00 0. -1.
</event>
<event>
 7    1  0.1023000E-012  0.5052886E+02  0.7816164E-02  0.1300439E+00
        -11   -1    0    0    0    0  0.00000000000E+00  0.00000000000E+00  0.45593999997E+02  0.45594000000E+02  0.51100000000E-03 0. -1.
         11   -1    0    0    0    0 -0.00000000000E+00 -0.00000000000E+00 -0.45593999997E+02  0.45594000000E+02  0.51100000000E-03 0.  1.
    9900012    2    1    2    0    0  0.16835607695E+00  0.23213279361E+02  0.33380848908E+02  0.50528858884E+02  0.29999997065E+02 0.  0.
        -12    1    1    2    0    0 -0.16835607695E+00 -0.23213279361E+02 -0.33380848908E+02  0.40659141116E+02  0.00000000000E+00 0.  1.
         11    1    3    3    0    0 -0.10914392071E+02  0.17054571853E+02  0.27768033796E+02  0.34366350934E+02  0.51100000000E-03 0. -1.
        -11    1    3    3    0    0  0.45724950542E+00  0.18749404020E+01 -0.16992784710E+01  0.25713860473E+01  0.51100000000E-03 0.  1.
         12    1    3    3    0    0  0.10625498642E+02  0.42837671058E+01  0.73120935828E+01  0.13591121903E+02  0.00000000000E+00 0. -1.
</event>
<event>
 7    1  0.1023000E-012  0.5052886E+02  0.7816164E-02  0.1300439E+00
        -11   -1    0    0    0    0  0.00000000000E+00  0.00000000000E+00  0.45593999997E+02  0.45594000000E+02  0.51100000000E-03 0.  1.
         11   -1    0    0    0    0 -0.00000000000E+00 -0.00000000000E+00 -0.45593999997E+02  0.45594000000E+02  0.51100000000E-03 0. -1.
    9900012    2    1    2    0    0  0.18890871760E+02  0.85496087476E+01 -0.34974344616E+02  0.50528860475E+02  0.30000001898E+02 0.  0.
        -12    1    1    2    0    0 -0.18890871760E+02 -0.85496087476E+01  0.34974344616E+02  0.40659139525E+02  0.00000000000E+00 0.  1.
         11    1    3    3    0    0  0.13321426416E+02 -0.18150527724E+01 -0.25605284180E+02  0.28920328430E+02  0.51100000000E-03 0. -1.
        -11    1    3    3    0    0  0.47281663446E+01  0.14026642175E+02 -0.45255029640E+01  0.15478450343E+02  0.51100000000E-03 0.  1.
         12    1    3    3    0    0  0.84127900025E+00 -0.36619806550E+01 -0.48435574726E+01  0.61300817013E+01  0.00000000000E+00 0. -1.
</event>
<event>
 7    1  0.1023000E-012  0.5052886E+02  0.7816164E-02  0.1300439E+00
        -11   -1    0    0    0    0  0.00000000000E+00  0.00000000000E+00  0.45593999997E+02  0.45594000000E+02  0.51100000000E-03 0. -1.
         11   -1    0    0    0    0 -0.00000000000E+00 -0.00000000000E+00 -0.45593999997E+02  0.45594000000E+02  0.51100000000E-03 0.  1.
    9900012    2    1    2    0    0 -0.21502254836E+02 -0.26466428824E+02  0.22143776243E+02  0.50528860265E+02  0.30000001260E+02 0.  0.
        -12    1    1    2    0    0  0.21502254836E+02  0.26466428824E+02 -0.22143776243E+02  0.40659139735E+02  0.00000000000E+00 0.  1.
         11    1    3    3    0    0 -0.14293083883E+02 -0.11954711683E+02  0.41799375159E+01  0.19096577081E+02  0.51100000000E-03 0. -1.
        -11    1    3    3    0    0  0.63748430922E+01 -0.21945908459E+01  0.17749240666E+01  0.69717436223E+01  0.51100000000E-03 0.  1.
        -12    1    3    3    0    0 -0.13584014045E+02 -0.12317126295E+02  0.16188914661E+02  0.24460539561E+02  0.00000000000E+00 0.  1.
</event>
<event>
 7    1  0.1023000E-012  0.5052887E+02  0.7816164E-02  0.1300439E+00
        -11   -1    0    0    0    0  0.00000000000E+00  0.00000000000E+00  0.45593999997E+02  0.45594000000E+02  0.51100000000E-03 0.  1.
         11   -1    0    0    0    0 -0.00000000000E+00 -0.00000000000E+00 -0.45593999997E+02  0.45594000000E+02  0.51100000000E-03 0. -1.
    9900012    2    1    2    0    0  0.10553832210E+02 -0.93432792229E+01 -0.38137706206E+02  0.50528869714E+02  0.30000029982E+02 0.  0.
        -12    1    1    2    0    0 -0.10553832210E+02  0.93432792229E+01  0.38137706206E+02  0.40659130286E+02  0.00000000000E+00 0.  1.
         11    1    3    3    0    0  0.16061169181E+02 -0.94710120299E+01 -0.26181231590E+02  0.32142154753E+02  0.51100000000E-03 0. -1.
        -11    1    3    3    0    0 -0.29526733104E+01  0.14079276228E+01  0.22016764415E+01  0.39430849957E+01  0.51100000000E-03 0.  1.
        -12    1    3    3    0    0 -0.25546636611E+01 -0.12801948158E+01 -0.14158151057E+02  0.14443629965E+02  0.00000000000E+00 0.  1.
</event>
<event>
 7    1  0.1023000E-012  0.5052888E+02  0.7816164E-02  0.1300439E+00
        -11   -1    0    0    0    0  0.00000000000E+00  0.00000000000E+00  0.45593999997E+02  0.45594000000E+02  0.51100000000E-03 0.  1.
         11   -1    0    0    0    0 -0.00000000000E+00 -0.00000000000E+00 -0.45593999997E+02  0.45594000000E+02  0.51100000000E-03 0. -1.
    9900012    2    1    2    0    0 -0.35921360198E+02 -0.18720709925E+02  0.35149480525E+01  0.50528880994E+02  0.30000064269E+02 0.  0.
        -12    1    1    2    0    0  0.35921360198E+02  0.18720709925E+02 -0.35149480525E+01  0.40659119006E+02  0.00000000000E+00 0.  1.
         11    1    3    3    0    0 -0.49932205697E+01  0.67946109705E+01  0.12489276659E+01  0.85240137537E+01  0.51100000000E-03 0. -1.
        -11    1    3    3    0    0 -0.37798899680E+01 -0.93059644227E+01 -0.15243507791E+01  0.10159339918E+02  0.51100000000E-03 0.  1.
         12    1    3    3    0    0 -0.27148249660E+02 -0.16209356473E+02  0.37903711657E+01  0.31845527322E+02  0.00000000000E+00 0. -1.
</event>
<event>
 7    1  0.1023000E-012  0.5052886E+02  0.7816164E-02  0.1300439E+00
        -11   -1    0    0    0    0  0.00000000000E+00  0.00000000000E+00  0.45593999997E+02  0.45594000000E+02  0.51100000000E-03 0.  1.
         11   -1    0    0    0    0 -0.00000000000E+00 -0.00000000000E+00 -0.45593999997E+02  0.45594000000E+02  0.51100000000E-03 0. -1.
    9900012    2    1    2    0    0  0.20141895932E+02 -0.78163244450E+01 -0.34443796659E+02  0.50528855544E+02  0.29999986913E+02 0.  0.
        -12    1    1    2    0    0 -0.20141895932E+02  0.78163244450E+01  0.34443796659E+02  0.40659144456E+02  0.00000000000E+00 0.  1.
         11    1    3    3    0    0  0.12906398422E+02 -0.58039581085E+00 -0.36119508859E+01  0.13414848825E+02  0.51100000000E-03 0. -1.
        -11    1    3    3    0    0  0.11563290537E+02 -0.92014096033E+01 -0.27778508605E+02  0.31464601814E+02  0.51100000000E-03 0.  1.
        -12    1    3    3    0    0 -0.43277930268E+01  0.19654809692E+01 -0.30533371677E+01  0.56494049052E+01  0.00000000000E+00 0.  1.
</event>
<event>
 7    1  0.1023000E-012  0.5052886E+02  0.7816164E-02  0.1300439E+00
        -11   -1    0    0    0    0  0.00000000000E+00  0.00000000000E+00  0.45593999997E+02  0.45594000000E+02  0.51100000000E-03 0.  1.
         11   -1    0    0    0    0 -0.00000000000E+00 -0.00000000000E+00 -0.45593999997E+02  0.45594000000E+02  0.51100000000E-03 0. -1.
    9900012    2    1    2    0    0  0.73559856041E+01  0.25615147928E+02 -0.30706987339E+02  0.50528863278E+02  0.30000010419E+02 0.  0.
        -12    1    1    2    0    0 -0.73559856041E+01 -0.25615147928E+02  0.30706987339E+02  0.40659136722E+02  0.00000000000E+00 0.  1.
         11    1    3    3    0    0 -0.78739809003E+01  0.18856297989E+02 -0.17136610949E+02  0.26668764204E+02  0.51100000000E-03 0. -1.
        -11    1    3    3    0    0  0.11120556790E+02  0.55788836697E+01 -0.14872966423E+02  0.19390612595E+02  0.51100000000E-03 0.  1.
         12    1    3    3    0    0  0.41094097139E+01  0.11799662695E+01  0.13025900331E+01  0.44694864792E+01  0.00000000000E+00 0. -1.
</event>
<event>
 7    1  0.1023000E-012  0.5052886E+02  0.7816164E-02  0.1300439E+00
        -11   -1    0    0    0    0  0.00000000000E+00  0.00000000000E+00  0.45593999997E+02  0.45594000000E+02  0.51100000000E-03 0.  1.
         11   -1    0    0    0    0 -0.00000000000E+00 -0.00000000000E+00 -0.45593999997E+02  0.45594000000E+02  0.51100000000E-03 0. -1.
    9900012    2    1    2    0    0  0.22670099347E+02 -0.26569312786E+02 -0.20815956341E+02  0.50528858042E+02  0.29999994506E+02 0.  0.
        -12    1    1    2    0    0 -0.22670099347E+02  0.26569312786E+02  0.20815956341E+02  0.40659141958E+02  0.00000000000E+00 0.  1.
         11    1    3    3    0    0  0.24923841931E+02 -0.22934059014E+02 -0.22246550286E+02  0.40522561116E+02  0.51100000000E-03 0. -1.
        -11    1    3    3    0    0 -0.42687296124E+00 -0.60137432668E+01  0.28729100393E+01  0.66783935912E+01  0.51100000000E-03 0.  1.
        -12    1    3    3    0    0 -0.18268696231E+01  0.23784894946E+01 -0.14423160942E+01  0.33279033356E+01  0.00000000000E+00 0.  1.
</event>
<event>
 7    1  0.1023000E-012  0.5052887E+02  0.7816164E-02  0.1300439E+00
        -11   -1    0    0    0    0  0.00000000000E+00  0.00000000000E+00  0.45593999997E+02  0.45594000000E+02  0.51100000000E-03 0.  1.
         11   -1    0    0    0    0 -0.00000000000E+00 -0.00000000000E+00 -0.45593999997E+02  0.45594000000E+02  0.51100000000E-03 0. -1.
    9900012    2    1    2    0    0 -0.11235697675E+02  0.38596078987E+02  0.61046317283E+01  0.50528871333E+02  0.30000034904E+02 0.  0.
        -12    1    1    2    0    0  0.11235697675E+02 -0.38596078987E+02 -0.61046317283E+01  0.40659128667E+02  0.00000000000E+00 0.  1.
         11    1    3    3    0    0 -0.85347804607E+01  0.55156004187E+01 -0.55930546077E+01  0.11599421779E+02  0.51100000000E-03 0. -1.
        -11    1    3    3    0    0 -0.65038046030E+01  0.24062057413E+02  0.14386503588E+02  0.28779394833E+02  0.51100000000E-03 0.  1.
        -12    1    3    3    0    0  0.38028873883E+01  0.90184211556E+01 -0.26888172516E+01  0.10150054721E+02  0.00000000000E+00 0.  1.
</event>
<event>
 7    1  0.1023000E-012  0.5052887E+02  0.7816164E-02  0.1300439E+00
        -11   -1    0    0    0    0  0.00000000000E+00  0.00000000000E+00  0.45593999997E+02  0.45594000000E+02  0.51100000000E-03 0.  1.
         11   -1    0    0    0    0 -0.00000000000E+00 -0.00000000000E+00 -0.45593999997E+02  0.45594000000E+02  0.51100000000E-03 0. -1.
    9900012    2    1    2    0    0  0.61585230140E+00 -0.22200118920E+02 -0.34057895908E+02  0.50528870302E+02  0.30000031770E+02 0.  0.
        -12    1    1    2    0    0 -0.61585230140E+00  0.22200118920E+02  0.34057895908E+02  0.40659129698E+02  0.00000000000E+00 0.  1.
         11    1    3    3    0    0 -0.36689518790E+01  0.13091943045E+01  0.78201979232E+00  0.39732546903E+01  0.51100000000E-03 0. -1.
        -11    1    3    3    0    0  0.11117626553E+01  0.28834778793E+01 -0.50260606724E+00  0.31309861070E+01  0.51100000000E-03 0.  1.
         12    1    3    3    0    0  0.31730415251E+01 -0.26392791104E+02 -0.34337309633E+02  0.43424629505E+02  0.00000000000E+00 0. -1.
</event>
<event>
 7    1  0.1023000E-012  0.5052886E+02  0.7816164E-02  0.1300439E+00
        -11   -1    0    0    0    0  0.00000000000E+00  0.00000000000E+00  0.45593999997E+02  0.45594000000E+02  0.51100000000E-03 0. -1.
         11   -1    0    0    0    0 -0.00000000000E+00 -0.00000000000E+00 -0.45593999997E+02  0.45594000000E+02  0.51100000000E-03 0.  1.
    9900012    2    1    2    0    0  0.12518601920E+02  0.30710566418E+02  0.23522563349E+02  0.50528864861E+02  0.30000015231E+02 0.  0.
        -12    1    1    2    0    0 -0.12518601920E+02 -0.30710566418E+02 -0.23522563349E+02  0.40659135139E+02  0.00000000000E+00 0.  1.
         11    1    3    3    0    0  0.19805777540E+02  0.18318997661E+02  0.12719708978E+02  0.29826925688E+02  0.51100000000E-03 0. -1.
        -11    1    3    3    0    0 -0.72245576922E+01  0.52656136124E+01  0.16316251800E+01  0.90875256012E+01  0.51100000000E-03 0.  1.
        -12    1    3    3    0    0 -0.62617928074E-01  0.71259551442E+01  0.91712291916E+01  0.11614413571E+02  0.00000000000E+00 0.  1.
</event>
<event>
 7    1  0.1023000E-012  0.5052885E+02  0.7816164E-02  0.1300439E+00
        -11   -1    0    0    0    0  0.00000000000E+00  0.00000000000E+00  0.45593999997E+02  0.45594000000E+02  0.51100000000E-03 0.  1.
         11   -1    0    0    0    0 -0.00000000000E+00 -0.00000000000E+00 -0.45593999997E+02  0.45594000000E+02  0.51100000000E-03 0. -1.
    9900012    2    1    2    0    0 -0.18920369592E+02  0.15512245212E+02 -0.32473928539E+02  0.50528853774E+02  0.29999981533E+02 0.  0.
        -12    1    1    2    0    0  0.18920369592E+02 -0.15512245212E+02  0.32473928539E+02  0.40659146226E+02  0.00000000000E+00 0.  1.
         11    1    3    3    0    0 -0.45881273019E+01  0.10185820689E+02 -0.25672084320E+02  0.27997460043E+02  0.51100000000E-03 0. -1.
        -11    1    3    3    0    0 -0.10332640794E+02  0.10627105857E+02 -0.51170584113E+01  0.15680661074E+02  0.51100000000E-03 0.  1.
         12    1    3    3    0    0 -0.39996014969E+01 -0.53006813335E+01 -0.16847858076E+01  0.68507326580E+01  0.00000000000E+00 0. -1.
</event>
<event>
 7    1  0.1023000E-012  0.5052886E+02  0.7816164E-02  0.1300439E+00
        -11   -1    0    0    0    0  0.00000000000E+00  0.00000000000E+00  0.45593999997E+02  0.45594000000E+02  0.51100000000E-03 0. -1.
         11   -1    0    0    0    0 -0.00000000000E+00 -0.00000000000E+00 -0.45593999997E+02  0.45594000000E+02  0.51100000000E-03 0.  1.
    9900012    2    1    2    0    0 -0.25228538527E+02  0.28139785503E+02  0.14994633584E+02  0.50528859322E+02  0.29999998395E+02 0.  0.
        -12    1    1    2    0    0  0.25228538527E+02 -0.28139785503E+02 -0.14994633584E+02  0.40659140678E+02  0.00000000000E+00 0.  1.
         11    1    3    3    0    0 -0.29648652754E+02  0.26559184704E+02  0.14142834785E+02  0.42242782558E+02  0.51100000000E-03 0. -1.
        -11    1    3    3    0    0  0.15397581165E+01  0.40950616838E+01  0.28986822467E-01  0.43750686564E+01  0.51100000000E-03 0.  1.
         12    1    3    3    0    0  0.28803561100E+01 -0.25144608852E+01  0.82281197691E+00  0.39110081070E+01  0.00000000000E+00 0. -1.
</event>
<event>
 7    1  0.1023000E-012  0.5052886E+02  0.7816164E-02  0.1300439E+00
        -11   -1    0    0    0    0  0.00000000000E+00  0.00000000000E+00  0.45593999997E+02  0.45594000000E+02  0.51100000000E-03 0.  1.
         11   -1    0    0    0    0 -0.00000000000E+00 -0.00000000000E+00 -0.45593999997E+02  0.45594000000E+02  0.51100000000E-03 0. -1.
    9900012    2    1    2    0    0  0.14041174174E+02  0.25257214142E+02 -0.28602174472E+02  0.50528858064E+02  0.29999994572E+02 0.  0.
        -12    1    1    2    0    0 -0.14041174174E+02 -0.25257214142E+02  0.28602174472E+02  0.40659141936E+02  0.00000000000E+00 0.  1.
         11    1    3    3    0    0  0.57872388135E+01  0.14197817289E+01 -0.49203511451E+01  0.77277272788E+01  0.51100000000E-03 0. -1.
        -11    1    3    3    0    0 -0.75547562432E+01  0.16017681547E+02 -0.14661469793E+02  0.22991284453E+02  0.51100000000E-03 0.  1.
        -12    1    3    3    0    0  0.15808691604E+02  0.78197508658E+01 -0.90203535339E+01  0.19809846332E+02  0.00000000000E+00 0.  1.
</event>
<event>
 7    1  0.1023000E-012  0.5052885E+02  0.7816164E-02  0.1300439E+00
        -11   -1    0    0    0    0  0.00000000000E+00  0.00000000000E+00  0.45593999997E+02  0.45594000000E+02  0.51100000000E-03 0.  1.
         11   -1    0    0    0    0 -0.00000000000E+00 -0.00000000000E+00 -0.45593999997E+02  0.45594000000E+02  0.51100000000E-03 0. -1.
    9900012    2    1    2    0    0  0.26129687842E+02  0.25646747331E+02 -0.17681909595E+02  0.50528853892E+02  0.29999981889E+02 0.  0.
        -12    1    1    2    0    0 -0.26129687842E+02 -0.25646747331E+02  0.17681909595E+02  0.40659146108E+02  0.00000000000E+00 0.  1.
         11    1    3    3    0    0  0.15281749161E+02 -0.37391882822E+01 -0.44938227161E+01  0.16361779527E+02  0.51100000000E-03 0. -1.
        -11    1    3    3    0    0  0.74095784741E+01  0.16114294855E+02 -0.85889844138E+01  0.19706420409E+02  0.51100000000E-03 0.  1.
         12    1    3    3    0    0  0.34383602065E+01  0.13271640758E+02 -0.45991024649E+01  0.14460653955E+02  0.00000000000E+00 0. -1.
</event>
<event>
 7    1  0.1023000E-012  0.5052886E+02  0.7816164E-02  0.1300439E+00
        -11   -1    0    0    0    0  0.00000000000E+00  0.00000000000E+00  0.45593999997E+02  0.45594000000E+02  0.51100000000E-03 0.  1.
         11   -1    0    0    0    0 -0.00000000000E+00 -0.00000000000E+00 -0.45593999997E+02  0.45594000000E+02  0.51100000000E-03 0. -1.
    9900012    2    1    2    0    0  0.78164975309E+01  0.46857052181E+01 -0.39624642799E+02  0.50528858543E+02  0.29999996028E+02 0.  0.
        -12    1    1    2    0    0 -0.78164975309E+01 -0.46857052181E+01  0.39624642799E+02  0.40659141457E+02  0.00000000000E+00 0.  1.
         11    1    3    3    0    0 -0.92718277004E+01  0.76007011519E+01 -0.16263812366E+02  0.20205173591E+02  0.51100000000E-03 0. -1.
        -11    1    3    3    0    0  0.16439732405E+02 -0.36797198905E+01 -0.17178139822E+02  0.24060208395E+02  0.51100000000E-03 0.  1.
         12    1    3    3    0    0  0.64859282646E+00  0.76472395668E+00 -0.61826906109E+01  0.62634765566E+01  0.00000000000E+00 0. -1.
</event>
<event>
 7    1  0.1023000E-012  0.5052884E+02  0.7816164E-02  0.1300439E+00
        -11   -1    0    0    0    0  0.00000000000E+00  0.00000000000E+00  0.45593999997E+02  0.45594000000E+02  0.51100000000E-03 0. -1.
         11   -1    0    0    0    0 -0.00000000000E+00 -0.00000000000E+00 -0.45593999997E+02  0.45594000000E+02  0.51100000000E-03 0.  1.
    9900012    2    1    2    0    0  0.21430778437E+01  0.37535643760E+02  0.15480640535E+02  0.50528836623E+02  0.29999929400E+02 0.  0.
        -12    1    1    2    0    0 -0.21430778437E+01 -0.37535643760E+02 -0.15480640535E+02  0.40659163377E+02  0.00000000000E+00 0.  1.
         11    1    3    3    0    0  0.53810487212E+01 -0.13399153416E+01  0.29654759155E+01  0.62884899721E+01  0.51100000000E-03 0. -1.
        -11    1    3    3    0    0  0.54095849671E+01  0.25169811351E+02  0.44058724084E+01  0.26118857649E+02  0.51100000000E-03 0.  1.
        -12    1    3    3    0    0 -0.86475558446E+01  0.13705747751E+02  0.81092922106E+01  0.18121489002E+02  0.00000000000E+00 0.  1.
</event>
<event>
 7    1  0.1023000E-012  0.5052887E+02  0.7816164E-02  0.1300439E+00
        -11   -1    0    0    0    0  0.00000000000E+00  0.00000000000E+00  0.45593999997E+02  0.45594000000E+02  0.51100000000E-03 0. -1.
         11   -1    0    0    0    0 -0.00000000000E+00 -0.00000000000E+00 -0.45593999997E+02  0.45594000000E+02  0.51100000000E-03 0.  1.
    9900012    2    1    2    0    0  0.14409882287E+02 -0.28214927014E+02  0.25484067358E+02  0.50528874296E+02  0.30000043909E+02 0.  0.
        -12    1    1    2    0    0 -0.14409882287E+02  0.28214927014E+02 -0.25484067358E+02  0.40659125704E+02  0.00000000000E+00 0.  1.
         11    1    3    3    0    0 -0.18286700565E+01 -0.20468525372E+02  0.19988961731E+02  0.28668155790E+02  0.51100000000E-03 0. -1.
        -11    1    3    3    0    0  0.67033550529E+01  0.25044639839E+01  0.20291002502E+01  0.74380479226E+01  0.51100000000E-03 0.  1.
         12    1    3    3    0    0  0.95351972908E+01 -0.10250865627E+02  0.34660053766E+01  0.14422670583E+02  0.00000000000E+00 0. -1.
</event>
<event>
 7    1  0.1023000E-012  0.5052884E+02  0.7816164E-02  0.1300439E+00
        -11   -1    0    0    0    0  0.00000000000E+00  0.00000000000E+00  0.45593999997E+02  0.45594000000E+02  0.51100000000E-03 0.  1.
         11   -1    0    0    0    0 -0.00000000000E+00 -0.00000000000E+00 -0.45593999997E+02  0.45594000000E+02  0.51100000000E-03 0. -1.
    9900012    2    1    2    0    0 -0.85573842570E+01 -0.21944857067E+02 -0.33141537090E+02  0.50528842880E+02  0.29999948419E+02 0.  0.
        -12    1    1    2    0    0  0.85573842570E+01  0.21944857067E+02  0.33141537090E+02  0.40659157120E+02  0.00000000000E+00 0.  1.
         11    1    3    3    0    0 -0.21799712478E+01  0.54535818479E+01 -0.73849708443E+01  0.94356570648E+01  0.51100000000E-03 0. -1.
        -11    1    3    3    0    0 -0.86652589525E+01 -0.27253130829E+02 -0.20000931088E+02  0.34897809348E+02  0.51100000000E-03 0.  1.
        -12    1    3    3    0    0  0.22878459434E+01 -0.14530808597E+00 -0.57556351580E+01  0.61953764674E+01  0.00000000000E+00 0.  1.
</event>
<event>
 7    1  0.1023000E-012  0.5052886E+02  0.7816164E-02  0.1300439E+00
        -11   -1    0    0    0    0  0.00000000000E+00  0.00000000000E+00  0.45593999997E+02  0.45594000000E+02  0.51100000000E-03 0. -1.
         11   -1    0    0    0    0 -0.00000000000E+00 -0.00000000000E+00 -0.45593999997E+02  0.45594000000E+02  0.51100000000E-03 0.  1.
    9900012    2    1    2    0    0 -0.17229322794E+02 -0.35653497280E+02 -0.92273542213E+01  0.50528862058E+02  0.30000006712E+02 0.  0.
        -12    1    1    2    0    0  0.17229322794E+02  0.35653497280E+02  0.92273542213E+01  0.40659137942E+02  0.00000000000E+00 0.  1.
         11    1    3    3    0    0 -0.11679114964E+02 -0.28983074378E+02 -0.14215996713E+02  0.34329504651E+02  0.51100000000E-03 0. -1.
        -11    1    3    3    0    0  0.12909961457E+01 -0.41319404267E+01  0.73497763015E+01  0.85298777647E+01  0.51100000000E-03 0.  1.
         12    1    3    3    0    0 -0.68412039763E+01 -0.25384824751E+01 -0.23611338099E+01  0.76694796427E+01  0.00000000000E+00 0. -1.
</event>
<event>
 7    1  0.1023000E-012  0.5052887E+02  0.7816164E-02  0.1300439E+00
        -11   -1    0    0    0    0  0.00000000000E+00  0.00000000000E+00  0.45593999997E+02  0.45594000000E+02  0.51100000000E-03 0.  1.
         11   -1    0    0    0    0 -0.00000000000E+00 -0.00000000000E+00 -0.45593999997E+02  0.45594000000E+02  0.51100000000E-03 0. -1.
    9900012    2    1    2    0    0 -0.25026822537E+02  0.24224981281E+02  0.20975549741E+02  0.50528865095E+02  0.30000015941E+02 0.  0.
        -12    1    1    2    0    0  0.25026822537E+02 -0.24224981281E+02 -0.20975549741E+02  0.40659134905E+02  0.00000000000E+00 0.  1.
         11    1    3    3    0    0 -0.17995996319E+02  0.28916409329E+02  0.16449539621E+02  0.37823299248E+02  0.51100000000E-03 0. -1.
        -11    1    3    3    0    0  0.14083435222E+01  0.18851390379E+00  0.23041815758E+01  0.27070688879E+01  0.51100000000E-03 0.  1.
         12    1    3    3    0    0 -0.84391697394E+01 -0.48799419521E+01  0.22218285436E+01  0.99984969582E+01  0.00000000000E+00 0. -1.
</event>
<event>
 7    1  0.1023000E-012  0.5052886E+02  0.7816164E-02  0.1300439E+00
        -11   -1    0    0    0    0  0.00000000000E+00  0.00000000000E+00  0.45593999997E+02  0.45594000000E+02  0.51100000000E-03 0.  1.
         11   -1    0    0    0    0 -0.00000000000E+00 -0.00000000000E+00 -0.45593999997E+02  0.45594000000E+02  0.51100000000E-03 0. -1.
    9900012    2    1    2    0    0  0.20767465940E+02  0.52248308462E+01 -0.34562681341E+02  0.50528862768E+02  0.30000008871E+02 0.  0.
        -12    1    1    2    0    0 -0.20767465940E+02 -0.52248308462E+01  0.34562681341E+02  0.40659137232E+02  0.00000000000E+00 0.  1.
         11    1    3    3    0    0  0.21925876507E+01  0.51403530595E+01 -0.46182152907E+00  0.56074904875E+01  0.51100000000E-03 0. -1.
        -11    1    3    3    0    0 -0.92162031361E+00 -0.79854625611E+01 -0.11140140751E+02  0.13737530074E+02  0.51100000000E-03 0.  1.
        -12    1    3    3    0    0  0.19496498603E+02  0.80699403479E+01 -0.22960719061E+02  0.31183842207E+02  0.00000000000E+00 0.  1.
</event>
<event>
 7    1  0.1023000E-012  0.5052886E+02  0.7816164E-02  0.1300439E+00
        -11   -1    0    0    0    0  0.00000000000E+00  0.00000000000E+00  0.45593999997E+02  0.45594000000E+02  0.51100000000E-03 0. -1.
         11   -1    0    0    0    0 -0.00000000000E+00 -0.00000000000E+00 -0.45593999997E+02  0.45594000000E+02  0.51100000000E-03 0.  1.
    9900012    2    1    2    0    0 -0.37154217006E+01 -0.40404012691E+02  0.26224273575E+01  0.50528859267E+02  0.29999998227E+02 0.  0.
        -12    1    1    2    0    0  0.37154217006E+01  0.40404012691E+02 -0.26224273575E+01  0.40659140733E+02  0.00000000000E+00 0.  1.
         11    1    3    3    0    0  0.78132380095E+01 -0.13702814417E+02  0.61739593119E+01  0.16939055020E+02  0.51100000000E-03 0. -1.
        -11    1    3    3    0    0 -0.80610410845E+01 -0.23622059522E+01  0.13874317972E+01  0.85138338943E+01  0.51100000000E-03 0.  1.
         12    1    3    3    0    0 -0.34676186256E+01 -0.24338992322E+02 -0.49389637515E+01  0.25075970352E+02  0.00000000000E+00 0. -1.
</event>
<event>
 7    1  0.1023000E-012  0.5052886E+02  0.7816164E-02  0.1300439E+00
        -11   -1    0    0    0    0  0.00000000000E+00  0.00000000000E+00  0.45593999997E+02  0.45594000000E+02  0.51100000000E-03 0.  1.
         11   -1    0    0    0    0 -0.00000000000E+00 -0.00000000000E+00 -0.45593999997E+02  0.45594000000E+02  0.51100000000E-03 0. -1.
    9900012    2    1    2    0    0 -0.36403923559E+02  0.32364798481E+01 -0.17816989727E+02  0.50528861111E+02  0.30000003832E+02 0.  0.
        -12    1    1    2    0    0  0.36403923559E+02 -0.32364798481E+01  0.17816989727E+02  0.40659138889E+02  0.00000000000E+00 0.  1.
         11    1    3    3    0    0 -0.10132552515E+02 -0.58856931492E+01 -0.15637436277E+02  0.19540711806E+02  0.51100000000E-03 0. -1.
        -11    1    3    3    0    0 -0.25776982564E+02  0.85006593784E+01 -0.53972532782E+01  0.27673893531E+02  0.51100000000E-03 0.  1.
         12    1    3    3    0    0 -0.49438848026E+00  0.62151361894E+00  0.32176998281E+01  0.33142557735E+01  0.00000000000E+00 0. -1.
</event>
<event>
 7    1  0.1023000E-012  0.5052886E+02  0.7816164E-02  0.1300439E+00
        -11   -1    0    0    0    0  0.00000000000E+00  0.00000000000E+00  0.45593999997E+02  0.45594000000E+02  0.51100000000E-03 0.  1.
         11   -1    0    0    0    0 -0.00000000000E+00 -0.00000000000E+00 -0.45593999997E+02  0.45594000000E+02  0.51100000000E-03 0. -1.
    9900012    2    1    2    0    0 -0.66423824597E+01 -0.20836021251E+02 -0.34276882064E+02  0.50528859940E+02  0.30000000275E+02 0.  0.
        -12    1    1    2    0    0  0.66423824597E+01  0.20836021251E+02  0.34276882064E+02  0.40659140060E+02  0.00000000000E+00 0.  1.
         11    1    3    3    0    0 -0.64484338383E+01 -0.57014583819E+01 -0.36251568151E+01  0.93397370864E+01  0.51100000000E-03 0. -1.
        -11    1    3    3    0    0 -0.32948384554E+01 -0.66530265785E+01 -0.31268190331E+02  0.32137492900E+02  0.51100000000E-03 0.  1.
        -12    1    3    3    0    0  0.31008898340E+01 -0.84815362911E+01  0.61646508149E+00  0.90516299536E+01  0.00000000000E+00 0.  1.
</event>
<event>
 7    1  0.1023000E-012  0.5052886E+02  0.7816164E-02  0.1300439E+00
        -11   -1    0    0    0    0  0.00000000000E+00  0.00000000000E+00  0.45593999997E+02  0.45594000000E+02  0.51100000000E-03 0. -1.
         11   -1    0    0    0    0 -0.00000000000E+00 -0.00000000000E+00 -0.45593999997E+02  0.45594000000E+02  0.51100000000E-03 0.  1.
    9900012    2    1    2    0    0  0.19936453202E+01  0.40162548004E+02 -0.60133892208E+01  0.50528859162E+02  0.29999997907E+02 0.  0.
        -12    1    1    2    0    0 -0.19936453202E+01 -0.40162548004E+02  0.60133892208E+01  0.40659140838E+02  0.00000000000E+00 0.  1.
         11    1    3    3    0    0 -0.10378851493E+02  0.29464417412E+02 -0.50951508595E+01  0.31651745833E+02  0.51100000000E-03 0. -1.
        -11    1    3    3    0    0  0.10638950947E+02  0.42021731003E+01  0.18846009582E+01  0.11592983095E+02  0.51100000000E-03 0.  1.
         12    1    3    3    0    0  0.17335458668E+01  0.64959574918E+01 -0.28028393195E+01  0.72841302335E+01  0.00000000000E+00 0. -1.
</event>
<event>
 7    1  0.1824462E-012  0.5052886E+02  0.7816164E-02  0.1300439E+00
        -11   -1    0    0    0    0  0.00000000000E+00  0.00000000000E+00  0.45593999997E+02  0.45594000000E+02  0.51100000000E-03 0. -1.
         11   -1    0    0    0    0 -0.00000000000E+00 -0.00000000000E+00 -0.45593999997E+02  0.45594000000E+02  0.51100000000E-03 0.  1.
    9900012    2    1    2    0    0  0.13918921605E+02  0.15660052740E+02  0.34845252750E+02  0.50528864868E+02  0.30000015253E+02 0.  0.
        -12    1    1    2    0    0 -0.13918921605E+02 -0.15660052740E+02 -0.34845252750E+02  0.40659135132E+02  0.00000000000E+00 0.  1.
         11    1    3    3    0    0  0.92403875399E+01  0.58080838966E+01  0.31504653003E+02  0.33341592066E+02  0.51100000000E-03 0. -1.
        -11    1    3    3    0    0  0.71161916762E+01  0.25907697714E+01 -0.20204864790E+01  0.78380251246E+01  0.51100000000E-03 0.  1.
        -12    1    3    3    0    0 -0.24376576116E+01  0.72611990722E+01  0.53610862264E+01  0.93492476770E+01  0.00000000000E+00 0.  1.
</event>
<event>
 7    1  0.1023000E-012  0.5052884E+02  0.7816164E-02  0.1300439E+00
        -11   -1    0    0    0    0  0.00000000000E+00  0.00000000000E+00  0.45593999997E+02  0.45594000000E+02  0.51100000000E-03 0.  1.
         11   -1    0    0    0    0 -0.00000000000E+00 -0.00000000000E+00 -0.45593999997E+02  0.45594000000E+02  0.51100000000E-03 0. -1.
    9900012    2    1    2    0    0  0.14784094661E+02  0.28880774730E+02 -0.24505071853E+02  0.50528841739E+02  0.29999944949E+02 0.  0.
        -12    1    1    2    0    0 -0.14784094661E+02 -0.28880774730E+02  0.24505071853E+02  0.40659158261E+02  0.00000000000E+00 0.  1.
         11    1    3    3    0    0  0.16307065564E+02  0.20459815261E+02 -0.17670660116E+02  0.31571769939E+02  0.51100000000E-03 0. -1.
        -11    1    3    3    0    0 -0.18886721472E+01  0.35827537051E+01  0.48420842500E+01  0.63126053842E+01  0.51100000000E-03 0.  1.
        -12    1    3    3    0    0  0.36570124400E+00  0.48382057641E+01 -0.11676495987E+02  0.12644466416E+02  0.00000000000E+00 0.  1.
</event>
<event>
 7    1  0.1023000E-012  0.5052886E+02  0.7816164E-02  0.1300439E+00
        -11   -1    0    0    0    0  0.00000000000E+00  0.00000000000E+00  0.45593999997E+02  0.45594000000E+02  0.51100000000E-03 0. -1.
         11   -1    0    0    0    0 -0.00000000000E+00 -0.00000000000E+00 -0.45593999997E+02  0.45594000000E+02  0.51100000000E-03 0.  1.
    9900012    2    1    2    0    0 -0.10963005866E+00  0.27868635211E+02  0.29605615807E+02  0.50528864070E+02  0.30000012828E+02 0.  0.
        -12    1    1    2    0    0  0.10963005866E+00 -0.27868635211E+02 -0.29605615807E+02  0.40659135930E+02  0.00000000000E+00 0.  1.
         11    1    3    3    0    0 -0.76185250323E+01  0.23896717176E+02  0.24512455535E+02  0.35070721295E+02  0.51100000000E-03 0. -1.
        -11    1    3    3    0    0 -0.12458042671E+01 -0.28450912676E+01 -0.30141449909E+00  0.31204845064E+01  0.51100000000E-03 0.  1.
        -12    1    3    3    0    0  0.87546992407E+01  0.68170093018E+01  0.53945747705E+01  0.12337658269E+02  0.00000000000E+00 0.  1.
</event>
<event>
 7    1  0.1023000E-012  0.5052885E+02  0.7816164E-02  0.1300439E+00
        -11   -1    0    0    0    0  0.00000000000E+00  0.00000000000E+00  0.45593999997E+02  0.45594000000E+02  0.51100000000E-03 0.  1.
         11   -1    0    0    0    0 -0.00000000000E+00 -0.00000000000E+00 -0.45593999997E+02  0.45594000000E+02  0.51100000000E-03 0. -1.
    9900012    2    1    2    0    0  0.17913350739E+02  0.68680631262E+01 -0.35848409043E+02  0.50528845351E+02  0.29999955929E+02 0.  0.
        -12    1    1    2    0    0 -0.17913350739E+02 -0.68680631262E+01  0.35848409043E+02  0.40659154649E+02  0.00000000000E+00 0.  1.
         11    1    3    3    0    0  0.11721670869E+02  0.41115857684E+01 -0.29376066130E+02  0.31894450412E+02  0.51100000000E-03 0. -1.
        -11    1    3    3    0    0 -0.22804992052E+01 -0.52781302999E+01 -0.27933299555E+01  0.63923414011E+01  0.51100000000E-03 0.  1.
        -12    1    3    3    0    0  0.84721790754E+01  0.80346076577E+01 -0.36790129575E+01  0.12242053538E+02  0.00000000000E+00 0.  1.
</event>
<event>
 7    1  0.1023000E-012  0.5052887E+02  0.7816164E-02  0.1300439E+00
        -11   -1    0    0    0    0  0.00000000000E+00  0.00000000000E+00  0.45593999997E+02  0.45594000000E+02  0.51100000000E-03 0. -1.
         11   -1    0    0    0    0 -0.00000000000E+00 -0.00000000000E+00 -0.45593999997E+02  0.45594000000E+02  0.51100000000E-03 0.  1.
    9900012    2    1    2    0    0 -0.30633358581E+02  0.20008785533E+02  0.17731635115E+02  0.50528867688E+02  0.30000023826E+02 0.  0.
        -12    1    1    2    0    0  0.30633358581E+02 -0.20008785533E+02 -0.17731635115E+02  0.40659132312E+02  0.00000000000E+00 0.  1.
         11    1    3    3    0    0 -0.21112215629E+02  0.14165732923E+02  0.59266917908E+01  0.26105924880E+02  0.51100000000E-03 0. -1.
        -11    1    3    3    0    0  0.68501536297E+00 -0.31496585243E+01 -0.29393854962E+01  0.43622909375E+01  0.51100000000E-03 0.  1.
         12    1    3    3    0    0 -0.10206158315E+02  0.89927111340E+01  0.14744328821E+02  0.20060651871E+02  0.00000000000E+00 0. -1.
</event>
<event>
 7    1  0.1023000E-012  0.5052887E+02  0.7816164E-02  0.1300439E+00
        -11   -1    0    0    0    0  0.00000000000E+00  0.00000000000E+00  0.45593999997E+02  0.45594000000E+02  0.51100000000E-03 0.  1.
         11   -1    0    0    0    0 -0.00000000000E+00 -0.00000000000E+00 -0.45593999997E+02  0.45594000000E+02  0.51100000000E-03 0. -1.
    9900012    2    1    2    0    0 -0.23243926270E+02 -0.11106241867E+02 -0.31456890765E+02  0.50528871954E+02  0.30000036791E+02 0.  0.
        -12    1    1    2    0    0  0.23243926270E+02  0.11106241867E+02  0.31456890765E+02  0.40659128046E+02  0.00000000000E+00 0.  1.
         11    1    3    3    0    0 -0.28320560605E+02 -0.10042509733E+02 -0.21044971256E+02  0.36685105563E+02  0.51100000000E-03 0. -1.
        -11    1    3    3    0    0  0.27432327492E+01  0.32201085969E+01 -0.52377839263E+01  0.67326670802E+01  0.51100000000E-03 0.  1.
         12    1    3    3    0    0  0.23334015864E+01 -0.42838407312E+01 -0.51741355833E+01  0.71110993108E+01  0.00000000000E+00 0. -1.
</event>
<event>
 7    1  0.1023000E-012  0.5052885E+02  0.7816164E-02  0.1300439E+00
        -11   -1    0    0    0    0  0.00000000000E+00  0.00000000000E+00  0.45593999997E+02  0.45594000000E+02  0.51100000000E-03 0. -1.
         11   -1    0    0    0    0 -0.00000000000E+00 -0.00000000000E+00 -0.45593999997E+02  0.45594000000E+02  0.51100000000E-03 0.  1.
    9900012    2    1    2    0    0  0.34087955849E+02  0.21662172172E+02  0.46827412743E+01  0.50528849701E+02  0.29999969152E+02 0.  0.
        -12    1    1    2    0    0 -0.34087955849E+02 -0.21662172172E+02 -0.46827412743E+01  0.40659150299E+02  0.00000000000E+00 0.  1.
         11    1    3    3    0    0  0.12203293982E+02  0.30107743263E+01 -0.23595335248E+01  0.12788766350E+02  0.51100000000E-03 0. -1.
        -11    1    3    3    0    0 -0.33335627392E+01 -0.24906320553E+01  0.10371494717E+01  0.42885391288E+01  0.51100000000E-03 0.  1.
        -12    1    3    3    0    0  0.25218224606E+02  0.21142029901E+02  0.60051253274E+01  0.33451544222E+02  0.00000000000E+00 0.  1.
</event>
<event>
 7    1  0.1023000E-012  0.5052886E+02  0.7816164E-02  0.1300439E+00
        -11   -1    0    0    0    0  0.00000000000E+00  0.00000000000E+00  0.45593999997E+02  0.45594000000E+02  0.51100000000E-03 0.  1.
         11   -1    0    0    0    0 -0.00000000000E+00 -0.00000000000E+00 -0.45593999997E+02  0.45594000000E+02  0.51100000000E-03 0. -1.
    9900012    2    1    2    0    0 -0.19291754377E+02  0.35747608664E+02 -0.17614048953E+01  0.50528857617E+02  0.29999993213E+02 0.  0.
        -12    1    1    2    0    0  0.19291754377E+02 -0.35747608664E+02  0.17614048953E+01  0.40659142383E+02  0.00000000000E+00 0.  1.
         11    1    3    3    0    0 -0.49829203254E+01  0.17940235840E+02  0.53346910343E+01  0.19368543715E+02  0.51100000000E-03 0. -1.
        -11    1    3    3    0    0 -0.16567190127E+02  0.52724211929E+01 -0.22418022980E+01  0.17529857152E+02  0.51100000000E-03 0.  1.
        -12    1    3    3    0    0  0.22583560759E+01  0.12534951631E+02 -0.48542936316E+01  0.13630456750E+02  0.00000000000E+00 0.  1.
</event>
<event>
 7    1  0.1023000E-012  0.5052887E+02  0.7816164E-02  0.1300439E+00
        -11   -1    0    0    0    0  0.00000000000E+00  0.00000000000E+00  0.45593999997E+02  0.45594000000E+02  0.51100000000E-03 0.  1.
         11   -1    0    0    0    0 -0.00000000000E+00 -0.00000000000E+00 -0.45593999997E+02  0.45594000000E+02  0.51100000000E-03 0. -1.
    9900012    2    1    2    0    0  0.67182723906E+01 -0.45406483488E+00 -0.40097676106E+02  0.50528868334E+02  0.30000025787E+02 0.  0.
        -12    1    1    2    0    0 -0.67182723906E+01  0.45406483488E+00  0.40097676106E+02  0.40659131666E+02  0.00000000000E+00 0.  1.
         11    1    3    3    0    0  0.44649816059E+01  0.34750823908E+01 -0.44013280066E+02  0.44375455837E+02  0.51100000000E-03 0. -1.
        -11    1    3    3    0    0  0.16101733350E+01 -0.16741527811E+01  0.13894251626E+01  0.27066488962E+01  0.51100000000E-03 0.  1.
         12    1    3    3    0    0  0.64311744970E+00 -0.22549944445E+01  0.25261787974E+01  0.34467636002E+01  0.00000000000E+00 0. -1.
</event>
<event>
 7    1  0.1023000E-012  0.5052882E+02  0.7816164E-02  0.1300439E+00
        -11   -1    0    0    0    0  0.00000000000E+00  0.00000000000E+00  0.45593999997E+02  0.45594000000E+02  0.51100000000E-03 0.  1.
         11   -1    0    0    0    0 -0.00000000000E+00 -0.00000000000E+00 -0.45593999997E+02  0.45594000000E+02  0.51100000000E-03 0. -1.
    9900012    2    1    2    0    0  0.16655695522E+02 -0.28111589860E+02 -0.24197015535E+02  0.50528816061E+02  0.29999866898E+02 0.  0.
        -12    1    1    2    0    0 -0.16655695522E+02  0.28111589860E+02  0.24197015535E+02  0.40659183939E+02  0.00000000000E+00 0.  1.
         11    1    3    3    0    0 -0.22271255556E+01 -0.33014862127E+01 -0.17609005428E+02  0.18053724598E+02  0.51100000000E-03 0. -1.
        -11    1    3    3    0    0  0.88957698026E+01 -0.16046385818E+02 -0.21815065866E+01  0.18476476651E+02  0.51100000000E-03 0.  1.
         12    1    3    3    0    0  0.99870512747E+01 -0.87637178297E+01 -0.44065035210E+01  0.13998614812E+02  0.00000000000E+00 0. -1.
</event>
<event>
 7    1  0.1023000E-012  0.5052888E+02  0.7816164E-02  0.1300439E+00
        -11   -1    0    0    0    0  0.00000000000E+00  0.00000000000E+00  0.45593999997E+02  0.45594000000E+02  0.51100000000E-03 0.  1.
         11   -1    0    0    0    0 -0.00000000000E+00 -0.00000000000E+00 -0.45593999997E+02  0.45594000000E+02  0.51100000000E-03 0. -1.
    9900012    2    1    2    0    0 -0.75938022964E+01 -0.17837882841E+02 -0.35739451832E+02  0.50528876611E+02  0.30000050946E+02 0.  0.
        -12    1    1    2    0    0  0.75938022964E+01  0.17837882841E+02  0.35739451832E+02  0.40659123389E+02  0.00000000000E+00 0.  1.
         11    1    3    3    0    0 -0.69407278294E+01 -0.43792154643E+01 -0.33300140315E+02  0.34296509678E+02  0.51100000000E-03 0. -1.
        -11    1    3    3    0    0  0.14727903420E+01 -0.13812633196E+02 -0.20246252210E+01  0.14037701192E+02  0.51100000000E-03 0.  1.
         12    1    3    3    0    0 -0.21258648090E+01  0.35396581935E+00 -0.41468629589E+00  0.21946657402E+01  0.00000000000E+00 0. -1.
</event>
<event>
 7    1  0.1023000E-012  0.5052886E+02  0.7816164E-02  0.1300439E+00
        -11   -1    0    0    0    0  0.00000000000E+00  0.00000000000E+00  0.45593999997E+02  0.45594000000E+02  0.51100000000E-03 0.  1.
         11   -1    0    0    0    0 -0.00000000000E+00 -0.00000000000E+00 -0.45593999997E+02  0.45594000000E+02  0.51100000000E-03 0. -1.
    9900012    2    1    2    0    0  0.23939740398E+01 -0.10009502776E+00 -0.40588473956E+02  0.50528863895E+02  0.30000012294E+02 0.  0.
        -12    1    1    2    0    0 -0.23939740398E+01  0.10009502776E+00  0.40588473956E+02  0.40659136105E+02  0.00000000000E+00 0.  1.
         11    1    3    3    0    0 -0.11662235973E+02 -0.39427125645E+01 -0.16533241092E+02  0.20613121829E+02  0.51100000000E-03 0. -1.
        -11    1    3    3    0    0  0.77934327746E+01  0.67822728732E+01 -0.10692716593E+02  0.14868456817E+02  0.51100000000E-03 0.  1.
        -12    1    3    3    0    0  0.62627772385E+01 -0.29396553365E+01 -0.13362516271E+02  0.15047285248E+02  0.00000000000E+00 0.  1.
</event>
<event>
 7    1  0.1023000E-012  0.5052886E+02  0.7816164E-02  0.1300439E+00
        -11   -1    0    0    0    0  0.00000000000E+00  0.00000000000E+00  0.45593999997E+02  0.45594000000E+02  0.51100000000E-03 0.  1.
         11   -1    0    0    0    0 -0.00000000000E+00 -0.00000000000E+00 -0.45593999997E+02  0.45594000000E+02  0.51100000000E-03 0. -1.
    9900012    2    1    2    0    0  0.23310352595E+02 -0.65751883560E+00  0.33307062308E+02  0.50528864880E+02  0.30000015290E+02 0.  0.
        -12    1    1    2    0    0 -0.23310352595E+02  0.65751883560E+00 -0.33307062308E+02  0.40659135120E+02  0.00000000000E+00 0.  1.
         11    1    3    3    0    0  0.29308932894E+02 -0.17769430390E+01  0.26164359494E+02  0.39328676331E+02  0.51100000000E-03 0. -1.
        -11    1    3    3    0    0 -0.41158876189E+01  0.87285092179E+00  0.80595223683E+01  0.90916610523E+01  0.51100000000E-03 0.  1.
        -12    1    3    3    0    0 -0.18826926804E+01  0.24657328157E+00 -0.91681955412E+00  0.21085274973E+01  0.00000000000E+00 0.  1.
</event>
<event>
 7    1  0.1023000E-012  0.5052887E+02  0.7816164E-02  0.1300439E+00
        -11   -1    0    0    0    0  0.00000000000E+00  0.00000000000E+00  0.45593999997E+02  0.45594000000E+02  0.51100000000E-03 0.  1.
         11   -1    0    0    0    0 -0.00000000000E+00 -0.00000000000E+00 -0.45593999997E+02  0.45594000000E+02  0.51100000000E-03 0. -1.
    9900012    2    1    2    0    0 -0.42958136170E+01  0.97131748611E+01 -0.39247486718E+02  0.50528868256E+02  0.30000025550E+02 0.  0.
        -12    1    1    2    0    0  0.42958136170E+01 -0.97131748611E+01  0.39247486718E+02  0.40659131744E+02  0.00000000000E+00 0.  1.
         11    1    3    3    0    0  0.62553411369E+01  0.84545131043E+01 -0.16851995223E+02  0.19864486599E+02  0.51100000000E-03 0.  1.
        -11    1    3    3    0    0 -0.90119688854E+01 -0.79348564255E+00 -0.98447199557E+00  0.91002410972E+01  0.51100000000E-03 0. -1.
         12    1    3    3    0    0 -0.15391858686E+01  0.20521473993E+01 -0.21411019499E+02  0.21564140560E+02  0.00000000000E+00 0. -1.
</event>
<event>
 7    1  0.1023000E-012  0.5052885E+02  0.7816164E-02  0.1300439E+00
        -11   -1    0    0    0    0  0.00000000000E+00  0.00000000000E+00  0.45593999997E+02  0.45594000000E+02  0.51100000000E-03 0.  1.
         11   -1    0    0    0    0 -0.00000000000E+00 -0.00000000000E+00 -0.45593999997E+02  0.45594000000E+02  0.51100000000E-03 0. -1.
    9900012    2    1    2    0    0  0.95500217948E-01 -0.23662867770E+02 -0.33063968932E+02  0.50528850071E+02  0.29999970276E+02 0.  0.
        -12    1    1    2    0    0 -0.95500217948E-01  0.23662867770E+02  0.33063968932E+02  0.40659149929E+02  0.00000000000E+00 0.  1.
         11    1    3    3    0    0 -0.35810824055E+01  0.36315950406E+01 -0.35688815197E+01  0.62249135976E+01  0.51100000000E-03 0. -1.
        -11    1    3    3    0    0  0.39953531954E+01 -0.25602234544E+02 -0.15480917045E+02  0.30184367703E+02  0.51100000000E-03 0.  1.
         12    1    3    3    0    0 -0.31877057192E+00 -0.16922282667E+01 -0.14014170368E+02  0.14119568771E+02  0.00000000000E+00 0. -1.
</event>
<event>
 7    1  0.1023000E-012  0.5052883E+02  0.7816164E-02  0.1300439E+00
        -11   -1    0    0    0    0  0.00000000000E+00  0.00000000000E+00  0.45593999997E+02  0.45594000000E+02  0.51100000000E-03 0.  1.
         11   -1    0    0    0    0 -0.00000000000E+00 -0.00000000000E+00 -0.45593999997E+02  0.45594000000E+02  0.51100000000E-03 0. -1.
    9900012    2    1    2    0    0  0.67759137429E+01 -0.46063620685E+01 -0.39825072277E+02  0.50528831779E+02  0.29999914676E+02 0.  0.
        -12    1    1    2    0    0 -0.67759137429E+01  0.46063620685E+01  0.39825072277E+02  0.40659168221E+02  0.00000000000E+00 0.  1.
         11    1    3    3    0    0 -0.20883999622E+01  0.16669245172E+01 -0.49864327455E+01  0.56572575984E+01  0.51100000000E-03 0. -1.
        -11    1    3    3    0    0  0.96998722367E+01 -0.13734966654E+02 -0.11542203329E+02  0.20395080004E+02  0.51100000000E-03 0.  1.
        -12    1    3    3    0    0 -0.83555853154E+00  0.74616800686E+01 -0.23296436202E+02  0.24476494177E+02  0.00000000000E+00 0.  1.
</event>
<event>
 7    1  0.1023000E-012  0.5052885E+02  0.7816164E-02  0.1300439E+00
        -11   -1    0    0    0    0  0.00000000000E+00  0.00000000000E+00  0.45593999997E+02  0.45594000000E+02  0.51100000000E-03 0. -1.
         11   -1    0    0    0    0 -0.00000000000E+00 -0.00000000000E+00 -0.45593999997E+02  0.45594000000E+02  0.51100000000E-03 0.  1.
    9900012    2    1    2    0    0  0.19518494495E+02  0.55866748499E+01  0.35227600254E+02  0.50528851178E+02  0.29999973642E+02 0.  0.
        -12    1    1    2    0    0 -0.19518494495E+02 -0.55866748499E+01 -0.35227600254E+02  0.40659148822E+02  0.00000000000E+00 0.  1.
         11    1    3    3    0    0  0.10283065562E+02  0.34597924200E+01  0.13911866103E+01  0.10938327175E+02  0.51100000000E-03 0. -1.
        -11    1    3    3    0    0  0.13678439665E+01  0.93128059366E+01  0.20194854332E+02  0.22280742656E+02  0.51100000000E-03 0.  1.
         12    1    3    3    0    0  0.78675849663E+01 -0.71859235067E+01  0.13641559312E+02  0.17309781348E+02  0.00000000000E+00 0. -1.
</event>
<event>
 7    1  0.1023000E-012  0.5052892E+02  0.7816164E-02  0.1300439E+00
        -11   -1    0    0    0    0  0.00000000000E+00  0.00000000000E+00  0.45593999997E+02  0.45594000000E+02  0.51100000000E-03 0.  1.
         11   -1    0    0    0    0 -0.00000000000E+00 -0.00000000000E+00 -0.45593999997E+02  0.45594000000E+02  0.51100000000E-03 0. -1.
    9900012    2    1    2    0    0  0.83041736585E+01 -0.83865022483E+01 -0.38908456886E+02  0.50528920604E+02  0.30000184667E+02 0.  0.
        -12    1    1    2    0    0 -0.83041736585E+01  0.83865022483E+01  0.38908456886E+02  0.40659079396E+02  0.00000000000E+00 0.  1.
         11    1    3    3    0    0  0.79589510052E+01  0.22042197878E+01 -0.62022924333E+01  0.10328209800E+02  0.51100000000E-03 0. -1.
        -11    1    3    3    0    0 -0.32076997854E+01 -0.87908365232E+01 -0.34562228502E+02  0.35806644411E+02  0.51100000000E-03 0.  1.
        -12    1    3    3    0    0  0.35529224386E+01 -0.17998855129E+01  0.18560640493E+01  0.43940663934E+01  0.00000000000E+00 0.  1.
</event>
<event>
 7    1  0.1023000E-012  0.5052886E+02  0.7816164E-02  0.1300439E+00
        -11   -1    0    0    0    0  0.00000000000E+00  0.00000000000E+00  0.45593999997E+02  0.45594000000E+02  0.51100000000E-03 0.  1.
         11   -1    0    0    0    0 -0.00000000000E+00 -0.00000000000E+00 -0.45593999997E+02  0.45594000000E+02  0.51100000000E-03 0. -1.
    9900012    2    1    2    0    0  0.18848492969E+02  0.35580721702E+02 -0.56490853954E+01  0.50528860685E+02  0.30000002537E+02 0.  0.
        -12    1    1    2    0    0 -0.18848492969E+02 -0.35580721702E+02  0.56490853954E+01  0.40659139315E+02  0.00000000000E+00 0.  1.
         11    1    3    3    0    0  0.45565402279E+01  0.26009822958E+02  0.47501875488E+01  0.26829782540E+02  0.51100000000E-03 0. -1.
        -11    1    3    3    0    0  0.99935130472E+01 -0.24114307014E+00 -0.22685308747E+01  0.10250594402E+02  0.51100000000E-03 0.  1.
         12    1    3    3    0    0  0.42984396941E+01  0.98120418144E+01 -0.81307420694E+01  0.13448483742E+02  0.00000000000E+00 0. -1.
</event>
<event>
 7    1  0.1023000E-012  0.5052886E+02  0.7816164E-02  0.1300439E+00
        -11   -1    0    0    0    0  0.00000000000E+00  0.00000000000E+00  0.45593999997E+02  0.45594000000E+02  0.51100000000E-03 0.  1.
         11   -1    0    0    0    0 -0.00000000000E+00 -0.00000000000E+00 -0.45593999997E+02  0.45594000000E+02  0.51100000000E-03 0. -1.
    9900012    2    1    2    0    0 -0.46204657732E+01 -0.39625506944E+02 -0.78508579620E+01  0.50528862340E+02  0.30000007568E+02 0.  0.
        -12    1    1    2    0    0  0.46204657732E+01  0.39625506944E+02  0.78508579620E+01  0.40659137660E+02  0.00000000000E+00 0.  1.
         11    1    3    3    0    0 -0.70000571379E+01 -0.15451595395E+01 -0.31103089081E+01  0.78142395473E+01  0.51100000000E-03 0.  1.
        -11    1    3    3    0    0 -0.34927520553E+00 -0.39412260478E+02 -0.44480335502E+01  0.39664004738E+02  0.51100000000E-03 0. -1.
         12    1    3    3    0    0  0.27288665702E+01  0.13319130735E+01 -0.29251550365E+00  0.30506180543E+01  0.00000000000E+00 0. -1.
</event>
<event>
 7    1  0.1023000E-012  0.5052887E+02  0.7816164E-02  0.1300439E+00
        -11   -1    0    0    0    0  0.00000000000E+00  0.00000000000E+00  0.45593999997E+02  0.45594000000E+02  0.51100000000E-03 0. -1.
         11   -1    0    0    0    0 -0.00000000000E+00 -0.00000000000E+00 -0.45593999997E+02  0.45594000000E+02  0.51100000000E-03 0.  1.
    9900012    2    1    2    0    0  0.12957946154E+02 -0.95066811643E+01  0.37348086969E+02  0.50528868731E+02  0.30000026995E+02 0.  0.
        -12    1    1    2    0    0 -0.12957946154E+02  0.95066811643E+01 -0.37348086969E+02  0.40659131269E+02  0.00000000000E+00 0.  1.
         11    1    3    3    0    0 -0.48364752843E+01 -0.65853638083E+01  0.14894021145E+01  0.83052289904E+01  0.51100000000E-03 0.  1.
        -11    1    3    3    0    0  0.95561936647E+01 -0.79803500746E+01  0.22772962161E+02  0.25954086971E+02  0.51100000000E-03 0. -1.
        -12    1    3    3    0    0  0.82382277733E+01  0.50590327186E+01  0.13085722694E+02  0.16269552769E+02  0.00000000000E+00 0.  1.
</event>
<event>
 7    1  0.1023000E-012  0.5052885E+02  0.7816164E-02  0.1300439E+00
        -11   -1    0    0    0    0  0.00000000000E+00  0.00000000000E+00  0.45593999997E+02  0.45594000000E+02  0.51100000000E-03 0.  1.
         11   -1    0    0    0    0 -0.00000000000E+00 -0.00000000000E+00 -0.45593999997E+02  0.45594000000E+02  0.51100000000E-03 0. -1.
    9900012    2    1    2    0    0 -0.10017055070E+02  0.77243774117E+01 -0.38641413787E+02  0.50528852712E+02  0.29999978304E+02 0.  0.
        -12    1    1    2    0    0  0.10017055070E+02 -0.77243774117E+01  0.38641413787E+02  0.40659147288E+02  0.00000000000E+00 0.  1.
         11    1    3    3    0    0  0.97717281464E+00 -0.63108508285E+01 -0.14102679815E+02  0.15481191270E+02  0.51100000000E-03 0. -1.
        -11    1    3    3    0    0 -0.94791722224E+01  0.92196798292E+01 -0.26512569961E+02  0.29627243685E+02  0.51100000000E-03 0.  1.
        -12    1    3    3    0    0 -0.15150556625E+01  0.48155484109E+01  0.19738359889E+01  0.54204177578E+01  0.00000000000E+00 0.  1.
</event>
<event>
 7    1  0.1023000E-012  0.5052885E+02  0.7816164E-02  0.1300439E+00
        -11   -1    0    0    0    0  0.00000000000E+00  0.00000000000E+00  0.45593999997E+02  0.45594000000E+02  0.51100000000E-03 0. -1.
         11   -1    0    0    0    0 -0.00000000000E+00 -0.00000000000E+00 -0.45593999997E+02  0.45594000000E+02  0.51100000000E-03 0.  1.
    9900012    2    1    2    0    0 -0.34603089608E+01  0.34583485107E+02  0.21099180343E+02  0.50528848615E+02  0.29999965850E+02 0.  0.
        -12    1    1    2    0    0  0.34603089608E+01 -0.34583485107E+02 -0.21099180343E+02  0.40659151385E+02  0.00000000000E+00 0.  1.
         11    1    3    3    0    0  0.11512647218E+02  0.20707928806E+02  0.17046266191E+02  0.29187917923E+02  0.51100000000E-03 0. -1.
        -11    1    3    3    0    0 -0.21745280027E+01  0.17405195868E+00  0.12715290918E+00  0.21851851735E+01  0.51100000000E-03 0.  1.
         12    1    3    3    0    0 -0.12798428176E+02  0.13701504342E+02  0.39257612427E+01  0.19155745518E+02  0.00000000000E+00 0. -1.
</event>
<event>
 7    1  0.1023000E-012  0.5052879E+02  0.7816164E-02  0.1300439E+00
        -11   -1    0    0    0    0  0.00000000000E+00  0.00000000000E+00  0.45593999997E+02  0.45594000000E+02  0.51100000000E-03 0. -1.
         11   -1    0    0    0    0 -0.00000000000E+00 -0.00000000000E+00 -0.45593999997E+02  0.45594000000E+02  0.51100000000E-03 0.  1.
    9900012    2    1    2    0    0 -0.83294854480E+01 -0.19987777535E+02  0.34413365949E+02  0.50528790286E+02  0.29999788552E+02 0.  0.
        -12    1    1    2    0    0  0.83294854480E+01  0.19987777535E+02 -0.34413365949E+02  0.40659209714E+02  0.00000000000E+00 0.  1.
         11    1    3    3    0    0 -0.10704848458E+02 -0.33614655487E+01  0.28437423840E+02  0.30570906203E+02  0.51100000000E-03 0. -1.
        -11    1    3    3    0    0  0.20279463451E+01 -0.86461071296E+01 -0.15127712495E+01  0.90086742637E+01  0.51100000000E-03 0.  1.
         12    1    3    3    0    0  0.34741666472E+00 -0.79802048568E+01  0.74887133588E+01  0.10949209819E+02  0.00000000000E+00 0. -1.
</event>
<event>
 7    1  0.1023000E-012  0.5052885E+02  0.7816164E-02  0.1300439E+00
        -11   -1    0    0    0    0  0.00000000000E+00  0.00000000000E+00  0.45593999997E+02  0.45594000000E+02  0.51100000000E-03 0.  1.
         11   -1    0    0    0    0 -0.00000000000E+00 -0.00000000000E+00 -0.45593999997E+02  0.45594000000E+02  0.51100000000E-03 0. -1.
    9900012    2    1    2    0    0  0.35105968506E+02  0.14364159555E+02 -0.14642678435E+02  0.50528854212E+02  0.29999982863E+02 0.  0.
        -12    1    1    2    0    0 -0.35105968506E+02 -0.14364159555E+02  0.14642678435E+02  0.40659145788E+02  0.00000000000E+00 0.  1.
         11    1    3    3    0    0  0.16408014778E+02  0.10515584701E+02 -0.12548709625E+02  0.23179098000E+02  0.51100000000E-03 0. -1.
        -11    1    3    3    0    0  0.11196435444E+02  0.24177103459E+01  0.85187566796E+01  0.14274967797E+02  0.51100000000E-03 0.  1.
        -12    1    3    3    0    0  0.75015182840E+01  0.14308645078E+01 -0.10612725489E+02  0.13074788416E+02  0.00000000000E+00 0.  1.
</event>
<event>
 7    1  0.1023000E-012  0.5052886E+02  0.7816164E-02  0.1300439E+00
        -11   -1    0    0    0    0  0.00000000000E+00  0.00000000000E+00  0.45593999997E+02  0.45594000000E+02  0.51100000000E-03 0. -1.
         11   -1    0    0    0    0 -0.00000000000E+00 -0.00000000000E+00 -0.45593999997E+02  0.45594000000E+02  0.51100000000E-03 0.  1.
    9900012    2    1    2    0    0  0.20156409879E+02 -0.34935762332E+02 -0.51358713595E+01  0.50528861746E+02  0.30000005763E+02 0.  0.
        -12    1    1    2    0    0 -0.20156409879E+02  0.34935762332E+02  0.51358713595E+01  0.40659138254E+02  0.00000000000E+00 0.  1.
         11    1    3    3    0    0  0.15953771426E+02 -0.25627572971E+02  0.37980972667E+01  0.30425661245E+02  0.51100000000E-03 0. -1.
        -11    1    3    3    0    0  0.77147476881E+01 -0.97309986799E+01 -0.10473619465E+02  0.16245195356E+02  0.51100000000E-03 0.  1.
         12    1    3    3    0    0 -0.35121092349E+01  0.42280931868E+00  0.15396508384E+01  0.38580051454E+01  0.00000000000E+00 0. -1.
</event>
<event>
 7    1  0.1023000E-012  0.5052885E+02  0.7816164E-02  0.1300439E+00
        -11   -1    0    0    0    0  0.00000000000E+00  0.00000000000E+00  0.45593999997E+02  0.45594000000E+02  0.51100000000E-03 0.  1.
         11   -1    0    0    0    0 -0.00000000000E+00 -0.00000000000E+00 -0.45593999997E+02  0.45594000000E+02  0.51100000000E-03 0. -1.
    9900012    2    1    2    0    0  0.80536836987E+00 -0.24730124991E+02 -0.32263577501E+02  0.50528854246E+02  0.29999982966E+02 0.  0.
        -12    1    1    2    0    0 -0.80536836987E+00  0.24730124991E+02  0.32263577501E+02  0.40659145754E+02  0.00000000000E+00 0.  1.
         11    1    3    3    0    0 -0.34738265627E+01 -0.13053889264E+02 -0.32456994001E+02  0.35155767034E+02  0.51100000000E-03 0. -1.
        -11    1    3    3    0    0 -0.17517300836E+01 -0.57700579154E+01  0.26425464306E+01  0.65837055319E+01  0.51100000000E-03 0.  1.
         12    1    3    3    0    0  0.60309250162E+01 -0.59061778117E+01 -0.24491299306E+01  0.87893816797E+01  0.00000000000E+00 0. -1.
</event>
<event>
 7    1  0.1023000E-012  0.5052889E+02  0.7816164E-02  0.1300439E+00
        -11   -1    0    0    0    0  0.00000000000E+00  0.00000000000E+00  0.45593999997E+02  0.45594000000E+02  0.51100000000E-03 0. -1.
         11   -1    0    0    0    0 -0.00000000000E+00 -0.00000000000E+00 -0.45593999997E+02  0.45594000000E+02  0.51100000000E-03 0.  1.
    9900012    2    1    2    0    0 -0.36571671060E+01 -0.22873092225E+02 -0.33415717618E+02  0.50528887822E+02  0.30000085025E+02 0.  0.
        -12    1    1    2    0    0  0.36571671060E+01  0.22873092225E+02  0.33415717618E+02  0.40659112178E+02  0.00000000000E+00 0.  1.
         11    1    3    3    0    0 -0.77623088668E+01 -0.11850561479E+02 -0.13473338384E+02  0.19550449964E+02  0.51100000000E-03 0. -1.
        -11    1    3    3    0    0  0.63377814397E+01  0.40256855111E+01 -0.11042887789E+02  0.13353613309E+02  0.51100000000E-03 0.  1.
        -12    1    3    3    0    0 -0.22326396789E+01 -0.15048216257E+02 -0.88994914443E+01  0.17624824550E+02  0.00000000000E+00 0.  1.
</event>
<event>
 7    1  0.1023000E-012  0.5052888E+02  0.7816164E-02  0.1300439E+00
        -11   -1    0    0    0    0  0.00000000000E+00  0.00000000000E+00  0.45593999997E+02  0.45594000000E+02  0.51100000000E-03 0. -1.
         11   -1    0    0    0    0 -0.00000000000E+00 -0.00000000000E+00 -0.45593999997E+02  0.45594000000E+02  0.51100000000E-03 0.  1.
    9900012    2    1    2    0    0 -0.11103220527E+02 -0.19986877355E+02  0.33621525536E+02  0.50528883533E+02  0.30000071987E+02 0.  0.
        -12    1    1    2    0    0  0.11103220527E+02  0.19986877355E+02 -0.33621525536E+02  0.40659116467E+02  0.00000000000E+00 0.  1.
         11    1    3    3    0    0 -0.13097713468E+02 -0.17806818941E+02  0.17034266848E+02  0.27906973075E+02  0.51100000000E-03 0. -1.
        -11    1    3    3    0    0  0.59403832463E+01 -0.40624483969E+01  0.16767126784E+02  0.18246319655E+02  0.51100000000E-03 0.  1.
         12    1    3    3    0    0 -0.39458903053E+01  0.18823899825E+01 -0.17986809575E+00  0.43755908035E+01  0.00000000000E+00 0. -1.
</event>
<event>
 7    1  0.1023000E-012  0.5052887E+02  0.7816164E-02  0.1300439E+00
        -11   -1    0    0    0    0  0.00000000000E+00  0.00000000000E+00  0.45593999997E+02  0.45594000000E+02  0.51100000000E-03 0.  1.
         11   -1    0    0    0    0 -0.00000000000E+00 -0.00000000000E+00 -0.45593999997E+02  0.45594000000E+02  0.51100000000E-03 0. -1.
    9900012    2    1    2    0    0  0.32125284195E+01  0.28588927109E+01 -0.40431066754E+02  0.50528871072E+02  0.30000034109E+02 0.  0.
        -12    1    1    2    0    0 -0.32125284195E+01 -0.28588927109E+01  0.40431066754E+02  0.40659128928E+02  0.00000000000E+00 0.  1.
         11    1    3    3    0    0 -0.81449301694E+01  0.27652355486E+01 -0.19951700721E+02  0.21726867630E+02  0.51100000000E-03 0.  1.
        -11    1    3    3    0    0  0.10327695123E+02 -0.25587274933E+01 -0.22780421406E+02  0.25142712118E+02  0.51100000000E-03 0. -1.
         12    1    3    3    0    0  0.10297634657E+01  0.26523846556E+01  0.23010553735E+01  0.36592913232E+01  0.00000000000E+00 0. -1.
</event>
<event>
 7    1  0.1023000E-012  0.5052885E+02  0.7816164E-02  0.1300439E+00
        -11   -1    0    0    0    0  0.00000000000E+00  0.00000000000E+00  0.45593999997E+02  0.45594000000E+02  0.51100000000E-03 0.  1.
         11   -1    0    0    0    0 -0.00000000000E+00 -0.00000000000E+00 -0.45593999997E+02  0.45594000000E+02  0.51100000000E-03 0. -1.
    9900012    2    1    2    0    0 -0.15977300688E+02 -0.19707820278E+02 -0.31772535240E+02  0.50528852038E+02  0.29999976255E+02 0.  0.
        -12    1    1    2    0    0  0.15977300688E+02  0.19707820278E+02  0.31772535240E+02  0.40659147962E+02  0.00000000000E+00 0.  1.
         11    1    3    3    0    0 -0.13580182706E+02 -0.18536816042E+02 -0.79191190444E+01  0.24305294855E+02  0.51100000000E-03 0. -1.
        -11    1    3    3    0    0  0.29866303303E+00 -0.34645094639E+01 -0.18530130552E+01  0.39402643410E+01  0.51100000000E-03 0.  1.
         12    1    3    3    0    0 -0.26957810159E+01  0.22935052283E+01 -0.22000403141E+02  0.22283292842E+02  0.00000000000E+00 0. -1.
</event>
<event>
 7    1  0.1023000E-012  0.5052880E+02  0.7816164E-02  0.1300439E+00
        -11   -1    0    0    0    0  0.00000000000E+00  0.00000000000E+00  0.45593999997E+02  0.45594000000E+02  0.51100000000E-03 0.  1.
         11   -1    0    0    0    0 -0.00000000000E+00 -0.00000000000E+00 -0.45593999997E+02  0.45594000000E+02  0.51100000000E-03 0. -1.
    9900012    2    1    2    0    0  0.45850478491E+01 -0.35160544137E+02  0.19896824893E+02  0.50528804625E+02  0.29999832136E+02 0.  0.
        -12    1    1    2    0    0 -0.45850478491E+01  0.35160544137E+02 -0.19896824893E+02  0.40659195375E+02  0.00000000000E+00 0.  1.
         11    1    3    3    0    0  0.10737017419E+01  0.28763465858E+01 -0.40428371851E+01  0.50764887352E+01  0.51100000000E-03 0. -1.
        -11    1    3    3    0    0 -0.73714879889E+00 -0.16111884241E+01  0.21830524167E+01  0.28115893379E+01  0.51100000000E-03 0.  1.
         12    1    3    3    0    0  0.42484949061E+01 -0.36425702298E+02  0.21756609661E+02  0.42640726552E+02  0.00000000000E+00 0. -1.
</event>
<event>
 7    1  0.1023000E-012  0.5052886E+02  0.7816164E-02  0.1300439E+00
        -11   -1    0    0    0    0  0.00000000000E+00  0.00000000000E+00  0.45593999997E+02  0.45594000000E+02  0.51100000000E-03 0. -1.
         11   -1    0    0    0    0 -0.00000000000E+00 -0.00000000000E+00 -0.45593999997E+02  0.45594000000E+02  0.51100000000E-03 0.  1.
    9900012    2    1    2    0    0 -0.89423058020E+01 -0.13869451317E+02  0.37159640046E+02  0.50528863742E+02  0.30000011829E+02 0.  0.
        -12    1    1    2    0    0  0.89423058020E+01  0.13869451317E+02 -0.37159640046E+02  0.40659136258E+02  0.00000000000E+00 0.  1.
         11    1    3    3    0    0 -0.94454838255E+01  0.13056578089E+01  0.84384975937E+00  0.95725644260E+01  0.51100000000E-03 0. -1.
        -11    1    3    3    0    0  0.46479523781E+01 -0.42459741544E+01  0.19392784163E+02  0.20389012621E+02  0.51100000000E-03 0.  1.
        -12    1    3    3    0    0 -0.41447743546E+01 -0.10929134972E+02  0.16923006124E+02  0.20567286694E+02  0.00000000000E+00 0.  1.
</event>
<event>
 7    1  0.1023000E-012  0.5052885E+02  0.7816164E-02  0.1300439E+00
        -11   -1    0    0    0    0  0.00000000000E+00  0.00000000000E+00  0.45593999997E+02  0.45594000000E+02  0.51100000000E-03 0.  1.
         11   -1    0    0    0    0 -0.00000000000E+00 -0.00000000000E+00 -0.45593999997E+02  0.45594000000E+02  0.51100000000E-03 0. -1.
    9900012    2    1    2    0    0 -0.35575562856E+02  0.44079975716E+01 -0.19186338940E+02  0.50528847069E+02  0.29999961151E+02 0.  0.
        -12    1    1    2    0    0  0.35575562856E+02 -0.44079975716E+01  0.19186338940E+02  0.40659152931E+02  0.00000000000E+00 0.  1.
         11    1    3    3    0    0 -0.93226138373E+01  0.23519473499E+01 -0.53627699489E+01  0.11009181935E+02  0.51100000000E-03 0. -1.
        -11    1    3    3    0    0  0.21969893285E+01  0.73345986862E+01 -0.52512035090E+00  0.76745587261E+01  0.51100000000E-03 0.  1.
        -12    1    3    3    0    0 -0.28449938347E+02 -0.52785484645E+01 -0.13298448641E+02  0.31845106408E+02  0.00000000000E+00 0.  1.
</event>
<event>
 7    1  0.1023000E-012  0.5052887E+02  0.7816164E-02  0.1300439E+00
        -11   -1    0    0    0    0  0.00000000000E+00  0.00000000000E+00  0.45593999997E+02  0.45594000000E+02  0.51100000000E-03 0.  1.
         11   -1    0    0    0    0 -0.00000000000E+00 -0.00000000000E+00 -0.45593999997E+02  0.45594000000E+02  0.51100000000E-03 0. -1.
    9900012    2    1    2    0    0  0.38420864974E+02  0.10684969133E+02 -0.79267739710E+01  0.50528866017E+02  0.30000018744E+02 0.  0.
        -12    1    1    2    0    0 -0.38420864974E+02 -0.10684969133E+02  0.79267739710E+01  0.40659133983E+02  0.00000000000E+00 0.  1.
         11    1    3    3    0    0  0.23202537496E+02 -0.72454702978E+01 -0.38134803510E+01  0.24604821047E+02  0.51100000000E-03 0. -1.
        -11    1    3    3    0    0  0.12845532561E+02  0.76491322231E+01 -0.13177926011E+01  0.15008447892E+02  0.51100000000E-03 0.  1.
         12    1    3    3    0    0  0.23727949166E+01  0.10281307207E+02 -0.27955010188E+01  0.10915597077E+02  0.00000000000E+00 0. -1.
</event>
<event>
 7    1  0.1023000E-012  0.5052884E+02  0.7816164E-02  0.1300439E+00
        -11   -1    0    0    0    0  0.00000000000E+00  0.00000000000E+00  0.45593999997E+02  0.45594000000E+02  0.51100000000E-03 0.  1.
         11   -1    0    0    0    0 -0.00000000000E+00 -0.00000000000E+00 -0.45593999997E+02  0.45594000000E+02  0.51100000000E-03 0. -1.
    9900012    2    1    2    0    0 -0.43734304827E+01  0.19647077507E+02 -0.35327506587E+02  0.50528840264E+02  0.29999940467E+02 0.  0.
        -12    1    1    2    0    0  0.43734304827E+01 -0.19647077507E+02  0.35327506587E+02  0.40659159736E+02  0.00000000000E+00 0.  1.
         11    1    3    3    0    0 -0.42670150792E+01  0.16113520891E+01 -0.13000119288E+02  0.13777045220E+02  0.51100000000E-03 0. -1.
        -11    1    3    3    0    0  0.42666791207E+01  0.89602958318E+01  0.22619735788E+01  0.10178800364E+02  0.51100000000E-03 0.  1.
        -12    1    3    3    0    0 -0.43730945242E+01  0.90754295863E+01 -0.24589360878E+02  0.26572994680E+02  0.00000000000E+00 0.  1.
</event>
<event>
 7    1  0.1023000E-012  0.5052893E+02  0.7816164E-02  0.1300439E+00
        -11   -1    0    0    0    0  0.00000000000E+00  0.00000000000E+00  0.45593999997E+02  0.45594000000E+02  0.51100000000E-03 0.  1.
         11   -1    0    0    0    0 -0.00000000000E+00 -0.00000000000E+00 -0.45593999997E+02  0.45594000000E+02  0.51100000000E-03 0. -1.
    9900012    2    1    2    0    0  0.85633823322E+00  0.38472595205E+02  0.13125786905E+02  0.50528927471E+02  0.30000205541E+02 0.  0.
        -12    1    1    2    0    0 -0.85633823322E+00 -0.38472595205E+02 -0.13125786905E+02  0.40659072529E+02  0.00000000000E+00 0.  1.
         11    1    3    3    0    0 -0.45591976980E+01  0.28558015585E+02  0.19692279985E+02  0.34987603934E+02  0.51100000000E-03 0. -1.
        -11    1    3    3    0    0  0.89080514748E-01  0.85805930520E+01 -0.43398917550E+01  0.96160892866E+01  0.51100000000E-03 0.  1.
         12    1    3    3    0    0  0.53264554164E+01  0.13339865685E+01 -0.22266013242E+01  0.59252342506E+01  0.00000000000E+00 0. -1.
</event>
<event>
 7    1  0.1023000E-012  0.5052886E+02  0.7816164E-02  0.1300439E+00
        -11   -1    0    0    0    0  0.00000000000E+00  0.00000000000E+00  0.45593999997E+02  0.45594000000E+02  0.51100000000E-03 0.  1.
         11   -1    0    0    0    0 -0.00000000000E+00 -0.00000000000E+00 -0.45593999997E+02  0.45594000000E+02  0.51100000000E-03 0. -1.
    9900012    2    1    2    0    0 -0.24886251150E+02  0.10095205013E+02 -0.30527477176E+02  0.50528861749E+02  0.30000005772E+02 0.  0.
        -12    1    1    2    0    0  0.24886251150E+02 -0.10095205013E+02  0.30527477176E+02  0.40659138251E+02  0.00000000000E+00 0.  1.
         11    1    3    3    0    0 -0.15332881334E+01  0.45020053372E+00 -0.77081752767E+01  0.78720784662E+01  0.51100000000E-03 0. -1.
        -11    1    3    3    0    0 -0.12702215497E+02  0.18023075203E+02 -0.10840140631E+02  0.24570025793E+02  0.51100000000E-03 0.  1.
        -12    1    3    3    0    0 -0.10650747519E+02 -0.83780707239E+01 -0.11979161269E+02  0.18086757489E+02  0.00000000000E+00 0.  1.
</event>
<event>
 7    1  0.1023000E-012  0.5052886E+02  0.7816164E-02  0.1300439E+00
        -11   -1    0    0    0    0  0.00000000000E+00  0.00000000000E+00  0.45593999997E+02  0.45594000000E+02  0.51100000000E-03 0. -1.
         11   -1    0    0    0    0 -0.00000000000E+00 -0.00000000000E+00 -0.45593999997E+02  0.45594000000E+02  0.51100000000E-03 0.  1.
    9900012    2    1    2    0    0  0.60194597381E+01  0.32086199942E+02  0.24236485819E+02  0.50528863670E+02  0.30000011611E+02 0.  0.
        -12    1    1    2    0    0 -0.60194597381E+01 -0.32086199942E+02 -0.24236485819E+02  0.40659136330E+02  0.00000000000E+00 0.  1.
         11    1    3    3    0    0  0.89646757994E+01  0.11555987257E+02  0.64946114224E+01  0.16002694507E+02  0.51100000000E-03 0. -1.
        -11    1    3    3    0    0 -0.38103559914E+01 -0.90897554816E+00 -0.28051891098E+01  0.48181049730E+01  0.51100000000E-03 0.  1.
        -12    1    3    3    0    0  0.86513993009E+00  0.21439188233E+02  0.20547063507E+02  0.29708064190E+02  0.00000000000E+00 0.  1.
</event>
<event>
 7    1  0.1023000E-012  0.5052886E+02  0.7816164E-02  0.1300439E+00
        -11   -1    0    0    0    0  0.00000000000E+00  0.00000000000E+00  0.45593999997E+02  0.45594000000E+02  0.51100000000E-03 0.  1.
         11   -1    0    0    0    0 -0.00000000000E+00 -0.00000000000E+00 -0.45593999997E+02  0.45594000000E+02  0.51100000000E-03 0. -1.
    9900012    2    1    2    0    0  0.13089966037E+02  0.14453218135E+02 -0.35678050926E+02  0.50528855356E+02  0.29999986339E+02 0.  0.
        -12    1    1    2    0    0 -0.13089966037E+02 -0.14453218135E+02  0.35678050926E+02  0.40659144644E+02  0.00000000000E+00 0.  1.
         11    1    3    3    0    0  0.77957766707E+01  0.44813793700E+01 -0.17852333668E+02  0.19989064826E+02  0.51100000000E-03 0. -1.
        -11    1    3    3    0    0  0.99648299665E+01  0.50662911094E+01  0.30728911696E+00  0.11183003565E+02  0.51100000000E-03 0.  1.
        -12    1    3    3    0    0 -0.46706406000E+01  0.49055476560E+01 -0.18133006375E+02  0.19356786965E+02  0.00000000000E+00 0.  1.
</event>
<event>
 7    1  0.1023000E-012  0.5052888E+02  0.7816164E-02  0.1300439E+00
        -11   -1    0    0    0    0  0.00000000000E+00  0.00000000000E+00  0.45593999997E+02  0.45594000000E+02  0.51100000000E-03 0.  1.
         11   -1    0    0    0    0 -0.00000000000E+00 -0.00000000000E+00 -0.45593999997E+02  0.45594000000E+02  0.51100000000E-03 0. -1.
    9900012    2    1    2    0    0  0.17618224712E+02  0.35739889075E+02 -0.80884304431E+01  0.50528877774E+02  0.30000054483E+02 0.  0.
        -12    1    1    2    0    0 -0.17618224712E+02 -0.35739889075E+02  0.80884304431E+01  0.40659122226E+02  0.00000000000E+00 0.  1.
         11    1    3    3    0    0 -0.49400719400E+01  0.20382236003E+02 -0.76257775055E+01  0.22315741934E+02  0.51100000000E-03 0. -1.
        -11    1    3    3    0    0  0.15267871491E+02  0.67258220105E+01 -0.20285019785E+01  0.16806528557E+02  0.51100000000E-03 0.  1.
        -12    1    3    3    0    0  0.72904251605E+01  0.86318310623E+01  0.15658490409E+01  0.11406607284E+02  0.00000000000E+00 0.  1.
</event>
<event>
 7    1  0.1023000E-012  0.5052885E+02  0.7816164E-02  0.1300439E+00
        -11   -1    0    0    0    0  0.00000000000E+00  0.00000000000E+00  0.45593999997E+02  0.45594000000E+02  0.51100000000E-03 0.  1.
         11   -1    0    0    0    0 -0.00000000000E+00 -0.00000000000E+00 -0.45593999997E+02  0.45594000000E+02  0.51100000000E-03 0. -1.
    9900012    2    1    2    0    0 -0.24338728005E+02 -0.76139165816E+01 -0.31667350632E+02  0.50528849705E+02  0.29999969165E+02 0.  0.
        -12    1    1    2    0    0  0.24338728005E+02  0.76139165816E+01  0.31667350632E+02  0.40659150295E+02  0.00000000000E+00 0.  1.
         11    1    3    3    0    0 -0.13758458931E+02  0.25708208052E+01 -0.83559938477E+01  0.16301133249E+02  0.51100000000E-03 0. -1.
        -11    1    3    3    0    0  0.39921315009E+01 -0.28275351960E+01  0.95220490979E+00  0.49838502843E+01  0.51100000000E-03 0.  1.
        -12    1    3    3    0    0 -0.14572400575E+02 -0.73572021909E+01 -0.24263561694E+02  0.29243866172E+02  0.00000000000E+00 0.  1.
</event>
<event>
 7    1  0.1023000E-012  0.5052886E+02  0.7816164E-02  0.1300439E+00
        -11   -1    0    0    0    0  0.00000000000E+00  0.00000000000E+00  0.45593999997E+02  0.45594000000E+02  0.51100000000E-03 0. -1.
         11   -1    0    0    0    0 -0.00000000000E+00 -0.00000000000E+00 -0.45593999997E+02  0.45594000000E+02  0.51100000000E-03 0.  1.
    9900012    2    1    2    0    0  0.67253105040E+01 -0.18540149159E+02  0.35555570252E+02  0.50528861935E+02  0.30000006338E+02 0.  0.
        -12    1    1    2    0    0 -0.67253105040E+01  0.18540149159E+02 -0.35555570252E+02  0.40659138065E+02  0.00000000000E+00 0.  1.
         11    1    3    3    0    0 -0.10390402219E+01 -0.22782400786E+01  0.12774894502E+02  0.13017984184E+02  0.51100000000E-03 0. -1.
        -11    1    3    3    0    0  0.10757542771E+02 -0.86154566713E+01  0.52897528989E+00  0.13792412234E+02  0.51100000000E-03 0.  1.
        -12    1    3    3    0    0 -0.29931920449E+01 -0.76464524093E+01  0.22251700461E+02  0.23718465516E+02  0.00000000000E+00 0.  1.
</event>
<event>
 7    1  0.1023000E-012  0.5052883E+02  0.7816164E-02  0.1300439E+00
        -11   -1    0    0    0    0  0.00000000000E+00  0.00000000000E+00  0.45593999997E+02  0.45594000000E+02  0.51100000000E-03 0. -1.
         11   -1    0    0    0    0 -0.00000000000E+00 -0.00000000000E+00 -0.45593999997E+02  0.45594000000E+02  0.51100000000E-03 0.  1.
    9900012    2    1    2    0    0  0.16442422171E+02  0.33531941231E+02  0.16075558511E+02  0.50528832387E+02  0.29999916523E+02 0.  0.
        -12    1    1    2    0    0 -0.16442422171E+02 -0.33531941231E+02 -0.16075558511E+02  0.40659167613E+02  0.00000000000E+00 0.  1.
         11    1    3    3    0    0  0.11523907061E+02  0.13965426882E+02  0.14295174793E+02  0.23069148328E+02  0.51100000000E-03 0. -1.
        -11    1    3    3    0    0 -0.45451448838E+01  0.10739591762E+02  0.68913340865E+01  0.13545761661E+02  0.51100000000E-03 0.  1.
         12    1    3    3    0    0  0.94636599933E+01  0.88269225875E+01 -0.51109503683E+01  0.13913922398E+02  0.00000000000E+00 0. -1.
</event>
<event>
 7    1  0.1023000E-012  0.5052886E+02  0.7816164E-02  0.1300439E+00
        -11   -1    0    0    0    0  0.00000000000E+00  0.00000000000E+00  0.45593999997E+02  0.45594000000E+02  0.51100000000E-03 0.  1.
         11   -1    0    0    0    0 -0.00000000000E+00 -0.00000000000E+00 -0.45593999997E+02  0.45594000000E+02  0.51100000000E-03 0. -1.
    9900012    2    1    2    0    0 -0.93161832136E+01 -0.27110128501E+02 -0.28834279099E+02  0.50528856032E+02  0.29999988396E+02 0.  0.
        -12    1    1    2    0    0  0.93161832136E+01  0.27110128501E+02  0.28834279099E+02  0.40659143968E+02  0.00000000000E+00 0.  1.
         11    1    3    3    0    0  0.25097958619E+01 -0.16654684130E+02 -0.44275408296E+01  0.17414956124E+02  0.51100000000E-03 0. -1.
        -11    1    3    3    0    0 -0.11893854036E+02 -0.93347505339E+01 -0.26630220186E+02  0.30623029876E+02  0.51100000000E-03 0.  1.
        -12    1    3    3    0    0  0.67874960212E-01 -0.11206938377E+01  0.22234819168E+01  0.24908700332E+01  0.00000000000E+00 0.  1.
</event>
<event>
 7    1  0.1023000E-012  0.5052886E+02  0.7816164E-02  0.1300439E+00
        -11   -1    0    0    0    0  0.00000000000E+00  0.00000000000E+00  0.45593999997E+02  0.45594000000E+02  0.51100000000E-03 0. -1.
         11   -1    0    0    0    0 -0.00000000000E+00 -0.00000000000E+00 -0.45593999997E+02  0.45594000000E+02  0.51100000000E-03 0.  1.
    9900012    2    1    2    0    0 -0.39137962972E+01 -0.38739982583E+02  0.11707329699E+02  0.50528860552E+02  0.30000002134E+02 0.  0.
        -12    1    1    2    0    0  0.39137962972E+01  0.38739982583E+02 -0.11707329699E+02  0.40659139448E+02  0.00000000000E+00 0.  1.
         11    1    3    3    0    0 -0.63162823613E+00 -0.19741851190E+02  0.17714980823E+02  0.26532248086E+02  0.51100000000E-03 0. -1.
        -11    1    3    3    0    0  0.24431249207E+01 -0.16841813886E+02 -0.34429163250E+01  0.17362869216E+02  0.51100000000E-03 0.  1.
        -12    1    3    3    0    0 -0.57252929818E+01 -0.21563175068E+01 -0.25647347995E+01  0.66337432502E+01  0.00000000000E+00 0.  1.
</event>
<event>
 7    1  0.1023000E-012  0.5052885E+02  0.7816164E-02  0.1300439E+00
        -11   -1    0    0    0    0  0.00000000000E+00  0.00000000000E+00  0.45593999997E+02  0.45594000000E+02  0.51100000000E-03 0. -1.
         11   -1    0    0    0    0 -0.00000000000E+00 -0.00000000000E+00 -0.45593999997E+02  0.45594000000E+02  0.51100000000E-03 0.  1.
    9900012    2    1    2    0    0  0.19295453969E+02 -0.14499165849E+02  0.32720420737E+02  0.50528852353E+02  0.29999977211E+02 0.  0.
        -12    1    1    2    0    0 -0.19295453969E+02  0.14499165849E+02 -0.32720420737E+02  0.40659147647E+02  0.00000000000E+00 0.  1.
         11    1    3    3    0    0  0.13952614093E+02 -0.16244837929E+02  0.14655129230E+02  0.25948853778E+02  0.51100000000E-03 0. -1.
        -11    1    3    3    0    0  0.95748612847E+01  0.51818249165E+01  0.14218895081E+02  0.17908273386E+02  0.51100000000E-03 0.  1.
        -12    1    3    3    0    0 -0.42320214091E+01 -0.34361528363E+01  0.38463964268E+01  0.66717251887E+01  0.00000000000E+00 0.  1.
</event>
<event>
 7    1  0.1023000E-012  0.5052884E+02  0.7816164E-02  0.1300439E+00
        -11   -1    0    0    0    0  0.00000000000E+00  0.00000000000E+00  0.45593999997E+02  0.45594000000E+02  0.51100000000E-03 0.  1.
         11   -1    0    0    0    0 -0.00000000000E+00 -0.00000000000E+00 -0.45593999997E+02  0.45594000000E+02  0.51100000000E-03 0. -1.
    9900012    2    1    2    0    0 -0.13269469664E+02 -0.13464660768E+01 -0.38409310331E+02  0.50528844620E+02  0.29999953708E+02 0.  0.
        -12    1    1    2    0    0  0.13269469664E+02  0.13464660768E+01  0.38409310331E+02  0.40659155380E+02  0.00000000000E+00 0.  1.
         11    1    3    3    0    0 -0.12888102473E+02 -0.36410143195E+01 -0.34143115329E+02  0.36675775319E+02  0.51100000000E-03 0. -1.
        -11    1    3    3    0    0  0.33470104780E+00  0.76934892208E+01 -0.29783352373E+01  0.82566507876E+01  0.51100000000E-03 0.  1.
        -12    1    3    3    0    0 -0.71606823864E+00 -0.53989409780E+01 -0.12878597656E+01  0.55964185139E+01  0.00000000000E+00 0.  1.
</event>
<event>
 7    1  0.1023000E-012  0.5052886E+02  0.7816164E-02  0.1300439E+00
        -11   -1    0    0    0    0  0.00000000000E+00  0.00000000000E+00  0.45593999997E+02  0.45594000000E+02  0.51100000000E-03 0.  1.
         11   -1    0    0    0    0 -0.00000000000E+00 -0.00000000000E+00 -0.45593999997E+02  0.45594000000E+02  0.51100000000E-03 0. -1.
    9900012    2    1    2    0    0  0.21639229294E+02  0.43466832305E+01 -0.34146972787E+02  0.50528860190E+02  0.30000001033E+02 0.  0.
        -12    1    1    2    0    0 -0.21639229294E+02 -0.43466832305E+01  0.34146972787E+02  0.40659139810E+02  0.00000000000E+00 0.  1.
         11    1    3    3    0    0  0.75146379780E+00 -0.85919530967E+01 -0.91008817348E+01  0.12538437082E+02  0.51100000000E-03 0.  1.
        -11    1    3    3    0    0  0.40863506096E+01  0.80581365563E+01 -0.23539818357E+01  0.93366512631E+01  0.51100000000E-03 0. -1.
         12    1    3    3    0    0  0.16801414887E+02  0.48804997710E+01 -0.22692109217E+02  0.28653771845E+02  0.00000000000E+00 0. -1.
</event>
<event>
 7    1  0.1023000E-012  0.5052886E+02  0.7816164E-02  0.1300439E+00
        -11   -1    0    0    0    0  0.00000000000E+00  0.00000000000E+00  0.45593999997E+02  0.45594000000E+02  0.51100000000E-03 0. -1.
         11   -1    0    0    0    0 -0.00000000000E+00 -0.00000000000E+00 -0.45593999997E+02  0.45594000000E+02  0.51100000000E-03 0.  1.
    9900012    2    1    2    0    0 -0.22380700040E+02 -0.18100287054E+02  0.28716706946E+02  0.50528863468E+02  0.30000010998E+02 0.  0.
        -12    1    1    2    0    0  0.22380700040E+02  0.18100287054E+02 -0.28716706946E+02  0.40659136532E+02  0.00000000000E+00 0.  1.
         11    1    3    3    0    0  0.51821923380E+00 -0.83825712870E+01  0.52074353395E+01  0.98819752900E+01  0.51100000000E-03 0. -1.
        -11    1    3    3    0    0 -0.24859640448E+02 -0.47491590441E+01  0.24487755788E+02  0.35216564549E+02  0.51100000000E-03 0.  1.
        -12    1    3    3    0    0  0.19607211740E+01 -0.49685567225E+01 -0.97848418171E+00  0.54303236295E+01  0.00000000000E+00 0.  1.
</event>
<event>
 7    1  0.1023000E-012  0.5052885E+02  0.7816164E-02  0.1300439E+00
        -11   -1    0    0    0    0  0.00000000000E+00  0.00000000000E+00  0.45593999997E+02  0.45594000000E+02  0.51100000000E-03 0. -1.
         11   -1    0    0    0    0 -0.00000000000E+00 -0.00000000000E+00 -0.45593999997E+02  0.45594000000E+02  0.51100000000E-03 0.  1.
    9900012    2    1    2    0    0  0.30213906164E+02 -0.18101464514E+02  0.20313123093E+02  0.50528854497E+02  0.29999983730E+02 0.  0.
        -12    1    1    2    0    0 -0.30213906164E+02  0.18101464514E+02 -0.20313123093E+02  0.40659145503E+02  0.00000000000E+00 0.  1.
         11    1    3    3    0    0  0.97466881618E+01 -0.14580529122E+02  0.99577953883E+01  0.20167980783E+02  0.51100000000E-03 0.  1.
        -11    1    3    3    0    0  0.22914083283E+02  0.11450976780E+01  0.10151547809E+02  0.25088251923E+02  0.51100000000E-03 0. -1.
         12    1    3    3    0    0 -0.24468652803E+01 -0.46660330701E+01  0.20377989535E+00  0.52726217916E+01  0.00000000000E+00 0. -1.
</event>
<event>
 7    1  0.1023000E-012  0.5052886E+02  0.7816164E-02  0.1300439E+00
        -11   -1    0    0    0    0  0.00000000000E+00  0.00000000000E+00  0.45593999997E+02  0.45594000000E+02  0.51100000000E-03 0. -1.
         11   -1    0    0    0    0 -0.00000000000E+00 -0.00000000000E+00 -0.45593999997E+02  0.45594000000E+02  0.51100000000E-03 0.  1.
    9900012    2    1    2    0    0 -0.31665337757E+01  0.40520040530E+02  0.11247374590E+01  0.50528860129E+02  0.30000000847E+02 0.  0.
        -12    1    1    2    0    0  0.31665337757E+01 -0.40520040530E+02 -0.11247374590E+01  0.40659139871E+02  0.00000000000E+00 0.  1.
         11    1    3    3    0    0 -0.31243826211E+01  0.31538321494E+02  0.83380774112E+01  0.32771191993E+02  0.51100000000E-03 0. -1.
        -11    1    3    3    0    0  0.56124348822E+01  0.40736284310E+01  0.56890258652E+00  0.69582702099E+01  0.51100000000E-03 0.  1.
         12    1    3    3    0    0 -0.56545860368E+01  0.49080906050E+01 -0.77822425387E+01  0.10799397926E+02  0.00000000000E+00 0. -1.
</event>
<event>
 7    1  0.1023000E-012  0.5052885E+02  0.7816164E-02  0.1300439E+00
        -11   -1    0    0    0    0  0.00000000000E+00  0.00000000000E+00  0.45593999997E+02  0.45594000000E+02  0.51100000000E-03 0. -1.
         11   -1    0    0    0    0 -0.00000000000E+00 -0.00000000000E+00 -0.45593999997E+02  0.45594000000E+02  0.51100000000E-03 0.  1.
    9900012    2    1    2    0    0  0.16469715291E+02  0.34623198110E+02  0.13533244531E+02  0.50528854944E+02  0.29999985087E+02 0.  0.
        -12    1    1    2    0    0 -0.16469715291E+02 -0.34623198110E+02 -0.13533244531E+02  0.40659145056E+02  0.00000000000E+00 0.  1.
         11    1    3    3    0    0  0.84587411524E+01  0.29118011097E+02 -0.47860779642E+00  0.30325532770E+02  0.51100000000E-03 0. -1.
        -11    1    3    3    0    0 -0.21458546728E+01 -0.75548728001E+00  0.41131603070E+01  0.47003767167E+01  0.51100000000E-03 0.  1.
         12    1    3    3    0    0  0.10156828812E+02  0.62606742937E+01  0.98986920206E+01  0.15502945457E+02  0.00000000000E+00 0. -1.
</event>
<event>
 7    1  0.1023000E-012  0.5052886E+02  0.7816164E-02  0.1300439E+00
        -11   -1    0    0    0    0  0.00000000000E+00  0.00000000000E+00  0.45593999997E+02  0.45594000000E+02  0.51100000000E-03 0.  1.
         11   -1    0    0    0    0 -0.00000000000E+00 -0.00000000000E+00 -0.45593999997E+02  0.45594000000E+02  0.51100000000E-03 0. -1.
    9900012    2    1    2    0    0 -0.11217132223E+02  0.36743201592E+02  0.13314594678E+02  0.50528863881E+02  0.30000012252E+02 0.  0.
        -12    1    1    2    0    0  0.11217132223E+02 -0.36743201592E+02 -0.13314594678E+02  0.40659136119E+02  0.00000000000E+00 0.  1.
         11    1    3    3    0    0  0.86313887289E+01  0.10376334890E+02  0.39893188097E+01  0.14074226869E+02  0.51100000000E-03 0. -1.
        -11    1    3    3    0    0 -0.95348897961E+01  0.87465315268E+01  0.94750982338E+01  0.16037251135E+02  0.51100000000E-03 0.  1.
         12    1    3    3    0    0 -0.10313631155E+02  0.17620335175E+02 -0.14982236579E+00  0.20417385877E+02  0.00000000000E+00 0. -1.
</event>
<event>
 7    1  0.1023000E-012  0.5052884E+02  0.7816164E-02  0.1300439E+00
        -11   -1    0    0    0    0  0.00000000000E+00  0.00000000000E+00  0.45593999997E+02  0.45594000000E+02  0.51100000000E-03 0.  1.
         11   -1    0    0    0    0 -0.00000000000E+00 -0.00000000000E+00 -0.45593999997E+02  0.45594000000E+02  0.51100000000E-03 0. -1.
    9900012    2    1    2    0    0  0.30637314358E+02 -0.68200569810E+01 -0.25845875103E+02  0.50528837833E+02  0.29999933076E+02 0.  0.
        -12    1    1    2    0    0 -0.30637314358E+02  0.68200569810E+01  0.25845875103E+02  0.40659162167E+02  0.00000000000E+00 0.  1.
         11    1    3    3    0    0  0.17817869257E+02  0.65308520793E+01 -0.58094092314E+01  0.19846353056E+02  0.51100000000E-03 0. -1.
        -11    1    3    3    0    0  0.15082184977E+02 -0.10901209852E+02 -0.20039612283E+02  0.27347664263E+02  0.51100000000E-03 0.  1.
        -12    1    3    3    0    0 -0.22627398762E+01 -0.24496992085E+01  0.31464111141E-02  0.33348205138E+01  0.00000000000E+00 0.  1.
</event>
<event>
 7    1  0.1023000E-012  0.5052882E+02  0.7816164E-02  0.1300439E+00
        -11   -1    0    0    0    0  0.00000000000E+00  0.00000000000E+00  0.45593999997E+02  0.45594000000E+02  0.51100000000E-03 0. -1.
         11   -1    0    0    0    0 -0.00000000000E+00 -0.00000000000E+00 -0.45593999997E+02  0.45594000000E+02  0.51100000000E-03 0.  1.
    9900012    2    1    2    0    0  0.34045773796E+02 -0.20382820597E+02  0.88653615021E+01  0.50528822396E+02  0.29999886155E+02 0.  0.
        -12    1    1    2    0    0 -0.34045773796E+02  0.20382820597E+02 -0.88653615021E+01  0.40659177604E+02  0.00000000000E+00 0.  1.
         11    1    3    3    0    0  0.12906497815E+02 -0.44525861336E+01 -0.84429177422E+00  0.13679036442E+02  0.51100000000E-03 0. -1.
        -11    1    3    3    0    0  0.78683940889E+01  0.16504637631E+01  0.12275234018E+02  0.14673684834E+02  0.51100000000E-03 0.  1.
        -12    1    3    3    0    0  0.13270881893E+02 -0.17580698226E+02 -0.25655807414E+01  0.22176101120E+02  0.00000000000E+00 0.  1.
</event>
<event>
 7    1  0.1023000E-012  0.5052890E+02  0.7816164E-02  0.1300439E+00
        -11   -1    0    0    0    0  0.00000000000E+00  0.00000000000E+00  0.45593999997E+02  0.45594000000E+02  0.51100000000E-03 0. -1.
         11   -1    0    0    0    0 -0.00000000000E+00 -0.00000000000E+00 -0.45593999997E+02  0.45594000000E+02  0.51100000000E-03 0.  1.
    9900012    2    1    2    0    0 -0.18521621505E+02 -0.76948444449E+01  0.35368088592E+02  0.50528895425E+02  0.30000108134E+02 0.  0.
        -12    1    1    2    0    0  0.18521621505E+02  0.76948444449E+01 -0.35368088592E+02  0.40659104575E+02  0.00000000000E+00 0.  1.
         11    1    3    3    0    0 -0.36737535905E+01  0.46530800059E+01 -0.22667552392E+01  0.63471094650E+01  0.51100000000E-03 0. -1.
        -11    1    3    3    0    0 -0.12783699310E+02 -0.61781642817E+01  0.15101130780E+02  0.20727682770E+02  0.51100000000E-03 0.  1.
         12    1    3    3    0    0 -0.20641686045E+01 -0.61697601691E+01  0.22533713051E+02  0.23454103190E+02  0.00000000000E+00 0. -1.
</event>
<event>
 7    1  0.1023000E-012  0.5052886E+02  0.7816164E-02  0.1300439E+00
        -11   -1    0    0    0    0  0.00000000000E+00  0.00000000000E+00  0.45593999997E+02  0.45594000000E+02  0.51100000000E-03 0.  1.
         11   -1    0    0    0    0 -0.00000000000E+00 -0.00000000000E+00 -0.45593999997E+02  0.45594000000E+02  0.51100000000E-03 0. -1.
    9900012    2    1    2    0    0 -0.33893424788E+01  0.39140479146E+02 -0.10473838356E+02  0.50528855394E+02  0.29999986454E+02 0.  0.
        -12    1    1    2    0    0  0.33893424788E+01 -0.39140479146E+02  0.10473838356E+02  0.40659144606E+02  0.00000000000E+00 0.  1.
         11    1    3    3    0    0 -0.10430273145E+02  0.99953056116E+01 -0.55746167375E+01  0.15484607976E+02  0.51100000000E-03 0. -1.
        -11    1    3    3    0    0  0.88543340764E+01  0.30413175124E+02 -0.24907806419E+01  0.31773643819E+02  0.51100000000E-03 0.  1.
        -12    1    3    3    0    0 -0.18134034101E+01 -0.12680015896E+01 -0.24084409769E+01  0.32706035985E+01  0.00000000000E+00 0.  1.
</event>
<event>
 7    1  0.1023000E-012  0.5052885E+02  0.7816164E-02  0.1300439E+00
        -11   -1    0    0    0    0  0.00000000000E+00  0.00000000000E+00  0.45593999997E+02  0.45594000000E+02  0.51100000000E-03 0. -1.
         11   -1    0    0    0    0 -0.00000000000E+00 -0.00000000000E+00 -0.45593999997E+02  0.45594000000E+02  0.51100000000E-03 0.  1.
    9900012    2    1    2    0    0  0.39813037841E+02  0.27539855323E+01  0.77784179798E+01  0.50528853370E+02  0.29999980302E+02 0.  0.
        -12    1    1    2    0    0 -0.39813037841E+02 -0.27539855323E+01 -0.77784179798E+01  0.40659146630E+02  0.00000000000E+00 0.  1.
         11    1    3    3    0    0  0.12596035594E+01 -0.42450645124E+01  0.65920231680E+00  0.44767981635E+01  0.51100000000E-03 0.  1.
        -11    1    3    3    0    0  0.39595883875E+02  0.37348195010E+01  0.10607878535E+02  0.41161996839E+02  0.51100000000E-03 0. -1.
        -12    1    3    3    0    0 -0.10424495935E+01  0.32642305437E+01 -0.34886628716E+01  0.48900583667E+01  0.00000000000E+00 0.  1.
</event>
<event>
 7    1  0.1023000E-012  0.5052887E+02  0.7816164E-02  0.1300439E+00
        -11   -1    0    0    0    0  0.00000000000E+00  0.00000000000E+00  0.45593999997E+02  0.45594000000E+02  0.51100000000E-03 0.  1.
         11   -1    0    0    0    0 -0.00000000000E+00 -0.00000000000E+00 -0.45593999997E+02  0.45594000000E+02  0.51100000000E-03 0. -1.
    9900012    2    1    2    0    0  0.11767769192E+02 -0.13370704195E+02 -0.36550090690E+02  0.50528865087E+02  0.30000015917E+02 0.  0.
        -12    1    1    2    0    0 -0.11767769192E+02  0.13370704195E+02  0.36550090690E+02  0.40659134913E+02  0.00000000000E+00 0.  1.
         11    1    3    3    0    0 -0.26880932810E+01 -0.44819808374E+01 -0.90057162576E+01  0.10412344755E+02  0.51100000000E-03 0. -1.
        -11    1    3    3    0    0  0.19194078689E+02 -0.16937072387E+00 -0.19226272995E+02  0.27167828708E+02  0.51100000000E-03 0.  1.
        -12    1    3    3    0    0 -0.47382162156E+01 -0.87193526333E+01 -0.83181014374E+01  0.12948691624E+02  0.00000000000E+00 0.  1.
</event>
<event>
 7    1  0.1023000E-012  0.5052886E+02  0.7816164E-02  0.1300439E+00
        -11   -1    0    0    0    0  0.00000000000E+00  0.00000000000E+00  0.45593999997E+02  0.45594000000E+02  0.51100000000E-03 0.  1.
         11   -1    0    0    0    0 -0.00000000000E+00 -0.00000000000E+00 -0.45593999997E+02  0.45594000000E+02  0.51100000000E-03 0. -1.
    9900012    2    1    2    0    0  0.26530911765E+02 -0.29764073066E+02  0.79609492867E+01  0.50528855419E+02  0.29999986530E+02 0.  0.
        -12    1    1    2    0    0 -0.26530911765E+02  0.29764073066E+02 -0.79609492867E+01  0.40659144581E+02  0.00000000000E+00 0.  1.
         11    1    3    3    0    0  0.13561993138E+02 -0.13086398930E+02 -0.47499736425E+01  0.19435630803E+02  0.51100000000E-03 0. -1.
        -11    1    3    3    0    0  0.69302067547E+01  0.28307264011E+01  0.60107873863E+01  0.96005386769E+01  0.51100000000E-03 0.  1.
        -12    1    3    3    0    0  0.60387118721E+01 -0.19508400537E+02  0.67001355429E+01  0.21492685939E+02  0.00000000000E+00 0.  1.
</event>
<event>
 7    1  0.1023000E-012  0.5052887E+02  0.7816164E-02  0.1300439E+00
        -11   -1    0    0    0    0  0.00000000000E+00  0.00000000000E+00  0.45593999997E+02  0.45594000000E+02  0.51100000000E-03 0.  1.
         11   -1    0    0    0    0 -0.00000000000E+00 -0.00000000000E+00 -0.45593999997E+02  0.45594000000E+02  0.51100000000E-03 0. -1.
    9900012    2    1    2    0    0 -0.53967746666E+01  0.13383810352E+02 -0.38012020358E+02  0.50528865134E+02  0.30000016061E+02 0.  0.
        -12    1    1    2    0    0  0.53967746666E+01 -0.13383810352E+02  0.38012020358E+02  0.40659134866E+02  0.00000000000E+00 0.  1.
         11    1    3    3    0    0  0.51260524785E+01  0.87940420783E+01 -0.26638055527E+02  0.28516619586E+02  0.51100000000E-03 0. -1.
        -11    1    3    3    0    0 -0.12811842993E+02  0.59657367923E+01 -0.48150826315E+01  0.14930450675E+02  0.51100000000E-03 0.  1.
        -12    1    3    3    0    0  0.22890158479E+01 -0.13759685181E+01 -0.65588821996E+01  0.70817948730E+01  0.00000000000E+00 0.  1.
</event>
<event>
 7    1  0.1023000E-012  0.5052890E+02  0.7816164E-02  0.1300439E+00
        -11   -1    0    0    0    0  0.00000000000E+00  0.00000000000E+00  0.45593999997E+02  0.45594000000E+02  0.51100000000E-03 0.  1.
         11   -1    0    0    0    0 -0.00000000000E+00 -0.00000000000E+00 -0.45593999997E+02  0.45594000000E+02  0.51100000000E-03 0. -1.
    9900012    2    1    2    0    0  0.21491278950E+02  0.34031094057E+02 -0.57595358854E+01  0.50528896625E+02  0.30000111782E+02 0.  0.
        -12    1    1    2    0    0 -0.21491278950E+02 -0.34031094057E+02  0.57595358854E+01  0.40659103375E+02  0.00000000000E+00 0.  1.
         11    1    3    3    0    0  0.53012725347E+00  0.17264721123E+02  0.43419674795E+01  0.17810230549E+02  0.51100000000E-03 0. -1.
        -11    1    3    3    0    0  0.61304254487E+01 -0.25988460866E+01 -0.12787366459E+01  0.67802127426E+01  0.51100000000E-03 0.  1.
        -12    1    3    3    0    0  0.14830726248E+02  0.19365219021E+02 -0.88227667189E+01  0.25938453334E+02  0.00000000000E+00 0.  1.
</event>
<event>
 7    1  0.1023000E-012  0.5052886E+02  0.7816164E-02  0.1300439E+00
        -11   -1    0    0    0    0  0.00000000000E+00  0.00000000000E+00  0.45593999997E+02  0.45594000000E+02  0.51100000000E-03 0. -1.
         11   -1    0    0    0    0 -0.00000000000E+00 -0.00000000000E+00 -0.45593999997E+02  0.45594000000E+02  0.51100000000E-03 0.  1.
    9900012    2    1    2    0    0 -0.17140553451E+02 -0.26217926863E+02  0.25922713000E+02  0.50528864361E+02  0.30000013713E+02 0.  0.
        -12    1    1    2    0    0  0.17140553451E+02  0.26217926863E+02 -0.25922713000E+02  0.40659135639E+02  0.00000000000E+00 0.  1.
         11    1    3    3    0    0 -0.61612805300E+01 -0.40939831475E+01  0.65983258992E+01  0.99126172484E+01  0.51100000000E-03 0. -1.
        -11    1    3    3    0    0  0.43242078519E+01 -0.18129443500E+02  0.15748987064E+02  0.24400944428E+02  0.51100000000E-03 0.  1.
        -12    1    3    3    0    0 -0.15303480773E+02 -0.39945002150E+01  0.35754000368E+01  0.16215302685E+02  0.00000000000E+00 0.  1.
</event>
<event>
 7    1  0.1159849E-012  0.5052884E+02  0.7816164E-02  0.1300439E+00
        -11   -1    0    0    0    0  0.00000000000E+00  0.00000000000E+00  0.45593999997E+02  0.45594000000E+02  0.51100000000E-03 0. -1.
         11   -1    0    0    0    0 -0.00000000000E+00 -0.00000000000E+00 -0.45593999997E+02  0.45594000000E+02  0.51100000000E-03 0.  1.
    9900012    2    1    2    0    0 -0.37587030298E+02  0.14222391078E+02 -0.61729846032E+01  0.50528843670E+02  0.29999950818E+02 0.  0.
        -12    1    1    2    0    0  0.37587030298E+02 -0.14222391078E+02  0.61729846032E+01  0.40659156330E+02  0.00000000000E+00 0.  1.
         11    1    3    3    0    0 -0.12468116153E+02  0.57263104347E+01 -0.13488621798E+00  0.13720887222E+02  0.51100000000E-03 0. -1.
        -11    1    3    3    0    0  0.45661238419E+00 -0.48447223827E+00  0.67877276612E+01  0.68202973016E+01  0.51100000000E-03 0.  1.
        -12    1    3    3    0    0 -0.25575526529E+02  0.89805528817E+01 -0.12825826046E+02  0.29987659146E+02  0.00000000000E+00 0.  1.
</event>
<event>
 7    1  0.1023000E-012  0.5052885E+02  0.7816164E-02  0.1300439E+00
        -11   -1    0    0    0    0  0.00000000000E+00  0.00000000000E+00  0.45593999997E+02  0.45594000000E+02  0.51100000000E-03 0. -1.
         11   -1    0    0    0    0 -0.00000000000E+00 -0.00000000000E+00 -0.45593999997E+02  0.45594000000E+02  0.51100000000E-03 0.  1.
    9900012    2    1    2    0    0 -0.35298728586E+02  0.18911732591E+02 -0.70365090437E+01  0.50528851842E+02  0.29999975660E+02 0.  0.
        -12    1    1    2    0    0  0.35298728586E+02 -0.18911732591E+02  0.70365090437E+01  0.40659148158E+02  0.00000000000E+00 0.  1.
         11    1    3    3    0    0 -0.32488565160E+02  0.14373602939E+02 -0.11342282179E+02  0.37292823611E+02  0.51100000000E-03 0. -1.
        -11    1    3    3    0    0  0.54317160330E+00  0.77273311549E+01  0.36458724527E+01  0.85614875093E+01  0.51100000000E-03 0.  1.
        -12    1    3    3    0    0 -0.33533350295E+01 -0.31892015035E+01  0.65990068264E+00  0.46745407219E+01  0.00000000000E+00 0.  1.
</event>
<event>
 7    1  0.1023000E-012  0.5052887E+02  0.7816164E-02  0.1300439E+00
        -11   -1    0    0    0    0  0.00000000000E+00  0.00000000000E+00  0.45593999997E+02  0.45594000000E+02  0.51100000000E-03 0. -1.
         11   -1    0    0    0    0 -0.00000000000E+00 -0.00000000000E+00 -0.45593999997E+02  0.45594000000E+02  0.51100000000E-03 0.  1.
    9900012    2    1    2    0    0 -0.26815717682E+02  0.31357486657E+01 -0.30401464268E+02  0.50528872315E+02  0.30000037887E+02 0.  0.
        -12    1    1    2    0    0  0.26815717682E+02 -0.31357486657E+01  0.30401464268E+02  0.40659127685E+02  0.00000000000E+00 0.  1.
         11    1    3    3    0    0 -0.22281247206E+02 -0.81757965501E+00 -0.19740959064E+02  0.29779655447E+02  0.51100000000E-03 0. -1.
        -11    1    3    3    0    0  0.26746548771E+00 -0.61590478318E+01 -0.60649513529E+01  0.86480658621E+01  0.51100000000E-03 0.  1.
         12    1    3    3    0    0 -0.48019359636E+01  0.10112376152E+02 -0.45955538518E+01  0.12101151005E+02  0.00000000000E+00 0. -1.
</event>
<event>
 7    1  0.1023000E-012  0.5052886E+02  0.7816164E-02  0.1300439E+00
        -11   -1    0    0    0    0  0.00000000000E+00  0.00000000000E+00  0.45593999997E+02  0.45594000000E+02  0.51100000000E-03 0.  1.
         11   -1    0    0    0    0 -0.00000000000E+00 -0.00000000000E+00 -0.45593999997E+02  0.45594000000E+02  0.51100000000E-03 0. -1.
    9900012    2    1    2    0    0 -0.41057326886E+01  0.31499852722E+02 -0.25378495579E+02  0.50528858343E+02  0.29999995418E+02 0.  0.
        -12    1    1    2    0    0  0.41057326886E+01 -0.31499852722E+02  0.25378495579E+02  0.40659141657E+02  0.00000000000E+00 0.  1.
         11    1    3    3    0    0  0.36524039880E+01  0.19718238181E+02 -0.14415772182E+02  0.24697438323E+02  0.51100000000E-03 0. -1.
        -11    1    3    3    0    0 -0.51252632061E+01 -0.43680785003E+00  0.38682785612E+01  0.64360471812E+01  0.51100000000E-03 0.  1.
         12    1    3    3    0    0 -0.26328734704E+01  0.12218422392E+02 -0.14831001958E+02  0.19395372838E+02  0.00000000000E+00 0. -1.
</event>
<event>
 7    1  0.1023000E-012  0.5052886E+02  0.7816164E-02  0.1300439E+00
        -11   -1    0    0    0    0  0.00000000000E+00  0.00000000000E+00  0.45593999997E+02  0.45594000000E+02  0.51100000000E-03 0.  1.
         11   -1    0    0    0    0 -0.00000000000E+00 -0.00000000000E+00 -0.45593999997E+02  0.45594000000E+02  0.51100000000E-03 0. -1.
    9900012    2    1    2    0    0  0.95483345963E+01  0.69257969594E+01 -0.38910512054E+02  0.50528864429E+02  0.30000013919E+02 0.  0.
        -12    1    1    2    0    0 -0.95483345963E+01 -0.69257969594E+01  0.38910512054E+02  0.40659135571E+02  0.00000000000E+00 0.  1.
         11    1    3    3    0    0 -0.74490517580E+01 -0.17589483916E+01 -0.19233185317E+02  0.20700185729E+02  0.51100000000E-03 0. -1.
        -11    1    3    3    0    0  0.97317525258E+01  0.10632584816E+02 -0.15724352822E+02  0.21331060429E+02  0.51100000000E-03 0.  1.
         12    1    3    3    0    0  0.72656338284E+01 -0.19478394649E+01 -0.39529739151E+01  0.84976182712E+01  0.00000000000E+00 0. -1.
</event>
<event>
 7    1  0.1023000E-012  0.5052886E+02  0.7816164E-02  0.1300439E+00
        -11   -1    0    0    0    0  0.00000000000E+00  0.00000000000E+00  0.45593999997E+02  0.45594000000E+02  0.51100000000E-03 0.  1.
         11   -1    0    0    0    0 -0.00000000000E+00 -0.00000000000E+00 -0.45593999997E+02  0.45594000000E+02  0.51100000000E-03 0. -1.
    9900012    2    1    2    0    0 -0.26198741293E+02 -0.24836941340E+02  0.18706095562E+02  0.50528859433E+02  0.29999998734E+02 0.  0.
        -12    1    1    2    0    0  0.26198741293E+02  0.24836941340E+02 -0.18706095562E+02  0.40659140567E+02  0.00000000000E+00 0.  1.
         11    1    3    3    0    0 -0.12082285825E+02 -0.27017336596E+00 -0.51626531598E+01  0.13141826825E+02  0.51100000000E-03 0. -1.
        -11    1    3    3    0    0 -0.64865224148E+01 -0.93141638627E+01  0.12533572451E+02  0.16909141319E+02  0.51100000000E-03 0.  1.
         12    1    3    3    0    0 -0.76299330538E+01 -0.15252604111E+02  0.11335176271E+02  0.20477891289E+02  0.00000000000E+00 0. -1.
</event>
<event>
 7    1  0.1023000E-012  0.5052882E+02  0.7816164E-02  0.1300439E+00
        -11   -1    0    0    0    0  0.00000000000E+00  0.00000000000E+00  0.45593999997E+02  0.45594000000E+02  0.51100000000E-03 0.  1.
         11   -1    0    0    0    0 -0.00000000000E+00 -0.00000000000E+00 -0.45593999997E+02  0.45594000000E+02  0.51100000000E-03 0. -1.
    9900012    2    1    2    0    0  0.33779795520E+02 -0.20158578398E+01 -0.22539530979E+02  0.50528822378E+02  0.29999886099E+02 0.  0.
        -12    1    1    2    0    0 -0.33779795520E+02  0.20158578398E+01  0.22539530979E+02  0.40659177622E+02  0.00000000000E+00 0.  1.
         11    1    3    3    0    0  0.24194791227E+01 -0.12105761260E+01  0.47170777531E+01  0.54378485242E+01  0.51100000000E-03 0.  1.
        -11    1    3    3    0    0  0.29698469079E+02 -0.56504589301E+01 -0.25857408399E+02  0.39781054802E+02  0.51100000000E-03 0. -1.
        -12    1    3    3    0    0  0.16618473180E+01  0.48451772163E+01 -0.13992003328E+01  0.53099190518E+01  0.00000000000E+00 0.  1.
</event>
<event>
 7    1  0.1023000E-012  0.5052889E+02  0.7816164E-02  0.1300439E+00
        -11   -1    0    0    0    0  0.00000000000E+00  0.00000000000E+00  0.45593999997E+02  0.45594000000E+02  0.51100000000E-03 0.  1.
         11   -1    0    0    0    0 -0.00000000000E+00 -0.00000000000E+00 -0.45593999997E+02  0.45594000000E+02  0.51100000000E-03 0. -1.
    9900012    2    1    2    0    0 -0.22057875410E+02 -0.28560533063E+02 -0.18732575063E+02  0.50528889275E+02  0.30000089440E+02 0.  0.
        -12    1    1    2    0    0  0.22057875410E+02  0.28560533063E+02  0.18732575063E+02  0.40659110725E+02  0.00000000000E+00 0.  1.
         11    1    3    3    0    0 -0.36679089402E+01 -0.11954610551E+02  0.53136478256E+01  0.13586799583E+02  0.51100000000E-03 0. -1.
        -11    1    3    3    0    0 -0.91341164907E+00 -0.70432331358E+01 -0.11118866872E+02  0.13193583843E+02  0.51100000000E-03 0.  1.
         12    1    3    3    0    0 -0.17476554821E+02 -0.95626893762E+01 -0.12927356017E+02  0.23748505850E+02  0.00000000000E+00 0. -1.
</event>
<event>
 7    1  0.1023000E-012  0.5052887E+02  0.7816164E-02  0.1300439E+00
        -11   -1    0    0    0    0  0.00000000000E+00  0.00000000000E+00  0.45593999997E+02  0.45594000000E+02  0.51100000000E-03 0.  1.
         11   -1    0    0    0    0 -0.00000000000E+00 -0.00000000000E+00 -0.45593999997E+02  0.45594000000E+02  0.51100000000E-03 0. -1.
    9900012    2    1    2    0    0  0.13993848067E+02 -0.63173240887E+01 -0.37648756107E+02  0.50528865678E+02  0.30000017716E+02 0.  0.
        -12    1    1    2    0    0 -0.13993848067E+02  0.63173240887E+01  0.37648756107E+02  0.40659134322E+02  0.00000000000E+00 0.  1.
         11    1    3    3    0    0  0.10619628501E+02 -0.23287788390E+01 -0.15180134136E+02  0.18671802083E+02  0.51100000000E-03 0. -1.
        -11    1    3    3    0    0 -0.86019649056E+01  0.24971246849E+01 -0.93107405214E+01  0.12919726052E+02  0.51100000000E-03 0.  1.
        -12    1    3    3    0    0  0.11976184472E+02 -0.64856699346E+01 -0.13157881450E+02  0.18937337544E+02  0.00000000000E+00 0.  1.
</event>
<event>
 7    1  0.1023000E-012  0.5052886E+02  0.7816164E-02  0.1300439E+00
        -11   -1    0    0    0    0  0.00000000000E+00  0.00000000000E+00  0.45593999997E+02  0.45594000000E+02  0.51100000000E-03 0.  1.
         11   -1    0    0    0    0 -0.00000000000E+00 -0.00000000000E+00 -0.45593999997E+02  0.45594000000E+02  0.51100000000E-03 0. -1.
    9900012    2    1    2    0    0  0.14944719048E+02  0.12540183572E+02 -0.35673021020E+02  0.50528864985E+02  0.30000015609E+02 0.  0.
        -12    1    1    2    0    0 -0.14944719048E+02 -0.12540183572E+02  0.35673021020E+02  0.40659135015E+02  0.00000000000E+00 0.  1.
         11    1    3    3    0    0  0.12875670347E+02  0.76256956747E+00 -0.73034222967E+01  0.14822428166E+02  0.51100000000E-03 0. -1.
        -11    1    3    3    0    0 -0.49793393706E+01 -0.13889775488E+01 -0.14231548988E+02  0.15141336336E+02  0.51100000000E-03 0.  1.
         12    1    3    3    0    0  0.70483880715E+01  0.13166591553E+02 -0.14138049736E+02  0.20565100483E+02  0.00000000000E+00 0. -1.
</event>
<event>
 7    1  0.1023000E-012  0.5052884E+02  0.7816164E-02  0.1300439E+00
        -11   -1    0    0    0    0  0.00000000000E+00  0.00000000000E+00  0.45593999997E+02  0.45594000000E+02  0.51100000000E-03 0.  1.
         11   -1    0    0    0    0 -0.00000000000E+00 -0.00000000000E+00 -0.45593999997E+02  0.45594000000E+02  0.51100000000E-03 0. -1.
    9900012    2    1    2    0    0  0.15913531730E+02 -0.37403114728E+02 -0.96626979468E+00  0.50528841612E+02  0.29999944565E+02 0.  0.
        -12    1    1    2    0    0 -0.15913531730E+02  0.37403114728E+02  0.96626979468E+00  0.40659158388E+02  0.00000000000E+00 0.  1.
         11    1    3    3    0    0  0.66209173363E+01 -0.24298068929E+02 -0.38918438389E+01  0.25482918765E+02  0.51100000000E-03 0. -1.
        -11    1    3    3    0    0 -0.11855770650E+01  0.25500065396E+01 -0.40732846015E+01  0.49497246423E+01  0.51100000000E-03 0.  1.
        -12    1    3    3    0    0  0.10478191458E+02 -0.15655052339E+02  0.69988586457E+01  0.20096198205E+02  0.00000000000E+00 0.  1.
</event>
<event>
 7    1  0.1023000E-012  0.5052886E+02  0.7816164E-02  0.1300439E+00
        -11   -1    0    0    0    0  0.00000000000E+00  0.00000000000E+00  0.45593999997E+02  0.45594000000E+02  0.51100000000E-03 0. -1.
         11   -1    0    0    0    0 -0.00000000000E+00 -0.00000000000E+00 -0.45593999997E+02  0.45594000000E+02  0.51100000000E-03 0.  1.
    9900012    2    1    2    0    0 -0.35583351906E+02  0.37041132048E+01  0.19320212074E+02  0.50528856108E+02  0.29999988625E+02 0.  0.
        -12    1    1    2    0    0  0.35583351906E+02 -0.37041132048E+01 -0.19320212074E+02  0.40659143892E+02  0.00000000000E+00 0.  1.
         11    1    3    3    0    0 -0.17336512337E+02  0.27194090333E+01  0.18587625979E+02  0.25562661937E+02  0.51100000000E-03 0. -1.
        -11    1    3    3    0    0 -0.17481731271E+02  0.54796638518E+00 -0.57598054222E+01  0.18414302978E+02  0.51100000000E-03 0.  1.
        -12    1    3    3    0    0 -0.76510829746E+00  0.43673778633E+00  0.64923915165E+01  0.65518911930E+01  0.00000000000E+00 0.  1.
</event>
<event>
 7    1  0.1023000E-012  0.5052886E+02  0.7816164E-02  0.1300439E+00
        -11   -1    0    0    0    0  0.00000000000E+00  0.00000000000E+00  0.45593999997E+02  0.45594000000E+02  0.51100000000E-03 0.  1.
         11   -1    0    0    0    0 -0.00000000000E+00 -0.00000000000E+00 -0.45593999997E+02  0.45594000000E+02  0.51100000000E-03 0. -1.
    9900012    2    1    2    0    0 -0.22303591647E+02  0.89892882938E+01  0.32785789283E+02  0.50528862241E+02  0.30000007268E+02 0.  0.
        -12    1    1    2    0    0  0.22303591647E+02 -0.89892882938E+01 -0.32785789283E+02  0.40659137759E+02  0.00000000000E+00 0.  1.
         11    1    3    3    0    0 -0.14295549343E+02  0.51292898532E+01  0.97714827627E+01  0.18059740338E+02  0.51100000000E-03 0. -1.
        -11    1    3    3    0    0  0.40346422773E+01 -0.27406372819E+01 -0.83510710572E+00  0.49484174396E+01  0.51100000000E-03 0.  1.
        -12    1    3    3    0    0 -0.12042684581E+02  0.66006357224E+01  0.23849413626E+02  0.27520704464E+02  0.00000000000E+00 0.  1.
</event>
<event>
 7    1  0.1023000E-012  0.5052892E+02  0.7816164E-02  0.1300439E+00
        -11   -1    0    0    0    0  0.00000000000E+00  0.00000000000E+00  0.45593999997E+02  0.45594000000E+02  0.51100000000E-03 0.  1.
         11   -1    0    0    0    0 -0.00000000000E+00 -0.00000000000E+00 -0.45593999997E+02  0.45594000000E+02  0.51100000000E-03 0. -1.
    9900012    2    1    2    0    0  0.28173984732E+02  0.27115138420E+02 -0.11142573236E+02  0.50528916322E+02  0.30000171652E+02 0.  0.
        -12    1    1    2    0    0 -0.28173984732E+02 -0.27115138420E+02  0.11142573236E+02  0.40659083678E+02  0.00000000000E+00 0.  1.
         11    1    3    3    0    0  0.10648558642E+02  0.13938064233E+01 -0.14183163818E+02  0.17790352263E+02  0.51100000000E-03 0.  1.
        -11    1    3    3    0    0  0.96761981810E+01  0.61472994685E+01  0.18853743577E+01  0.11617776841E+02  0.51100000000E-03 0. -1.
         12    1    3    3    0    0  0.78492279095E+01  0.19574032528E+02  0.11552162247E+01  0.21120787218E+02  0.00000000000E+00 0. -1.
</event>
<event>
 7    1  0.1023000E-012  0.5052882E+02  0.7816164E-02  0.1300439E+00
        -11   -1    0    0    0    0  0.00000000000E+00  0.00000000000E+00  0.45593999997E+02  0.45594000000E+02  0.51100000000E-03 0.  1.
         11   -1    0    0    0    0 -0.00000000000E+00 -0.00000000000E+00 -0.45593999997E+02  0.45594000000E+02  0.51100000000E-03 0. -1.
    9900012    2    1    2    0    0  0.14225381694E+02  0.27496127263E+02 -0.26358493602E+02  0.50528822883E+02  0.29999887636E+02 0.  0.
        -12    1    1    2    0    0 -0.14225381694E+02 -0.27496127263E+02  0.26358493602E+02  0.40659177117E+02  0.00000000000E+00 0.  1.
         11    1    3    3    0    0  0.15517167434E+02  0.19512172466E+02 -0.13144385301E+02  0.28183013052E+02  0.51100000000E-03 0. -1.
        -11    1    3    3    0    0 -0.69714165764E+01  0.41466582740E+00 -0.12552100761E+01  0.70956429889E+01  0.51100000000E-03 0.  1.
         12    1    3    3    0    0  0.56796308357E+01  0.75692889703E+01 -0.11958898225E+02  0.15250166842E+02  0.00000000000E+00 0. -1.
</event>
<event>
 7    1  0.1023000E-012  0.5052887E+02  0.7816164E-02  0.1300439E+00
        -11   -1    0    0    0    0  0.00000000000E+00  0.00000000000E+00  0.45593999997E+02  0.45594000000E+02  0.51100000000E-03 0. -1.
         11   -1    0    0    0    0 -0.00000000000E+00 -0.00000000000E+00 -0.45593999997E+02  0.45594000000E+02  0.51100000000E-03 0.  1.
    9900012    2    1    2    0    0  0.12966834660E+02 -0.14210349188E+02  0.35820276442E+02  0.50528867822E+02  0.30000024231E+02 0.  0.
        -12    1    1    2    0    0 -0.12966834660E+02  0.14210349188E+02 -0.35820276442E+02  0.40659132178E+02  0.00000000000E+00 0.  1.
         11    1    3    3    0    0 -0.61577294689E+01 -0.94396304145E+01  0.39707833860E+01  0.11949534532E+02  0.51100000000E-03 0. -1.
        -11    1    3    3    0    0  0.43717766402E+00  0.14783468894E+01  0.63835632147E+00  0.16685721110E+01  0.51100000000E-03 0.  1.
         12    1    3    3    0    0  0.18687386465E+02 -0.62490656633E+01  0.31211136734E+02  0.36910761179E+02  0.00000000000E+00 0. -1.
</event>
<event>
 7    1  0.1023000E-012  0.5052884E+02  0.7816164E-02  0.1300439E+00
        -11   -1    0    0    0    0  0.00000000000E+00  0.00000000000E+00  0.45593999997E+02  0.45594000000E+02  0.51100000000E-03 0. -1.
         11   -1    0    0    0    0 -0.00000000000E+00 -0.00000000000E+00 -0.45593999997E+02  0.45594000000E+02  0.51100000000E-03 0.  1.
    9900012    2    1    2    0    0  0.14832769594E+02 -0.18652009141E+02  0.32943262514E+02  0.50528843050E+02  0.29999948935E+02 0.  0.
        -12    1    1    2    0    0 -0.14832769594E+02  0.18652009141E+02 -0.32943262514E+02  0.40659156950E+02  0.00000000000E+00 0.  1.
         11    1    3    3    0    0  0.12416995607E+02 -0.20455645984E+02  0.12825720007E+02  0.27149849474E+02  0.51100000000E-03 0.  1.
        -11    1    3    3    0    0 -0.46775057661E+01  0.79580838821E+00  0.78439589189E+01  0.91673367433E+01  0.51100000000E-03 0. -1.
         12    1    3    3    0    0  0.70932797529E+01  0.10078284543E+01  0.12273583587E+02  0.14211656832E+02  0.00000000000E+00 0. -1.
</event>
<event>
 7    1  0.1023000E-012  0.5052887E+02  0.7816164E-02  0.1300439E+00
        -11   -1    0    0    0    0  0.00000000000E+00  0.00000000000E+00  0.45593999997E+02  0.45594000000E+02  0.51100000000E-03 0. -1.
         11   -1    0    0    0    0 -0.00000000000E+00 -0.00000000000E+00 -0.45593999997E+02  0.45594000000E+02  0.51100000000E-03 0.  1.
    9900012    2    1    2    0    0  0.18609084734E+02  0.34762623965E+02  0.99210441993E+01  0.50528866001E+02  0.30000018696E+02 0.  0.
        -12    1    1    2    0    0 -0.18609084734E+02 -0.34762623965E+02 -0.99210441993E+01  0.40659133999E+02  0.00000000000E+00 0.  1.
         11    1    3    3    0    0  0.20175452341E+02  0.18661214872E+02  0.36935310956E+01  0.27729622967E+02  0.51100000000E-03 0. -1.
        -11    1    3    3    0    0 -0.32153246225E+01  0.93217662460E+01 -0.38131619256E+01  0.10572314908E+02  0.51100000000E-03 0.  1.
        -12    1    3    3    0    0  0.16489570158E+01  0.67796428462E+01  0.10040675029E+02  0.12226928126E+02  0.00000000000E+00 0.  1.
</event>
<event>
 7    1  0.1023000E-012  0.5052885E+02  0.7816164E-02  0.1300439E+00
        -11   -1    0    0    0    0  0.00000000000E+00  0.00000000000E+00  0.45593999997E+02  0.45594000000E+02  0.51100000000E-03 0.  1.
         11   -1    0    0    0    0 -0.00000000000E+00 -0.00000000000E+00 -0.45593999997E+02  0.45594000000E+02  0.51100000000E-03 0. -1.
    9900012    2    1    2    0    0  0.16197275514E+02  0.29526927099E+02 -0.22781031016E+02  0.50528849343E+02  0.29999968063E+02 0.  0.
        -12    1    1    2    0    0 -0.16197275514E+02 -0.29526927099E+02  0.22781031016E+02  0.40659150657E+02  0.00000000000E+00 0.  1.
         11    1    3    3    0    0  0.18260465620E+02  0.11927721516E+02 -0.83720700669E+01  0.23362506345E+02  0.51100000000E-03 0. -1.
        -11    1    3    3    0    0 -0.61039489447E+01  0.17865986095E+02 -0.12794549706E+02  0.22806844462E+02  0.51100000000E-03 0.  1.
        -12    1    3    3    0    0  0.40407588381E+01 -0.26678051212E+00 -0.16144112431E+01  0.43594985367E+01  0.00000000000E+00 0.  1.
</event>
<event>
 7    1  0.1023000E-012  0.5052881E+02  0.7816164E-02  0.1300439E+00
        -11   -1    0    0    0    0  0.00000000000E+00  0.00000000000E+00  0.45593999997E+02  0.45594000000E+02  0.51100000000E-03 0. -1.
         11   -1    0    0    0    0 -0.00000000000E+00 -0.00000000000E+00 -0.45593999997E+02  0.45594000000E+02  0.51100000000E-03 0.  1.
    9900012    2    1    2    0    0  0.57841783757E+01  0.31277920828E+01  0.40123927170E+02  0.50528814883E+02  0.29999863319E+02 0.  0.
        -12    1    1    2    0    0 -0.57841783757E+01 -0.31277920828E+01 -0.40123927170E+02  0.40659185117E+02  0.00000000000E+00 0.  1.
         11    1    3    3    0    0  0.74099215023E+01  0.56197182433E+01  0.94441941303E+01  0.13254469919E+02  0.51100000000E-03 0. -1.
        -11    1    3    3    0    0 -0.63873049943E+01  0.21430098129E+01  0.94141761049E+00  0.68026776733E+01  0.51100000000E-03 0.  1.
        -12    1    3    3    0    0  0.47615618676E+01 -0.46349359734E+01  0.29738315429E+02  0.30471667291E+02  0.00000000000E+00 0.  1.
</event>
<event>
 7    1  0.1023000E-012  0.5052887E+02  0.7816164E-02  0.1300439E+00
        -11   -1    0    0    0    0  0.00000000000E+00  0.00000000000E+00  0.45593999997E+02  0.45594000000E+02  0.51100000000E-03 0.  1.
         11   -1    0    0    0    0 -0.00000000000E+00 -0.00000000000E+00 -0.45593999997E+02  0.45594000000E+02  0.51100000000E-03 0. -1.
    9900012    2    1    2    0    0  0.16116960772E+02  0.30814912974E+02 -0.21067746915E+02  0.50528865157E+02  0.30000016130E+02 0.  0.
        -12    1    1    2    0    0 -0.16116960772E+02 -0.30814912974E+02  0.21067746915E+02  0.40659134843E+02  0.00000000000E+00 0.  1.
         11    1    3    3    0    0  0.79951071541E+01  0.73508257939E+01 -0.40124338524E+01  0.11578255652E+02  0.51100000000E-03 0. -1.
        -11    1    3    3    0    0 -0.65249055000E+01 -0.87621910439E+00 -0.26164685247E+01  0.70843531465E+01  0.51100000000E-03 0.  1.
        -12    1    3    3    0    0  0.14646759118E+02  0.24340306285E+02 -0.14438844538E+02  0.31866256358E+02  0.00000000000E+00 0.  1.
</event>
<event>
 7    1  0.1023000E-012  0.5052886E+02  0.7816164E-02  0.1300439E+00
        -11   -1    0    0    0    0  0.00000000000E+00  0.00000000000E+00  0.45593999997E+02  0.45594000000E+02  0.51100000000E-03 0.  1.
         11   -1    0    0    0    0 -0.00000000000E+00 -0.00000000000E+00 -0.45593999997E+02  0.45594000000E+02  0.51100000000E-03 0. -1.
    9900012    2    1    2    0    0  0.93040806133E+00 -0.30075311901E+02 -0.27345484288E+02  0.50528861347E+02  0.30000004549E+02 0.  0.
        -12    1    1    2    0    0 -0.93040806133E+00  0.30075311901E+02  0.27345484288E+02  0.40659138653E+02  0.00000000000E+00 0.  1.
         11    1    3    3    0    0 -0.10754008292E+02 -0.22282867433E+02 -0.11144836613E+02  0.27136364140E+02  0.51100000000E-03 0. -1.
        -11    1    3    3    0    0  0.11023865116E+02 -0.75229113755E+01 -0.17441052839E+02  0.21961560101E+02  0.51100000000E-03 0.  1.
         12    1    3    3    0    0  0.66055123755E+00 -0.26953309312E+00  0.12404051651E+01  0.14309371053E+01  0.00000000000E+00 0. -1.
</event>
<event>
 7    1  0.1023000E-012  0.5052885E+02  0.7816164E-02  0.1300439E+00
        -11   -1    0    0    0    0  0.00000000000E+00  0.00000000000E+00  0.45593999997E+02  0.45594000000E+02  0.51100000000E-03 0.  1.
         11   -1    0    0    0    0 -0.00000000000E+00 -0.00000000000E+00 -0.45593999997E+02  0.45594000000E+02  0.51100000000E-03 0. -1.
    9900012    2    1    2    0    0 -0.10896547670E+02  0.20073528823E+02 -0.33637558840E+02  0.50528847583E+02  0.29999962713E+02 0.  0.
        -12    1    1    2    0    0  0.10896547670E+02 -0.20073528823E+02  0.33637558840E+02  0.40659152417E+02  0.00000000000E+00 0.  1.
         11    1    3    3    0    0  0.19710621448E+01  0.36392739910E+01 -0.13459889574E+02  0.14081833289E+02  0.51100000000E-03 0. -1.
        -11    1    3    3    0    0 -0.51635499837E+01 -0.19251391713E+01  0.26849473045E+01  0.61300368313E+01  0.51100000000E-03 0.  1.
        -12    1    3    3    0    0 -0.77040598309E+01  0.18359394003E+02 -0.22862616571E+02  0.30316977463E+02  0.00000000000E+00 0.  1.
</event>
<event>
 7    1  0.1023000E-012  0.5052886E+02  0.7816164E-02  0.1300439E+00
        -11   -1    0    0    0    0  0.00000000000E+00  0.00000000000E+00  0.45593999997E+02  0.45594000000E+02  0.51100000000E-03 0.  1.
         11   -1    0    0    0    0 -0.00000000000E+00 -0.00000000000E+00 -0.45593999997E+02  0.45594000000E+02  0.51100000000E-03 0. -1.
    9900012    2    1    2    0    0 -0.24013389497E+02 -0.51557885676E+01 -0.32402790430E+02  0.50528857627E+02  0.29999993243E+02 0.  0.
        -12    1    1    2    0    0  0.24013389497E+02  0.51557885676E+01  0.32402790430E+02  0.40659142373E+02  0.00000000000E+00 0.  1.
         11    1    3    3    0    0 -0.94024777462E+00 -0.77773320479E+01  0.89404156615E+00  0.78848126322E+01  0.51100000000E-03 0. -1.
        -11    1    3    3    0    0 -0.31414234198E+01  0.56629626637E+01 -0.77658752161E+01  0.10111701408E+02  0.51100000000E-03 0.  1.
         12    1    3    3    0    0 -0.19931718303E+02 -0.30414191834E+01 -0.25530956780E+02  0.32532343587E+02  0.00000000000E+00 0. -1.
</event>
<event>
 7    1  0.1023000E-012  0.5052888E+02  0.7816164E-02  0.1300439E+00
        -11   -1    0    0    0    0  0.00000000000E+00  0.00000000000E+00  0.45593999997E+02  0.45594000000E+02  0.51100000000E-03 0. -1.
         11   -1    0    0    0    0 -0.00000000000E+00 -0.00000000000E+00 -0.45593999997E+02  0.45594000000E+02  0.51100000000E-03 0.  1.
    9900012    2    1    2    0    0  0.80312453524E+01 -0.20081579243E+02  0.34429547038E+02  0.50528875119E+02  0.30000046413E+02 0.  0.
        -12    1    1    2    0    0 -0.80312453524E+01  0.20081579243E+02 -0.34429547038E+02  0.40659124881E+02  0.00000000000E+00 0.  1.
         11    1    3    3    0    0  0.60759783078E+01 -0.22355438793E+02  0.35292191446E+02  0.42216370443E+02  0.51100000000E-03 0. -1.
        -11    1    3    3    0    0  0.60830474584E+00  0.50329318779E+01 -0.12402429719E+01  0.52190651310E+01  0.51100000000E-03 0.  1.
         12    1    3    3    0    0  0.13469622987E+01 -0.27590723285E+01  0.37759856361E+00  0.30934395458E+01  0.00000000000E+00 0. -1.
</event>
<event>
 7    1  0.1023000E-012  0.5052886E+02  0.7816164E-02  0.1300439E+00
        -11   -1    0    0    0    0  0.00000000000E+00  0.00000000000E+00  0.45593999997E+02  0.45594000000E+02  0.51100000000E-03 0.  1.
         11   -1    0    0    0    0 -0.00000000000E+00 -0.00000000000E+00 -0.45593999997E+02  0.45594000000E+02  0.51100000000E-03 0. -1.
    9900012    2    1    2    0    0 -0.86216970637E+01  0.16511129087E+02 -0.36141595363E+02  0.50528856386E+02  0.29999989472E+02 0.  0.
        -12    1    1    2    0    0  0.86216970637E+01 -0.16511129087E+02  0.36141595363E+02  0.40659143614E+02  0.00000000000E+00 0.  1.
         11    1    3    3    0    0 -0.30162086529E+01 -0.51887797997E+01 -0.71201794761E+00  0.60438332427E+01  0.51100000000E-03 0.  1.
        -11    1    3    3    0    0  0.33881198133E+01  0.73243197687E+01 -0.19968423673E+02  0.21537478037E+02  0.51100000000E-03 0. -1.
         12    1    3    3    0    0 -0.89936082242E+01  0.14375589118E+02 -0.15461153743E+02  0.22947545107E+02  0.00000000000E+00 0. -1.
</event>
<event>
 7    1  0.1023000E-012  0.5052886E+02  0.7816164E-02  0.1300439E+00
        -11   -1    0    0    0    0  0.00000000000E+00  0.00000000000E+00  0.45593999997E+02  0.45594000000E+02  0.51100000000E-03 0.  1.
         11   -1    0    0    0    0 -0.00000000000E+00 -0.00000000000E+00 -0.45593999997E+02  0.45594000000E+02  0.51100000000E-03 0. -1.
    9900012    2    1    2    0    0 -0.14260459057E+02  0.12799930169E+02 -0.35860373936E+02  0.50528864204E+02  0.30000013235E+02 0.  0.
        -12    1    1    2    0    0  0.14260459057E+02 -0.12799930169E+02  0.35860373936E+02  0.40659135796E+02  0.00000000000E+00 0.  1.
         11    1    3    3    0    0 -0.10789029953E+02 -0.13884173456E+01 -0.26551218300E+02  0.28693171026E+02  0.51100000000E-03 0. -1.
        -11    1    3    3    0    0 -0.32286812957E+01  0.16606733854E+02 -0.94914273353E+01  0.19398329447E+02  0.51100000000E-03 0.  1.
        -12    1    3    3    0    0 -0.24274780789E+00 -0.24183863394E+01  0.18227169964E+00  0.24373637310E+01  0.00000000000E+00 0.  1.
</event>
<event>
 7    1  0.1023000E-012  0.5052886E+02  0.7816164E-02  0.1300439E+00
        -11   -1    0    0    0    0  0.00000000000E+00  0.00000000000E+00  0.45593999997E+02  0.45594000000E+02  0.51100000000E-03 0. -1.
         11   -1    0    0    0    0 -0.00000000000E+00 -0.00000000000E+00 -0.45593999997E+02  0.45594000000E+02  0.51100000000E-03 0.  1.
    9900012    2    1    2    0    0 -0.11278006696E+02  0.36638090673E+02  0.13550739492E+02  0.50528860019E+02  0.30000000514E+02 0.  0.
        -12    1    1    2    0    0  0.11278006696E+02 -0.36638090673E+02 -0.13550739492E+02  0.40659139981E+02  0.00000000000E+00 0.  1.
         11    1    3    3    0    0  0.16496967304E+01  0.28391518988E+02  0.97573683097E+01  0.30066693971E+02  0.51100000000E-03 0. -1.
        -11    1    3    3    0    0 -0.77556904868E+01  0.26443403651E+01  0.82523187493E+01  0.11629446930E+02  0.51100000000E-03 0.  1.
         12    1    3    3    0    0 -0.51720129395E+01  0.56022313199E+01 -0.44589475674E+01  0.88327191179E+01  0.00000000000E+00 0. -1.
</event>
<event>
 7    1  0.1023000E-012  0.5052890E+02  0.7816164E-02  0.1300439E+00
        -11   -1    0    0    0    0  0.00000000000E+00  0.00000000000E+00  0.45593999997E+02  0.45594000000E+02  0.51100000000E-03 0.  1.
         11   -1    0    0    0    0 -0.00000000000E+00 -0.00000000000E+00 -0.45593999997E+02  0.45594000000E+02  0.51100000000E-03 0. -1.
    9900012    2    1    2    0    0 -0.13554344986E+02 -0.99374742078E+00 -0.38320424645E+02  0.50528895891E+02  0.30000109551E+02 0.  0.
        -12    1    1    2    0    0  0.13554344986E+02  0.99374742078E+00  0.38320424645E+02  0.40659104109E+02  0.00000000000E+00 0.  1.
         11    1    3    3    0    0 -0.18381931370E+02  0.20215570677E-01 -0.12956833222E+02  0.22489449459E+02  0.51100000000E-03 0. -1.
        -11    1    3    3    0    0  0.12069321187E+00  0.29375315980E+01 -0.18874204163E+02  0.19101812527E+02  0.51100000000E-03 0.  1.
        -12    1    3    3    0    0  0.47068931720E+01 -0.39514945895E+01 -0.64893872593E+01  0.89376339052E+01  0.00000000000E+00 0.  1.
</event>
<event>
 7    1  0.1023000E-012  0.5052885E+02  0.7816164E-02  0.1300439E+00
        -11   -1    0    0    0    0  0.00000000000E+00  0.00000000000E+00  0.45593999997E+02  0.45594000000E+02  0.51100000000E-03 0.  1.
         11   -1    0    0    0    0 -0.00000000000E+00 -0.00000000000E+00 -0.45593999997E+02  0.45594000000E+02  0.51100000000E-03 0. -1.
    9900012    2    1    2    0    0 -0.22642331752E+02 -0.33182202223E+02 -0.62795255134E+01  0.50528853770E+02  0.29999981519E+02 0.  0.
        -12    1    1    2    0    0  0.22642331752E+02  0.33182202223E+02  0.62795255134E+01  0.40659146230E+02  0.00000000000E+00 0.  1.
         11    1    3    3    0    0 -0.16947185796E+02 -0.23579699202E+02 -0.89018702285E+01  0.30371905022E+02  0.51100000000E-03 0. -1.
        -11    1    3    3    0    0 -0.41412797437E+00 -0.11455908573E+01  0.84974608737E+01  0.85843300235E+01  0.51100000000E-03 0.  1.
        -12    1    3    3    0    0 -0.52810179817E+01 -0.84569121629E+01 -0.58751161586E+01  0.11572618724E+02  0.00000000000E+00 0.  1.
</event>
<event>
 7    1  0.1023000E-012  0.5052886E+02  0.7816164E-02  0.1300439E+00
        -11   -1    0    0    0    0  0.00000000000E+00  0.00000000000E+00  0.45593999997E+02  0.45594000000E+02  0.51100000000E-03 0.  1.
         11   -1    0    0    0    0 -0.00000000000E+00 -0.00000000000E+00 -0.45593999997E+02  0.45594000000E+02  0.51100000000E-03 0. -1.
    9900012    2    1    2    0    0  0.51416255452E+01 -0.36478747157E+02 -0.17205526325E+02  0.50528862731E+02  0.30000008756E+02 0.  0.
        -12    1    1    2    0    0 -0.51416255452E+01  0.36478747157E+02  0.17205526325E+02  0.40659137269E+02  0.00000000000E+00 0.  1.
         11    1    3    3    0    0  0.91762181305E+00 -0.17721944330E+00 -0.43255915877E+01  0.44254016053E+01  0.51100000000E-03 0. -1.
        -11    1    3    3    0    0  0.86750852203E+01 -0.28601969618E+02  0.66933462285E+00  0.29896116448E+02  0.51100000000E-03 0.  1.
        -12    1    3    3    0    0 -0.44510814881E+01 -0.76995580956E+01 -0.13549269360E+02  0.16207344677E+02  0.00000000000E+00 0.  1.
</event>
<event>
 7    1  0.1023000E-012  0.5052886E+02  0.7816164E-02  0.1300439E+00
        -11   -1    0    0    0    0  0.00000000000E+00  0.00000000000E+00  0.45593999997E+02  0.45594000000E+02  0.51100000000E-03 0. -1.
         11   -1    0    0    0    0 -0.00000000000E+00 -0.00000000000E+00 -0.45593999997E+02  0.45594000000E+02  0.51100000000E-03 0.  1.
    9900012    2    1    2    0    0  0.16298044292E+02  0.36969079263E+02 -0.45636005061E+01  0.50528861804E+02  0.30000005939E+02 0.  0.
        -12    1    1    2    0    0 -0.16298044292E+02 -0.36969079263E+02  0.45636005061E+01  0.40659138196E+02  0.00000000000E+00 0.  1.
         11    1    3    3    0    0  0.15996500307E+02  0.76194093734E+01 -0.79687377712E+01  0.19427923285E+02  0.51100000000E-03 0. -1.
        -11    1    3    3    0    0  0.27278702745E+01  0.60437192677E+01 -0.22393814747E+01  0.69987604954E+01  0.51100000000E-03 0.  1.
         12    1    3    3    0    0 -0.24263262890E+01  0.23305950622E+02  0.56445187398E+01  0.24102178023E+02  0.00000000000E+00 0. -1.
</event>
<event>
 7    1  0.1023000E-012  0.5052886E+02  0.7816164E-02  0.1300439E+00
        -11   -1    0    0    0    0  0.00000000000E+00  0.00000000000E+00  0.45593999997E+02  0.45594000000E+02  0.51100000000E-03 0.  1.
         11   -1    0    0    0    0 -0.00000000000E+00 -0.00000000000E+00 -0.45593999997E+02  0.45594000000E+02  0.51100000000E-03 0. -1.
    9900012    2    1    2    0    0  0.12672385549E+02  0.27866960702E+02 -0.26758338900E+02  0.50528861360E+02  0.30000004590E+02 0.  0.
        -12    1    1    2    0    0 -0.12672385549E+02 -0.27866960702E+02  0.26758338900E+02  0.40659138640E+02  0.00000000000E+00 0.  1.
         11    1    3    3    0    0 -0.35383544770E+00  0.91817418968E+01 -0.12589436108E+02  0.15586002873E+02  0.51100000000E-03 0. -1.
        -11    1    3    3    0    0  0.15763219898E+02  0.49902859408E+01 -0.12800618258E+02  0.20910233939E+02  0.51100000000E-03 0.  1.
        -12    1    3    3    0    0 -0.27369989010E+01  0.13694932864E+02 -0.13682845332E+01  0.14032624548E+02  0.00000000000E+00 0.  1.
</event>
<event>
 7    1  0.1023000E-012  0.5052890E+02  0.7816164E-02  0.1300439E+00
        -11   -1    0    0    0    0  0.00000000000E+00  0.00000000000E+00  0.45593999997E+02  0.45594000000E+02  0.51100000000E-03 0. -1.
         11   -1    0    0    0    0 -0.00000000000E+00 -0.00000000000E+00 -0.45593999997E+02  0.45594000000E+02  0.51100000000E-03 0.  1.
    9900012    2    1    2    0    0 -0.96757882341E+01 -0.33825041403E+02  0.20381570510E+02  0.50528896218E+02  0.30000110544E+02 0.  0.
        -12    1    1    2    0    0  0.96757882341E+01  0.33825041403E+02 -0.20381570510E+02  0.40659103782E+02  0.00000000000E+00 0.  1.
         11    1    3    3    0    0  0.42113733877E+01 -0.10292517758E+02  0.96464016572E+01  0.14721571003E+02  0.51100000000E-03 0. -1.
        -11    1    3    3    0    0 -0.16804809826E+02 -0.11250838635E+02  0.11309385962E+02  0.23170783638E+02  0.51100000000E-03 0.  1.
        -12    1    3    3    0    0  0.29176482042E+01 -0.12281685011E+02 -0.57421710924E+00  0.12636541577E+02  0.00000000000E+00 0.  1.
</event>
<event>
 7    1  0.1023000E-012  0.5052885E+02  0.7816164E-02  0.1300439E+00
        -11   -1    0    0    0    0  0.00000000000E+00  0.00000000000E+00  0.45593999997E+02  0.45594000000E+02  0.51100000000E-03 0.  1.
         11   -1    0    0    0    0 -0.00000000000E+00 -0.00000000000E+00 -0.45593999997E+02  0.45594000000E+02  0.51100000000E-03 0. -1.
    9900012    2    1    2    0    0  0.58250132624E+01  0.29987321007E+02 -0.26832746293E+02  0.50528850055E+02  0.29999970226E+02 0.  0.
        -12    1    1    2    0    0 -0.58250132624E+01 -0.29987321007E+02  0.26832746293E+02  0.40659149945E+02  0.00000000000E+00 0.  1.
         11    1    3    3    0    0  0.50533728621E+01  0.57094717083E+01 -0.65523568929E+01  0.10053259451E+02  0.51100000000E-03 0. -1.
        -11    1    3    3    0    0 -0.11943029653E+02  0.11332930898E+02 -0.65414414647E+01  0.17716143393E+02  0.51100000000E-03 0.  1.
        -12    1    3    3    0    0  0.12714670053E+02  0.12944918400E+02 -0.13738947935E+02  0.22759447210E+02  0.00000000000E+00 0.  1.
</event>
<event>
 7    1  0.1023000E-012  0.5052885E+02  0.7816164E-02  0.1300439E+00
        -11   -1    0    0    0    0  0.00000000000E+00  0.00000000000E+00  0.45593999997E+02  0.45594000000E+02  0.51100000000E-03 0.  1.
         11   -1    0    0    0    0 -0.00000000000E+00 -0.00000000000E+00 -0.45593999997E+02  0.45594000000E+02  0.51100000000E-03 0. -1.
    9900012    2    1    2    0    0 -0.38181867066E+02 -0.12849994158E+02 -0.54944644012E+01  0.50528850211E+02  0.29999970701E+02 0.  0.
        -12    1    1    2    0    0  0.38181867066E+02  0.12849994158E+02  0.54944644012E+01  0.40659149789E+02  0.00000000000E+00 0.  1.
         11    1    3    3    0    0 -0.21158916877E+02 -0.83120129364E+01  0.76718721648E+01  0.23992643565E+02  0.51100000000E-03 0. -1.
        -11    1    3    3    0    0 -0.24756433455E+01  0.16051469402E+01 -0.10005900789E+02  0.10431843439E+02  0.51100000000E-03 0.  1.
         12    1    3    3    0    0 -0.14547306844E+02 -0.61431281614E+01 -0.31604357771E+01  0.16104363207E+02  0.00000000000E+00 0. -1.
</event>
<event>
 7    1  0.1023000E-012  0.5052883E+02  0.7816164E-02  0.1300439E+00
        -11   -1    0    0    0    0  0.00000000000E+00  0.00000000000E+00  0.45593999997E+02  0.45594000000E+02  0.51100000000E-03 0.  1.
         11   -1    0    0    0    0 -0.00000000000E+00 -0.00000000000E+00 -0.45593999997E+02  0.45594000000E+02  0.51100000000E-03 0. -1.
    9900012    2    1    2    0    0  0.21983407987E+02  0.15369028838E+02 -0.30556361377E+02  0.50528825209E+02  0.29999894705E+02 0.  0.
        -12    1    1    2    0    0 -0.21983407987E+02 -0.15369028838E+02  0.30556361377E+02  0.40659174791E+02  0.00000000000E+00 0.  1.
         11    1    3    3    0    0  0.14638522951E+01  0.51355039373E+01 -0.32931644730E+01  0.62738502325E+01  0.51100000000E-03 0. -1.
        -11    1    3    3    0    0  0.25416982332E+02  0.89062449747E+01 -0.28309710460E+02  0.39074082165E+02  0.51100000000E-03 0.  1.
        -12    1    3    3    0    0 -0.48974266409E+01  0.13272799255E+01  0.10465135561E+01  0.51808928117E+01  0.00000000000E+00 0.  1.
</event>
<event>
 7    1  0.1023000E-012  0.5052886E+02  0.7816164E-02  0.1300439E+00
        -11   -1    0    0    0    0  0.00000000000E+00  0.00000000000E+00  0.45593999997E+02  0.45594000000E+02  0.51100000000E-03 0.  1.
         11   -1    0    0    0    0 -0.00000000000E+00 -0.00000000000E+00 -0.45593999997E+02  0.45594000000E+02  0.51100000000E-03 0. -1.
    9900012    2    1    2    0    0  0.52665977374E+01 -0.31091061580E+02 -0.25666599123E+02  0.50528862375E+02  0.30000007674E+02 0.  0.
        -12    1    1    2    0    0 -0.52665977374E+01  0.31091061580E+02  0.25666599123E+02  0.40659137625E+02  0.00000000000E+00 0.  1.
         11    1    3    3    0    0  0.12325426357E+02 -0.12143066827E+02 -0.43542719609E+01  0.17841801798E+02  0.51100000000E-03 0.  1.
        -11    1    3    3    0    0 -0.59080387668E+01 -0.44947214405E+00 -0.75740709258E+01  0.96163141551E+01  0.51100000000E-03 0. -1.
         12    1    3    3    0    0 -0.11507898531E+01 -0.18498522609E+02 -0.13738256236E+02  0.23070746421E+02  0.00000000000E+00 0. -1.
</event>
<event>
 7    1  0.1023000E-012  0.5052884E+02  0.7816164E-02  0.1300439E+00
        -11   -1    0    0    0    0  0.00000000000E+00  0.00000000000E+00  0.45593999997E+02  0.45594000000E+02  0.51100000000E-03 0.  1.
         11   -1    0    0    0    0 -0.00000000000E+00 -0.00000000000E+00 -0.45593999997E+02  0.45594000000E+02  0.51100000000E-03 0. -1.
    9900012    2    1    2    0    0  0.21671805735E+02  0.10423006394E+02 -0.32785068366E+02  0.50528844403E+02  0.29999953047E+02 0.  0.
        -12    1    1    2    0    0 -0.21671805735E+02 -0.10423006394E+02  0.32785068366E+02  0.40659155597E+02  0.00000000000E+00 0.  1.
         11    1    3    3    0    0  0.10841308101E+02  0.19618592370E+02 -0.21353521814E+02  0.30957971866E+02  0.51100000000E-03 0. -1.
        -11    1    3    3    0    0  0.95769380772E+01 -0.96763447311E+01 -0.11966287912E+02  0.18125712039E+02  0.51100000000E-03 0.  1.
         12    1    3    3    0    0  0.12535595569E+01  0.48075875545E+00  0.53474135931E+00  0.14451604980E+01  0.00000000000E+00 0. -1.
</event>
<event>
 7    1  0.1023000E-012  0.5052886E+02  0.7816164E-02  0.1300439E+00
        -11   -1    0    0    0    0  0.00000000000E+00  0.00000000000E+00  0.45593999997E+02  0.45594000000E+02  0.51100000000E-03 0.  1.
         11   -1    0    0    0    0 -0.00000000000E+00 -0.00000000000E+00 -0.45593999997E+02  0.45594000000E+02  0.51100000000E-03 0. -1.
    9900012    2    1    2    0    0  0.38312532470E+02 -0.13565516999E+02 -0.11367288670E+01  0.50528861443E+02  0.30000004841E+02 0.  0.
        -12    1    1    2    0    0 -0.38312532470E+02  0.13565516999E+02  0.11367288670E+01  0.40659138557E+02  0.00000000000E+00 0.  1.
         11    1    3    3    0    0  0.18032994433E+02 -0.17753213264E+02 -0.62043512306E+01  0.26054931277E+02  0.51100000000E-03 0. -1.
        -11    1    3    3    0    0  0.82317226703E+01 -0.22335862076E+01  0.65322418875E+01  0.10743386329E+02  0.51100000000E-03 0.  1.
         12    1    3    3    0    0  0.12047815367E+02  0.64212824726E+01 -0.14646195240E+01  0.13730543837E+02  0.00000000000E+00 0. -1.
</event>
<event>
 7    1  0.1023000E-012  0.5052886E+02  0.7816164E-02  0.1300439E+00
        -11   -1    0    0    0    0  0.00000000000E+00  0.00000000000E+00  0.45593999997E+02  0.45594000000E+02  0.51100000000E-03 0. -1.
         11   -1    0    0    0    0 -0.00000000000E+00 -0.00000000000E+00 -0.45593999997E+02  0.45594000000E+02  0.51100000000E-03 0.  1.
    9900012    2    1    2    0    0  0.57538959010E+01 -0.38117319902E+02  0.12927805748E+02  0.50528861347E+02  0.30000004550E+02 0.  0.
        -12    1    1    2    0    0 -0.57538959010E+01  0.38117319902E+02 -0.12927805748E+02  0.40659138653E+02  0.00000000000E+00 0.  1.
         11    1    3    3    0    0 -0.31343128367E+01 -0.69495974600E+01  0.15027638584E+02  0.16850838065E+02  0.51100000000E-03 0. -1.
        -11    1    3    3    0    0  0.35760496566E+01 -0.64933041135E+01 -0.38961136192E+01  0.83744152663E+01  0.51100000000E-03 0.  1.
         12    1    3    3    0    0  0.53121590811E+01 -0.24674418329E+02  0.17962807831E+01  0.25303608016E+02  0.00000000000E+00 0. -1.
</event>
<event>
 7    1  0.1501758E-012  0.5052886E+02  0.7816164E-02  0.1300439E+00
        -11   -1    0    0    0    0  0.00000000000E+00  0.00000000000E+00  0.45593999997E+02  0.45594000000E+02  0.51100000000E-03 0. -1.
         11   -1    0    0    0    0 -0.00000000000E+00 -0.00000000000E+00 -0.45593999997E+02  0.45594000000E+02  0.51100000000E-03 0.  1.
    9900012    2    1    2    0    0  0.19244899378E+01  0.14794357704E+02  0.37823124477E+02  0.50528862938E+02  0.30000009387E+02 0.  0.
        -12    1    1    2    0    0 -0.19244899378E+01 -0.14794357704E+02 -0.37823124477E+02  0.40659137062E+02  0.00000000000E+00 0.  1.
         11    1    3    3    0    0  0.61765888788E+01  0.35599959067E+00  0.21225722746E+02  0.22109009300E+02  0.51100000000E-03 0. -1.
        -11    1    3    3    0    0  0.10977777625E+00  0.43576628502E+01 -0.34510018292E+01  0.55597383537E+01  0.51100000000E-03 0.  1.
        -12    1    3    3    0    0 -0.43618767173E+01  0.10080695263E+02  0.20048403560E+02  0.22860115284E+02  0.00000000000E+00 0.  1.
</event>
<event>
 7    1  0.1023000E-012  0.5052891E+02  0.7816164E-02  0.1300439E+00
        -11   -1    0    0    0    0  0.00000000000E+00  0.00000000000E+00  0.45593999997E+02  0.45594000000E+02  0.51100000000E-03 0.  1.
         11   -1    0    0    0    0 -0.00000000000E+00 -0.00000000000E+00 -0.45593999997E+02  0.45594000000E+02  0.51100000000E-03 0. -1.
    9900012    2    1    2    0    0 -0.33668803981E+02 -0.13385897671E+02 -0.18449696251E+02  0.50528906187E+02  0.30000140846E+02 0.  0.
        -12    1    1    2    0    0  0.33668803981E+02  0.13385897671E+02  0.18449696251E+02  0.40659093813E+02  0.00000000000E+00 0.  1.
         11    1    3    3    0    0 -0.26258424998E+02 -0.73785599746E+01  0.47356666086E+00  0.27279521556E+02  0.51100000000E-03 0. -1.
        -11    1    3    3    0    0 -0.66981818746E+01 -0.63222931463E+00 -0.15339166516E+02  0.16749787581E+02  0.51100000000E-03 0.  1.
         12    1    3    3    0    0 -0.71219710742E+00 -0.53751083818E+01 -0.35840963957E+01  0.64995970498E+01  0.00000000000E+00 0. -1.
</event>
<event>
 7    1  0.1023000E-012  0.5052888E+02  0.7816164E-02  0.1300439E+00
        -11   -1    0    0    0    0  0.00000000000E+00  0.00000000000E+00  0.45593999997E+02  0.45594000000E+02  0.51100000000E-03 0. -1.
         11   -1    0    0    0    0 -0.00000000000E+00 -0.00000000000E+00 -0.45593999997E+02  0.45594000000E+02  0.51100000000E-03 0.  1.
    9900012    2    1    2    0    0 -0.18908677055E+01  0.36798267785E+02  0.17189424615E+02  0.50528877884E+02  0.30000054815E+02 0.  0.
        -12    1    1    2    0    0  0.18908677055E+01 -0.36798267785E+02 -0.17189424615E+02  0.40659122116E+02  0.00000000000E+00 0.  1.
         11    1    3    3    0    0 -0.98217225778E+01  0.26943405506E+01  0.10095317938E+02  0.14340193511E+02  0.51100000000E-03 0. -1.
        -11    1    3    3    0    0  0.43463325023E+01  0.10702665937E+02  0.28622606046E+00  0.11555067720E+02  0.51100000000E-03 0.  1.
         12    1    3    3    0    0  0.35845223699E+01  0.23401261297E+02  0.68078806167E+01  0.24633616653E+02  0.00000000000E+00 0. -1.
</event>
<event>
 7    1  0.1023000E-012  0.5052886E+02  0.7816164E-02  0.1300439E+00
        -11   -1    0    0    0    0  0.00000000000E+00  0.00000000000E+00  0.45593999997E+02  0.45594000000E+02  0.51100000000E-03 0. -1.
         11   -1    0    0    0    0 -0.00000000000E+00 -0.00000000000E+00 -0.45593999997E+02  0.45594000000E+02  0.51100000000E-03 0.  1.
    9900012    2    1    2    0    0 -0.24141074875E+02  0.26810409015E+02  0.18750364476E+02  0.50528859630E+02  0.29999999330E+02 0.  0.
        -12    1    1    2    0    0  0.24141074875E+02 -0.26810409015E+02 -0.18750364476E+02  0.40659140370E+02  0.00000000000E+00 0.  1.
         11    1    3    3    0    0 -0.58101303558E+01  0.63144316358E+01  0.22869459202E+01  0.88803031219E+01  0.51100000000E-03 0. -1.
        -11    1    3    3    0    0 -0.90446056444E+01  0.24073311942E+02  0.18255196030E+02  0.31536984978E+02  0.51100000000E-03 0.  1.
        -12    1    3    3    0    0 -0.92863388751E+01 -0.35773345635E+01 -0.17917774745E+01  0.10111571530E+02  0.00000000000E+00 0.  1.
</event>
<event>
 7    1  0.1023000E-012  0.5052886E+02  0.7816164E-02  0.1300439E+00
        -11   -1    0    0    0    0  0.00000000000E+00  0.00000000000E+00  0.45593999997E+02  0.45594000000E+02  0.51100000000E-03 0.  1.
         11   -1    0    0    0    0 -0.00000000000E+00 -0.00000000000E+00 -0.45593999997E+02  0.45594000000E+02  0.51100000000E-03 0. -1.
    9900012    2    1    2    0    0 -0.12851564183E+02  0.10464684404E+02 -0.37128064116E+02  0.50528862446E+02  0.30000007891E+02 0.  0.
        -12    1    1    2    0    0  0.12851564183E+02 -0.10464684404E+02  0.37128064116E+02  0.40659137554E+02  0.00000000000E+00 0.  1.
         11    1    3    3    0    0  0.12120586017E+01  0.75589063450E+01 -0.54502980513E+01  0.93974411568E+01  0.51100000000E-03 0. -1.
        -11    1    3    3    0    0 -0.19512769352E+02 -0.58494940101E+00 -0.21222771907E+02  0.28835678963E+02  0.51100000000E-03 0.  1.
        -12    1    3    3    0    0  0.54491465675E+01  0.34907274603E+01 -0.10454994158E+02  0.12295742326E+02  0.00000000000E+00 0.  1.
</event>
<event>
 7    1  0.1023000E-012  0.5052891E+02  0.7816164E-02  0.1300439E+00
        -11   -1    0    0    0    0  0.00000000000E+00  0.00000000000E+00  0.45593999997E+02  0.45594000000E+02  0.51100000000E-03 0.  1.
         11   -1    0    0    0    0 -0.00000000000E+00 -0.00000000000E+00 -0.45593999997E+02  0.45594000000E+02  0.51100000000E-03 0. -1.
    9900012    2    1    2    0    0 -0.49460177261E+01 -0.36513398483E+02 -0.17189237372E+02  0.50528914403E+02  0.30000165819E+02 0.  0.
        -12    1    1    2    0    0  0.49460177261E+01  0.36513398483E+02  0.17189237372E+02  0.40659085597E+02  0.00000000000E+00 0.  1.
         11    1    3    3    0    0 -0.10897459663E+02 -0.29061683309E+02 -0.14249735621E+02  0.34152467398E+02  0.51100000000E-03 0. -1.
        -11    1    3    3    0    0  0.33131141866E+01  0.32056155544E+01 -0.28054222051E+01  0.53965813907E+01  0.51100000000E-03 0.  1.
        -12    1    3    3    0    0  0.26383277500E+01 -0.10657330729E+02 -0.13407954559E+00  0.10979865614E+02  0.00000000000E+00 0.  1.
</event>
<event>
 7    1  0.1023000E-012  0.5052886E+02  0.7816164E-02  0.1300439E+00
        -11   -1    0    0    0    0  0.00000000000E+00  0.00000000000E+00  0.45593999997E+02  0.45594000000E+02  0.51100000000E-03 0.  1.
         11   -1    0    0    0    0 -0.00000000000E+00 -0.00000000000E+00 -0.45593999997E+02  0.45594000000E+02  0.51100000000E-03 0. -1.
    9900012    2    1    2    0    0  0.20979389710E+02 -0.34118888230E+02  0.69951594828E+01  0.50528861017E+02  0.30000003547E+02 0.  0.
        -12    1    1    2    0    0 -0.20979389710E+02  0.34118888230E+02 -0.69951594828E+01  0.40659138983E+02  0.00000000000E+00 0.  1.
         11    1    3    3    0    0  0.11559191712E+02 -0.14083184685E+02  0.10122327661E+02  0.20842565136E+02  0.51100000000E-03 0. -1.
        -11    1    3    3    0    0 -0.34550165468E+01 -0.31238894136E+01 -0.66725661085E+01  0.81375034955E+01  0.51100000000E-03 0.  1.
        -12    1    3    3    0    0  0.12875214544E+02 -0.16911814131E+02  0.35453979304E+01  0.21548792385E+02  0.00000000000E+00 0.  1.
</event>
<event>
 7    1  0.1023000E-012  0.5052886E+02  0.7816164E-02  0.1300439E+00
        -11   -1    0    0    0    0  0.00000000000E+00  0.00000000000E+00  0.45593999997E+02  0.45594000000E+02  0.51100000000E-03 0. -1.
         11   -1    0    0    0    0 -0.00000000000E+00 -0.00000000000E+00 -0.45593999997E+02  0.45594000000E+02  0.51100000000E-03 0.  1.
    9900012    2    1    2    0    0  0.22106259175E+02 -0.31695547814E+02 -0.12644020375E+02  0.50528859611E+02  0.29999999273E+02 0.  0.
        -12    1    1    2    0    0 -0.22106259175E+02  0.31695547814E+02  0.12644020375E+02  0.40659140389E+02  0.00000000000E+00 0.  1.
         11    1    3    3    0    0  0.63642589102E+01  0.23807212577E+01  0.29567454070E+01  0.74103959979E+01  0.51100000000E-03 0. -1.
        -11    1    3    3    0    0  0.13273716943E+02 -0.30763327852E+02 -0.18306577699E+02  0.38179899022E+02  0.51100000000E-03 0.  1.
        -12    1    3    3    0    0  0.24682833221E+01 -0.33129412199E+01  0.27058119178E+01  0.49385645910E+01  0.00000000000E+00 0.  1.
</event>
<event>
 7    1  0.1023000E-012  0.5052886E+02  0.7816164E-02  0.1300439E+00
        -11   -1    0    0    0    0  0.00000000000E+00  0.00000000000E+00  0.45593999997E+02  0.45594000000E+02  0.51100000000E-03 0.  1.
         11   -1    0    0    0    0 -0.00000000000E+00 -0.00000000000E+00 -0.45593999997E+02  0.45594000000E+02  0.51100000000E-03 0. -1.
    9900012    2    1    2    0    0 -0.22068101172E+02  0.10025181509E+02 -0.32644453252E+02  0.50528859801E+02  0.29999999852E+02 0.  0.
        -12    1    1    2    0    0  0.22068101172E+02 -0.10025181509E+02  0.32644453252E+02  0.40659140199E+02  0.00000000000E+00 0.  1.
         11    1    3    3    0    0 -0.45672282477E+01  0.99865781240E+01 -0.74945295186E+01  0.13295085162E+02  0.51100000000E-03 0. -1.
        -11    1    3    3    0    0 -0.20333476985E+02 -0.55547914248E+01 -0.17943335428E+02  0.27681569331E+02  0.51100000000E-03 0.  1.
        -12    1    3    3    0    0  0.28326040609E+01  0.55933948093E+01 -0.72065883055E+01  0.95522053089E+01  0.00000000000E+00 0.  1.
</event>
<event>
 7    1  0.1023000E-012  0.5052887E+02  0.7816164E-02  0.1300439E+00
        -11   -1    0    0    0    0  0.00000000000E+00  0.00000000000E+00  0.45593999997E+02  0.45594000000E+02  0.51100000000E-03 0.  1.
         11   -1    0    0    0    0 -0.00000000000E+00 -0.00000000000E+00 -0.45593999997E+02  0.45594000000E+02  0.51100000000E-03 0. -1.
    9900012    2    1    2    0    0  0.39781992631E+02 -0.39880604894E+01 -0.73927612450E+01  0.50528874542E+02  0.30000044658E+02 0.  0.
        -12    1    1    2    0    0 -0.39781992631E+02  0.39880604894E+01  0.73927612450E+01  0.40659125458E+02  0.00000000000E+00 0.  1.
         11    1    3    3    0    0  0.16262777166E+01  0.68069206933E+01 -0.82167851109E+00  0.70465668501E+01  0.51100000000E-03 0. -1.
        -11    1    3    3    0    0  0.23724010702E+02 -0.12249487697E+02  0.17554818282E+01  0.26757435403E+02  0.51100000000E-03 0.  1.
         12    1    3    3    0    0  0.14431704212E+02  0.14545065147E+01 -0.83265645622E+01  0.16724872289E+02  0.00000000000E+00 0. -1.
</event>
<event>
 7    1  0.1023000E-012  0.5052885E+02  0.7816164E-02  0.1300439E+00
        -11   -1    0    0    0    0  0.00000000000E+00  0.00000000000E+00  0.45593999997E+02  0.45594000000E+02  0.51100000000E-03 0. -1.
         11   -1    0    0    0    0 -0.00000000000E+00 -0.00000000000E+00 -0.45593999997E+02  0.45594000000E+02  0.51100000000E-03 0.  1.
    9900012    2    1    2    0    0  0.27343915640E+02  0.16951508695E+02  0.24862074600E+02  0.50528854375E+02  0.29999983358E+02 0.  0.
        -12    1    1    2    0    0 -0.27343915640E+02 -0.16951508695E+02 -0.24862074600E+02  0.40659145625E+02  0.00000000000E+00 0.  1.
         11    1    3    3    0    0  0.17945518390E+02  0.40246214398E+01  0.17151688281E+02  0.25147954573E+02  0.51100000000E-03 0. -1.
        -11    1    3    3    0    0  0.48157391135E+01  0.15443302862E+02  0.13589420511E+00  0.16177311704E+02  0.51100000000E-03 0.  1.
        -12    1    3    3    0    0  0.45826581362E+01 -0.25164156067E+01  0.75744921135E+01  0.92035880980E+01  0.00000000000E+00 0.  1.
</event>
<event>
 7    1  0.1023000E-012  0.5052886E+02  0.7816164E-02  0.1300439E+00
        -11   -1    0    0    0    0  0.00000000000E+00  0.00000000000E+00  0.45593999997E+02  0.45594000000E+02  0.51100000000E-03 0. -1.
         11   -1    0    0    0    0 -0.00000000000E+00 -0.00000000000E+00 -0.45593999997E+02  0.45594000000E+02  0.51100000000E-03 0.  1.
    9900012    2    1    2    0    0  0.38246243006E+02 -0.45045992984E+01  0.13042196665E+02  0.50528863108E+02  0.30000009904E+02 0.  0.
        -12    1    1    2    0    0 -0.38246243006E+02  0.45045992984E+01 -0.13042196665E+02  0.40659136892E+02  0.00000000000E+00 0.  1.
         11    1    3    3    0    0  0.59156918968E+01  0.79640173116E+01 -0.34218413944E+01  0.10494283260E+02  0.51100000000E-03 0. -1.
        -11    1    3    3    0    0  0.41031280498E+01 -0.33810790755E+01  0.72330136121E+01  0.89768503208E+01  0.51100000000E-03 0.  1.
         12    1    3    3    0    0  0.28227423060E+02 -0.90875375346E+01  0.92310244473E+01  0.31057729527E+02  0.00000000000E+00 0. -1.
</event>
<event>
 7    1  0.1023000E-012  0.5052886E+02  0.7816164E-02  0.1300439E+00
        -11   -1    0    0    0    0  0.00000000000E+00  0.00000000000E+00  0.45593999997E+02  0.45594000000E+02  0.51100000000E-03 0.  1.
         11   -1    0    0    0    0 -0.00000000000E+00 -0.00000000000E+00 -0.45593999997E+02  0.45594000000E+02  0.51100000000E-03 0. -1.
    9900012    2    1    2    0    0  0.17951883303E+02 -0.36444963571E+02  0.16310404186E+01  0.50528858633E+02  0.29999996301E+02 0.  0.
        -12    1    1    2    0    0 -0.17951883303E+02  0.36444963571E+02 -0.16310404186E+01  0.40659141367E+02  0.00000000000E+00 0.  1.
         11    1    3    3    0    0  0.56778682269E+01 -0.30208063592E+02 -0.74850807063E+01  0.31635292429E+02  0.51100000000E-03 0. -1.
        -11    1    3    3    0    0  0.84447439204E+01  0.60582730940E+00  0.63330876147E+01  0.10573018756E+02  0.51100000000E-03 0.  1.
        -12    1    3    3    0    0  0.38292711558E+01 -0.68427272885E+01  0.27830335102E+01  0.83205474488E+01  0.00000000000E+00 0.  1.
</event>
<event>
 7    1  0.1023000E-012  0.5052886E+02  0.7816164E-02  0.1300439E+00
        -11   -1    0    0    0    0  0.00000000000E+00  0.00000000000E+00  0.45593999997E+02  0.45594000000E+02  0.51100000000E-03 0. -1.
         11   -1    0    0    0    0 -0.00000000000E+00 -0.00000000000E+00 -0.45593999997E+02  0.45594000000E+02  0.51100000000E-03 0.  1.
    9900012    2    1    2    0    0 -0.19525327944E+02  0.12850879869E+02  0.33268334583E+02  0.50528860429E+02  0.30000001759E+02 0.  0.
        -12    1    1    2    0    0  0.19525327944E+02 -0.12850879869E+02 -0.33268334583E+02  0.40659139571E+02  0.00000000000E+00 0.  1.
         11    1    3    3    0    0 -0.48597118816E+01  0.98867343743E+01  0.27183081133E+02  0.29330602045E+02  0.51100000000E-03 0. -1.
        -11    1    3    3    0    0 -0.12037149158E+02 -0.33601087733E+01  0.69423076748E+01  0.14296115799E+02  0.51100000000E-03 0.  1.
         12    1    3    3    0    0 -0.26284669048E+01  0.63242542681E+01 -0.85705422493E+00  0.69021425849E+01  0.00000000000E+00 0. -1.
</event>
<event>
 7    1  0.1023000E-012  0.5052886E+02  0.7816164E-02  0.1300439E+00
        -11   -1    0    0    0    0  0.00000000000E+00  0.00000000000E+00  0.45593999997E+02  0.45594000000E+02  0.51100000000E-03 0.  1.
         11   -1    0    0    0    0 -0.00000000000E+00 -0.00000000000E+00 -0.45593999997E+02  0.45594000000E+02  0.51100000000E-03 0. -1.
    9900012    2    1    2    0    0 -0.33276425680E+02 -0.18033964250E+02 -0.14853325223E+02  0.50528860279E+02  0.30000001305E+02 0.  0.
        -12    1    1    2    0    0  0.33276425680E+02  0.18033964250E+02  0.14853325223E+02  0.40659139721E+02  0.00000000000E+00 0.  1.
         11    1    3    3    0    0 -0.16755316907E+02 -0.12936912689E+02 -0.16353496343E+02  0.26749601819E+02  0.51100000000E-03 0. -1.
        -11    1    3    3    0    0 -0.85266695217E+01  0.57290168502E+01  0.77867503317E+00  0.10302041655E+02  0.51100000000E-03 0.  1.
         12    1    3    3    0    0 -0.79944392515E+01 -0.10826068411E+02  0.72149608694E+00  0.13477216805E+02  0.00000000000E+00 0. -1.
</event>
<event>
 7    1  0.1023000E-012  0.5052886E+02  0.7816164E-02  0.1300439E+00
        -11   -1    0    0    0    0  0.00000000000E+00  0.00000000000E+00  0.45593999997E+02  0.45594000000E+02  0.51100000000E-03 0. -1.
         11   -1    0    0    0    0 -0.00000000000E+00 -0.00000000000E+00 -0.45593999997E+02  0.45594000000E+02  0.51100000000E-03 0.  1.
    9900012    2    1    2    0    0  0.19992562458E+02 -0.70177913603E+01  0.34701787324E+02  0.50528855977E+02  0.29999988228E+02 0.  0.
        -12    1    1    2    0    0 -0.19992562458E+02  0.70177913603E+01 -0.34701787324E+02  0.40659144023E+02  0.00000000000E+00 0.  1.
         11    1    3    3    0    0  0.98664025308E+01 -0.54151628256E+01  0.25914832790E+02  0.28253290890E+02  0.51100000000E-03 0.  1.
        -11    1    3    3    0    0 -0.61292527053E+00  0.68831881155E+00 -0.47536298414E+01  0.48421541800E+01  0.51100000000E-03 0. -1.
         12    1    3    3    0    0  0.10739085198E+02 -0.22909473463E+01  0.13540584375E+02  0.17433410907E+02  0.00000000000E+00 0. -1.
</event>
<event>
 7    1  0.1023000E-012  0.5052886E+02  0.7816164E-02  0.1300439E+00
        -11   -1    0    0    0    0  0.00000000000E+00  0.00000000000E+00  0.45593999997E+02  0.45594000000E+02  0.51100000000E-03 0.  1.
         11   -1    0    0    0    0 -0.00000000000E+00 -0.00000000000E+00 -0.45593999997E+02  0.45594000000E+02  0.51100000000E-03 0. -1.
    9900012    2    1    2    0    0  0.27775873357E+00 -0.30713229663E+02 -0.26641808000E+02  0.50528861301E+02  0.30000004409E+02 0.  0.
        -12    1    1    2    0    0 -0.27775873357E+00  0.30713229663E+02  0.26641808000E+02  0.40659138699E+02  0.00000000000E+00 0.  1.
         11    1    3    3    0    0 -0.35020107257E+01  0.41820352614E+01 -0.14280997887E+01  0.56385252787E+01  0.51100000000E-03 0. -1.
        -11    1    3    3    0    0  0.42597160048E+00 -0.25148855822E+02 -0.11298760281E+02  0.27573690089E+02  0.51100000000E-03 0.  1.
         12    1    3    3    0    0  0.33537978588E+01 -0.97464091028E+01 -0.13914947931E+02  0.17316645933E+02  0.00000000000E+00 0. -1.
</event>
<event>
 7    1  0.1023000E-012  0.5052887E+02  0.7816164E-02  0.1300439E+00
        -11   -1    0    0    0    0  0.00000000000E+00  0.00000000000E+00  0.45593999997E+02  0.45594000000E+02  0.51100000000E-03 0. -1.
         11   -1    0    0    0    0 -0.00000000000E+00 -0.00000000000E+00 -0.45593999997E+02  0.45594000000E+02  0.51100000000E-03 0.  1.
    9900012    2    1    2    0    0 -0.15636674435E+02 -0.38489012965E+01  0.37334241548E+02  0.50528865472E+02  0.30000017089E+02 0.  0.
        -12    1    1    2    0    0  0.15636674435E+02  0.38489012965E+01 -0.37334241548E+02  0.40659134528E+02  0.00000000000E+00 0.  1.
         11    1    3    3    0    0 -0.13589611152E+01 -0.95229275079E+01  0.11114738745E+02  0.14699331320E+02  0.51100000000E-03 0. -1.
        -11    1    3    3    0    0 -0.10144186655E+02  0.53552728041E+00  0.15280744058E+01  0.10272600645E+02  0.51100000000E-03 0.  1.
        -12    1    3    3    0    0 -0.41335266642E+01  0.51384989310E+01  0.24691428397E+02  0.25556933506E+02  0.00000000000E+00 0.  1.
</event>
<event>
 7    1  0.1023000E-012  0.5052887E+02  0.7816164E-02  0.1300439E+00
        -11   -1    0    0    0    0  0.00000000000E+00  0.00000000000E+00  0.45593999997E+02  0.45594000000E+02  0.51100000000E-03 0.  1.
         11   -1    0    0    0    0 -0.00000000000E+00 -0.00000000000E+00 -0.45593999997E+02  0.45594000000E+02  0.51100000000E-03 0. -1.
    9900012    2    1    2    0    0 -0.24823804161E+02  0.16978372472E+02 -0.27361993593E+02  0.50528867223E+02  0.30000022411E+02 0.  0.
        -12    1    1    2    0    0  0.24823804161E+02 -0.16978372472E+02  0.27361993593E+02  0.40659132777E+02  0.00000000000E+00 0.  1.
         11    1    3    3    0    0 -0.24445862579E+02  0.14620767401E+02 -0.15596413545E+02  0.32474838758E+02  0.51100000000E-03 0. -1.
        -11    1    3    3    0    0  0.60704775559E+01 -0.83660804784E+00 -0.33591366296E+01  0.69881621289E+01  0.51100000000E-03 0.  1.
        -12    1    3    3    0    0 -0.64484191375E+01  0.31942131191E+01 -0.84064434182E+01  0.11065866336E+02  0.00000000000E+00 0.  1.
</event>
<event>
 7    1  0.1023000E-012  0.5052885E+02  0.7816164E-02  0.1300439E+00
        -11   -1    0    0    0    0  0.00000000000E+00  0.00000000000E+00  0.45593999997E+02  0.45594000000E+02  0.51100000000E-03 0.  1.
         11   -1    0    0    0    0 -0.00000000000E+00 -0.00000000000E+00 -0.45593999997E+02  0.45594000000E+02  0.51100000000E-03 0. -1.
    9900012    2    1    2    0    0  0.24899380283E+02 -0.81367302509E+01 -0.31096311871E+02  0.50528854293E+02  0.29999983109E+02 0.  0.
        -12    1    1    2    0    0 -0.24899380283E+02  0.81367302509E+01  0.31096311871E+02  0.40659145707E+02  0.00000000000E+00 0.  1.
         11    1    3    3    0    0 -0.21717717936E+01 -0.62358385497E+01 -0.10790942912E+02  0.12650957448E+02  0.51100000000E-03 0.  1.
        -11    1    3    3    0    0  0.13606677863E+02  0.74756200329E+01 -0.88943983298E+01  0.17892369861E+02  0.51100000000E-03 0. -1.
        -12    1    3    3    0    0  0.13464474214E+02 -0.93765117341E+01 -0.11410970629E+02  0.19985526984E+02  0.00000000000E+00 0.  1.
</event>
<event>
 7    1  0.1023000E-012  0.5052886E+02  0.7816164E-02  0.1300439E+00
        -11   -1    0    0    0    0  0.00000000000E+00  0.00000000000E+00  0.45593999997E+02  0.45594000000E+02  0.51100000000E-03 0.  1.
         11   -1    0    0    0    0 -0.00000000000E+00 -0.00000000000E+00 -0.45593999997E+02  0.45594000000E+02  0.51100000000E-03 0. -1.
    9900012    2    1    2    0    0 -0.17287750210E+02  0.23865615460E+02 -0.28013066124E+02  0.50528858565E+02  0.29999996094E+02 0.  0.
        -12    1    1    2    0    0  0.17287750210E+02 -0.23865615460E+02  0.28013066124E+02  0.40659141435E+02  0.00000000000E+00 0.  1.
         11    1    3    3    0    0 -0.72249424443E+01 -0.59971849592E+01 -0.99777781729E+01  0.13701170690E+02  0.51100000000E-03 0. -1.
        -11    1    3    3    0    0 -0.37250962794E+01  0.19334547216E+02 -0.94738479348E+01  0.21850740338E+02  0.51100000000E-03 0.  1.
         12    1    3    3    0    0 -0.63377114864E+01  0.10528253202E+02 -0.85614400159E+01  0.14976947537E+02  0.00000000000E+00 0. -1.
</event>
<event>
 7    1  0.1023000E-012  0.5052885E+02  0.7816164E-02  0.1300439E+00
        -11   -1    0    0    0    0  0.00000000000E+00  0.00000000000E+00  0.45593999997E+02  0.45594000000E+02  0.51100000000E-03 0. -1.
         11   -1    0    0    0    0 -0.00000000000E+00 -0.00000000000E+00 -0.45593999997E+02  0.45594000000E+02  0.51100000000E-03 0.  1.
    9900012    2    1    2    0    0  0.33052003641E+02  0.10710721494E+01 -0.23655527011E+02  0.50528854677E+02  0.29999984276E+02 0.  0.
        -12    1    1    2    0    0 -0.33052003641E+02 -0.10710721494E+01  0.23655527011E+02  0.40659145323E+02  0.00000000000E+00 0.  1.
         11    1    3    3    0    0  0.17986673886E+02  0.42785009532E+01 -0.38890379165E+01  0.18893136957E+02  0.51100000000E-03 0. -1.
        -11    1    3    3    0    0  0.68538082651E+01 -0.11271154121E+02 -0.10591558643E+02  0.16917290495E+02  0.51100000000E-03 0.  1.
        -12    1    3    3    0    0  0.82115214890E+01  0.80637253176E+01 -0.91749304521E+01  0.14718427224E+02  0.00000000000E+00 0.  1.
</event>
<event>
 7    1  0.1023000E-012  0.5052887E+02  0.7816164E-02  0.1300439E+00
        -11   -1    0    0    0    0  0.00000000000E+00  0.00000000000E+00  0.45593999997E+02  0.45594000000E+02  0.51100000000E-03 0.  1.
         11   -1    0    0    0    0 -0.00000000000E+00 -0.00000000000E+00 -0.45593999997E+02  0.45594000000E+02  0.51100000000E-03 0. -1.
    9900012    2    1    2    0    0  0.13765660555E+02 -0.26830815080E+02 -0.27272312322E+02  0.50528867351E+02  0.30000022800E+02 0.  0.
        -12    1    1    2    0    0 -0.13765660555E+02  0.26830815080E+02  0.27272312322E+02  0.40659132649E+02  0.00000000000E+00 0.  1.
         11    1    3    3    0    0 -0.18586686302E+01  0.22508286650E+00 -0.73110601695E+01  0.75469803522E+01  0.51100000000E-03 0. -1.
        -11    1    3    3    0    0  0.77701683656E+01 -0.24287947419E+02 -0.51877230660E+01  0.26022920227E+02  0.51100000000E-03 0.  1.
        -12    1    3    3    0    0  0.78541608197E+01 -0.27679505275E+01 -0.14773529086E+02  0.16958966772E+02  0.00000000000E+00 0.  1.
</event>
<event>
 7    1  0.1023000E-012  0.5052886E+02  0.7816164E-02  0.1300439E+00
        -11   -1    0    0    0    0  0.00000000000E+00  0.00000000000E+00  0.45593999997E+02  0.45594000000E+02  0.51100000000E-03 0. -1.
         11   -1    0    0    0    0 -0.00000000000E+00 -0.00000000000E+00 -0.45593999997E+02  0.45594000000E+02  0.51100000000E-03 0.  1.
    9900012    2    1    2    0    0 -0.14607816578E+02 -0.57034345203E+01  0.37513304496E+02  0.50528862224E+02  0.30000007216E+02 0.  0.
        -12    1    1    2    0    0  0.14607816578E+02  0.57034345203E+01 -0.37513304496E+02  0.40659137776E+02  0.00000000000E+00 0.  1.
         11    1    3    3    0    0 -0.17847294410E+02  0.56217359140E+01  0.20551187264E+02  0.27793544766E+02  0.51100000000E-03 0. -1.
        -11    1    3    3    0    0  0.44427355244E+01 -0.80447563354E+00  0.43835993671E+01  0.62929344233E+01  0.51100000000E-03 0.  1.
         12    1    3    3    0    0 -0.12032576915E+01 -0.10520694801E+02  0.12578517865E+02  0.16442383034E+02  0.00000000000E+00 0. -1.
</event>
<event>
 7    1  0.1023000E-012  0.5052886E+02  0.7816164E-02  0.1300439E+00
        -11   -1    0    0    0    0  0.00000000000E+00  0.00000000000E+00  0.45593999997E+02  0.45594000000E+02  0.51100000000E-03 0.  1.
         11   -1    0    0    0    0 -0.00000000000E+00 -0.00000000000E+00 -0.45593999997E+02  0.45594000000E+02  0.51100000000E-03 0. -1.
    9900012    2    1    2    0    0 -0.23931840441E+02 -0.12684894873E+02 -0.30323683438E+02  0.50528864224E+02  0.30000013294E+02 0.  0.
        -12    1    1    2    0    0  0.23931840441E+02  0.12684894873E+02  0.30323683438E+02  0.40659135776E+02  0.00000000000E+00 0.  1.
         11    1    3    3    0    0 -0.22036537459E+02 -0.50344642986E+01 -0.18608097298E+02  0.29278253009E+02  0.51100000000E-03 0. -1.
        -11    1    3    3    0    0  0.22222697512E+01  0.64110523687E+00 -0.11767678178E+02  0.11992820717E+02  0.51100000000E-03 0.  1.
        -12    1    3    3    0    0 -0.41175727331E+01 -0.82915358112E+01  0.52092038060E-01  0.92577904978E+01  0.00000000000E+00 0.  1.
</event>
<event>
 7    1  0.1023000E-012  0.5052886E+02  0.7816164E-02  0.1300439E+00
        -11   -1    0    0    0    0  0.00000000000E+00  0.00000000000E+00  0.45593999997E+02  0.45594000000E+02  0.51100000000E-03 0.  1.
         11   -1    0    0    0    0 -0.00000000000E+00 -0.00000000000E+00 -0.45593999997E+02  0.45594000000E+02  0.51100000000E-03 0. -1.
    9900012    2    1    2    0    0 -0.31452013589E+02 -0.25617525629E+02 -0.27710235830E+01  0.50528863882E+02  0.30000012256E+02 0.  0.
        -12    1    1    2    0    0  0.31452013589E+02  0.25617525629E+02  0.27710235830E+01  0.40659136118E+02  0.00000000000E+00 0.  1.
         11    1    3    3    0    0 -0.18209829120E+02 -0.18133827666E+02 -0.64589451336E+00  0.25707017765E+02  0.51100000000E-03 0. -1.
        -11    1    3    3    0    0 -0.20584272355E+01  0.31370720393E+01 -0.75836901859E+01  0.84611288112E+01  0.51100000000E-03 0.  1.
        -12    1    3    3    0    0 -0.11183757234E+02 -0.10620770002E+02  0.54585611163E+01  0.16360717306E+02  0.00000000000E+00 0.  1.
</event>
<event>
 7    1  0.1023000E-012  0.5052886E+02  0.7816164E-02  0.1300439E+00
        -11   -1    0    0    0    0  0.00000000000E+00  0.00000000000E+00  0.45593999997E+02  0.45594000000E+02  0.51100000000E-03 0.  1.
         11   -1    0    0    0    0 -0.00000000000E+00 -0.00000000000E+00 -0.45593999997E+02  0.45594000000E+02  0.51100000000E-03 0. -1.
    9900012    2    1    2    0    0  0.37663741485E+02  0.15267892409E+02  0.12246807960E+01  0.50528858293E+02  0.29999995268E+02 0.  0.
        -12    1    1    2    0    0 -0.37663741485E+02 -0.15267892409E+02 -0.12246807960E+01  0.40659141707E+02  0.00000000000E+00 0.  1.
         11    1    3    3    0    0  0.20684607679E+02 -0.60174474927E+00 -0.86623214088E+01  0.22433254423E+02  0.51100000000E-03 0. -1.
        -11    1    3    3    0    0  0.15952021381E+02  0.97240601104E+01  0.11123945772E+02  0.21743194360E+02  0.51100000000E-03 0.  1.
         12    1    3    3    0    0  0.10271124248E+01  0.61455770480E+01 -0.12369435676E+01  0.63524095094E+01  0.00000000000E+00 0. -1.
</event>
<event>
 7    1  0.1023000E-012  0.5052886E+02  0.7816164E-02  0.1300439E+00
        -11   -1    0    0    0    0  0.00000000000E+00  0.00000000000E+00  0.45593999997E+02  0.45594000000E+02  0.51100000000E-03 0.  1.
         11   -1    0    0    0    0 -0.00000000000E+00 -0.00000000000E+00 -0.45593999997E+02  0.45594000000E+02  0.51100000000E-03 0. -1.
    9900012    2    1    2    0    0 -0.79004596361E+01  0.33161987266E+02 -0.22159215761E+02  0.50528861974E+02  0.30000006455E+02 0.  0.
        -12    1    1    2    0    0  0.79004596361E+01 -0.33161987266E+02  0.22159215761E+02  0.40659138026E+02  0.00000000000E+00 0.  1.
         11    1    3    3    0    0 -0.39924615659E+01  0.32917461617E+01  0.90283187630E-01  0.51752771388E+01  0.51100000000E-03 0. -1.
        -11    1    3    3    0    0  0.62008316550E+01  0.24074914568E+02 -0.22738490456E+02  0.33691108221E+02  0.51100000000E-03 0.  1.
        -12    1    3    3    0    0 -0.10108829725E+02  0.57953265360E+01  0.48899150731E+00  0.11662476614E+02  0.00000000000E+00 0.  1.
</event>
<event>
 7    1  0.1023000E-012  0.5052885E+02  0.7816164E-02  0.1300439E+00
        -11   -1    0    0    0    0  0.00000000000E+00  0.00000000000E+00  0.45593999997E+02  0.45594000000E+02  0.51100000000E-03 0. -1.
         11   -1    0    0    0    0 -0.00000000000E+00 -0.00000000000E+00 -0.45593999997E+02  0.45594000000E+02  0.51100000000E-03 0.  1.
    9900012    2    1    2    0    0 -0.17584732739E+02  0.27456797617E+02  0.24291305680E+02  0.50528854749E+02  0.29999984495E+02 0.  0.
        -12    1    1    2    0    0  0.17584732739E+02 -0.27456797617E+02 -0.24291305680E+02  0.40659145251E+02  0.00000000000E+00 0.  1.
         11    1    3    3    0    0 -0.10298823216E+01  0.93621046075E+01  0.91090288847E+01  0.13102826709E+02  0.51100000000E-03 0. -1.
        -11    1    3    3    0    0 -0.70164540638E-02 -0.31043766843E+01 -0.35017352073E+01  0.46796745134E+01  0.51100000000E-03 0.  1.
        -12    1    3    3    0    0 -0.16547833964E+02  0.21199069694E+02  0.18684012003E+02  0.32746353527E+02  0.00000000000E+00 0.  1.
</event>
<event>
 7    1  0.1023000E-012  0.5052892E+02  0.7816164E-02  0.1300439E+00
        -11   -1    0    0    0    0  0.00000000000E+00  0.00000000000E+00  0.45593999997E+02  0.45594000000E+02  0.51100000000E-03 0.  1.
         11   -1    0    0    0    0 -0.00000000000E+00 -0.00000000000E+00 -0.45593999997E+02  0.45594000000E+02  0.51100000000E-03 0. -1.
    9900012    2    1    2    0    0 -0.13112316914E+02  0.14740046107E+02 -0.35552195767E+02  0.50528924285E+02  0.30000195857E+02 0.  0.
        -12    1    1    2    0    0  0.13112316914E+02 -0.14740046107E+02  0.35552195767E+02  0.40659075715E+02  0.00000000000E+00 0.  1.
         11    1    3    3    0    0 -0.14294448105E+02 -0.41602721816E+01 -0.12048562589E+02  0.19152205407E+02  0.51100000000E-03 0. -1.
        -11    1    3    3    0    0  0.23546725595E+01  0.11606395628E+02 -0.82647963269E+01  0.14441598281E+02  0.51100000000E-03 0.  1.
         12    1    3    3    0    0 -0.11725413686E+01  0.72939226609E+01 -0.15238836851E+02  0.16935120597E+02  0.00000000000E+00 0. -1.
</event>
<event>
 7    1  0.1023000E-012  0.5052889E+02  0.7816164E-02  0.1300439E+00
        -11   -1    0    0    0    0  0.00000000000E+00  0.00000000000E+00  0.45593999997E+02  0.45594000000E+02  0.51100000000E-03 0.  1.
         11   -1    0    0    0    0 -0.00000000000E+00 -0.00000000000E+00 -0.45593999997E+02  0.45594000000E+02  0.51100000000E-03 0. -1.
    9900012    2    1    2    0    0 -0.34703237207E+02 -0.46481622519E+01 -0.20669859489E+02  0.50528890612E+02  0.30000093503E+02 0.  0.
        -12    1    1    2    0    0  0.34703237207E+02  0.46481622519E+01  0.20669859489E+02  0.40659109388E+02  0.00000000000E+00 0.  1.
         11    1    3    3    0    0 -0.71280947668E+01 -0.94672545213E+01 -0.15289094621E+02  0.19344122047E+02  0.51100000000E-03 0. -1.
        -11    1    3    3    0    0 -0.10507356946E+02  0.41701562338E+01  0.36304817019E+01  0.11873295695E+02  0.51100000000E-03 0.  1.
        -12    1    3    3    0    0 -0.17067785494E+02  0.64893603560E+00 -0.90112465696E+01  0.19311472870E+02  0.00000000000E+00 0.  1.
</event>
<event>
 7    1  0.1023000E-012  0.5052886E+02  0.7816164E-02  0.1300439E+00
        -11   -1    0    0    0    0  0.00000000000E+00  0.00000000000E+00  0.45593999997E+02  0.45594000000E+02  0.51100000000E-03 0.  1.
         11   -1    0    0    0    0 -0.00000000000E+00 -0.00000000000E+00 -0.45593999997E+02  0.45594000000E+02  0.51100000000E-03 0. -1.
    9900012    2    1    2    0    0 -0.27677999003E+02 -0.22007558669E+02  0.20068914770E+02  0.50528860715E+02  0.30000002628E+02 0.  0.
        -12    1    1    2    0    0  0.27677999003E+02  0.22007558669E+02 -0.20068914770E+02  0.40659139285E+02  0.00000000000E+00 0.  1.
         11    1    3    3    0    0  0.39060997640E+01  0.10799936576E+01 -0.78590333916E+00  0.41281528540E+01  0.51100000000E-03 0. -1.
        -11    1    3    3    0    0 -0.28377140686E+02 -0.14657306265E+02  0.19092547900E+02  0.37210537836E+02  0.51100000000E-03 0.  1.
         12    1    3    3    0    0 -0.32069580810E+01 -0.84302460617E+01  0.17622702096E+01  0.91901700248E+01  0.00000000000E+00 0. -1.
</event>
<event>
 7    1  0.1023000E-012  0.5052886E+02  0.7816164E-02  0.1300439E+00
        -11   -1    0    0    0    0  0.00000000000E+00  0.00000000000E+00  0.45593999997E+02  0.45594000000E+02  0.51100000000E-03 0. -1.
         11   -1    0    0    0    0 -0.00000000000E+00 -0.00000000000E+00 -0.45593999997E+02  0.45594000000E+02  0.51100000000E-03 0.  1.
    9900012    2    1    2    0    0  0.36901626174E+02 -0.13239788729E+02  0.10776985072E+02  0.50528862932E+02  0.30000009368E+02 0.  0.
        -12    1    1    2    0    0 -0.36901626174E+02  0.13239788729E+02 -0.10776985072E+02  0.40659137068E+02  0.00000000000E+00 0.  1.
         11    1    3    3    0    0  0.16117550941E+01 -0.73605333429E+01  0.31391757187E+01  0.81626974726E+01  0.51100000000E-03 0. -1.
        -11    1    3    3    0    0  0.19437057097E+02  0.62540291743E+01  0.90896816389E+01  0.22350265816E+02  0.51100000000E-03 0.  1.
        -12    1    3    3    0    0  0.15852813983E+02 -0.12133284560E+02 -0.14518722853E+01  0.20015899643E+02  0.00000000000E+00 0.  1.
</event>
<event>
 7    1  0.1023000E-012  0.5052886E+02  0.7816164E-02  0.1300439E+00
        -11   -1    0    0    0    0  0.00000000000E+00  0.00000000000E+00  0.45593999997E+02  0.45594000000E+02  0.51100000000E-03 0.  1.
         11   -1    0    0    0    0 -0.00000000000E+00 -0.00000000000E+00 -0.45593999997E+02  0.45594000000E+02  0.51100000000E-03 0. -1.
    9900012    2    1    2    0    0  0.15667692552E+02 -0.32398761023E+02 -0.18921127732E+02  0.50528863507E+02  0.30000011115E+02 0.  0.
        -12    1    1    2    0    0 -0.15667692552E+02  0.32398761023E+02  0.18921127732E+02  0.40659136493E+02  0.00000000000E+00 0.  1.
         11    1    3    3    0    0  0.23001085609E+01 -0.88704931380E+01 -0.15513525108E+02  0.18017924671E+02  0.51100000000E-03 0. -1.
        -11    1    3    3    0    0  0.66505220255E+01 -0.24424680473E+02 -0.10491524206E+01  0.25335650386E+02  0.51100000000E-03 0.  1.
        -12    1    3    3    0    0  0.67170619657E+01  0.89641258796E+00 -0.23584502028E+01  0.71752884499E+01  0.00000000000E+00 0.  1.
</event>
<event>
 7    1  0.1023000E-012  0.5052894E+02  0.7816164E-02  0.1300439E+00
        -11   -1    0    0    0    0  0.00000000000E+00  0.00000000000E+00  0.45593999997E+02  0.45594000000E+02  0.51100000000E-03 0.  1.
         11   -1    0    0    0    0 -0.00000000000E+00 -0.00000000000E+00 -0.45593999997E+02  0.45594000000E+02  0.51100000000E-03 0. -1.
    9900012    2    1    2    0    0 -0.34885434691E+02  0.19822710312E+02 -0.65746192792E+01  0.50528941768E+02  0.30000248996E+02 0.  0.
        -12    1    1    2    0    0  0.34885434691E+02 -0.19822710312E+02  0.65746192792E+01  0.40659058232E+02  0.00000000000E+00 0.  1.
         11    1    3    3    0    0 -0.13411417878E+02  0.78858771987E+01 -0.10343599962E+02  0.18682699193E+02  0.51100000000E-03 0. -1.
        -11    1    3    3    0    0  0.11720285288E+01  0.46629173172E+01  0.63014868891E+01  0.79262340398E+01  0.51100000000E-03 0.  1.
         12    1    3    3    0    0 -0.22646045342E+02  0.72739157961E+01 -0.25325062062E+01  0.23920008535E+02  0.00000000000E+00 0. -1.
</event>
<event>
 7    1  0.1101210E-012  0.5052887E+02  0.7816164E-02  0.1300439E+00
        -11   -1    0    0    0    0  0.00000000000E+00  0.00000000000E+00  0.45593999997E+02  0.45594000000E+02  0.51100000000E-03 0. -1.
         11   -1    0    0    0    0 -0.00000000000E+00 -0.00000000000E+00 -0.45593999997E+02  0.45594000000E+02  0.51100000000E-03 0.  1.
    9900012    2    1    2    0    0 -0.14985591790E+02 -0.56523815925E+01  0.37371752096E+02  0.50528865311E+02  0.30000016598E+02 0.  0.
        -12    1    1    2    0    0  0.14985591790E+02  0.56523815925E+01 -0.37371752096E+02  0.40659134689E+02  0.00000000000E+00 0.  1.
         11    1    3    3    0    0 -0.65233646606E+00  0.24932278853E+01  0.14615929619E+02  0.14841399093E+02  0.51100000000E-03 0. -1.
        -11    1    3    3    0    0  0.93349946369E+00 -0.36652637767E+01 -0.33912688509E+01  0.50799886301E+01  0.51100000000E-03 0.  1.
        -12    1    3    3    0    0 -0.15266754788E+02 -0.44803457011E+01  0.26147091328E+02  0.30607477588E+02  0.00000000000E+00 0.  1.
</event>
<event>
 7    1  0.1023000E-012  0.5052885E+02  0.7816164E-02  0.1300439E+00
        -11   -1    0    0    0    0  0.00000000000E+00  0.00000000000E+00  0.45593999997E+02  0.45594000000E+02  0.51100000000E-03 0. -1.
         11   -1    0    0    0    0 -0.00000000000E+00 -0.00000000000E+00 -0.45593999997E+02  0.45594000000E+02  0.51100000000E-03 0.  1.
    9900012    2    1    2    0    0  0.55748985778E+01  0.70504495652E+01  0.39653219774E+02  0.50528853776E+02  0.29999981538E+02 0.  0.
        -12    1    1    2    0    0 -0.55748985778E+01 -0.70504495652E+01 -0.39653219774E+02  0.40659146224E+02  0.00000000000E+00 0.  1.
         11    1    3    3    0    0  0.66773758451E+01  0.51481281474E+01  0.48578320820E+01  0.97308326672E+01  0.51100000000E-03 0. -1.
        -11    1    3    3    0    0  0.48709986360E+01 -0.51906509069E+01  0.29004438272E+02  0.29865145643E+02  0.51100000000E-03 0.  1.
        -12    1    3    3    0    0 -0.59734759033E+01  0.70929723247E+01  0.57909494197E+01  0.10932875466E+02  0.00000000000E+00 0.  1.
</event>
<event>
 7    1  0.1023000E-012  0.5052883E+02  0.7816164E-02  0.1300439E+00
        -11   -1    0    0    0    0  0.00000000000E+00  0.00000000000E+00  0.45593999997E+02  0.45594000000E+02  0.51100000000E-03 0. -1.
         11   -1    0    0    0    0 -0.00000000000E+00 -0.00000000000E+00 -0.45593999997E+02  0.45594000000E+02  0.51100000000E-03 0.  1.
    9900012    2    1    2    0    0  0.30711472315E+02 -0.13813644742E+02  0.22785015891E+02  0.50528828071E+02  0.29999903403E+02 0.  0.
        -12    1    1    2    0    0 -0.30711472315E+02  0.13813644742E+02 -0.22785015891E+02  0.40659171929E+02  0.00000000000E+00 0.  1.
         11    1    3    3    0    0  0.10359202033E+02  0.64345496713E+01  0.21371152259E+01  0.12380781800E+02  0.51100000000E-03 0. -1.
        -11    1    3    3    0    0  0.17139038362E+01 -0.10705112484E+02  0.46493220653E+01  0.11796317035E+02  0.51100000000E-03 0.  1.
         12    1    3    3    0    0  0.18638366446E+02 -0.95430819295E+01  0.15998578600E+02  0.26351729236E+02  0.00000000000E+00 0. -1.
</event>
<event>
 7    1  0.1023000E-012  0.5052886E+02  0.7816164E-02  0.1300439E+00
        -11   -1    0    0    0    0  0.00000000000E+00  0.00000000000E+00  0.45593999997E+02  0.45594000000E+02  0.51100000000E-03 0.  1.
         11   -1    0    0    0    0 -0.00000000000E+00 -0.00000000000E+00 -0.45593999997E+02  0.45594000000E+02  0.51100000000E-03 0. -1.
    9900012    2    1    2    0    0  0.85403383182E+01 -0.21620427937E+01 -0.39693248350E+02  0.50528858688E+02  0.29999996468E+02 0.  0.
        -12    1    1    2    0    0 -0.85403383182E+01  0.21620427937E+01  0.39693248350E+02  0.40659141312E+02  0.00000000000E+00 0.  1.
         11    1    3    3    0    0  0.26635357424E+01  0.36744844821E+00  0.28652189964E+01  0.39292392612E+01  0.51100000000E-03 0. -1.
        -11    1    3    3    0    0  0.84824151517E+01  0.52999028579E+01 -0.29529982319E+02  0.31177879869E+02  0.51100000000E-03 0.  1.
         12    1    3    3    0    0 -0.26056125760E+01 -0.78293940998E+01 -0.13028485028E+02  0.15421739558E+02  0.00000000000E+00 0. -1.
</event>
<event>
 7    1  0.1023000E-012  0.5052886E+02  0.7816164E-02  0.1300439E+00
        -11   -1    0    0    0    0  0.00000000000E+00  0.00000000000E+00  0.45593999997E+02  0.45594000000E+02  0.51100000000E-03 0. -1.
         11   -1    0    0    0    0 -0.00000000000E+00 -0.00000000000E+00 -0.45593999997E+02  0.45594000000E+02  0.51100000000E-03 0.  1.
    9900012    2    1    2    0    0 -0.36851066558E+02  0.17178344190E+02 -0.26256784849E+00  0.50528861329E+02  0.30000004494E+02 0.  0.
        -12    1    1    2    0    0  0.36851066558E+02 -0.17178344190E+02  0.26256784849E+00  0.40659138671E+02  0.00000000000E+00 0.  1.
         11    1    3    3    0    0 -0.16233426174E+02  0.10426253226E+02  0.74618169776E+01  0.20685975794E+02  0.51100000000E-03 0. -1.
        -11    1    3    3    0    0 -0.11869918462E+02 -0.71383716513E+00 -0.12623471785E+02  0.17342334559E+02  0.51100000000E-03 0.  1.
         12    1    3    3    0    0 -0.87477219229E+01  0.74659281292E+01  0.48990869587E+01  0.12500550976E+02  0.00000000000E+00 0. -1.
</event>
<event>
 7    1  0.1023000E-012  0.5052888E+02  0.7816164E-02  0.1300439E+00
        -11   -1    0    0    0    0  0.00000000000E+00  0.00000000000E+00  0.45593999997E+02  0.45594000000E+02  0.51100000000E-03 0.  1.
         11   -1    0    0    0    0 -0.00000000000E+00 -0.00000000000E+00 -0.45593999997E+02  0.45594000000E+02  0.51100000000E-03 0. -1.
    9900012    2    1    2    0    0  0.29664698312E+02 -0.10334261395E+02 -0.25814192772E+02  0.50528882535E+02  0.30000068954E+02 0.  0.
        -12    1    1    2    0    0 -0.29664698312E+02  0.10334261395E+02  0.25814192772E+02  0.40659117465E+02  0.00000000000E+00 0.  1.
         11    1    3    3    0    0  0.19381904967E+02 -0.16553800740E+02 -0.16579767509E+02  0.30406829003E+02  0.51100000000E-03 0. -1.
        -11    1    3    3    0    0  0.27003379677E+01  0.42374108208E+00  0.33527617131E+01  0.43257823582E+01  0.51100000000E-03 0.  1.
         12    1    3    3    0    0  0.75824553778E+01  0.57957982623E+01 -0.12587186976E+02  0.15796271174E+02  0.00000000000E+00 0. -1.
</event>
<event>
 7    1  0.1023000E-012  0.5052886E+02  0.7816164E-02  0.1300439E+00
        -11   -1    0    0    0    0  0.00000000000E+00  0.00000000000E+00  0.45593999997E+02  0.45594000000E+02  0.51100000000E-03 0.  1.
         11   -1    0    0    0    0 -0.00000000000E+00 -0.00000000000E+00 -0.45593999997E+02  0.45594000000E+02  0.51100000000E-03 0. -1.
    9900012    2    1    2    0    0 -0.19865012770E+02 -0.32665542362E+02 -0.13838675514E+02  0.50528864124E+02  0.30000012992E+02 0.  0.
        -12    1    1    2    0    0  0.19865012770E+02  0.32665542362E+02  0.13838675514E+02  0.40659135876E+02  0.00000000000E+00 0.  1.
         11    1    3    3    0    0 -0.23810426893E+02 -0.16604103545E+02 -0.30058243029E+01  0.29183345651E+02  0.51100000000E-03 0.  1.
        -11    1    3    3    0    0  0.38427132259E+01 -0.16977784024E+02 -0.10646201181E+02  0.20404734626E+02  0.51100000000E-03 0. -1.
         12    1    3    3    0    0  0.10270089704E+00  0.91634520755E+00 -0.18665003062E+00  0.94078384742E+00  0.00000000000E+00 0. -1.
</event>
<event>
 7    1  0.1023000E-012  0.5052886E+02  0.7816164E-02  0.1300439E+00
        -11   -1    0    0    0    0  0.00000000000E+00  0.00000000000E+00  0.45593999997E+02  0.45594000000E+02  0.51100000000E-03 0.  1.
         11   -1    0    0    0    0 -0.00000000000E+00 -0.00000000000E+00 -0.45593999997E+02  0.45594000000E+02  0.51100000000E-03 0. -1.
    9900012    2    1    2    0    0  0.34619793151E+01  0.35257798674E+02  0.19951634713E+02  0.50528863317E+02  0.30000010538E+02 0.  0.
        -12    1    1    2    0    0 -0.34619793151E+01 -0.35257798674E+02 -0.19951634713E+02  0.40659136683E+02  0.00000000000E+00 0.  1.
         11    1    3    3    0    0  0.58398466803E+01  0.69152570312E+01 -0.33021564854E+01  0.96347717550E+01  0.51100000000E-03 0. -1.
        -11    1    3    3    0    0 -0.33095043507E+01  0.28814041068E+02  0.15147380639E+02  0.32720710907E+02  0.51100000000E-03 0.  1.
        -12    1    3    3    0    0  0.93163698552E+00 -0.47149942603E+00  0.81064105593E+01  0.81733806554E+01  0.00000000000E+00 0.  1.
</event>
<event>
 7    1  0.1023000E-012  0.5052886E+02  0.7816164E-02  0.1300439E+00
        -11   -1    0    0    0    0  0.00000000000E+00  0.00000000000E+00  0.45593999997E+02  0.45594000000E+02  0.51100000000E-03 0.  1.
         11   -1    0    0    0    0 -0.00000000000E+00 -0.00000000000E+00 -0.45593999997E+02  0.45594000000E+02  0.51100000000E-03 0. -1.
    9900012    2    1    2    0    0 -0.27106262942E+02 -0.22920037179E+02 -0.19826454194E+02  0.50528857352E+02  0.29999992407E+02 0.  0.
        -12    1    1    2    0    0  0.27106262942E+02  0.22920037179E+02  0.19826454194E+02  0.40659142648E+02  0.00000000000E+00 0.  1.
         11    1    3    3    0    0 -0.26471342245E+02 -0.13900859308E+02 -0.76103434911E+01  0.30852604073E+02  0.51100000000E-03 0. -1.
        -11    1    3    3    0    0  0.35404798716E+00 -0.78436557775E+01 -0.50828834054E+00  0.78680774800E+01  0.51100000000E-03 0.  1.
         12    1    3    3    0    0 -0.98896868416E+00 -0.11755220935E+01 -0.11707822362E+02  0.11808175799E+02  0.00000000000E+00 0. -1.
</event>
<event>
 7    1  0.1023000E-012  0.5052887E+02  0.7816164E-02  0.1300439E+00
        -11   -1    0    0    0    0  0.00000000000E+00  0.00000000000E+00  0.45593999997E+02  0.45594000000E+02  0.51100000000E-03 0.  1.
         11   -1    0    0    0    0 -0.00000000000E+00 -0.00000000000E+00 -0.45593999997E+02  0.45594000000E+02  0.51100000000E-03 0. -1.
    9900012    2    1    2    0    0 -0.28423431595E+02  0.22952867333E+02 -0.17844875600E+02  0.50528866124E+02  0.30000019069E+02 0.  0.
        -12    1    1    2    0    0  0.28423431595E+02 -0.22952867333E+02  0.17844875600E+02  0.40659133876E+02  0.00000000000E+00 0.  1.
         11    1    3    3    0    0 -0.16431127786E+01  0.11761540683E+02  0.55118846614E+01  0.13092537249E+02  0.51100000000E-03 0.  1.
        -11    1    3    3    0    0 -0.22266780475E+02  0.83141249326E+01 -0.20393692552E+02  0.31318315444E+02  0.51100000000E-03 0. -1.
        -12    1    3    3    0    0 -0.45135383411E+01  0.28772017168E+01 -0.29630677098E+01  0.61180134299E+01  0.00000000000E+00 0.  1.
</event>
<event>
 7    1  0.1023000E-012  0.5052886E+02  0.7816164E-02  0.1300439E+00
        -11   -1    0    0    0    0  0.00000000000E+00  0.00000000000E+00  0.45593999997E+02  0.45594000000E+02  0.51100000000E-03 0.  1.
         11   -1    0    0    0    0 -0.00000000000E+00 -0.00000000000E+00 -0.45593999997E+02  0.45594000000E+02  0.51100000000E-03 0. -1.
    9900012    2    1    2    0    0  0.74413166623E+01  0.37908882248E+02 -0.12677112569E+02  0.50528859207E+02  0.29999998045E+02 0.  0.
        -12    1    1    2    0    0 -0.74413166623E+01 -0.37908882248E+02  0.12677112569E+02  0.40659140793E+02  0.00000000000E+00 0.  1.
         11    1    3    3    0    0  0.15861437517E+00  0.37038296214E+02 -0.35470544186E+01  0.37208092403E+02  0.51100000000E-03 0. -1.
        -11    1    3    3    0    0 -0.94479911893E-01 -0.86684797413E+00 -0.41764349963E+01  0.42664928693E+01  0.51100000000E-03 0.  1.
         12    1    3    3    0    0  0.73771821990E+01  0.17374340078E+01 -0.49536231542E+01  0.90542739346E+01  0.00000000000E+00 0. -1.
</event>
<event>
 7    1  0.1023000E-012  0.5052885E+02  0.7816164E-02  0.1300439E+00
        -11   -1    0    0    0    0  0.00000000000E+00  0.00000000000E+00  0.45593999997E+02  0.45594000000E+02  0.51100000000E-03 0. -1.
         11   -1    0    0    0    0 -0.00000000000E+00 -0.00000000000E+00 -0.45593999997E+02  0.45594000000E+02  0.51100000000E-03 0.  1.
    9900012    2    1    2    0    0 -0.13797552134E+01  0.24854749260E+02  0.32148163190E+02  0.50528847504E+02  0.29999962472E+02 0.  0.
        -12    1    1    2    0    0  0.13797552134E+01 -0.24854749260E+02 -0.32148163190E+02  0.40659152496E+02  0.00000000000E+00 0.  1.
         11    1    3    3    0    0 -0.43471570676E+01  0.15734481558E+02  0.26624990209E+02  0.31230782705E+02  0.51100000000E-03 0. -1.
        -11    1    3    3    0    0  0.89237830485E+01  0.80051334899E+01  0.16376487580E+01  0.12099502461E+02  0.51100000000E-03 0.  1.
        -12    1    3    3    0    0 -0.59563811943E+01  0.11151342118E+01  0.38855242234E+01  0.71985623379E+01  0.00000000000E+00 0.  1.
</event>
<event>
 7    1  0.1023000E-012  0.5052886E+02  0.7816164E-02  0.1300439E+00
        -11   -1    0    0    0    0  0.00000000000E+00  0.00000000000E+00  0.45593999997E+02  0.45594000000E+02  0.51100000000E-03 0. -1.
         11   -1    0    0    0    0 -0.00000000000E+00 -0.00000000000E+00 -0.45593999997E+02  0.45594000000E+02  0.51100000000E-03 0.  1.
    9900012    2    1    2    0    0  0.22733325124E+02 -0.16380088588E+02  0.29462757463E+02  0.50528862642E+02  0.30000008487E+02 0.  0.
        -12    1    1    2    0    0 -0.22733325124E+02  0.16380088588E+02 -0.29462757463E+02  0.40659137358E+02  0.00000000000E+00 0.  1.
         11    1    3    3    0    0  0.90019859740E+01 -0.14068654153E+02  0.63745618685E+01  0.17877299025E+02  0.51100000000E-03 0. -1.
        -11    1    3    3    0    0 -0.41131661366E+01  0.20946797062E+01  0.58570336647E+01  0.74572556849E+01  0.51100000000E-03 0.  1.
         12    1    3    3    0    0  0.17844505286E+02 -0.44061141420E+01  0.17231161930E+02  0.25194307933E+02  0.00000000000E+00 0. -1.
</event>
<event>
 7    1  0.1023000E-012  0.5052885E+02  0.7816164E-02  0.1300439E+00
        -11   -1    0    0    0    0  0.00000000000E+00  0.00000000000E+00  0.45593999997E+02  0.45594000000E+02  0.51100000000E-03 0.  1.
         11   -1    0    0    0    0 -0.00000000000E+00 -0.00000000000E+00 -0.45593999997E+02  0.45594000000E+02  0.51100000000E-03 0. -1.
    9900012    2    1    2    0    0 -0.99435894964E+01  0.36815112528E+02 -0.14104567905E+02  0.50528851973E+02  0.29999976056E+02 0.  0.
        -12    1    1    2    0    0  0.99435894964E+01 -0.36815112528E+02  0.14104567905E+02  0.40659148027E+02  0.00000000000E+00 0.  1.
         11    1    3    3    0    0  0.18089001166E+01 -0.94581493493E+00 -0.15236381070E+01  0.25471864606E+01  0.51100000000E-03 0. -1.
        -11    1    3    3    0    0 -0.14588888334E+02  0.91991015412E+01 -0.18788405468E+01  0.17349039571E+02  0.51100000000E-03 0.  1.
        -12    1    3    3    0    0  0.28363987209E+01  0.28561825921E+02 -0.10702089252E+02  0.30632625941E+02  0.00000000000E+00 0.  1.
</event>
<event>
 7    1  0.1023000E-012  0.5052887E+02  0.7816164E-02  0.1300439E+00
        -11   -1    0    0    0    0  0.00000000000E+00  0.00000000000E+00  0.45593999997E+02  0.45594000000E+02  0.51100000000E-03 0. -1.
         11   -1    0    0    0    0 -0.00000000000E+00 -0.00000000000E+00 -0.45593999997E+02  0.45594000000E+02  0.51100000000E-03 0.  1.
    9900012    2    1    2    0    0 -0.37767898263E+02 -0.12242151879E+02  0.87681679127E+01  0.50528865843E+02  0.30000018217E+02 0.  0.
        -12    1    1    2    0    0  0.37767898263E+02  0.12242151879E+02 -0.87681679127E+01  0.40659134157E+02  0.00000000000E+00 0.  1.
         11    1    3    3    0    0 -0.12846779106E+02 -0.89859538115E+01  0.45080064699E+01  0.16312854499E+02  0.51100000000E-03 0. -1.
        -11    1    3    3    0    0 -0.20105956814E+02  0.36192039163E+01 -0.56817920482E+01  0.21204501822E+02  0.51100000000E-03 0.  1.
        -12    1    3    3    0    0 -0.48151623431E+01 -0.68754019834E+01  0.99419534910E+01  0.13011509522E+02  0.00000000000E+00 0.  1.
</event>
<event>
 7    1  0.1023000E-012  0.5052886E+02  0.7816164E-02  0.1300439E+00
        -11   -1    0    0    0    0  0.00000000000E+00  0.00000000000E+00  0.45593999997E+02  0.45594000000E+02  0.51100000000E-03 0.  1.
         11   -1    0    0    0    0 -0.00000000000E+00 -0.00000000000E+00 -0.45593999997E+02  0.45594000000E+02  0.51100000000E-03 0. -1.
    9900012    2    1    2    0    0  0.18760986473E+02  0.13670959361E+02 -0.33381070145E+02  0.50528860962E+02  0.30000003381E+02 0.  0.
        -12    1    1    2    0    0 -0.18760986473E+02 -0.13670959361E+02  0.33381070145E+02  0.40659139038E+02  0.00000000000E+00 0.  1.
         11    1    3    3    0    0 -0.51877344075E+00  0.12011071284E+02 -0.47800548795E+00  0.12031768315E+02  0.51100000000E-03 0. -1.
        -11    1    3    3    0    0  0.74316485572E+01 -0.12823106633E+01 -0.15522927424E+02  0.17257896656E+02  0.51100000000E-03 0.  1.
         12    1    3    3    0    0  0.11848111356E+02  0.29421987396E+01 -0.17380137232E+02  0.21239195991E+02  0.00000000000E+00 0. -1.
</event>
<event>
 7    1  0.1023000E-012  0.5052885E+02  0.7816164E-02  0.1300439E+00
        -11   -1    0    0    0    0  0.00000000000E+00  0.00000000000E+00  0.45593999997E+02  0.45594000000E+02  0.51100000000E-03 0. -1.
         11   -1    0    0    0    0 -0.00000000000E+00 -0.00000000000E+00 -0.45593999997E+02  0.45594000000E+02  0.51100000000E-03 0.  1.
    9900012    2    1    2    0    0  0.26532468870E+02  0.15604568822E+02  0.26564859649E+02  0.50528852928E+02  0.29999978960E+02 0.  0.
        -12    1    1    2    0    0 -0.26532468870E+02 -0.15604568822E+02 -0.26564859649E+02  0.40659147072E+02  0.00000000000E+00 0.  1.
         11    1    3    3    0    0  0.13448043806E+02  0.59492893201E+01  0.26452021648E+02  0.30264721627E+02  0.51100000000E-03 0. -1.
        -11    1    3    3    0    0  0.91200989791E+01 -0.71720917092E+00 -0.28590386021E+00  0.91527228551E+01  0.51100000000E-03 0.  1.
         12    1    3    3    0    0  0.39643260849E+01  0.10372488673E+02  0.39874186048E+00  0.11111408446E+02  0.00000000000E+00 0. -1.
</event>
<event>
 7    1  0.1023000E-012  0.5052886E+02  0.7816164E-02  0.1300439E+00
        -11   -1    0    0    0    0  0.00000000000E+00  0.00000000000E+00  0.45593999997E+02  0.45594000000E+02  0.51100000000E-03 0.  1.
         11   -1    0    0    0    0 -0.00000000000E+00 -0.00000000000E+00 -0.45593999997E+02  0.45594000000E+02  0.51100000000E-03 0. -1.
    9900012    2    1    2    0    0  0.19384817303E+02  0.26364037009E+02 -0.24131552751E+02  0.50528862928E+02  0.30000009355E+02 0.  0.
        -12    1    1    2    0    0 -0.19384817303E+02 -0.26364037009E+02  0.24131552751E+02  0.40659137072E+02  0.00000000000E+00 0.  1.
         11    1    3    3    0    0  0.14460999392E+02  0.13723477960E+02 -0.16011979217E+02  0.25570252823E+02  0.51100000000E-03 0. -1.
        -11    1    3    3    0    0 -0.54761761288E+01  0.61958164516E+01  0.26247975219E+01  0.86756099951E+01  0.51100000000E-03 0.  1.
        -12    1    3    3    0    0  0.10399994040E+02  0.64447425969E+01 -0.10744371056E+02  0.16283000109E+02  0.00000000000E+00 0.  1.
</event>
<event>
 7    1  0.1023000E-012  0.5052889E+02  0.7816164E-02  0.1300439E+00
        -11   -1    0    0    0    0  0.00000000000E+00  0.00000000000E+00  0.45593999997E+02  0.45594000000E+02  0.51100000000E-03 0. -1.
         11   -1    0    0    0    0 -0.00000000000E+00 -0.00000000000E+00 -0.45593999997E+02  0.45594000000E+02  0.51100000000E-03 0.  1.
    9900012    2    1    2    0    0 -0.19168447070E+01  0.19597277528E+02  0.35572965648E+02  0.50528887059E+02  0.30000082705E+02 0.  0.
        -12    1    1    2    0    0  0.19168447070E+01 -0.19597277528E+02 -0.35572965648E+02  0.40659112941E+02  0.00000000000E+00 0.  1.
         11    1    3    3    0    0  0.57420005889E+01  0.97160174055E+01  0.27080702886E+02  0.29338303189E+02  0.51100000000E-03 0. -1.
        -11    1    3    3    0    0 -0.71019449695E+01  0.40530622632E+01 -0.26566865796E+01  0.85978439101E+01  0.51100000000E-03 0.  1.
         12    1    3    3    0    0 -0.55690032646E+00  0.58281978587E+01  0.11148949342E+02  0.12592739960E+02  0.00000000000E+00 0. -1.
</event>
<event>
 7    1  0.1023000E-012  0.5052886E+02  0.7816164E-02  0.1300439E+00
        -11   -1    0    0    0    0  0.00000000000E+00  0.00000000000E+00  0.45593999997E+02  0.45594000000E+02  0.51100000000E-03 0. -1.
         11   -1    0    0    0    0 -0.00000000000E+00 -0.00000000000E+00 -0.45593999997E+02  0.45594000000E+02  0.51100000000E-03 0.  1.
    9900012    2    1    2    0    0 -0.28454267206E+02  0.78710674485E+01  0.27956507491E+02  0.50528864051E+02  0.30000012769E+02 0.  0.
        -12    1    1    2    0    0  0.28454267206E+02 -0.78710674485E+01 -0.27956507491E+02  0.40659135949E+02  0.00000000000E+00 0.  1.
         11    1    3    3    0    0 -0.15149079077E+02 -0.32321400182E+01  0.28994876051E+02  0.32873152624E+02  0.51100000000E-03 0. -1.
        -11    1    3    3    0    0 -0.82554370518E+01  0.78262549622E+01  0.67878996121E+00  0.11395756391E+02  0.51100000000E-03 0.  1.
         12    1    3    3    0    0 -0.50497510780E+01  0.32769525046E+01 -0.17171585212E+01  0.62599550361E+01  0.00000000000E+00 0. -1.
</event>
<event>
 7    1  0.1023000E-012  0.5052885E+02  0.7816164E-02  0.1300439E+00
        -11   -1    0    0    0    0  0.00000000000E+00  0.00000000000E+00  0.45593999997E+02  0.45594000000E+02  0.51100000000E-03 0. -1.
         11   -1    0    0    0    0 -0.00000000000E+00 -0.00000000000E+00 -0.45593999997E+02  0.45594000000E+02  0.51100000000E-03 0.  1.
    9900012    2    1    2    0    0  0.51172193214E+01  0.12082884042E+02  0.38483559524E+02  0.50528851288E+02  0.29999973974E+02 0.  0.
        -12    1    1    2    0    0 -0.51172193214E+01 -0.12082884042E+02 -0.38483559524E+02  0.40659148712E+02  0.00000000000E+00 0.  1.
         11    1    3    3    0    0  0.67814632241E+01  0.86561209018E+00  0.28771002765E+01  0.74172254929E+01  0.51100000000E-03 0.  1.
        -11    1    3    3    0    0  0.43803090883E+00  0.17476484591E+02  0.28295067646E+02  0.33260039659E+02  0.51100000000E-03 0. -1.
        -12    1    3    3    0    0 -0.21022748114E+01 -0.62592126394E+01  0.73113916016E+01  0.98515861362E+01  0.00000000000E+00 0.  1.
</event>
<event>
 7    1  0.1023000E-012  0.5052885E+02  0.7816164E-02  0.1300439E+00
        -11   -1    0    0    0    0  0.00000000000E+00  0.00000000000E+00  0.45593999997E+02  0.45594000000E+02  0.51100000000E-03 0. -1.
         11   -1    0    0    0    0 -0.00000000000E+00 -0.00000000000E+00 -0.45593999997E+02  0.45594000000E+02  0.51100000000E-03 0.  1.
    9900012    2    1    2    0    0  0.36487974410E+02  0.33555325657E+01  0.17621996711E+02  0.50528847975E+02  0.29999963904E+02 0.  0.
        -12    1    1    2    0    0 -0.36487974410E+02 -0.33555325657E+01 -0.17621996711E+02  0.40659152025E+02  0.00000000000E+00 0.  1.
         11    1    3    3    0    0  0.10089656961E+02 -0.11823922976E+01  0.91444927959E+01  0.13668247067E+02  0.51100000000E-03 0. -1.
        -11    1    3    3    0    0  0.26428336914E+02  0.73906097836E+01 -0.49370794763E+00  0.27446709326E+02  0.51100000000E-03 0.  1.
        -12    1    3    3    0    0 -0.30019465581E-01 -0.28526849202E+01  0.89712118628E+01  0.94138915816E+01  0.00000000000E+00 0.  1.
</event>
<event>
 7    1  0.1023000E-012  0.5052886E+02  0.7816164E-02  0.1300439E+00
        -11   -1    0    0    0    0  0.00000000000E+00  0.00000000000E+00  0.45593999997E+02  0.45594000000E+02  0.51100000000E-03 0.  1.
         11   -1    0    0    0    0 -0.00000000000E+00 -0.00000000000E+00 -0.45593999997E+02  0.45594000000E+02  0.51100000000E-03 0. -1.
    9900012    2    1    2    0    0  0.25488256872E+01  0.93972595611E+01 -0.39476082043E+02  0.50528855234E+02  0.29999985970E+02 0.  0.
        -12    1    1    2    0    0 -0.25488256872E+01 -0.93972595611E+01  0.39476082043E+02  0.40659144766E+02  0.00000000000E+00 0.  1.
         11    1    3    3    0    0 -0.11126244830E+01 -0.85835983484E+01 -0.19397178223E+02  0.21240683066E+02  0.51100000000E-03 0.  1.
        -11    1    3    3    0    0  0.68558451867E+01  0.15564555299E+02 -0.18042248900E+02  0.24794772443E+02  0.51100000000E-03 0. -1.
         12    1    3    3    0    0 -0.31943950166E+01  0.24163026108E+01 -0.20366549200E+01  0.44933997254E+01  0.00000000000E+00 0. -1.
</event>
<event>
 7    1  0.1023000E-012  0.5052887E+02  0.7816164E-02  0.1300439E+00
        -11   -1    0    0    0    0  0.00000000000E+00  0.00000000000E+00  0.45593999997E+02  0.45594000000E+02  0.51100000000E-03 0.  1.
         11   -1    0    0    0    0 -0.00000000000E+00 -0.00000000000E+00 -0.45593999997E+02  0.45594000000E+02  0.51100000000E-03 0. -1.
    9900012    2    1    2    0    0  0.22834272855E+02  0.31580858537E+02 -0.11593552838E+02  0.50528866830E+02  0.30000021216E+02 0.  0.
        -12    1    1    2    0    0 -0.22834272855E+02 -0.31580858537E+02  0.11593552838E+02  0.40659133170E+02  0.00000000000E+00 0.  1.
         11    1    3    3    0    0  0.10129299118E+01  0.10741384081E+02 -0.38247837760E+01  0.11446935405E+02  0.51100000000E-03 0. -1.
        -11    1    3    3    0    0  0.21043560240E+02  0.66521658543E+01 -0.10773424208E+02  0.24559100300E+02  0.51100000000E-03 0.  1.
        -12    1    3    3    0    0  0.77778270248E+00  0.14187308602E+02  0.30046551463E+01  0.14522831124E+02  0.00000000000E+00 0.  1.
</event>
<event>
 7    1  0.1023000E-012  0.5052880E+02  0.7816164E-02  0.1300439E+00
        -11   -1    0    0    0    0  0.00000000000E+00  0.00000000000E+00  0.45593999997E+02  0.45594000000E+02  0.51100000000E-03 0.  1.
         11   -1    0    0    0    0 -0.00000000000E+00 -0.00000000000E+00 -0.45593999997E+02  0.45594000000E+02  0.51100000000E-03 0. -1.
    9900012    2    1    2    0    0 -0.31213087362E+02  0.24367252141E+02  0.92277243130E+01  0.50528798144E+02  0.29999812438E+02 0.  0.
        -12    1    1    2    0    0  0.31213087362E+02 -0.24367252141E+02 -0.92277243130E+01  0.40659201856E+02  0.00000000000E+00 0.  1.
         11    1    3    3    0    0 -0.16573467872E+02  0.24572889031E+02  0.96802522869E+01  0.31180346329E+02  0.51100000000E-03 0. -1.
        -11    1    3    3    0    0 -0.45752207958E+01 -0.45078365871E+01  0.39617820064E+01  0.75464530048E+01  0.51100000000E-03 0.  1.
         12    1    3    3    0    0 -0.10064398694E+02  0.43021996978E+01 -0.44143099804E+01  0.11801998810E+02  0.00000000000E+00 0. -1.
</event>
<event>
 7    1  0.1023000E-012  0.5052886E+02  0.7816164E-02  0.1300439E+00
        -11   -1    0    0    0    0  0.00000000000E+00  0.00000000000E+00  0.45593999997E+02  0.45594000000E+02  0.51100000000E-03 0.  1.
         11   -1    0    0    0    0 -0.00000000000E+00 -0.00000000000E+00 -0.45593999997E+02  0.45594000000E+02  0.51100000000E-03 0. -1.
    9900012    2    1    2    0    0 -0.35926991492E+02 -0.17399311978E+02  0.77253630267E+01  0.50528855778E+02  0.29999987624E+02 0.  0.
        -12    1    1    2    0    0  0.35926991492E+02  0.17399311978E+02 -0.77253630267E+01  0.40659144222E+02  0.00000000000E+00 0.  1.
         11    1    3    3    0    0 -0.12757363539E+02 -0.15953013407E+02 -0.75749495763E+01  0.21785977660E+02  0.51100000000E-03 0. -1.
        -11    1    3    3    0    0  0.51488050704E+00 -0.30025795051E+00  0.58821887286E+00  0.83741177259E+00  0.51100000000E-03 0.  1.
         12    1    3    3    0    0 -0.23684508460E+02 -0.11460406201E+01  0.14712093730E+02  0.27905466346E+02  0.00000000000E+00 0. -1.
</event>
<event>
 7    1  0.1023000E-012  0.5052886E+02  0.7816164E-02  0.1300439E+00
        -11   -1    0    0    0    0  0.00000000000E+00  0.00000000000E+00  0.45593999997E+02  0.45594000000E+02  0.51100000000E-03 0. -1.
         11   -1    0    0    0    0 -0.00000000000E+00 -0.00000000000E+00 -0.45593999997E+02  0.45594000000E+02  0.51100000000E-03 0.  1.
    9900012    2    1    2    0    0 -0.34467097277E+02 -0.68552749921E+01  0.20449691859E+02  0.50528862195E+02  0.30000007128E+02 0.  0.
        -12    1    1    2    0    0  0.34467097277E+02  0.68552749921E+01 -0.20449691859E+02  0.40659137805E+02  0.00000000000E+00 0.  1.
         11    1    3    3    0    0 -0.28605611560E+02  0.43207275879E+01  0.23176200282E+02  0.37068665465E+02  0.51100000000E-03 0. -1.
        -11    1    3    3    0    0 -0.44334597127E+00 -0.47150576631E+01 -0.69206868266E+00  0.47861554236E+01  0.51100000000E-03 0.  1.
         12    1    3    3    0    0 -0.54181397457E+01 -0.64609449169E+01 -0.20344397404E+01  0.86740413061E+01  0.00000000000E+00 0. -1.
</event>
<event>
 7    1  0.1023000E-012  0.5052887E+02  0.7816164E-02  0.1300439E+00
        -11   -1    0    0    0    0  0.00000000000E+00  0.00000000000E+00  0.45593999997E+02  0.45594000000E+02  0.51100000000E-03 0.  1.
         11   -1    0    0    0    0 -0.00000000000E+00 -0.00000000000E+00 -0.45593999997E+02  0.45594000000E+02  0.51100000000E-03 0. -1.
    9900012    2    1    2    0    0  0.31979985819E+02  0.14980674902E+02 -0.20150047461E+02  0.50528874011E+02  0.30000043043E+02 0.  0.
        -12    1    1    2    0    0 -0.31979985819E+02 -0.14980674902E+02  0.20150047461E+02  0.40659125989E+02  0.00000000000E+00 0.  1.
         11    1    3    3    0    0  0.33714423238E+02  0.12928317852E+02 -0.66746368536E+01  0.36719947088E+02  0.51100000000E-03 0. -1.
        -11    1    3    3    0    0 -0.10367131334E+01  0.86292040120E+00 -0.96245281804E+01  0.97185877933E+01  0.51100000000E-03 0.  1.
         12    1    3    3    0    0 -0.69772428580E+00  0.11894366486E+01 -0.38508824274E+01  0.40903391290E+01  0.00000000000E+00 0. -1.
</event>
<event>
 7    1  0.1023000E-012  0.5052888E+02  0.7816164E-02  0.1300439E+00
        -11   -1    0    0    0    0  0.00000000000E+00  0.00000000000E+00  0.45593999997E+02  0.45594000000E+02  0.51100000000E-03 0. -1.
         11   -1    0    0    0    0 -0.00000000000E+00 -0.00000000000E+00 -0.45593999997E+02  0.45594000000E+02  0.51100000000E-03 0.  1.
    9900012    2    1    2    0    0  0.23444306038E+02  0.20742458088E+02  0.25947622122E+02  0.50528878675E+02  0.30000057221E+02 0.  0.
        -12    1    1    2    0    0 -0.23444306038E+02 -0.20742458088E+02 -0.25947622122E+02  0.40659121325E+02  0.00000000000E+00 0.  1.
         11    1    3    3    0    0  0.18600599891E+02  0.10835956321E+02  0.72199015185E+00  0.21538837845E+02  0.51100000000E-03 0. -1.
        -11    1    3    3    0    0  0.73125795294E+01  0.90409803635E+01  0.19687374978E+02  0.22864948701E+02  0.51100000000E-03 0.  1.
        -12    1    3    3    0    0 -0.24688733826E+01  0.86552140369E+00  0.55382569922E+01  0.61250921292E+01  0.00000000000E+00 0.  1.
</event>
<event>
 7    1  0.1023000E-012  0.5052885E+02  0.7816164E-02  0.1300439E+00
        -11   -1    0    0    0    0  0.00000000000E+00  0.00000000000E+00  0.45593999997E+02  0.45594000000E+02  0.51100000000E-03 0.  1.
         11   -1    0    0    0    0 -0.00000000000E+00 -0.00000000000E+00 -0.45593999997E+02  0.45594000000E+02  0.51100000000E-03 0. -1.
    9900012    2    1    2    0    0 -0.35757281672E+02 -0.12186833858E+02 -0.15035427165E+02  0.50528853648E+02  0.29999981148E+02 0.  0.
        -12    1    1    2    0    0  0.35757281672E+02  0.12186833858E+02  0.15035427165E+02  0.40659146352E+02  0.00000000000E+00 0.  1.
         11    1    3    3    0    0 -0.13683190614E+02  0.41583041424E+01  0.52742914354E+01  0.15242681822E+02  0.51100000000E-03 0. -1.
        -11    1    3    3    0    0 -0.52407322395E+01 -0.84814741130E+01 -0.47120143506E+01  0.11027409353E+02  0.51100000000E-03 0.  1.
         12    1    3    3    0    0 -0.16833358818E+02 -0.78636638877E+01 -0.15597704250E+02  0.24258762473E+02  0.00000000000E+00 0. -1.
</event>
<event>
 7    1  0.1023000E-012  0.5052885E+02  0.7816164E-02  0.1300439E+00
        -11   -1    0    0    0    0  0.00000000000E+00  0.00000000000E+00  0.45593999997E+02  0.45594000000E+02  0.51100000000E-03 0. -1.
         11   -1    0    0    0    0 -0.00000000000E+00 -0.00000000000E+00 -0.45593999997E+02  0.45594000000E+02  0.51100000000E-03 0.  1.
    9900012    2    1    2    0    0 -0.35757950712E+01 -0.40141787727E+02 -0.53867844004E+01  0.50528845084E+02  0.29999955118E+02 0.  0.
        -12    1    1    2    0    0  0.35757950712E+01  0.40141787727E+02  0.53867844004E+01  0.40659154916E+02  0.00000000000E+00 0.  1.
         11    1    3    3    0    0  0.70611133808E+01 -0.90792956113E+01  0.90289729809E+01  0.14622424024E+02  0.51100000000E-03 0. -1.
        -11    1    3    3    0    0 -0.34926929299E+01 -0.12743911379E+02 -0.62122736996E+01  0.14601319321E+02  0.51100000000E-03 0.  1.
         12    1    3    3    0    0 -0.71442155221E+01 -0.18318580737E+02 -0.82034836817E+01  0.21305101740E+02  0.00000000000E+00 0. -1.
</event>
<event>
 7    1  0.1023000E-012  0.5052886E+02  0.7816164E-02  0.1300439E+00
        -11   -1    0    0    0    0  0.00000000000E+00  0.00000000000E+00  0.45593999997E+02  0.45594000000E+02  0.51100000000E-03 0. -1.
         11   -1    0    0    0    0 -0.00000000000E+00 -0.00000000000E+00 -0.45593999997E+02  0.45594000000E+02  0.51100000000E-03 0.  1.
    9900012    2    1    2    0    0  0.23005558732E+02  0.40343355594E+01  0.33281140217E+02  0.50528857238E+02  0.29999992062E+02 0.  0.
        -12    1    1    2    0    0 -0.23005558732E+02 -0.40343355594E+01 -0.33281140217E+02  0.40659142762E+02  0.00000000000E+00 0.  1.
         11    1    3    3    0    0  0.13194428859E+02  0.71330100594E+00  0.74265538902E+01  0.15157686307E+02  0.51100000000E-03 0. -1.
        -11    1    3    3    0    0 -0.31681351478E+01  0.57757802070E+01  0.28813864839E+00  0.65939170041E+01  0.51100000000E-03 0.  1.
        -12    1    3    3    0    0  0.12979265020E+02 -0.24547456536E+01  0.25566447678E+02  0.28777253927E+02  0.00000000000E+00 0.  1.
</event>
<event>
 7    1  0.1023000E-012  0.5052886E+02  0.7816164E-02  0.1300439E+00
        -11   -1    0    0    0    0  0.00000000000E+00  0.00000000000E+00  0.45593999997E+02  0.45594000000E+02  0.51100000000E-03 0. -1.
         11   -1    0    0    0    0 -0.00000000000E+00 -0.00000000000E+00 -0.45593999997E+02  0.45594000000E+02  0.51100000000E-03 0.  1.
    9900012    2    1    2    0    0 -0.55484043467E+01 -0.37727150257E+02  0.14108248523E+02  0.50528864080E+02  0.30000012858E+02 0.  0.
        -12    1    1    2    0    0  0.55484043467E+01  0.37727150257E+02 -0.14108248523E+02  0.40659135920E+02  0.00000000000E+00 0.  1.
         11    1    3    3    0    0 -0.10845661206E+01 -0.11775275629E+02  0.11427653179E+02  0.16444593557E+02  0.51100000000E-03 0. -1.
        -11    1    3    3    0    0 -0.56574986827E+01 -0.10610537455E+01 -0.53948031674E+01  0.78890448010E+01  0.51100000000E-03 0.  1.
        -12    1    3    3    0    0  0.11936604566E+01 -0.24890820883E+02  0.80753985111E+01  0.26195225722E+02  0.00000000000E+00 0.  1.
</event>
<event>
 7    1  0.1023000E-012  0.5052896E+02  0.7816164E-02  0.1300438E+00
        -11   -1    0    0    0    0  0.00000000000E+00  0.00000000000E+00  0.45593999997E+02  0.45594000000E+02  0.51100000000E-03 0.  1.
         11   -1    0    0    0    0 -0.00000000000E+00 -0.00000000000E+00 -0.45593999997E+02  0.45594000000E+02  0.51100000000E-03 0. -1.
    9900012    2    1    2    0    0  0.27317306883E+02  0.11713640735E+02 -0.27743699749E+02  0.50528960287E+02  0.30000305287E+02 0.  0.
        -12    1    1    2    0    0 -0.27317306883E+02 -0.11713640735E+02  0.27743699749E+02  0.40659039713E+02  0.00000000000E+00 0.  1.
         11    1    3    3    0    0  0.17844402235E+02  0.19493430816E+02 -0.12610859674E+02  0.29282252613E+02  0.51100000000E-03 0. -1.
        -11    1    3    3    0    0  0.46337329701E+01 -0.28688707309E+01 -0.10266877627E+01  0.55458081946E+01  0.51100000000E-03 0.  1.
         12    1    3    3    0    0  0.48391716784E+01 -0.49109193506E+01 -0.14106152313E+02  0.15700899480E+02  0.00000000000E+00 0. -1.
</event>
<event>
 7    1  0.1023000E-012  0.5052887E+02  0.7816164E-02  0.1300439E+00
        -11   -1    0    0    0    0  0.00000000000E+00  0.00000000000E+00  0.45593999997E+02  0.45594000000E+02  0.51100000000E-03 0.  1.
         11   -1    0    0    0    0 -0.00000000000E+00 -0.00000000000E+00 -0.45593999997E+02  0.45594000000E+02  0.51100000000E-03 0. -1.
    9900012    2    1    2    0    0  0.10473524105E+02 -0.18813721655E+01 -0.39241953455E+02  0.50528865979E+02  0.30000018629E+02 0.  0.
        -12    1    1    2    0    0 -0.10473524105E+02  0.18813721655E+01  0.39241953455E+02  0.40659134021E+02  0.00000000000E+00 0.  1.
         11    1    3    3    0    0 -0.20760575436E+01  0.11282413790E+00 -0.80502840871E+01  0.83144343377E+01  0.51100000000E-03 0. -1.
        -11    1    3    3    0    0  0.14614442306E+01 -0.79809910187E+01  0.48014611410E+00  0.81278888669E+01  0.51100000000E-03 0.  1.
        -12    1    3    3    0    0  0.11088137418E+02  0.59867947153E+01 -0.31671815482E+02  0.34086542774E+02  0.00000000000E+00 0.  1.
</event>
<event>
 7    1  0.1023000E-012  0.5052886E+02  0.7816164E-02  0.1300439E+00
        -11   -1    0    0    0    0  0.00000000000E+00  0.00000000000E+00  0.45593999997E+02  0.45594000000E+02  0.51100000000E-03 0.  1.
         11   -1    0    0    0    0 -0.00000000000E+00 -0.00000000000E+00 -0.45593999997E+02  0.45594000000E+02  0.51100000000E-03 0. -1.
    9900012    2    1    2    0    0 -0.19510338673E+02  0.34728406229E+02  0.81516821194E+01  0.50528862826E+02  0.30000009045E+02 0.  0.
        -12    1    1    2    0    0  0.19510338673E+02 -0.34728406229E+02 -0.81516821194E+01  0.40659137174E+02  0.00000000000E+00 0.  1.
         11    1    3    3    0    0 -0.10762109694E+02  0.33917470379E+02  0.84887345987E+01  0.36582460515E+02  0.51100000000E-03 0. -1.
        -11    1    3    3    0    0  0.10952395070E+01 -0.31475150495E+01 -0.55758413643E-01  0.33330931320E+01  0.51100000000E-03 0.  1.
         12    1    3    3    0    0 -0.98434684867E+01  0.39584508995E+01 -0.28129406562E+00  0.10613309179E+02  0.00000000000E+00 0. -1.
</event>
<event>
 7    1  0.1023000E-012  0.5052886E+02  0.7816164E-02  0.1300439E+00
        -11   -1    0    0    0    0  0.00000000000E+00  0.00000000000E+00  0.45593999997E+02  0.45594000000E+02  0.51100000000E-03 0.  1.
         11   -1    0    0    0    0 -0.00000000000E+00 -0.00000000000E+00 -0.45593999997E+02  0.45594000000E+02  0.51100000000E-03 0. -1.
    9900012    2    1    2    0    0 -0.10100121840E+02  0.27649616227E+02 -0.28047309335E+02  0.50528864500E+02  0.30000014135E+02 0.  0.
        -12    1    1    2    0    0  0.10100121840E+02 -0.27649616227E+02  0.28047309335E+02  0.40659135500E+02  0.00000000000E+00 0.  1.
         11    1    3    3    0    0 -0.31861693821E+01  0.10301686908E+01 -0.32213172495E+00  0.33640291277E+01  0.51100000000E-03 0. -1.
        -11    1    3    3    0    0 -0.13900700389E+00  0.16736475627E+02 -0.30567901376E+02  0.34850043532E+02  0.51100000000E-03 0.  1.
        -12    1    3    3    0    0 -0.67749454545E+01  0.98829719090E+01  0.28427237664E+01  0.12314791841E+02  0.00000000000E+00 0.  1.
</event>
<event>
 7    1  0.1023000E-012  0.5052886E+02  0.7816164E-02  0.1300439E+00
        -11   -1    0    0    0    0  0.00000000000E+00  0.00000000000E+00  0.45593999997E+02  0.45594000000E+02  0.51100000000E-03 0. -1.
         11   -1    0    0    0    0 -0.00000000000E+00 -0.00000000000E+00 -0.45593999997E+02  0.45594000000E+02  0.51100000000E-03 0.  1.
    9900012    2    1    2    0    0 -0.38269850779E+02  0.80265743771E+01 -0.11142648504E+02  0.50528856003E+02  0.29999988308E+02 0.  0.
        -12    1    1    2    0    0  0.38269850779E+02 -0.80265743771E+01  0.11142648504E+02  0.40659143997E+02  0.00000000000E+00 0.  1.
         11    1    3    3    0    0 -0.24964486731E+01  0.88199364020E+01 -0.10487406052E+02  0.13928719254E+02  0.51100000000E-03 0.  1.
        -11    1    3    3    0    0 -0.20614339504E+02  0.27325949025E+01 -0.24273155282E+01  0.20935852718E+02  0.51100000000E-03 0. -1.
        -12    1    3    3    0    0 -0.15159062601E+02 -0.35259569273E+01  0.17720730764E+01  0.15664284031E+02  0.00000000000E+00 0.  1.
</event>
<event>
 7    1  0.1129626E-012  0.5052887E+02  0.7816164E-02  0.1300439E+00
        -11   -1    0    0    0    0  0.00000000000E+00  0.00000000000E+00  0.45593999997E+02  0.45594000000E+02  0.51100000000E-03 0. -1.
         11   -1    0    0    0    0 -0.00000000000E+00 -0.00000000000E+00 -0.45593999997E+02  0.45594000000E+02  0.51100000000E-03 0.  1.
    9900012    2    1    2    0    0  0.30340976447E+02  0.26958453768E+02  0.24149830856E+01  0.50528865422E+02  0.30000016936E+02 0.  0.
        -12    1    1    2    0    0 -0.30340976447E+02 -0.26958453768E+02 -0.24149830856E+01  0.40659134578E+02  0.00000000000E+00 0.  1.
         11    1    3    3    0    0  0.23101175001E+02  0.14700933581E+02  0.56418006905E+01  0.27957318360E+02  0.51100000000E-03 0. -1.
        -11    1    3    3    0    0  0.45724617748E+01  0.13555380843E+02 -0.84135460288E+01  0.16596491000E+02  0.51100000000E-03 0.  1.
        -12    1    3    3    0    0  0.26673396708E+01 -0.12978606550E+01  0.51867284238E+01  0.59750560618E+01  0.00000000000E+00 0.  1.
</event>
<event>
 7    1  0.1023000E-012  0.5052886E+02  0.7816164E-02  0.1300439E+00
        -11   -1    0    0    0    0  0.00000000000E+00  0.00000000000E+00  0.45593999997E+02  0.45594000000E+02  0.51100000000E-03 0.  1.
         11   -1    0    0    0    0 -0.00000000000E+00 -0.00000000000E+00 -0.45593999997E+02  0.45594000000E+02  0.51100000000E-03 0. -1.
    9900012    2    1    2    0    0  0.46278738533E+01  0.16469626498E+02 -0.36884952814E+02  0.50528861329E+02  0.30000004496E+02 0.  0.
        -12    1    1    2    0    0 -0.46278738533E+01 -0.16469626498E+02  0.36884952814E+02  0.40659138671E+02  0.00000000000E+00 0.  1.
         11    1    3    3    0    0  0.11433589739E+02  0.93906436964E+01 -0.26790987787E+02  0.30605035374E+02  0.51100000000E-03 0. -1.
        -11    1    3    3    0    0 -0.87841224814E+01 -0.69205962598E+00 -0.32839984589E+01  0.94034249310E+01  0.51100000000E-03 0.  1.
        -12    1    3    3    0    0  0.19784065959E+01  0.77710424271E+01 -0.68099665678E+01  0.10520401025E+02  0.00000000000E+00 0.  1.
</event>
<event>
 7    1  0.1023000E-012  0.5052886E+02  0.7816164E-02  0.1300439E+00
        -11   -1    0    0    0    0  0.00000000000E+00  0.00000000000E+00  0.45593999997E+02  0.45594000000E+02  0.51100000000E-03 0. -1.
         11   -1    0    0    0    0 -0.00000000000E+00 -0.00000000000E+00 -0.45593999997E+02  0.45594000000E+02  0.51100000000E-03 0.  1.
    9900012    2    1    2    0    0  0.37170825732E+02 -0.16196303233E+02 -0.30291101582E+01  0.50528855488E+02  0.29999986743E+02 0.  0.
        -12    1    1    2    0    0 -0.37170825732E+02  0.16196303233E+02  0.30291101582E+01  0.40659144512E+02  0.00000000000E+00 0.  1.
         11    1    3    3    0    0  0.27439361799E+01 -0.78075031947E+01 -0.12557204446E+01  0.83703719147E+01  0.51100000000E-03 0. -1.
        -11    1    3    3    0    0  0.36004220988E+02 -0.65669243465E+01 -0.61988380381E+01  0.37119456052E+02  0.51100000000E-03 0.  1.
        -12    1    3    3    0    0 -0.15773314351E+01 -0.18218756922E+01  0.44254483244E+01  0.50390275219E+01  0.00000000000E+00 0.  1.
</event>
<event>
 7    1  0.1023000E-012  0.5052886E+02  0.7816164E-02  0.1300439E+00
        -11   -1    0    0    0    0  0.00000000000E+00  0.00000000000E+00  0.45593999997E+02  0.45594000000E+02  0.51100000000E-03 0.  1.
         11   -1    0    0    0    0 -0.00000000000E+00 -0.00000000000E+00 -0.45593999997E+02  0.45594000000E+02  0.51100000000E-03 0. -1.
    9900012    2    1    2    0    0 -0.93596779729E+01 -0.26568899801E+02 -0.29319879353E+02  0.50528864081E+02  0.30000012862E+02 0.  0.
        -12    1    1    2    0    0  0.93596779729E+01  0.26568899801E+02  0.29319879353E+02  0.40659135919E+02  0.00000000000E+00 0.  1.
         11    1    3    3    0    0 -0.16441781496E+02 -0.40307372316E+01 -0.13151809512E+02  0.21437096704E+02  0.51100000000E-03 0. -1.
        -11    1    3    3    0    0  0.27202220250E+01 -0.26065212777E+01 -0.21619760085E+01  0.43436967618E+01  0.51100000000E-03 0.  1.
         12    1    3    3    0    0  0.43618814977E+01 -0.19931641292E+02 -0.14006093832E+02  0.24748070616E+02  0.00000000000E+00 0. -1.
</event>
<event>
 7    1  0.1023000E-012  0.5052887E+02  0.7816164E-02  0.1300439E+00
        -11   -1    0    0    0    0  0.00000000000E+00  0.00000000000E+00  0.45593999997E+02  0.45594000000E+02  0.51100000000E-03 0. -1.
         11   -1    0    0    0    0 -0.00000000000E+00 -0.00000000000E+00 -0.45593999997E+02  0.45594000000E+02  0.51100000000E-03 0.  1.
    9900012    2    1    2    0    0  0.39147697238E+02  0.23092636068E+00  0.10980394222E+02  0.50528873309E+02  0.30000040910E+02 0.  0.
        -12    1    1    2    0    0 -0.39147697238E+02 -0.23092636068E+00 -0.10980394222E+02  0.40659126691E+02  0.00000000000E+00 0.  1.
         11    1    3    3    0    0  0.18996761218E+02  0.24189598082E+01  0.83844620230E+01  0.20905202869E+02  0.51100000000E-03 0. -1.
        -11    1    3    3    0    0 -0.23375444868E+01 -0.55538799493E+01 -0.21442272309E+01  0.63958898832E+01  0.51100000000E-03 0.  1.
        -12    1    3    3    0    0  0.22488480507E+02  0.33658465018E+01  0.47401594295E+01  0.23227780557E+02  0.00000000000E+00 0.  1.
</event>
<event>
 7    1  0.1023000E-012  0.5052886E+02  0.7816164E-02  0.1300439E+00
        -11   -1    0    0    0    0  0.00000000000E+00  0.00000000000E+00  0.45593999997E+02  0.45594000000E+02  0.51100000000E-03 0.  1.
         11   -1    0    0    0    0 -0.00000000000E+00 -0.00000000000E+00 -0.45593999997E+02  0.45594000000E+02  0.51100000000E-03 0. -1.
    9900012    2    1    2    0    0  0.32858847777E+02  0.10510653443E+02 -0.21517155795E+02  0.50528859496E+02  0.29999998924E+02 0.  0.
        -12    1    1    2    0    0 -0.32858847777E+02 -0.10510653443E+02  0.21517155795E+02  0.40659140504E+02  0.00000000000E+00 0.  1.
         11    1    3    3    0    0  0.53625272736E+01 -0.78356953241E+00 -0.29873604998E+01  0.61882956449E+01  0.51100000000E-03 0. -1.
        -11    1    3    3    0    0  0.31808010140E+02  0.56245871744E+01 -0.11377981371E+02  0.34246809344E+02  0.51100000000E-03 0.  1.
        -12    1    3    3    0    0 -0.43116896365E+01  0.56696358014E+01 -0.71518139236E+01  0.10093754507E+02  0.00000000000E+00 0.  1.
</event>
<event>
 7    1  0.1023000E-012  0.5052886E+02  0.7816164E-02  0.1300439E+00
        -11   -1    0    0    0    0  0.00000000000E+00  0.00000000000E+00  0.45593999997E+02  0.45594000000E+02  0.51100000000E-03 0.  1.
         11   -1    0    0    0    0 -0.00000000000E+00 -0.00000000000E+00 -0.45593999997E+02  0.45594000000E+02  0.51100000000E-03 0. -1.
    9900012    2    1    2    0    0 -0.89671262008E+01 -0.39364869019E+02 -0.48128621184E+01  0.50528857031E+02  0.29999991432E+02 0.  0.
        -12    1    1    2    0    0  0.89671262008E+01  0.39364869019E+02  0.48128621184E+01  0.40659142969E+02  0.00000000000E+00 0.  1.
         11    1    3    3    0    0 -0.87590483625E+01 -0.33981283235E+02  0.82075771145E+01  0.36039046337E+02  0.51100000000E-03 0. -1.
        -11    1    3    3    0    0 -0.64833285685E-01 -0.29325221510E+01 -0.10759404522E+02  0.11152070456E+02  0.51100000000E-03 0.  1.
         12    1    3    3    0    0 -0.14324455268E+00 -0.24510636332E+01 -0.22610347105E+01  0.33377402383E+01  0.00000000000E+00 0. -1.
</event>
<event>
 7    1  0.1023000E-012  0.5052883E+02  0.7816164E-02  0.1300439E+00
        -11   -1    0    0    0    0  0.00000000000E+00  0.00000000000E+00  0.45593999997E+02  0.45594000000E+02  0.51100000000E-03 0.  1.
         11   -1    0    0    0    0 -0.00000000000E+00 -0.00000000000E+00 -0.45593999997E+02  0.45594000000E+02  0.51100000000E-03 0. -1.
    9900012    2    1    2    0    0 -0.19722125143E+01  0.38800239582E+02 -0.11992484577E+02  0.50528832520E+02  0.29999916928E+02 0.  0.
        -12    1    1    2    0    0  0.19722125143E+01 -0.38800239582E+02  0.11992484577E+02  0.40659167480E+02  0.00000000000E+00 0.  1.
         11    1    3    3    0    0  0.40049952633E+01  0.22456510018E+02 -0.61793121472E+01  0.23633000828E+02  0.51100000000E-03 0. -1.
        -11    1    3    3    0    0 -0.52445519983E+00 -0.38590083127E+01  0.22181568852E+01  0.44818766876E+01  0.51100000000E-03 0.  1.
        -12    1    3    3    0    0 -0.54527525778E+01  0.20202737877E+02 -0.80313293146E+01  0.22413955005E+02  0.00000000000E+00 0.  1.
</event>
<event>
 7    1  0.1023000E-012  0.5052890E+02  0.7816164E-02  0.1300439E+00
        -11   -1    0    0    0    0  0.00000000000E+00  0.00000000000E+00  0.45593999997E+02  0.45594000000E+02  0.51100000000E-03 0.  1.
         11   -1    0    0    0    0 -0.00000000000E+00 -0.00000000000E+00 -0.45593999997E+02  0.45594000000E+02  0.51100000000E-03 0. -1.
    9900012    2    1    2    0    0  0.10281046831E+02 -0.23163191988E+02 -0.31795105209E+02  0.50528903819E+02  0.30000133647E+02 0.  0.
        -12    1    1    2    0    0 -0.10281046831E+02  0.23163191988E+02  0.31795105209E+02  0.40659096181E+02  0.00000000000E+00 0.  1.
         11    1    3    3    0    0  0.70307760571E+01 -0.17455216518E+01 -0.27002145943E+01  0.77310941605E+01  0.51100000000E-03 0. -1.
        -11    1    3    3    0    0  0.75554107168E+01 -0.24136076972E+02 -0.27720252231E+02  0.37523950042E+02  0.51100000000E-03 0.  1.
        -12    1    3    3    0    0 -0.43051399431E+01  0.27184066363E+01 -0.13746383839E+01  0.52738596167E+01  0.00000000000E+00 0.  1.
</event>
<event>
 7    1  0.1023000E-012  0.5052890E+02  0.7816164E-02  0.1300439E+00
        -11   -1    0    0    0    0  0.00000000000E+00  0.00000000000E+00  0.45593999997E+02  0.45594000000E+02  0.51100000000E-03 0.  1.
         11   -1    0    0    0    0 -0.00000000000E+00 -0.00000000000E+00 -0.45593999997E+02  0.45594000000E+02  0.51100000000E-03 0. -1.
    9900012    2    1    2    0    0 -0.43369107487E+01 -0.11955836951E+02 -0.38618802871E+02  0.50528895642E+02  0.30000108793E+02 0.  0.
        -12    1    1    2    0    0  0.43369107487E+01  0.11955836951E+02  0.38618802871E+02  0.40659104358E+02  0.00000000000E+00 0.  1.
         11    1    3    3    0    0 -0.37286523553E+01 -0.18113577294E+02 -0.18093011421E+02  0.25872023371E+02  0.51100000000E-03 0. -1.
        -11    1    3    3    0    0 -0.18820771951E+01  0.88235532524E+01 -0.89434771568E+01  0.12703664451E+02  0.51100000000E-03 0.  1.
         12    1    3    3    0    0  0.12738188017E+01 -0.26658129088E+01 -0.11582314293E+02  0.11953207820E+02  0.00000000000E+00 0. -1.
</event>
<event>
 7    1  0.1023000E-012  0.5052886E+02  0.7816164E-02  0.1300439E+00
        -11   -1    0    0    0    0  0.00000000000E+00  0.00000000000E+00  0.45593999997E+02  0.45594000000E+02  0.51100000000E-03 0.  1.
         11   -1    0    0    0    0 -0.00000000000E+00 -0.00000000000E+00 -0.45593999997E+02  0.45594000000E+02  0.51100000000E-03 0. -1.
    9900012    2    1    2    0    0  0.36644402568E+02 -0.17056340097E+02 -0.44084696382E+01  0.50528861032E+02  0.30000003594E+02 0.  0.
        -12    1    1    2    0    0 -0.36644402568E+02  0.17056340097E+02  0.44084696382E+01  0.40659138968E+02  0.00000000000E+00 0.  1.
         11    1    3    3    0    0  0.19391922174E+02 -0.85104422206E+01 -0.11394832671E+02  0.24048211665E+02  0.51100000000E-03 0. -1.
        -11    1    3    3    0    0  0.58902693176E+01 -0.10372263757E+02  0.88101704319E+01  0.14828965958E+02  0.51100000000E-03 0.  1.
        -12    1    3    3    0    0  0.11362211076E+02  0.18263658806E+01 -0.18238073988E+01  0.11651683410E+02  0.00000000000E+00 0.  1.
</event>
<event>
 7    1  0.1023000E-012  0.5052886E+02  0.7816164E-02  0.1300439E+00
        -11   -1    0    0    0    0  0.00000000000E+00  0.00000000000E+00  0.45593999997E+02  0.45594000000E+02  0.51100000000E-03 0.  1.
         11   -1    0    0    0    0 -0.00000000000E+00 -0.00000000000E+00 -0.45593999997E+02  0.45594000000E+02  0.51100000000E-03 0. -1.
    9900012    2    1    2    0    0 -0.64306735708E+01 -0.38460529892E+02 -0.11515201579E+02  0.50528858475E+02  0.29999995822E+02 0.  0.
        -12    1    1    2    0    0  0.64306735708E+01  0.38460529892E+02  0.11515201579E+02  0.40659141525E+02  0.00000000000E+00 0.  1.
         11    1    3    3    0    0  0.63772999534E+01 -0.27567477275E+01  0.28137844885E+01  0.74957985657E+01  0.51100000000E-03 0.  1.
        -11    1    3    3    0    0 -0.81528712664E+01 -0.21270730977E+02 -0.15910071561E+02  0.27785674070E+02  0.51100000000E-03 0. -1.
         12    1    3    3    0    0 -0.46551022578E+01 -0.14433051187E+02  0.15810854938E+01  0.15247385839E+02  0.00000000000E+00 0. -1.
</event>
<event>
 7    1  0.1023000E-012  0.5052885E+02  0.7816164E-02  0.1300439E+00
        -11   -1    0    0    0    0  0.00000000000E+00  0.00000000000E+00  0.45593999997E+02  0.45594000000E+02  0.51100000000E-03 0.  1.
         11   -1    0    0    0    0 -0.00000000000E+00 -0.00000000000E+00 -0.45593999997E+02  0.45594000000E+02  0.51100000000E-03 0. -1.
    9900012    2    1    2    0    0  0.30465066763E+02  0.23593308368E+02 -0.12976992621E+02  0.50528845679E+02  0.29999956925E+02 0.  0.
        -12    1    1    2    0    0 -0.30465066763E+02 -0.23593308368E+02  0.12976992621E+02  0.40659154321E+02  0.00000000000E+00 0.  1.
         11    1    3    3    0    0  0.11493790832E+02  0.73992623189E+01 -0.16012739617E+02  0.21053839100E+02  0.51100000000E-03 0. -1.
        -11    1    3    3    0    0  0.67083970493E+01  0.34764889335E+01  0.81196382768E+01  0.11091307059E+02  0.51100000000E-03 0.  1.
        -12    1    3    3    0    0  0.12262878882E+02  0.12717557116E+02 -0.50838912806E+01  0.18383699520E+02  0.00000000000E+00 0.  1.
</event>
<event>
 7    1  0.1023000E-012  0.5052887E+02  0.7816164E-02  0.1300439E+00
        -11   -1    0    0    0    0  0.00000000000E+00  0.00000000000E+00  0.45593999997E+02  0.45594000000E+02  0.51100000000E-03 0.  1.
         11   -1    0    0    0    0 -0.00000000000E+00 -0.00000000000E+00 -0.45593999997E+02  0.45594000000E+02  0.51100000000E-03 0. -1.
    9900012    2    1    2    0    0  0.39398407550E+02  0.71851011441E+01  0.70217437911E+01  0.50528867178E+02  0.30000022275E+02 0.  0.
        -12    1    1    2    0    0 -0.39398407550E+02 -0.71851011441E+01 -0.70217437911E+01  0.40659132822E+02  0.00000000000E+00 0.  1.
         11    1    3    3    0    0  0.32772614837E+02  0.31525811469E+01 -0.23607901301E+01  0.33008428945E+02  0.51100000000E-03 0. -1.
        -11    1    3    3    0    0 -0.57623757304E+00 -0.23544737567E+01  0.72723794771E+01  0.76657093560E+01  0.51100000000E-03 0.  1.
         12    1    3    3    0    0  0.72020302867E+01  0.63869937539E+01  0.21101544442E+01  0.98547288771E+01  0.00000000000E+00 0. -1.
</event>
<event>
 7    1  0.1023000E-012  0.5052885E+02  0.7816164E-02  0.1300439E+00
        -11   -1    0    0    0    0  0.00000000000E+00  0.00000000000E+00  0.45593999997E+02  0.45594000000E+02  0.51100000000E-03 0.  1.
         11   -1    0    0    0    0 -0.00000000000E+00 -0.00000000000E+00 -0.45593999997E+02  0.45594000000E+02  0.51100000000E-03 0. -1.
    9900012    2    1    2    0    0 -0.22256876431E+02 -0.32152164016E+02 -0.11137143209E+02  0.50528853941E+02  0.29999982040E+02 0.  0.
        -12    1    1    2    0    0  0.22256876431E+02  0.32152164016E+02  0.11137143209E+02  0.40659146059E+02  0.00000000000E+00 0.  1.
         11    1    3    3    0    0 -0.96616939743E+01 -0.19234732100E+02 -0.28681859660E+01  0.21715196071E+02  0.51100000000E-03 0. -1.
        -11    1    3    3    0    0 -0.16538920886E+02 -0.57334547980E+01 -0.10380139897E+02  0.20350816017E+02  0.51100000000E-03 0.  1.
        -12    1    3    3    0    0  0.39437384294E+01 -0.71839771186E+01  0.21111826546E+01  0.84628418537E+01  0.00000000000E+00 0.  1.
</event>
<event>
 7    1  0.1023000E-012  0.5052884E+02  0.7816164E-02  0.1300439E+00
        -11   -1    0    0    0    0  0.00000000000E+00  0.00000000000E+00  0.45593999997E+02  0.45594000000E+02  0.51100000000E-03 0.  1.
         11   -1    0    0    0    0 -0.00000000000E+00 -0.00000000000E+00 -0.45593999997E+02  0.45594000000E+02  0.51100000000E-03 0. -1.
    9900012    2    1    2    0    0  0.42901883699E+01 -0.71330876168E+01 -0.39797994325E+02  0.50528843497E+02  0.29999950294E+02 0.  0.
        -12    1    1    2    0    0 -0.42901883699E+01  0.71330876168E+01  0.39797994325E+02  0.40659156503E+02  0.00000000000E+00 0.  1.
         11    1    3    3    0    0 -0.14735586544E+01 -0.77460000913E+01 -0.25791795499E+02  0.26970142896E+02  0.51100000000E-03 0. -1.
        -11    1    3    3    0    0 -0.41480307086E+01  0.61682986847E+01 -0.69958692694E+01  0.10207656662E+02  0.51100000000E-03 0.  1.
        -12    1    3    3    0    0  0.99117777329E+01 -0.55553862102E+01 -0.70103295571E+01  0.13351043939E+02  0.00000000000E+00 0.  1.
</event>
<event>
 7    1  0.1023000E-012  0.5052886E+02  0.7816164E-02  0.1300439E+00
        -11   -1    0    0    0    0  0.00000000000E+00  0.00000000000E+00  0.45593999997E+02  0.45594000000E+02  0.51100000000E-03 0.  1.
         11   -1    0    0    0    0 -0.00000000000E+00 -0.00000000000E+00 -0.45593999997E+02  0.45594000000E+02  0.51100000000E-03 0. -1.
    9900012    2    1    2    0    0 -0.58065220145E+01 -0.18063364293E+01 -0.40201826323E+02  0.50528863401E+02  0.30000010795E+02 0.  0.
        -12    1    1    2    0    0  0.58065220145E+01  0.18063364293E+01  0.40201826323E+02  0.40659136599E+02  0.00000000000E+00 0.  1.
         11    1    3    3    0    0 -0.14859986702E+02  0.45503684425E+01 -0.16673354826E+02  0.22793109028E+02  0.51100000000E-03 0. -1.
        -11    1    3    3    0    0  0.71025835148E+01 -0.78138683493E+00 -0.63116030298E+01  0.95338130377E+01  0.51100000000E-03 0.  1.
        -12    1    3    3    0    0  0.19508811724E+01 -0.55753180369E+01 -0.17216868468E+02  0.18201941336E+02  0.00000000000E+00 0.  1.
</event>
<event>
 7    1  0.1023000E-012  0.5052885E+02  0.7816164E-02  0.1300439E+00
        -11   -1    0    0    0    0  0.00000000000E+00  0.00000000000E+00  0.45593999997E+02  0.45594000000E+02  0.51100000000E-03 0.  1.
         11   -1    0    0    0    0 -0.00000000000E+00 -0.00000000000E+00 -0.45593999997E+02  0.45594000000E+02  0.51100000000E-03 0. -1.
    9900012    2    1    2    0    0  0.34107405233E+02  0.13376547173E+02 -0.17632898150E+02  0.50528853389E+02  0.29999980360E+02 0.  0.
        -12    1    1    2    0    0 -0.34107405233E+02 -0.13376547173E+02  0.17632898150E+02  0.40659146611E+02  0.00000000000E+00 0.  1.
         11    1    3    3    0    0  0.79095723399E+01  0.42143009711E+01 -0.71957284277E+01  0.11493484030E+02  0.51100000000E-03 0. -1.
        -11    1    3    3    0    0  0.19904527965E+01  0.37561915156E+01  0.73654366674E+01  0.85041480819E+01  0.51100000000E-03 0.  1.
        -12    1    3    3    0    0  0.24207380097E+02  0.54060546865E+01 -0.17802606389E+02  0.30531221277E+02  0.00000000000E+00 0.  1.
</event>
<event>
 7    1  0.1023000E-012  0.5052871E+02  0.7816164E-02  0.1300439E+00
        -11   -1    0    0    0    0  0.00000000000E+00  0.00000000000E+00  0.45593999997E+02  0.45594000000E+02  0.51100000000E-03 0. -1.
         11   -1    0    0    0    0 -0.00000000000E+00 -0.00000000000E+00 -0.45593999997E+02  0.45594000000E+02  0.51100000000E-03 0.  1.
    9900012    2    1    2    0    0 -0.16561965727E+01 -0.39208645809E+02 -0.10635636994E+02  0.50528712407E+02  0.29999551830E+02 0.  0.
        -12    1    1    2    0    0  0.16561965727E+01  0.39208645809E+02  0.10635636994E+02  0.40659287593E+02  0.00000000000E+00 0.  1.
         11    1    3    3    0    0 -0.10678226127E+02 -0.31659009891E+02 -0.89542625752E+00  0.33423333301E+02  0.51100000000E-03 0. -1.
        -11    1    3    3    0    0  0.44203785457E+01 -0.75664705867E+01 -0.37004331232E+01  0.95123303762E+01  0.51100000000E-03 0.  1.
         12    1    3    3    0    0  0.46016510082E+01  0.16834668247E-01 -0.60397776129E+01  0.75930487303E+01  0.00000000000E+00 0. -1.
</event>
<event>
 7    1  0.1023000E-012  0.5052886E+02  0.7816164E-02  0.1300439E+00
        -11   -1    0    0    0    0  0.00000000000E+00  0.00000000000E+00  0.45593999997E+02  0.45594000000E+02  0.51100000000E-03 0.  1.
         11   -1    0    0    0    0 -0.00000000000E+00 -0.00000000000E+00 -0.45593999997E+02  0.45594000000E+02  0.51100000000E-03 0. -1.
    9900012    2    1    2    0    0 -0.14209401036E+02 -0.72524068139E+01 -0.37398682062E+02  0.50528857088E+02  0.29999991605E+02 0.  0.
        -12    1    1    2    0    0  0.14209401036E+02  0.72524068139E+01  0.37398682062E+02  0.40659142912E+02  0.00000000000E+00 0.  1.
         11    1    3    3    0    0 -0.65150696600E+01 -0.91939042220E+01 -0.25218251211E+02  0.27621263583E+02  0.51100000000E-03 0. -1.
        -11    1    3    3    0    0 -0.39973938776E+01  0.98117435591E+01 -0.54664667789E+01  0.11921901224E+02  0.51100000000E-03 0.  1.
        -12    1    3    3    0    0 -0.36969374984E+01 -0.78702461510E+01 -0.67139640717E+01  0.10985692281E+02  0.00000000000E+00 0.  1.
</event>
<event>
 7    1  0.1023000E-012  0.5052885E+02  0.7816164E-02  0.1300439E+00
        -11   -1    0    0    0    0  0.00000000000E+00  0.00000000000E+00  0.45593999997E+02  0.45594000000E+02  0.51100000000E-03 0. -1.
         11   -1    0    0    0    0 -0.00000000000E+00 -0.00000000000E+00 -0.45593999997E+02  0.45594000000E+02  0.51100000000E-03 0.  1.
    9900012    2    1    2    0    0  0.31536106029E+02  0.74067979362E+01  0.24571933671E+02  0.50528848958E+02  0.29999966892E+02 0.  0.
        -12    1    1    2    0    0 -0.31536106029E+02 -0.74067979362E+01 -0.24571933671E+02  0.40659151042E+02  0.00000000000E+00 0.  1.
         11    1    3    3    0    0  0.27935134407E+02  0.95809018767E+01  0.18612532578E+02  0.34908334024E+02  0.51100000000E-03 0. -1.
        -11    1    3    3    0    0 -0.18948509313E+01 -0.55083717690E+01  0.70020731083E+01  0.91083284785E+01  0.51100000000E-03 0.  1.
         12    1    3    3    0    0  0.54958225539E+01  0.33342678285E+01 -0.10426720157E+01  0.65121864553E+01  0.00000000000E+00 0. -1.
</event>
<event>
 7    1  0.1023000E-012  0.5052886E+02  0.7816164E-02  0.1300439E+00
        -11   -1    0    0    0    0  0.00000000000E+00  0.00000000000E+00  0.45593999997E+02  0.45594000000E+02  0.51100000000E-03 0. -1.
         11   -1    0    0    0    0 -0.00000000000E+00 -0.00000000000E+00 -0.45593999997E+02  0.45594000000E+02  0.51100000000E-03 0.  1.
    9900012    2    1    2    0    0 -0.10380488918E+02  0.19318840034E+02  0.34237308718E+02  0.50528862790E+02  0.30000008936E+02 0.  0.
        -12    1    1    2    0    0  0.10380488918E+02 -0.19318840034E+02 -0.34237308718E+02  0.40659137210E+02  0.00000000000E+00 0.  1.
         11    1    3    3    0    0  0.19847686165E+01  0.72423942549E+01  0.27652838557E+01  0.80023981448E+01  0.51100000000E-03 0. -1.
        -11    1    3    3    0    0 -0.13172908125E+02  0.14259909771E+00  0.26459300724E+02  0.29557409191E+02  0.51100000000E-03 0.  1.
        -12    1    3    3    0    0  0.80765059144E+00  0.11933846681E+02  0.50127241380E+01  0.12969055454E+02  0.00000000000E+00 0.  1.
</event>
<event>
 7    1  0.1023000E-012  0.5052886E+02  0.7816164E-02  0.1300439E+00
        -11   -1    0    0    0    0  0.00000000000E+00  0.00000000000E+00  0.45593999997E+02  0.45594000000E+02  0.51100000000E-03 0.  1.
         11   -1    0    0    0    0 -0.00000000000E+00 -0.00000000000E+00 -0.45593999997E+02  0.45594000000E+02  0.51100000000E-03 0. -1.
    9900012    2    1    2    0    0  0.35741520335E+02  0.52760983824E+01 -0.18651331121E+02  0.50528860282E+02  0.30000001313E+02 0.  0.
        -12    1    1    2    0    0 -0.35741520335E+02 -0.52760983824E+01  0.18651331121E+02  0.40659139718E+02  0.00000000000E+00 0.  1.
         11    1    3    3    0    0 -0.36154700015E+01  0.59519798650E+01 -0.24951942034E+01  0.73975456754E+01  0.51100000000E-03 0. -1.
        -11    1    3    3    0    0  0.22600938023E+02 -0.30502934597E+01 -0.68216179958E+01  0.23804225718E+02  0.51100000000E-03 0.  1.
         12    1    3    3    0    0  0.16756052314E+02  0.23744119770E+01 -0.93345189220E+01  0.19327088888E+02  0.00000000000E+00 0. -1.
</event>
<event>
 7    1  0.1023000E-012  0.5052884E+02  0.7816164E-02  0.1300439E+00
        -11   -1    0    0    0    0  0.00000000000E+00  0.00000000000E+00  0.45593999997E+02  0.45594000000E+02  0.51100000000E-03 0.  1.
         11   -1    0    0    0    0 -0.00000000000E+00 -0.00000000000E+00 -0.45593999997E+02  0.45594000000E+02  0.51100000000E-03 0. -1.
    9900012    2    1    2    0    0  0.23554861655E+01  0.18824029572E+02 -0.35962131919E+02  0.50528839451E+02  0.29999937995E+02 0.  0.
        -12    1    1    2    0    0 -0.23554861655E+01 -0.18824029572E+02  0.35962131919E+02  0.40659160549E+02  0.00000000000E+00 0.  1.
         11    1    3    3    0    0 -0.12120870196E+02  0.13746032786E+02 -0.13235162660E+02  0.22606159395E+02  0.51100000000E-03 0. -1.
        -11    1    3    3    0    0  0.12244646007E+02  0.61994506153E+01 -0.19233434261E+02  0.23628151377E+02  0.51100000000E-03 0.  1.
         12    1    3    3    0    0  0.22317103548E+01 -0.11214538287E+01 -0.34935349976E+01  0.42945286793E+01  0.00000000000E+00 0. -1.
</event>
<event>
 7    1  0.1044357E-012  0.5052885E+02  0.7816164E-02  0.1300439E+00
        -11   -1    0    0    0    0  0.00000000000E+00  0.00000000000E+00  0.45593999997E+02  0.45594000000E+02  0.51100000000E-03 0.  1.
         11   -1    0    0    0    0 -0.00000000000E+00 -0.00000000000E+00 -0.45593999997E+02  0.45594000000E+02  0.51100000000E-03 0. -1.
    9900012    2    1    2    0    0  0.14504413579E+02  0.23472244380E+02 -0.29863722812E+02  0.50528853308E+02  0.29999980115E+02 0.  0.
        -12    1    1    2    0    0 -0.14504413579E+02 -0.23472244380E+02  0.29863722812E+02  0.40659146692E+02  0.00000000000E+00 0.  1.
         11    1    3    3    0    0  0.92320793182E+01  0.17823998111E+01 -0.12282271429E+02  0.15468110077E+02  0.51100000000E-03 0. -1.
        -11    1    3    3    0    0 -0.41026954678E+00  0.20084791808E+02 -0.20300321028E+02  0.28559940777E+02  0.51100000000E-03 0.  1.
        -12    1    3    3    0    0  0.56826038075E+01  0.16050527608E+01  0.27188696451E+01  0.65008024539E+01  0.00000000000E+00 0.  1.
</event>
<event>
 7    1  0.1772664E-012  0.5052886E+02  0.7816164E-02  0.1300439E+00
        -11   -1    0    0    0    0  0.00000000000E+00  0.00000000000E+00  0.45593999997E+02  0.45594000000E+02  0.51100000000E-03 0.  1.
         11   -1    0    0    0    0 -0.00000000000E+00 -0.00000000000E+00 -0.45593999997E+02  0.45594000000E+02  0.51100000000E-03 0. -1.
    9900012    2    1    2    0    0 -0.15479792921E+02  0.37278061383E+02 -0.48875064335E+01  0.50528861193E+02  0.30000004084E+02 0.  0.
        -12    1    1    2    0    0  0.15479792921E+02 -0.37278061383E+02  0.48875064335E+01  0.40659138807E+02  0.00000000000E+00 0.  1.
         11    1    3    3    0    0 -0.13312898536E+02  0.29344210695E+02 -0.42404087962E+01  0.32500723619E+02  0.51100000000E-03 0. -1.
        -11    1    3    3    0    0  0.45249121961E+01  0.60231169197E+01  0.50204476364E+01  0.90530471412E+01  0.51100000000E-03 0.  1.
        -12    1    3    3    0    0 -0.66918065809E+01  0.19107337681E+01 -0.56675452736E+01  0.89750904328E+01  0.00000000000E+00 0.  1.
</event>
<event>
 7    1  0.1023000E-012  0.5052886E+02  0.7816164E-02  0.1300439E+00
        -11   -1    0    0    0    0  0.00000000000E+00  0.00000000000E+00  0.45593999997E+02  0.45594000000E+02  0.51100000000E-03 0.  1.
         11   -1    0    0    0    0 -0.00000000000E+00 -0.00000000000E+00 -0.45593999997E+02  0.45594000000E+02  0.51100000000E-03 0. -1.
    9900012    2    1    2    0    0 -0.30941293371E+02 -0.24390023965E+02  0.10046348095E+02  0.50528855709E+02  0.29999987412E+02 0.  0.
        -12    1    1    2    0    0  0.30941293371E+02  0.24390023965E+02 -0.10046348095E+02  0.40659144291E+02  0.00000000000E+00 0.  1.
         11    1    3    3    0    0 -0.86566047636E+01 -0.13642683238E+02  0.11133810344E+02  0.19621960783E+02  0.51100000000E-03 0. -1.
        -11    1    3    3    0    0 -0.67409823135E+01  0.52134715886E+01  0.73515978225E+00  0.85534547829E+01  0.51100000000E-03 0.  1.
         12    1    3    3    0    0 -0.15543706294E+02 -0.15960812316E+02 -0.18226220314E+01  0.22353440142E+02  0.00000000000E+00 0. -1.
</event>
<event>
 7    1  0.1023000E-012  0.5052886E+02  0.7816164E-02  0.1300439E+00
        -11   -1    0    0    0    0  0.00000000000E+00  0.00000000000E+00  0.45593999997E+02  0.45594000000E+02  0.51100000000E-03 0.  1.
         11   -1    0    0    0    0 -0.00000000000E+00 -0.00000000000E+00 -0.45593999997E+02  0.45594000000E+02  0.51100000000E-03 0. -1.
    9900012    2    1    2    0    0 -0.29003809937E+02 -0.28340425037E+02  0.29605997556E+01  0.50528857940E+02  0.29999994194E+02 0.  0.
        -12    1    1    2    0    0  0.29003809937E+02  0.28340425037E+02 -0.29605997556E+01  0.40659142060E+02  0.00000000000E+00 0.  1.
         11    1    3    3    0    0 -0.83876032528E+01 -0.13107444839E+02 -0.20634623750E+01  0.15697607326E+02  0.51100000000E-03 0. -1.
        -11    1    3    3    0    0 -0.92422704103E+01 -0.38997656020E+00 -0.78466798169E+01  0.12130211394E+02  0.51100000000E-03 0.  1.
        -12    1    3    3    0    0 -0.11373936274E+02 -0.14843003638E+02  0.12870741948E+02  0.22701039219E+02  0.00000000000E+00 0.  1.
</event>
<event>
 7    1  0.1023000E-012  0.5052886E+02  0.7816164E-02  0.1300439E+00
        -11   -1    0    0    0    0  0.00000000000E+00  0.00000000000E+00  0.45593999997E+02  0.45594000000E+02  0.51100000000E-03 0. -1.
         11   -1    0    0    0    0 -0.00000000000E+00 -0.00000000000E+00 -0.45593999997E+02  0.45594000000E+02  0.51100000000E-03 0.  1.
    9900012    2    1    2    0    0  0.16859356266E+02 -0.28795421742E+02  0.23232546648E+02  0.50528862887E+02  0.30000009231E+02 0.  0.
        -12    1    1    2    0    0 -0.16859356266E+02  0.28795421742E+02 -0.23232546648E+02  0.40659137113E+02  0.00000000000E+00 0.  1.
         11    1    3    3    0    0  0.94241398029E+01 -0.24408294402E+02  0.64210856420E+01  0.26940853508E+02  0.51100000000E-03 0. -1.
        -11    1    3    3    0    0  0.66055120165E+01 -0.81113805754E+01  0.16778467350E+02  0.19772310202E+02  0.51100000000E-03 0.  1.
        -12    1    3    3    0    0  0.82970444642E+00  0.37242532354E+01  0.32993656204E-01  0.38156991773E+01  0.00000000000E+00 0.  1.
</event>
<event>
 7    1  0.1023000E-012  0.5052886E+02  0.7816164E-02  0.1300439E+00
        -11   -1    0    0    0    0  0.00000000000E+00  0.00000000000E+00  0.45593999997E+02  0.45594000000E+02  0.51100000000E-03 0.  1.
         11   -1    0    0    0    0 -0.00000000000E+00 -0.00000000000E+00 -0.45593999997E+02  0.45594000000E+02  0.51100000000E-03 0. -1.
    9900012    2    1    2    0    0  0.21304651550E+02 -0.32153991260E+02 -0.12860727256E+02  0.50528860349E+02  0.30000001517E+02 0.  0.
        -12    1    1    2    0    0 -0.21304651550E+02  0.32153991260E+02  0.12860727256E+02  0.40659139651E+02  0.00000000000E+00 0.  1.
         11    1    3    3    0    0  0.23616133610E+02 -0.21525357258E+02 -0.11614678999E+02  0.33999463823E+02  0.51100000000E-03 0. -1.
        -11    1    3    3    0    0 -0.17098802496E+01 -0.63482891649E-01 -0.50127617729E+01  0.52967444151E+01  0.51100000000E-03 0.  1.
         12    1    3    3    0    0 -0.60160181113E+00 -0.10565151111E+02  0.37667135157E+01  0.11232652111E+02  0.00000000000E+00 0. -1.
</event>
<event>
 7    1  0.1023000E-012  0.5052886E+02  0.7816164E-02  0.1300439E+00
        -11   -1    0    0    0    0  0.00000000000E+00  0.00000000000E+00  0.45593999997E+02  0.45594000000E+02  0.51100000000E-03 0. -1.
         11   -1    0    0    0    0 -0.00000000000E+00 -0.00000000000E+00 -0.45593999997E+02  0.45594000000E+02  0.51100000000E-03 0.  1.
    9900012    2    1    2    0    0 -0.92055963284E+01  0.11067855870E+02  0.38025323865E+02  0.50528859670E+02  0.29999999454E+02 0.  0.
        -12    1    1    2    0    0  0.92055963284E+01 -0.11067855870E+02 -0.38025323865E+02  0.40659140330E+02  0.00000000000E+00 0.  1.
         11    1    3    3    0    0  0.51977235853E+01 -0.40130696272E+01  0.13661679194E+02  0.15157919941E+02  0.51100000000E-03 0. -1.
        -11    1    3    3    0    0  0.61527311065E+00  0.69710703278E+01  0.20783383778E+01  0.73002652821E+01  0.51100000000E-03 0.  1.
         12    1    3    3    0    0 -0.15018593024E+02  0.81098551689E+01  0.22285306294E+02  0.28070674447E+02  0.00000000000E+00 0. -1.
</event>
<event>
 7    1  0.1023000E-012  0.5052886E+02  0.7816164E-02  0.1300439E+00
        -11   -1    0    0    0    0  0.00000000000E+00  0.00000000000E+00  0.45593999997E+02  0.45594000000E+02  0.51100000000E-03 0.  1.
         11   -1    0    0    0    0 -0.00000000000E+00 -0.00000000000E+00 -0.45593999997E+02  0.45594000000E+02  0.51100000000E-03 0. -1.
    9900012    2    1    2    0    0  0.14699752445E+02  0.24465419486E+02 -0.28957313724E+02  0.50528862150E+02  0.30000006991E+02 0.  0.
        -12    1    1    2    0    0 -0.14699752445E+02 -0.24465419486E+02  0.28957313724E+02  0.40659137850E+02  0.00000000000E+00 0.  1.
         11    1    3    3    0    0  0.85040002596E+01  0.20217710561E+02 -0.15161853027E+02  0.26663751203E+02  0.51100000000E-03 0. -1.
        -11    1    3    3    0    0  0.15192608385E+01 -0.58025565530E+01 -0.10846531476E+02  0.12394557732E+02  0.51100000000E-03 0.  1.
        -12    1    3    3    0    0  0.46764913468E+01  0.10050265479E+02 -0.29489292208E+01  0.11470553215E+02  0.00000000000E+00 0.  1.
</event>
<event>
 7    1  0.1023000E-012  0.5052886E+02  0.7816164E-02  0.1300439E+00
        -11   -1    0    0    0    0  0.00000000000E+00  0.00000000000E+00  0.45593999997E+02  0.45594000000E+02  0.51100000000E-03 0.  1.
         11   -1    0    0    0    0 -0.00000000000E+00 -0.00000000000E+00 -0.45593999997E+02  0.45594000000E+02  0.51100000000E-03 0. -1.
    9900012    2    1    2    0    0 -0.13060813154E+02  0.38083241777E+02  0.56787054702E+01  0.50528857851E+02  0.29999993924E+02 0.  0.
        -12    1    1    2    0    0  0.13060813154E+02 -0.38083241777E+02 -0.56787054702E+01  0.40659142149E+02  0.00000000000E+00 0.  1.
         11    1    3    3    0    0 -0.14921930943E+02  0.24299536799E+02 -0.57249713439E+01  0.29084477112E+02  0.51100000000E-03 0. -1.
        -11    1    3    3    0    0 -0.30977189269E+01  0.12069255697E+02  0.10095549198E+02  0.16036923318E+02  0.51100000000E-03 0.  1.
         12    1    3    3    0    0  0.49588367153E+01  0.17144492801E+01  0.13081276159E+01  0.54074574213E+01  0.00000000000E+00 0. -1.
</event>
<event>
 7    1  0.1023000E-012  0.5052886E+02  0.7816164E-02  0.1300439E+00
        -11   -1    0    0    0    0  0.00000000000E+00  0.00000000000E+00  0.45593999997E+02  0.45594000000E+02  0.51100000000E-03 0.  1.
         11   -1    0    0    0    0 -0.00000000000E+00 -0.00000000000E+00 -0.45593999997E+02  0.45594000000E+02  0.51100000000E-03 0. -1.
    9900012    2    1    2    0    0 -0.13316212406E+02 -0.75414059236E+01 -0.37669236691E+02  0.50528859465E+02  0.29999998831E+02 0.  0.
        -12    1    1    2    0    0  0.13316212406E+02  0.75414059236E+01  0.37669236691E+02  0.40659140535E+02  0.00000000000E+00 0.  1.
         11    1    3    3    0    0 -0.10146129217E+02  0.86963490798E+01 -0.98418919074E+01  0.16596182151E+02  0.51100000000E-03 0. -1.
        -11    1    3    3    0    0  0.30784168617E+01 -0.16257102332E+01 -0.41551839070E+01  0.54208060008E+01  0.51100000000E-03 0.  1.
         12    1    3    3    0    0 -0.62485000505E+01 -0.14612044770E+02 -0.23672160877E+02  0.28511871314E+02  0.00000000000E+00 0. -1.
</event>
<event>
 7    1  0.1023000E-012  0.5052886E+02  0.7816164E-02  0.1300439E+00
        -11   -1    0    0    0    0  0.00000000000E+00  0.00000000000E+00  0.45593999997E+02  0.45594000000E+02  0.51100000000E-03 0. -1.
         11   -1    0    0    0    0 -0.00000000000E+00 -0.00000000000E+00 -0.45593999997E+02  0.45594000000E+02  0.51100000000E-03 0.  1.
    9900012    2    1    2    0    0 -0.10741032450E+02 -0.38739493356E+02 -0.60866548186E+01  0.50528862153E+02  0.30000007001E+02 0.  0.
        -12    1    1    2    0    0  0.10741032450E+02  0.38739493356E+02  0.60866548186E+01  0.40659137847E+02  0.00000000000E+00 0.  1.
         11    1    3    3    0    0  0.49965985853E+01 -0.16431911163E+02  0.39970065324E+01  0.17633767702E+02  0.51100000000E-03 0. -1.
        -11    1    3    3    0    0 -0.97979958981E+01 -0.25855427966E+01 -0.63606991221E+01  0.11964290566E+02  0.51100000000E-03 0.  1.
         12    1    3    3    0    0 -0.59396351375E+01 -0.19722039396E+02 -0.37229622289E+01  0.20930803885E+02  0.00000000000E+00 0. -1.
</event>
<event>
 7    1  0.1023000E-012  0.5052886E+02  0.7816164E-02  0.1300439E+00
        -11   -1    0    0    0    0  0.00000000000E+00  0.00000000000E+00  0.45593999997E+02  0.45594000000E+02  0.51100000000E-03 0. -1.
         11   -1    0    0    0    0 -0.00000000000E+00 -0.00000000000E+00 -0.45593999997E+02  0.45594000000E+02  0.51100000000E-03 0.  1.
    9900012    2    1    2    0    0  0.36970578526E+02 -0.75389660751E+01 -0.15149449967E+02  0.50528861786E+02  0.30000005883E+02 0.  0.
        -12    1    1    2    0    0 -0.36970578526E+02  0.75389660751E+01  0.15149449967E+02  0.40659138214E+02  0.00000000000E+00 0.  1.
         11    1    3    3    0    0  0.22634905654E+02 -0.14119376463E+02 -0.25074102797E+01  0.26795202038E+02  0.51100000000E-03 0. -1.
        -11    1    3    3    0    0 -0.22815052204E+01  0.63794783606E+00 -0.88855583088E+00  0.25301729660E+01  0.51100000000E-03 0.  1.
         12    1    3    3    0    0  0.16617178093E+02  0.59424625521E+01 -0.11753483856E+02  0.21203486782E+02  0.00000000000E+00 0. -1.
</event>
<event>
 7    1  0.1023000E-012  0.5052886E+02  0.7816164E-02  0.1300439E+00
        -11   -1    0    0    0    0  0.00000000000E+00  0.00000000000E+00  0.45593999997E+02  0.45594000000E+02  0.51100000000E-03 0. -1.
         11   -1    0    0    0    0 -0.00000000000E+00 -0.00000000000E+00 -0.45593999997E+02  0.45594000000E+02  0.51100000000E-03 0.  1.
    9900012    2    1    2    0    0 -0.35093166215E+02 -0.17161429657E+01  0.20461925975E+02  0.50528857409E+02  0.29999992580E+02 0.  0.
        -12    1    1    2    0    0  0.35093166215E+02  0.17161429657E+01 -0.20461925975E+02  0.40659142591E+02  0.00000000000E+00 0.  1.
         11    1    3    3    0    0 -0.53387830592E+01 -0.18527438775E+01  0.11236546652E+02  0.12577569135E+02  0.51100000000E-03 0. -1.
        -11    1    3    3    0    0 -0.31445897909E+02 -0.43861036196E+01  0.94213557072E+01  0.33118640430E+02  0.51100000000E-03 0.  1.
        -12    1    3    3    0    0  0.16915147540E+01  0.45227045314E+01 -0.19597638399E+00  0.48326478440E+01  0.00000000000E+00 0.  1.
</event>
<event>
 7    1  0.1023000E-012  0.5052886E+02  0.7816164E-02  0.1300439E+00
        -11   -1    0    0    0    0  0.00000000000E+00  0.00000000000E+00  0.45593999997E+02  0.45594000000E+02  0.51100000000E-03 0.  1.
         11   -1    0    0    0    0 -0.00000000000E+00 -0.00000000000E+00 -0.45593999997E+02  0.45594000000E+02  0.51100000000E-03 0. -1.
    9900012    2    1    2    0    0  0.62187939448E+01 -0.27009381455E+02 -0.29748712457E+02  0.50528856163E+02  0.29999988793E+02 0.  0.
        -12    1    1    2    0    0 -0.62187939448E+01  0.27009381455E+02  0.29748712457E+02  0.40659143837E+02  0.00000000000E+00 0.  1.
         11    1    3    3    0    0  0.75533001632E+01  0.13468336997E+01 -0.27179150641E+01  0.81396171241E+01  0.51100000000E-03 0. -1.
        -11    1    3    3    0    0 -0.54734453102E+01 -0.26401109745E+02 -0.26458650398E+02  0.37776148302E+02  0.51100000000E-03 0.  1.
         12    1    3    3    0    0  0.41389390918E+01 -0.19551054091E+01 -0.57214699481E+00  0.46130907372E+01  0.00000000000E+00 0. -1.
</event>
<event>
 7    1  0.1023000E-012  0.5052886E+02  0.7816164E-02  0.1300439E+00
        -11   -1    0    0    0    0  0.00000000000E+00  0.00000000000E+00  0.45593999997E+02  0.45594000000E+02  0.51100000000E-03 0. -1.
         11   -1    0    0    0    0 -0.00000000000E+00 -0.00000000000E+00 -0.45593999997E+02  0.45594000000E+02  0.51100000000E-03 0.  1.
    9900012    2    1    2    0    0 -0.34081806150E+02 -0.63548355039E+01  0.21241757698E+02  0.50528859394E+02  0.29999998615E+02 0.  0.
        -12    1    1    2    0    0  0.34081806150E+02  0.63548355039E+01 -0.21241757698E+02  0.40659140606E+02  0.00000000000E+00 0.  1.
         11    1    3    3    0    0 -0.30125296248E+02 -0.12757343893E+02  0.18245031757E+02  0.37458837159E+02  0.51100000000E-03 0. -1.
        -11    1    3    3    0    0  0.23083251313E+01 -0.13251781518E+01 -0.61661031455E-01  0.26623794602E+01  0.51100000000E-03 0.  1.
         12    1    3    3    0    0 -0.62648350333E+01  0.77276865410E+01  0.30583869722E+01  0.10407642775E+02  0.00000000000E+00 0. -1.
</event>
<event>
 7    1  0.1023000E-012  0.5052887E+02  0.7816164E-02  0.1300439E+00
        -11   -1    0    0    0    0  0.00000000000E+00  0.00000000000E+00  0.45593999997E+02  0.45594000000E+02  0.51100000000E-03 0. -1.
         11   -1    0    0    0    0 -0.00000000000E+00 -0.00000000000E+00 -0.45593999997E+02  0.45594000000E+02  0.51100000000E-03 0.  1.
    9900012    2    1    2    0    0  0.52922417401E+01 -0.34668122200E+02 -0.20573731180E+02  0.50528868994E+02  0.30000027793E+02 0.  0.
        -12    1    1    2    0    0 -0.52922417401E+01  0.34668122200E+02  0.20573731180E+02  0.40659131006E+02  0.00000000000E+00 0.  1.
         11    1    3    3    0    0  0.62882823770E+01 -0.90129925520E+01  0.21181760038E+01  0.11192104353E+02  0.51100000000E-03 0. -1.
        -11    1    3    3    0    0  0.66257649775E+01 -0.18336939774E+02 -0.20965438170E+02  0.28630293742E+02  0.51100000000E-03 0.  1.
        -12    1    3    3    0    0 -0.76218056144E+01 -0.73181898745E+01 -0.17264690140E+01  0.10706470899E+02  0.00000000000E+00 0.  1.
</event>
<event>
 7    1  0.1023000E-012  0.5052883E+02  0.7816164E-02  0.1300439E+00
        -11   -1    0    0    0    0  0.00000000000E+00  0.00000000000E+00  0.45593999997E+02  0.45594000000E+02  0.51100000000E-03 0. -1.
         11   -1    0    0    0    0 -0.00000000000E+00 -0.00000000000E+00 -0.45593999997E+02  0.45594000000E+02  0.51100000000E-03 0.  1.
    9900012    2    1    2    0    0  0.68194626401E+01  0.12570626424E+02  0.38061032390E+02  0.50528832449E+02  0.29999916711E+02 0.  0.
        -12    1    1    2    0    0 -0.68194626401E+01 -0.12570626424E+02 -0.38061032390E+02  0.40659167551E+02  0.00000000000E+00 0.  1.
         11    1    3    3    0    0  0.15212082409E+02  0.93001569496E+01  0.32744896833E+02  0.37284428913E+02  0.51100000000E-03 0. -1.
        -11    1    3    3    0    0 -0.23064622859E+01  0.14022427890E+01 -0.21366586777E+01  0.34425809623E+01  0.51100000000E-03 0.  1.
         12    1    3    3    0    0 -0.60861574831E+01  0.18682266854E+01  0.74527942341E+01  0.98018225730E+01  0.00000000000E+00 0. -1.
</event>
<event>
 7    1  0.1023000E-012  0.5052886E+02  0.7816164E-02  0.1300439E+00
        -11   -1    0    0    0    0  0.00000000000E+00  0.00000000000E+00  0.45593999997E+02  0.45594000000E+02  0.51100000000E-03 0. -1.
         11   -1    0    0    0    0 -0.00000000000E+00 -0.00000000000E+00 -0.45593999997E+02  0.45594000000E+02  0.51100000000E-03 0.  1.
    9900012    2    1    2    0    0 -0.20628441879E+01 -0.14470540225E+02  0.37940923228E+02  0.50528861840E+02  0.30000006048E+02 0.  0.
        -12    1    1    2    0    0  0.20628441879E+01  0.14470540225E+02 -0.37940923228E+02  0.40659138160E+02  0.00000000000E+00 0.  1.
         11    1    3    3    0    0 -0.30397362822E+01 -0.14442389432E+02  0.15392965523E+02  0.21325243188E+02  0.51100000000E-03 0.  1.
        -11    1    3    3    0    0  0.70117461440E+01  0.64363681752E+01  0.13802707420E+02  0.16766220554E+02  0.51100000000E-03 0. -1.
         12    1    3    3    0    0 -0.60348540497E+01 -0.64645189682E+01  0.87452502843E+01  0.12437398097E+02  0.00000000000E+00 0. -1.
</event>
<event>
 7    1  0.1023000E-012  0.5052886E+02  0.7816164E-02  0.1300439E+00
        -11   -1    0    0    0    0  0.00000000000E+00  0.00000000000E+00  0.45593999997E+02  0.45594000000E+02  0.51100000000E-03 0.  1.
         11   -1    0    0    0    0 -0.00000000000E+00 -0.00000000000E+00 -0.45593999997E+02  0.45594000000E+02  0.51100000000E-03 0. -1.
    9900012    2    1    2    0    0 -0.25309910359E+02 -0.10864477427E+02 -0.29908814322E+02  0.50528860729E+02  0.30000002671E+02 0.  0.
        -12    1    1    2    0    0  0.25309910359E+02  0.10864477427E+02  0.29908814322E+02  0.40659139271E+02  0.00000000000E+00 0.  1.
         11    1    3    3    0    0 -0.16309569600E+02 -0.13536719352E+02 -0.34045980127E+02  0.40104533340E+02  0.51100000000E-03 0. -1.
        -11    1    3    3    0    0 -0.49796119431E+01  0.75399457725E+00  0.28517733330E+01  0.57877158128E+01  0.51100000000E-03 0.  1.
         12    1    3    3    0    0 -0.40207288165E+01  0.19182473473E+01  0.12853924721E+01  0.46366115762E+01  0.00000000000E+00 0. -1.
</event>
<event>
 7    1  0.1023000E-012  0.5052886E+02  0.7816164E-02  0.1300439E+00
        -11   -1    0    0    0    0  0.00000000000E+00  0.00000000000E+00  0.45593999997E+02  0.45594000000E+02  0.51100000000E-03 0.  1.
         11   -1    0    0    0    0 -0.00000000000E+00 -0.00000000000E+00 -0.45593999997E+02  0.45594000000E+02  0.51100000000E-03 0. -1.
    9900012    2    1    2    0    0 -0.37013104496E+02 -0.12585273901E+02 -0.11171680617E+02  0.50528862387E+02  0.30000007712E+02 0.  0.
        -12    1    1    2    0    0  0.37013104496E+02  0.12585273901E+02  0.11171680617E+02  0.40659137613E+02  0.00000000000E+00 0.  1.
         11    1    3    3    0    0 -0.26242708452E+02 -0.35537635660E+01 -0.17925703111E+02  0.31978740042E+02  0.51100000000E-03 0. -1.
        -11    1    3    3    0    0 -0.11067853974E+02 -0.68050221284E+01  0.18077469764E+01  0.13117685281E+02  0.51100000000E-03 0.  1.
         12    1    3    3    0    0  0.29745792973E+00 -0.22264882063E+01  0.49462755178E+01  0.54324370636E+01  0.00000000000E+00 0. -1.
</event>
<event>
 7    1  0.1023000E-012  0.5052884E+02  0.7816164E-02  0.1300439E+00
        -11   -1    0    0    0    0  0.00000000000E+00  0.00000000000E+00  0.45593999997E+02  0.45594000000E+02  0.51100000000E-03 0.  1.
         11   -1    0    0    0    0 -0.00000000000E+00 -0.00000000000E+00 -0.45593999997E+02  0.45594000000E+02  0.51100000000E-03 0. -1.
    9900012    2    1    2    0    0 -0.20931155195E+02  0.27289310342E+02  0.21687493162E+02  0.50528842650E+02  0.29999947718E+02 0.  0.
        -12    1    1    2    0    0  0.20931155195E+02 -0.27289310342E+02 -0.21687493162E+02  0.40659157350E+02  0.00000000000E+00 0.  1.
         11    1    3    3    0    0 -0.11430919790E+02  0.23522682913E+02  0.10310219704E+02  0.28111975550E+02  0.51100000000E-03 0. -1.
        -11    1    3    3    0    0 -0.11095698424E+02 -0.29107666020E+01  0.35555466730E+01  0.12009537798E+02  0.51100000000E-03 0.  1.
         12    1    3    3    0    0  0.15954630192E+01  0.66773940309E+01  0.78217267854E+01  0.10407329302E+02  0.00000000000E+00 0. -1.
</event>
<event>
 7    1  0.1023000E-012  0.5052886E+02  0.7816164E-02  0.1300439E+00
        -11   -1    0    0    0    0  0.00000000000E+00  0.00000000000E+00  0.45593999997E+02  0.45594000000E+02  0.51100000000E-03 0. -1.
         11   -1    0    0    0    0 -0.00000000000E+00 -0.00000000000E+00 -0.45593999997E+02  0.45594000000E+02  0.51100000000E-03 0.  1.
    9900012    2    1    2    0    0  0.20419231150E+02  0.31669268457E+02 -0.15273456135E+02  0.50528855547E+02  0.29999986921E+02 0.  0.
        -12    1    1    2    0    0 -0.20419231150E+02 -0.31669268457E+02  0.15273456135E+02  0.40659144453E+02  0.00000000000E+00 0.  1.
         11    1    3    3    0    0  0.18736653633E+02  0.22147269933E+02 -0.20265186873E+02  0.35387025223E+02  0.51100000000E-03 0. -1.
        -11    1    3    3    0    0  0.14689503213E+01 -0.16452676573E+01  0.31136946072E+01  0.38157325743E+01  0.51100000000E-03 0.  1.
         12    1    3    3    0    0  0.21362719641E+00  0.11167266181E+02  0.18780361312E+01  0.11326097750E+02  0.00000000000E+00 0. -1.
</event>
<event>
 7    1  0.1023000E-012  0.5052883E+02  0.7816164E-02  0.1300439E+00
        -11   -1    0    0    0    0  0.00000000000E+00  0.00000000000E+00  0.45593999997E+02  0.45594000000E+02  0.51100000000E-03 0. -1.
         11   -1    0    0    0    0 -0.00000000000E+00 -0.00000000000E+00 -0.45593999997E+02  0.45594000000E+02  0.51100000000E-03 0.  1.
    9900012    2    1    2    0    0  0.23175695627E+02 -0.33407261890E+02 -0.10242621816E+00  0.50528825071E+02  0.29999894286E+02 0.  0.
        -12    1    1    2    0    0 -0.23175695627E+02  0.33407261890E+02  0.10242621816E+00  0.40659174929E+02  0.00000000000E+00 0.  1.
         11    1    3    3    0    0 -0.32081674440E+01 -0.35770012158E+01  0.58620251602E+01  0.75796184130E+01  0.51100000000E-03 0. -1.
        -11    1    3    3    0    0  0.20598394075E+02 -0.29915365840E+02 -0.72118621917E+01  0.37030175646E+02  0.51100000000E-03 0.  1.
        -12    1    3    3    0    0  0.57854689956E+01  0.85105165654E-01  0.12474108133E+01  0.59190310124E+01  0.00000000000E+00 0.  1.
</event>
<event>
 7    1  0.1023000E-012  0.5052886E+02  0.7816164E-02  0.1300439E+00
        -11   -1    0    0    0    0  0.00000000000E+00  0.00000000000E+00  0.45593999997E+02  0.45594000000E+02  0.51100000000E-03 0. -1.
         11   -1    0    0    0    0 -0.00000000000E+00 -0.00000000000E+00 -0.45593999997E+02  0.45594000000E+02  0.51100000000E-03 0.  1.
    9900012    2    1    2    0    0  0.35362595286E+02 -0.20394804832E+01  0.19962296797E+02  0.50528856878E+02  0.29999990966E+02 0.  0.
        -12    1    1    2    0    0 -0.35362595286E+02  0.20394804832E+01 -0.19962296797E+02  0.40659143122E+02  0.00000000000E+00 0.  1.
         11    1    3    3    0    0  0.20087888788E+01 -0.83499912060E+01 -0.26415915434E+01  0.89852986619E+01  0.51100000000E-03 0. -1.
        -11    1    3    3    0    0  0.20228961315E+02  0.17138931925E+01  0.94181235475E+01  0.22379663920E+02  0.51100000000E-03 0.  1.
         12    1    3    3    0    0  0.13124845093E+02  0.45966175303E+01  0.13185764792E+02  0.19163894296E+02  0.00000000000E+00 0. -1.
</event>
<event>
 7    1  0.1023000E-012  0.5052886E+02  0.7816164E-02  0.1300439E+00
        -11   -1    0    0    0    0  0.00000000000E+00  0.00000000000E+00  0.45593999997E+02  0.45594000000E+02  0.51100000000E-03 0.  1.
         11   -1    0    0    0    0 -0.00000000000E+00 -0.00000000000E+00 -0.45593999997E+02  0.45594000000E+02  0.51100000000E-03 0. -1.
    9900012    2    1    2    0    0 -0.26353515488E+02 -0.13577037101E+02 -0.27826644928E+02  0.50528857325E+02  0.29999992327E+02 0.  0.
        -12    1    1    2    0    0  0.26353515488E+02  0.13577037101E+02  0.27826644928E+02  0.40659142675E+02  0.00000000000E+00 0.  1.
         11    1    3    3    0    0  0.44320239505E+01  0.24380745654E+01 -0.15178441375E+01  0.52811831033E+01  0.51100000000E-03 0. -1.
        -11    1    3    3    0    0 -0.11570466322E+02 -0.41391753470E+01 -0.27170389550E+01  0.12585339264E+02  0.51100000000E-03 0.  1.
         12    1    3    3    0    0 -0.19215073117E+02 -0.11875936320E+02 -0.23591761836E+02  0.32662334958E+02  0.00000000000E+00 0. -1.
</event>
<event>
 7    1  0.1023000E-012  0.5052886E+02  0.7816164E-02  0.1300439E+00
        -11   -1    0    0    0    0  0.00000000000E+00  0.00000000000E+00  0.45593999997E+02  0.45594000000E+02  0.51100000000E-03 0.  1.
         11   -1    0    0    0    0 -0.00000000000E+00 -0.00000000000E+00 -0.45593999997E+02  0.45594000000E+02  0.51100000000E-03 0. -1.
    9900012    2    1    2    0    0 -0.12228444020E+02 -0.13198101697E+02 -0.36461499046E+02  0.50528860262E+02  0.30000001252E+02 0.  0.
        -12    1    1    2    0    0  0.12228444020E+02  0.13198101697E+02  0.36461499046E+02  0.40659139738E+02  0.00000000000E+00 0.  1.
         11    1    3    3    0    0 -0.13514906189E+02 -0.93850619198E+01 -0.18828458032E+02  0.25004857701E+02  0.51100000000E-03 0. -1.
        -11    1    3    3    0    0 -0.81153372666E+00  0.66024337532E+01 -0.11419685291E+02  0.13215896899E+02  0.51100000000E-03 0.  1.
        -12    1    3    3    0    0  0.20979958953E+01 -0.10415473530E+02 -0.62133557239E+01  0.12308105662E+02  0.00000000000E+00 0.  1.
</event>
<event>
 7    1  0.1023000E-012  0.5052885E+02  0.7816164E-02  0.1300439E+00
        -11   -1    0    0    0    0  0.00000000000E+00  0.00000000000E+00  0.45593999997E+02  0.45594000000E+02  0.51100000000E-03 0.  1.
         11   -1    0    0    0    0 -0.00000000000E+00 -0.00000000000E+00 -0.45593999997E+02  0.45594000000E+02  0.51100000000E-03 0. -1.
    9900012    2    1    2    0    0 -0.39214951862E+02  0.87030473234E+01  0.62937222575E+01  0.50528850697E+02  0.29999972178E+02 0.  0.
        -12    1    1    2    0    0  0.39214951862E+02 -0.87030473234E+01 -0.62937222575E+01  0.40659149303E+02  0.00000000000E+00 0.  1.
         11    1    3    3    0    0 -0.29948647913E+02 -0.50485641658E+01 -0.79141744493E+00  0.30381505127E+02  0.51100000000E-03 0. -1.
        -11    1    3    3    0    0  0.12239355271E+01 -0.35501202480E+00  0.34838128631E+00  0.13211440096E+01  0.51100000000E-03 0.  1.
         12    1    3    3    0    0 -0.10490239476E+02  0.14106623514E+02  0.67367584162E+01  0.18826201560E+02  0.00000000000E+00 0. -1.
</event>
<event>
 7    1  0.1023000E-012  0.5052888E+02  0.7816164E-02  0.1300439E+00
        -11   -1    0    0    0    0  0.00000000000E+00  0.00000000000E+00  0.45593999997E+02  0.45594000000E+02  0.51100000000E-03 0. -1.
         11   -1    0    0    0    0 -0.00000000000E+00 -0.00000000000E+00 -0.45593999997E+02  0.45594000000E+02  0.51100000000E-03 0.  1.
    9900012    2    1    2    0    0  0.22106810547E+02 -0.65422235796E+00  0.34117814173E+02  0.50528876505E+02  0.30000050623E+02 0.  0.
        -12    1    1    2    0    0 -0.22106810547E+02  0.65422235796E+00 -0.34117814173E+02  0.40659123495E+02  0.00000000000E+00 0.  1.
         11    1    3    3    0    0  0.41585784556E+00 -0.86833829266E+00 -0.37433506863E+01  0.38651809479E+01  0.51100000000E-03 0. -1.
        -11    1    3    3    0    0 -0.11801791767E+01  0.19942326413E+01  0.11443805197E+02  0.11676063736E+02  0.51100000000E-03 0.  1.
         12    1    3    3    0    0  0.22871131879E+02 -0.17801167066E+01  0.26417359663E+02  0.34987631821E+02  0.00000000000E+00 0. -1.
</event>
<event>
 7    1  0.1023000E-012  0.5052885E+02  0.7816164E-02  0.1300439E+00
        -11   -1    0    0    0    0  0.00000000000E+00  0.00000000000E+00  0.45593999997E+02  0.45594000000E+02  0.51100000000E-03 0.  1.
         11   -1    0    0    0    0 -0.00000000000E+00 -0.00000000000E+00 -0.45593999997E+02  0.45594000000E+02  0.51100000000E-03 0. -1.
    9900012    2    1    2    0    0  0.24675044403E+02 -0.17535962238E+02  0.27144041761E+02  0.50528846159E+02  0.29999958385E+02 0.  0.
        -12    1    1    2    0    0 -0.24675044403E+02  0.17535962238E+02 -0.27144041761E+02  0.40659153841E+02  0.00000000000E+00 0.  1.
         11    1    3    3    0    0  0.66533796462E+01 -0.80314369835E+01 -0.21460961097E+01  0.10647871595E+02  0.51100000000E-03 0. -1.
        -11    1    3    3    0    0  0.13203598231E+01 -0.57113612037E+01  0.19038592029E+02  0.19920617048E+02  0.51100000000E-03 0.  1.
         12    1    3    3    0    0  0.16701304934E+02 -0.37931640510E+01  0.10251545842E+02  0.19960357516E+02  0.00000000000E+00 0. -1.
</event>
<event>
 7    1  0.1023000E-012  0.5052885E+02  0.7816164E-02  0.1300439E+00
        -11   -1    0    0    0    0  0.00000000000E+00  0.00000000000E+00  0.45593999997E+02  0.45594000000E+02  0.51100000000E-03 0.  1.
         11   -1    0    0    0    0 -0.00000000000E+00 -0.00000000000E+00 -0.45593999997E+02  0.45594000000E+02  0.51100000000E-03 0. -1.
    9900012    2    1    2    0    0 -0.14146423400E+02  0.65655741816E+01 -0.37549143691E+02  0.50528852797E+02  0.29999978562E+02 0.  0.
        -12    1    1    2    0    0  0.14146423400E+02 -0.65655741816E+01  0.37549143691E+02  0.40659147203E+02  0.00000000000E+00 0.  1.
         11    1    3    3    0    0  0.16080407784E+01  0.55242930397E+01 -0.16303992106E+02  0.17289412008E+02  0.51100000000E-03 0. -1.
        -11    1    3    3    0    0 -0.76475397696E+01 -0.25283635863E+00  0.25519555968E+01  0.80660565570E+01  0.51100000000E-03 0.  1.
        -12    1    3    3    0    0 -0.81069244090E+01  0.12941175006E+01 -0.23797107181E+02  0.25173384232E+02  0.00000000000E+00 0.  1.
</event>
<event>
 7    1  0.1023000E-012  0.5052884E+02  0.7816164E-02  0.1300439E+00
        -11   -1    0    0    0    0  0.00000000000E+00  0.00000000000E+00  0.45593999997E+02  0.45594000000E+02  0.51100000000E-03 0. -1.
         11   -1    0    0    0    0 -0.00000000000E+00 -0.00000000000E+00 -0.45593999997E+02  0.45594000000E+02  0.51100000000E-03 0.  1.
    9900012    2    1    2    0    0 -0.18867431594E+02  0.14478393265E+02 -0.32978223553E+02  0.50528842665E+02  0.29999947764E+02 0.  0.
        -12    1    1    2    0    0  0.18867431594E+02 -0.14478393265E+02  0.32978223553E+02  0.40659157335E+02  0.00000000000E+00 0.  1.
         11    1    3    3    0    0 -0.10281472108E+02  0.13858370257E+01 -0.19193570792E+01  0.10550504482E+02  0.51100000000E-03 0. -1.
        -11    1    3    3    0    0 -0.10961502480E+02  0.10667140498E+02 -0.32779423677E+02  0.36172268934E+02  0.51100000000E-03 0.  1.
        -12    1    3    3    0    0  0.23755429939E+01  0.24254157411E+01  0.17205572031E+01  0.38060692482E+01  0.00000000000E+00 0.  1.
</event>
<event>
 7    1  0.1023000E-012  0.5052886E+02  0.7816164E-02  0.1300439E+00
        -11   -1    0    0    0    0  0.00000000000E+00  0.00000000000E+00  0.45593999997E+02  0.45594000000E+02  0.51100000000E-03 0.  1.
         11   -1    0    0    0    0 -0.00000000000E+00 -0.00000000000E+00 -0.45593999997E+02  0.45594000000E+02  0.51100000000E-03 0. -1.
    9900012    2    1    2    0    0  0.28245885614E+02 -0.24863826692E+02  0.15398896271E+02  0.50528856646E+02  0.29999990260E+02 0.  0.
        -12    1    1    2    0    0 -0.28245885614E+02  0.24863826692E+02 -0.15398896271E+02  0.40659143354E+02  0.00000000000E+00 0.  1.
         11    1    3    3    0    0  0.13693634674E+02 -0.10699731710E+02 -0.90949150263E+00  0.17401927029E+02  0.51100000000E-03 0. -1.
        -11    1    3    3    0    0  0.13423563170E+02 -0.10530220334E+02  0.21018850129E+02  0.27071565331E+02  0.51100000000E-03 0.  1.
        -12    1    3    3    0    0  0.11286877706E+01 -0.36338746484E+01 -0.47104623549E+01  0.60553642864E+01  0.00000000000E+00 0.  1.
</event>
<event>
 7    1  0.1023000E-012  0.5052883E+02  0.7816164E-02  0.1300439E+00
        -11   -1    0    0    0    0  0.00000000000E+00  0.00000000000E+00  0.45593999997E+02  0.45594000000E+02  0.51100000000E-03 0.  1.
         11   -1    0    0    0    0 -0.00000000000E+00 -0.00000000000E+00 -0.45593999997E+02  0.45594000000E+02  0.51100000000E-03 0. -1.
    9900012    2    1    2    0    0 -0.36682188618E+02 -0.13321474814E+02  0.11407166359E+02  0.50528830095E+02  0.29999909556E+02 0.  0.
        -12    1    1    2    0    0  0.36682188618E+02  0.13321474814E+02 -0.11407166359E+02  0.40659169905E+02  0.00000000000E+00 0.  1.
         11    1    3    3    0    0 -0.17709943771E+01 -0.51525729067E+01 -0.18626147409E+01  0.57580172435E+01  0.51100000000E-03 0. -1.
        -11    1    3    3    0    0 -0.17322742670E+02  0.50582874799E+01  0.13862191123E+02  0.22755747160E+02  0.51100000000E-03 0.  1.
        -12    1    3    3    0    0 -0.17588451571E+02 -0.13227189387E+02 -0.59241002311E+00  0.22015065691E+02  0.00000000000E+00 0.  1.
</event>
<event>
 7    1  0.1023000E-012  0.5052887E+02  0.7816164E-02  0.1300439E+00
        -11   -1    0    0    0    0  0.00000000000E+00  0.00000000000E+00  0.45593999997E+02  0.45594000000E+02  0.51100000000E-03 0.  1.
         11   -1    0    0    0    0 -0.00000000000E+00 -0.00000000000E+00 -0.45593999997E+02  0.45594000000E+02  0.51100000000E-03 0. -1.
    9900012    2    1    2    0    0 -0.76473884866E+01 -0.56285930204E+01 -0.39534810329E+02  0.50528870179E+02  0.30000031396E+02 0.  0.
        -12    1    1    2    0    0  0.76473884866E+01  0.56285930204E+01  0.39534810329E+02  0.40659129821E+02  0.00000000000E+00 0.  1.
         11    1    3    3    0    0 -0.39211884904E+01 -0.99660915001E+01 -0.13678752430E+02  0.17372592417E+02  0.51100000000E-03 0. -1.
        -11    1    3    3    0    0  0.47533333197E+01  0.81889585185E+01 -0.20071683087E+02  0.22192919625E+02  0.51100000000E-03 0.  1.
        -12    1    3    3    0    0 -0.84795333158E+01 -0.38514600388E+01 -0.57843748118E+01  0.10963358137E+02  0.00000000000E+00 0.  1.
</event>
<event>
 7    1  0.1023000E-012  0.5052886E+02  0.7816164E-02  0.1300439E+00
        -11   -1    0    0    0    0  0.00000000000E+00  0.00000000000E+00  0.45593999997E+02  0.45594000000E+02  0.51100000000E-03 0.  1.
         11   -1    0    0    0    0 -0.00000000000E+00 -0.00000000000E+00 -0.45593999997E+02  0.45594000000E+02  0.51100000000E-03 0. -1.
    9900012    2    1    2    0    0 -0.25311247102E+02  0.59143649870E+01 -0.31265423685E+02  0.50528860052E+02  0.30000000615E+02 0.  0.
        -12    1    1    2    0    0  0.25311247102E+02 -0.59143649870E+01  0.31265423685E+02  0.40659139948E+02  0.00000000000E+00 0.  1.
         11    1    3    3    0    0 -0.37120515063E+01  0.99478042907E+01 -0.16357631367E+02  0.19501544575E+02  0.51100000000E-03 0. -1.
        -11    1    3    3    0    0 -0.14098339496E+02 -0.50056449949E+01 -0.75431591901E+00  0.14979607843E+02  0.51100000000E-03 0.  1.
         12    1    3    3    0    0 -0.75008560997E+01  0.97220569118E+00 -0.14153476399E+02  0.16047707634E+02  0.00000000000E+00 0. -1.
</event>
<event>
 7    1  0.1023000E-012  0.5052886E+02  0.7816164E-02  0.1300439E+00
        -11   -1    0    0    0    0  0.00000000000E+00  0.00000000000E+00  0.45593999997E+02  0.45594000000E+02  0.51100000000E-03 0.  1.
         11   -1    0    0    0    0 -0.00000000000E+00 -0.00000000000E+00 -0.45593999997E+02  0.45594000000E+02  0.51100000000E-03 0. -1.
    9900012    2    1    2    0    0  0.15832979630E+02 -0.10461291054E+02 -0.35958915468E+02  0.50528862576E+02  0.30000008285E+02 0.  0.
        -12    1    1    2    0    0 -0.15832979630E+02  0.10461291054E+02  0.35958915468E+02  0.40659137424E+02  0.00000000000E+00 0.  1.
         11    1    3    3    0    0  0.98304143822E+01  0.71553329403E+00 -0.19902922978E+02  0.22209803649E+02  0.51100000000E-03 0. -1.
        -11    1    3    3    0    0 -0.25313841577E+01 -0.14655440666E+01  0.36953290848E+01  0.47128741200E+01  0.51100000000E-03 0.  1.
        -12    1    3    3    0    0  0.85339494054E+01 -0.97112802817E+01 -0.19751321575E+02  0.23606184806E+02  0.00000000000E+00 0.  1.
</event>
<event>
 7    1  0.1023000E-012  0.5052886E+02  0.7816164E-02  0.1300439E+00
        -11   -1    0    0    0    0  0.00000000000E+00  0.00000000000E+00  0.45593999997E+02  0.45594000000E+02  0.51100000000E-03 0. -1.
         11   -1    0    0    0    0 -0.00000000000E+00 -0.00000000000E+00 -0.45593999997E+02  0.45594000000E+02  0.51100000000E-03 0.  1.
    9900012    2    1    2    0    0  0.38560306522E+02 -0.10529488030E+02  0.74429833106E+01  0.50528863785E+02  0.30000011960E+02 0.  0.
        -12    1    1    2    0    0 -0.38560306522E+02  0.10529488030E+02 -0.74429833106E+01  0.40659136215E+02  0.00000000000E+00 0.  1.
         11    1    3    3    0    0  0.32078041417E+01 -0.23125759240E+01  0.16414135773E+01  0.42816181064E+01  0.51100000000E-03 0. -1.
        -11    1    3    3    0    0  0.21294411263E+02 -0.14650113014E+02  0.13295855506E+02  0.29066433154E+02  0.51100000000E-03 0.  1.
        -12    1    3    3    0    0  0.14058091116E+02  0.64332009078E+01 -0.74942857727E+01  0.17180812524E+02  0.00000000000E+00 0.  1.
</event>
<event>
 7    1  0.1023000E-012  0.5052887E+02  0.7816164E-02  0.1300439E+00
        -11   -1    0    0    0    0  0.00000000000E+00  0.00000000000E+00  0.45593999997E+02  0.45594000000E+02  0.51100000000E-03 0.  1.
         11   -1    0    0    0    0 -0.00000000000E+00 -0.00000000000E+00 -0.45593999997E+02  0.45594000000E+02  0.51100000000E-03 0. -1.
    9900012    2    1    2    0    0 -0.11415292938E+02  0.31257818670E+01 -0.38898401840E+02  0.50528867067E+02  0.30000021937E+02 0.  0.
        -12    1    1    2    0    0  0.11415292938E+02 -0.31257818670E+01  0.38898401840E+02  0.40659132933E+02  0.00000000000E+00 0.  1.
         11    1    3    3    0    0 -0.12280819330E+02  0.11561185090E+02 -0.11848527432E+02  0.20612305224E+02  0.51100000000E-03 0. -1.
        -11    1    3    3    0    0  0.64588788640E+00  0.19394495698E+00  0.62941983027E+00  0.92247243428E+00  0.51100000000E-03 0.  1.
         12    1    3    3    0    0  0.21963850590E+00 -0.86293481796E+01 -0.27679294238E+02  0.28994089408E+02  0.00000000000E+00 0. -1.
</event>
<event>
 7    1  0.1023000E-012  0.5052886E+02  0.7816164E-02  0.1300439E+00
        -11   -1    0    0    0    0  0.00000000000E+00  0.00000000000E+00  0.45593999997E+02  0.45594000000E+02  0.51100000000E-03 0.  1.
         11   -1    0    0    0    0 -0.00000000000E+00 -0.00000000000E+00 -0.45593999997E+02  0.45594000000E+02  0.51100000000E-03 0. -1.
    9900012    2    1    2    0    0 -0.19982771903E+02  0.35104495455E+02 -0.46399527784E+01  0.50528856676E+02  0.29999990351E+02 0.  0.
        -12    1    1    2    0    0  0.19982771903E+02 -0.35104495455E+02  0.46399527784E+01  0.40659143324E+02  0.00000000000E+00 0.  1.
         11    1    3    3    0    0 -0.38628072764E+01 -0.31035912543E+01  0.24297327920E+01  0.55188006333E+01  0.51100000000E-03 0.  1.
        -11    1    3    3    0    0 -0.18377047282E+01  0.23790198879E+02 -0.64010893788E+01  0.24704749885E+02  0.51100000000E-03 0. -1.
        -12    1    3    3    0    0 -0.14282259898E+02  0.14417887831E+02 -0.66859619165E+00  0.20305306158E+02  0.00000000000E+00 0.  1.
</event>
<event>
 7    1  0.1023000E-012  0.5052887E+02  0.7816164E-02  0.1300439E+00
        -11   -1    0    0    0    0  0.00000000000E+00  0.00000000000E+00  0.45593999997E+02  0.45594000000E+02  0.51100000000E-03 0.  1.
         11   -1    0    0    0    0 -0.00000000000E+00 -0.00000000000E+00 -0.45593999997E+02  0.45594000000E+02  0.51100000000E-03 0. -1.
    9900012    2    1    2    0    0  0.35543363541E+02 -0.50902733060E+01 -0.19076781905E+02  0.50528865947E+02  0.30000018531E+02 0.  0.
        -12    1    1    2    0    0 -0.35543363541E+02  0.50902733060E+01  0.19076781905E+02  0.40659134053E+02  0.00000000000E+00 0.  1.
         11    1    3    3    0    0  0.26441502601E+02  0.51651024987E+01 -0.21429291626E+02  0.34424495399E+02  0.51100000000E-03 0. -1.
        -11    1    3    3    0    0  0.67784872107E+01 -0.56965081758E+01 -0.23436697455E+01  0.91591966023E+01  0.51100000000E-03 0.  1.
         12    1    3    3    0    0  0.23233737292E+01 -0.45588676289E+01  0.46961794667E+01  0.69451739450E+01  0.00000000000E+00 0. -1.
</event>
<event>
 7    1  0.1023000E-012  0.5052886E+02  0.7816164E-02  0.1300439E+00
        -11   -1    0    0    0    0  0.00000000000E+00  0.00000000000E+00  0.45593999997E+02  0.45594000000E+02  0.51100000000E-03 0. -1.
         11   -1    0    0    0    0 -0.00000000000E+00 -0.00000000000E+00 -0.45593999997E+02  0.45594000000E+02  0.51100000000E-03 0.  1.
    9900012    2    1    2    0    0  0.90584014885E+01 -0.33464077812E+02  0.21243036461E+02  0.50528859091E+02  0.29999997694E+02 0.  0.
        -12    1    1    2    0    0 -0.90584014885E+01  0.33464077812E+02 -0.21243036461E+02  0.40659140909E+02  0.00000000000E+00 0.  1.
         11    1    3    3    0    0 -0.27836189622E+01 -0.48350215118E+00 -0.50932044900E+01  0.58243489847E+01  0.51100000000E-03 0.  1.
        -11    1    3    3    0    0  0.94812142295E+01 -0.26632691325E+02  0.25131077003E+02  0.37825450454E+02  0.51100000000E-03 0. -1.
         12    1    3    3    0    0  0.23608062213E+01 -0.63478843361E+01  0.12051639476E+01  0.68790596522E+01  0.00000000000E+00 0. -1.
</event>
<event>
 7    1  0.1023000E-012  0.5052885E+02  0.7816164E-02  0.1300439E+00
        -11   -1    0    0    0    0  0.00000000000E+00  0.00000000000E+00  0.45593999997E+02  0.45594000000E+02  0.51100000000E-03 0. -1.
         11   -1    0    0    0    0 -0.00000000000E+00 -0.00000000000E+00 -0.45593999997E+02  0.45594000000E+02  0.51100000000E-03 0.  1.
    9900012    2    1    2    0    0 -0.34487442112E+02 -0.21523131377E+02 -0.73331390556E+00  0.50528848546E+02  0.29999965639E+02 0.  0.
        -12    1    1    2    0    0  0.34487442112E+02  0.21523131377E+02  0.73331390556E+00  0.40659151454E+02  0.00000000000E+00 0.  1.
         11    1    3    3    0    0  0.23889749376E+01 -0.93370422873E+01 -0.40227061129E+01  0.10443645181E+02  0.51100000000E-03 0. -1.
        -11    1    3    3    0    0 -0.17008881613E+02 -0.92625980072E+01 -0.15483133471E+01  0.19429231844E+02  0.51100000000E-03 0.  1.
         12    1    3    3    0    0 -0.19867535436E+02 -0.29234910828E+01  0.48377055545E+01  0.20655971521E+02  0.00000000000E+00 0. -1.
</event>
<event>
 7    1  0.1023000E-012  0.5052886E+02  0.7816164E-02  0.1300439E+00
        -11   -1    0    0    0    0  0.00000000000E+00  0.00000000000E+00  0.45593999997E+02  0.45594000000E+02  0.51100000000E-03 0.  1.
         11   -1    0    0    0    0 -0.00000000000E+00 -0.00000000000E+00 -0.45593999997E+02  0.45594000000E+02  0.51100000000E-03 0. -1.
    9900012    2    1    2    0    0  0.28991079582E+02  0.15797184212E+02  0.23730398910E+02  0.50528861337E+02  0.30000004520E+02 0.  0.
        -12    1    1    2    0    0 -0.28991079582E+02 -0.15797184212E+02 -0.23730398910E+02  0.40659138663E+02  0.00000000000E+00 0.  1.
         11    1    3    3    0    0  0.26593255154E+02  0.37646959547E+01  0.13060281232E+02  0.29865449962E+02  0.51100000000E-03 0. -1.
        -11    1    3    3    0    0 -0.34922134881E+01  0.28861806613E+01 -0.10727982885E+01  0.46558017875E+01  0.51100000000E-03 0.  1.
         12    1    3    3    0    0  0.58900379160E+01  0.91463075963E+01  0.11742915967E+02  0.16007609587E+02  0.00000000000E+00 0. -1.
</event>
<event>
 7    1  0.1023000E-012  0.5052886E+02  0.7816164E-02  0.1300439E+00
        -11   -1    0    0    0    0  0.00000000000E+00  0.00000000000E+00  0.45593999997E+02  0.45594000000E+02  0.51100000000E-03 0. -1.
         11   -1    0    0    0    0 -0.00000000000E+00 -0.00000000000E+00 -0.45593999997E+02  0.45594000000E+02  0.51100000000E-03 0.  1.
    9900012    2    1    2    0    0  0.23656384969E+02  0.38507506426E+01  0.32843757945E+02  0.50528864910E+02  0.30000015381E+02 0.  0.
        -12    1    1    2    0    0 -0.23656384969E+02 -0.38507506426E+01 -0.32843757945E+02  0.40659135090E+02  0.00000000000E+00 0.  1.
         11    1    3    3    0    0  0.24856017388E+02 -0.32144992464E+01  0.27998895996E+02  0.37577823022E+02  0.51100000000E-03 0. -1.
        -11    1    3    3    0    0  0.67620874483E+00  0.89110443277E+01  0.21652342834E+01  0.91952275143E+01  0.51100000000E-03 0.  1.
         12    1    3    3    0    0 -0.18758411645E+01 -0.18457944387E+01  0.26796276657E+01  0.37558143739E+01  0.00000000000E+00 0. -1.
</event>
<event>
 7    1  0.1023000E-012  0.5052886E+02  0.7816164E-02  0.1300439E+00
        -11   -1    0    0    0    0  0.00000000000E+00  0.00000000000E+00  0.45593999997E+02  0.45594000000E+02  0.51100000000E-03 0.  1.
         11   -1    0    0    0    0 -0.00000000000E+00 -0.00000000000E+00 -0.45593999997E+02  0.45594000000E+02  0.51100000000E-03 0. -1.
    9900012    2    1    2    0    0  0.12648951820E+02 -0.28382755535E+02 -0.26221909377E+02  0.50528864184E+02  0.30000013174E+02 0.  0.
        -12    1    1    2    0    0 -0.12648951820E+02  0.28382755535E+02  0.26221909377E+02  0.40659135816E+02  0.00000000000E+00 0.  1.
         11    1    3    3    0    0  0.80916339714E+01 -0.36386223535E+01 -0.11259042979E+02  0.14334579241E+02  0.51100000000E-03 0. -1.
        -11    1    3    3    0    0 -0.63771196332E+01 -0.18105793938E+02 -0.46198248260E+01  0.19744118381E+02  0.51100000000E-03 0.  1.
        -12    1    3    3    0    0  0.10934437482E+02 -0.66383392436E+01 -0.10343041572E+02  0.16450166562E+02  0.00000000000E+00 0.  1.
</event>
<event>
 7    1  0.1023000E-012  0.5052886E+02  0.7816164E-02  0.1300439E+00
        -11   -1    0    0    0    0  0.00000000000E+00  0.00000000000E+00  0.45593999997E+02  0.45594000000E+02  0.51100000000E-03 0.  1.
         11   -1    0    0    0    0 -0.00000000000E+00 -0.00000000000E+00 -0.45593999997E+02  0.45594000000E+02  0.51100000000E-03 0. -1.
    9900012    2    1    2    0    0  0.39745559163E+02 -0.85691209190E+01  0.16189599977E+00  0.50528861829E+02  0.30000006015E+02 0.  0.
        -12    1    1    2    0    0 -0.39745559163E+02  0.85691209190E+01 -0.16189599977E+00  0.40659138171E+02  0.00000000000E+00 0.  1.
         11    1    3    3    0    0  0.16780032801E+02 -0.12802327014E+02 -0.21645275552E+01  0.21216839009E+02  0.51100000000E-03 0. -1.
        -11    1    3    3    0    0  0.69128869037E+01  0.86137348161E+01 -0.36493044254E+01  0.11631932594E+02  0.51100000000E-03 0.  1.
        -12    1    3    3    0    0  0.16052639459E+02 -0.43805287216E+01  0.59757279804E+01  0.17680090225E+02  0.00000000000E+00 0.  1.
</event>
<event>
 7    1  0.1023000E-012  0.5052886E+02  0.7816164E-02  0.1300439E+00
        -11   -1    0    0    0    0  0.00000000000E+00  0.00000000000E+00  0.45593999997E+02  0.45594000000E+02  0.51100000000E-03 0. -1.
         11   -1    0    0    0    0 -0.00000000000E+00 -0.00000000000E+00 -0.45593999997E+02  0.45594000000E+02  0.51100000000E-03 0.  1.
    9900012    2    1    2    0    0  0.34854128978E+02 -0.17866973756E+02  0.10914526494E+02  0.50528856544E+02  0.29999989951E+02 0.  0.
        -12    1    1    2    0    0 -0.34854128978E+02  0.17866973756E+02 -0.10914526494E+02  0.40659143456E+02  0.00000000000E+00 0.  1.
         11    1    3    3    0    0  0.33793864940E+02 -0.97611504010E+01  0.16504945204E+02  0.38855097235E+02  0.51100000000E-03 0. -1.
        -11    1    3    3    0    0  0.45923629316E+00  0.44560995604E+00 -0.24690884701E+01  0.25506595892E+01  0.51100000000E-03 0.  1.
         12    1    3    3    0    0  0.60102774483E+00 -0.85514333113E+01 -0.31213302397E+01  0.91230997195E+01  0.00000000000E+00 0. -1.
</event>
<event>
 7    1  0.1023000E-012  0.5052886E+02  0.7816164E-02  0.1300439E+00
        -11   -1    0    0    0    0  0.00000000000E+00  0.00000000000E+00  0.45593999997E+02  0.45594000000E+02  0.51100000000E-03 0.  1.
         11   -1    0    0    0    0 -0.00000000000E+00 -0.00000000000E+00 -0.45593999997E+02  0.45594000000E+02  0.51100000000E-03 0. -1.
    9900012    2    1    2    0    0  0.22021471606E+02 -0.22420334754E+02 -0.25798237266E+02  0.50528859967E+02  0.30000000357E+02 0.  0.
        -12    1    1    2    0    0 -0.22021471606E+02  0.22420334754E+02  0.25798237266E+02  0.40659140033E+02  0.00000000000E+00 0.  1.
         11    1    3    3    0    0 -0.11957149513E+01 -0.83965498195E+01 -0.10329777439E+02  0.13365481110E+02  0.51100000000E-03 0. -1.
        -11    1    3    3    0    0  0.26038292082E+02 -0.13060757804E+02 -0.97572170495E+01  0.30720991745E+02  0.51100000000E-03 0.  1.
        -12    1    3    3    0    0 -0.28211055249E+01 -0.96302712979E+00 -0.57112427782E+01  0.64423871125E+01  0.00000000000E+00 0.  1.
</event>
<event>
 7    1  0.1023000E-012  0.5052886E+02  0.7816164E-02  0.1300439E+00
        -11   -1    0    0    0    0  0.00000000000E+00  0.00000000000E+00  0.45593999997E+02  0.45594000000E+02  0.51100000000E-03 0.  1.
         11   -1    0    0    0    0 -0.00000000000E+00 -0.00000000000E+00 -0.45593999997E+02  0.45594000000E+02  0.51100000000E-03 0. -1.
    9900012    2    1    2    0    0 -0.15545185962E+01 -0.27863539712E+02 -0.29569783280E+02  0.50528862570E+02  0.30000008267E+02 0.  0.
        -12    1    1    2    0    0  0.15545185962E+01  0.27863539712E+02  0.29569783280E+02  0.40659137430E+02  0.00000000000E+00 0.  1.
         11    1    3    3    0    0  0.14129355934E+01  0.47632419819E+01 -0.55474105347E+01  0.74470547917E+01  0.51100000000E-03 0. -1.
        -11    1    3    3    0    0 -0.18364587602E+00 -0.32199827249E+02 -0.24168924520E+02  0.40261638236E+02  0.51100000000E-03 0.  1.
        -12    1    3    3    0    0 -0.27838083135E+01 -0.42695444438E+00  0.14655177486E+00  0.28201695422E+01  0.00000000000E+00 0.  1.
</event>
<event>
 7    1  0.1023000E-012  0.5052886E+02  0.7816164E-02  0.1300439E+00
        -11   -1    0    0    0    0  0.00000000000E+00  0.00000000000E+00  0.45593999997E+02  0.45594000000E+02  0.51100000000E-03 0.  1.
         11   -1    0    0    0    0 -0.00000000000E+00 -0.00000000000E+00 -0.45593999997E+02  0.45594000000E+02  0.51100000000E-03 0. -1.
    9900012    2    1    2    0    0  0.25973106686E+02 -0.23671760510E+02 -0.20450213541E+02  0.50528858956E+02  0.29999997283E+02 0.  0.
        -12    1    1    2    0    0 -0.25973106686E+02  0.23671760510E+02  0.20450213541E+02  0.40659141044E+02  0.00000000000E+00 0.  1.
         11    1    3    3    0    0  0.11977002757E+02 -0.21410088280E+02 -0.85711751181E+01  0.25986641152E+02  0.51100000000E-03 0. -1.
        -11    1    3    3    0    0  0.98349160263E+01  0.21219040277E+01  0.12015821867E+01  0.10132711876E+02  0.51100000000E-03 0.  1.
        -12    1    3    3    0    0  0.41611879028E+01 -0.43835762579E+01 -0.13080620609E+02  0.14409505928E+02  0.00000000000E+00 0.  1.
</event>
<event>
 7    1  0.1023000E-012  0.5052886E+02  0.7816164E-02  0.1300439E+00
        -11   -1    0    0    0    0  0.00000000000E+00  0.00000000000E+00  0.45593999997E+02  0.45594000000E+02  0.51100000000E-03 0. -1.
         11   -1    0    0    0    0 -0.00000000000E+00 -0.00000000000E+00 -0.45593999997E+02  0.45594000000E+02  0.51100000000E-03 0.  1.
    9900012    2    1    2    0    0  0.14913777840E+01  0.40619643375E+02  0.99313145755E+00  0.50528856555E+02  0.29999989985E+02 0.  0.
        -12    1    1    2    0    0 -0.14913777840E+01 -0.40619643375E+02 -0.99313145755E+00  0.40659143445E+02  0.00000000000E+00 0.  1.
         11    1    3    3    0    0 -0.82303498593E+01  0.34331234266E+01 -0.21648543745E+01  0.91766873104E+01  0.51100000000E-03 0. -1.
        -11    1    3    3    0    0  0.98715986795E+01  0.12576603826E+02  0.47829738009E+01  0.16688207301E+02  0.51100000000E-03 0.  1.
         12    1    3    3    0    0 -0.14987103620E+00  0.24609916122E+02 -0.16249879688E+01  0.24663961944E+02  0.00000000000E+00 0. -1.
</event>
<event>
 7    1  0.1023000E-012  0.5052886E+02  0.7816164E-02  0.1300439E+00
        -11   -1    0    0    0    0  0.00000000000E+00  0.00000000000E+00  0.45593999997E+02  0.45594000000E+02  0.51100000000E-03 0. -1.
         11   -1    0    0    0    0 -0.00000000000E+00 -0.00000000000E+00 -0.45593999997E+02  0.45594000000E+02  0.51100000000E-03 0.  1.
    9900012    2    1    2    0    0 -0.72537347697E-01 -0.40535492302E+02 -0.31677098791E+01  0.50528858547E+02  0.29999996038E+02 0.  0.
        -12    1    1    2    0    0  0.72537347697E-01  0.40535492302E+02  0.31677098791E+01  0.40659141453E+02  0.00000000000E+00 0.  1.
         11    1    3    3    0    0  0.72024858577E+01 -0.34243902141E+02 -0.84894244294E+01  0.36008206894E+02  0.51100000000E-03 0. -1.
        -11    1    3    3    0    0  0.20939690062E+01  0.13784376001E+00  0.12920909996E+01  0.24643876548E+01  0.51100000000E-03 0.  1.
         12    1    3    3    0    0 -0.93689922116E+01 -0.64294339217E+01  0.40296235507E+01  0.12056263997E+02  0.00000000000E+00 0. -1.
</event>
<event>
 7    1  0.1023000E-012  0.5052886E+02  0.7816164E-02  0.1300439E+00
        -11   -1    0    0    0    0  0.00000000000E+00  0.00000000000E+00  0.45593999997E+02  0.45594000000E+02  0.51100000000E-03 0.  1.
         11   -1    0    0    0    0 -0.00000000000E+00 -0.00000000000E+00 -0.45593999997E+02  0.45594000000E+02  0.51100000000E-03 0. -1.
    9900012    2    1    2    0    0  0.14547171103E+02  0.25240599198E+02 -0.28362965208E+02  0.50528857973E+02  0.29999994294E+02 0.  0.
        -12    1    1    2    0    0 -0.14547171103E+02 -0.25240599198E+02  0.28362965208E+02  0.40659142027E+02  0.00000000000E+00 0.  1.
         11    1    3    3    0    0  0.96620884492E+00  0.54329635053E+01 -0.46248942243E+01  0.72000207520E+01  0.51100000000E-03 0. -1.
        -11    1    3    3    0    0  0.97219056070E+01  0.82408249226E+01 -0.27713541554E+02  0.30503557657E+02  0.51100000000E-03 0.  1.
        -12    1    3    3    0    0  0.38590566509E+01  0.11566810770E+02  0.39754705699E+01  0.12825279564E+02  0.00000000000E+00 0.  1.
</event>
<event>
 7    1  0.1023000E-012  0.5052887E+02  0.7816164E-02  0.1300439E+00
        -11   -1    0    0    0    0  0.00000000000E+00  0.00000000000E+00  0.45593999997E+02  0.45594000000E+02  0.51100000000E-03 0.  1.
         11   -1    0    0    0    0 -0.00000000000E+00 -0.00000000000E+00 -0.45593999997E+02  0.45594000000E+02  0.51100000000E-03 0. -1.
    9900012    2    1    2    0    0  0.20826303487E+02  0.28294583153E+02 -0.20465749478E+02  0.50528865056E+02  0.30000015823E+02 0.  0.
        -12    1    1    2    0    0 -0.20826303487E+02 -0.28294583153E+02  0.20465749478E+02  0.40659134944E+02  0.00000000000E+00 0.  1.
         11    1    3    3    0    0  0.40821585325E+01  0.28086365722E+02 -0.11889095495E+02  0.30771066763E+02  0.51100000000E-03 0. -1.
        -11    1    3    3    0    0  0.14581197406E+02  0.18061893462E+01 -0.86828285878E+01  0.17066492033E+02  0.51100000000E-03 0.  1.
         12    1    3    3    0    0  0.21629475479E+01 -0.15979719155E+01  0.10617460475E+00  0.26913062599E+01  0.00000000000E+00 0. -1.
</event>
<event>
 7    1  0.1023000E-012  0.5052886E+02  0.7816164E-02  0.1300439E+00
        -11   -1    0    0    0    0  0.00000000000E+00  0.00000000000E+00  0.45593999997E+02  0.45594000000E+02  0.51100000000E-03 0.  1.
         11   -1    0    0    0    0 -0.00000000000E+00 -0.00000000000E+00 -0.45593999997E+02  0.45594000000E+02  0.51100000000E-03 0. -1.
    9900012    2    1    2    0    0  0.77469556078E+01  0.32718296643E+02 -0.22861837850E+02  0.50528857285E+02  0.29999992205E+02 0.  0.
        -12    1    1    2    0    0 -0.77469556078E+01 -0.32718296643E+02  0.22861837850E+02  0.40659142715E+02  0.00000000000E+00 0.  1.
         11    1    3    3    0    0 -0.30449518672E+01  0.37719288211E+01 -0.67808125764E+01  0.83353823165E+01  0.51100000000E-03 0. -1.
        -11    1    3    3    0    0  0.93527667696E+01  0.31230529967E+02 -0.19383373421E+02  0.37928029393E+02  0.51100000000E-03 0.  1.
        -12    1    3    3    0    0  0.14391407053E+01 -0.22841621450E+01  0.33023481468E+01  0.42654455755E+01  0.00000000000E+00 0.  1.
</event>
<event>
 7    1  0.1023000E-012  0.5052886E+02  0.7816164E-02  0.1300439E+00
        -11   -1    0    0    0    0  0.00000000000E+00  0.00000000000E+00  0.45593999997E+02  0.45594000000E+02  0.51100000000E-03 0. -1.
         11   -1    0    0    0    0 -0.00000000000E+00 -0.00000000000E+00 -0.45593999997E+02  0.45594000000E+02  0.51100000000E-03 0.  1.
    9900012    2    1    2    0    0 -0.13812307246E+02 -0.38068656420E+02  0.36281140599E+01  0.50528860256E+02  0.30000001235E+02 0.  0.
        -12    1    1    2    0    0  0.13812307246E+02  0.38068656420E+02 -0.36281140599E+01  0.40659139744E+02  0.00000000000E+00 0.  1.
         11    1    3    3    0    0  0.12614832914E+01  0.13883397010E+01  0.26448293026E+01  0.32425220925E+01  0.51100000000E-03 0. -1.
        -11    1    3    3    0    0 -0.13458328252E+02 -0.42047012417E+02  0.25925727980E+00  0.44149123062E+02  0.51100000000E-03 0.  1.
        -12    1    3    3    0    0 -0.16154622852E+01  0.25900162959E+01  0.72402747747E+00  0.31372151019E+01  0.00000000000E+00 0.  1.
</event>
<event>
 7    1  0.1023000E-012  0.5052886E+02  0.7816164E-02  0.1300439E+00
        -11   -1    0    0    0    0  0.00000000000E+00  0.00000000000E+00  0.45593999997E+02  0.45594000000E+02  0.51100000000E-03 0.  1.
         11   -1    0    0    0    0 -0.00000000000E+00 -0.00000000000E+00 -0.45593999997E+02  0.45594000000E+02  0.51100000000E-03 0. -1.
    9900012    2    1    2    0    0 -0.18383124254E+01  0.26426944498E+01 -0.40531501519E+02  0.50528857832E+02  0.29999993865E+02 0.  0.
        -12    1    1    2    0    0  0.18383124254E+01 -0.26426944498E+01  0.40531501519E+02  0.40659142168E+02  0.00000000000E+00 0.  1.
         11    1    3    3    0    0  0.20030986873E+01  0.14586143294E+01 -0.20166314644E+02  0.20317977426E+02  0.51100000000E-03 0. -1.
        -11    1    3    3    0    0 -0.51215083482E+01 -0.17929997072E+01  0.32826972882E+01  0.63419868699E+01  0.51100000000E-03 0.  1.
        -12    1    3    3    0    0  0.12800972355E+01  0.29770798276E+01 -0.23647884163E+02  0.23868893535E+02  0.00000000000E+00 0.  1.
</event>
<event>
 7    1  0.1023000E-012  0.5052886E+02  0.7816164E-02  0.1300439E+00
        -11   -1    0    0    0    0  0.00000000000E+00  0.00000000000E+00  0.45593999997E+02  0.45594000000E+02  0.51100000000E-03 0.  1.
         11   -1    0    0    0    0 -0.00000000000E+00 -0.00000000000E+00 -0.45593999997E+02  0.45594000000E+02  0.51100000000E-03 0. -1.
    9900012    2    1    2    0    0  0.33908022232E+02 -0.20844740863E+02 -0.83011057157E+01  0.50528861428E+02  0.30000004797E+02 0.  0.
        -12    1    1    2    0    0 -0.33908022232E+02  0.20844740863E+02  0.83011057157E+01  0.40659138572E+02  0.00000000000E+00 0.  1.
         11    1    3    3    0    0  0.16241238622E+02 -0.18094037036E+02 -0.16597028119E+02  0.29438637041E+02  0.51100000000E-03 0. -1.
        -11    1    3    3    0    0  0.11111545471E+02  0.36479069322E+00  0.16313259215E+01  0.11236580420E+02  0.51100000000E-03 0.  1.
         12    1    3    3    0    0  0.65552381391E+01 -0.31154945198E+01  0.66645964816E+01  0.98536439668E+01  0.00000000000E+00 0. -1.
</event>
<event>
 7    1  0.1023000E-012  0.5052884E+02  0.7816164E-02  0.1300439E+00
        -11   -1    0    0    0    0  0.00000000000E+00  0.00000000000E+00  0.45593999997E+02  0.45594000000E+02  0.51100000000E-03 0. -1.
         11   -1    0    0    0    0 -0.00000000000E+00 -0.00000000000E+00 -0.45593999997E+02  0.45594000000E+02  0.51100000000E-03 0.  1.
    9900012    2    1    2    0    0  0.31462378850E+02  0.10221058112E+02  0.23639284537E+02  0.50528842541E+02  0.29999947387E+02 0.  0.
        -12    1    1    2    0    0 -0.31462378850E+02 -0.10221058112E+02 -0.23639284537E+02  0.40659157459E+02  0.00000000000E+00 0.  1.
         11    1    3    3    0    0  0.24156612641E+02 -0.15908384395E+01  0.58474007384E+01  0.24905115878E+02  0.51100000000E-03 0. -1.
        -11    1    3    3    0    0 -0.26957137838E+01 -0.28081672019E+00  0.32186990700E+01  0.42078206710E+01  0.51100000000E-03 0.  1.
         12    1    3    3    0    0  0.10001479993E+02  0.12092713272E+02  0.14573184729E+02  0.21415905992E+02  0.00000000000E+00 0. -1.
</event>
<event>
 7    1  0.1023000E-012  0.5052885E+02  0.7816164E-02  0.1300439E+00
        -11   -1    0    0    0    0  0.00000000000E+00  0.00000000000E+00  0.45593999997E+02  0.45594000000E+02  0.51100000000E-03 0.  1.
         11   -1    0    0    0    0 -0.00000000000E+00 -0.00000000000E+00 -0.45593999997E+02  0.45594000000E+02  0.51100000000E-03 0. -1.
    9900012    2    1    2    0    0  0.40200896996E+02 -0.76472260217E-01 -0.60867447837E+01  0.50528850607E+02  0.29999971906E+02 0.  0.
        -12    1    1    2    0    0 -0.40200896996E+02  0.76472260217E-01  0.60867447837E+01  0.40659149393E+02  0.00000000000E+00 0.  1.
         11    1    3    3    0    0  0.29917847534E+02  0.10659645479E+02 -0.95084704936E+01  0.33152928290E+02  0.51100000000E-03 0. -1.
        -11    1    3    3    0    0  0.11923222020E+01 -0.69034535288E+01  0.26133669947E+01  0.74772314507E+01  0.51100000000E-03 0.  1.
        -12    1    3    3    0    0  0.90907272597E+01 -0.38326642105E+01  0.80835871518E+00  0.98986908666E+01  0.00000000000E+00 0.  1.
</event>
<event>
 7    1  0.1023000E-012  0.5052886E+02  0.7816164E-02  0.1300439E+00
        -11   -1    0    0    0    0  0.00000000000E+00  0.00000000000E+00  0.45593999997E+02  0.45594000000E+02  0.51100000000E-03 0.  1.
         11   -1    0    0    0    0 -0.00000000000E+00 -0.00000000000E+00 -0.45593999997E+02  0.45594000000E+02  0.51100000000E-03 0. -1.
    9900012    2    1    2    0    0  0.21149687248E+02  0.32148377000E+02 -0.13127769410E+02  0.50528859034E+02  0.29999997519E+02 0.  0.
        -12    1    1    2    0    0 -0.21149687248E+02 -0.32148377000E+02  0.13127769410E+02  0.40659140966E+02  0.00000000000E+00 0.  1.
         11    1    3    3    0    0  0.48196728673E+01  0.18196697442E+02 -0.91773707645E+01  0.20942138830E+02  0.51100000000E-03 0. -1.
        -11    1    3    3    0    0  0.12669961805E+02  0.13360471335E+02  0.56786679027E+01  0.19268559777E+02  0.51100000000E-03 0.  1.
        -12    1    3    3    0    0  0.36600525750E+01  0.59120822269E+00 -0.96290665480E+01  0.10318160427E+02  0.00000000000E+00 0.  1.
</event>
<event>
 7    1  0.1023000E-012  0.5052885E+02  0.7816164E-02  0.1300439E+00
        -11   -1    0    0    0    0  0.00000000000E+00  0.00000000000E+00  0.45593999997E+02  0.45594000000E+02  0.51100000000E-03 0. -1.
         11   -1    0    0    0    0 -0.00000000000E+00 -0.00000000000E+00 -0.45593999997E+02  0.45594000000E+02  0.51100000000E-03 0.  1.
    9900012    2    1    2    0    0  0.18619912236E+02  0.21509232683E+02  0.29048551379E+02  0.50528849007E+02  0.29999967041E+02 0.  0.
        -12    1    1    2    0    0 -0.18619912236E+02 -0.21509232683E+02 -0.29048551379E+02  0.40659150993E+02  0.00000000000E+00 0.  1.
         11    1    3    3    0    0 -0.31196645578E-01 -0.42468579477E+00 -0.28207144586E+01  0.28526762124E+01  0.51100000000E-03 0.  1.
        -11    1    3    3    0    0  0.22716685803E+02  0.16782513875E+02  0.29102359888E+02  0.40554259174E+02  0.51100000000E-03 0. -1.
        -12    1    3    3    0    0 -0.40655769216E+01  0.51514046020E+01  0.27669059497E+01  0.71219136202E+01  0.00000000000E+00 0.  1.
</event>
<event>
 7    1  0.1023000E-012  0.5052886E+02  0.7816164E-02  0.1300439E+00
        -11   -1    0    0    0    0  0.00000000000E+00  0.00000000000E+00  0.45593999997E+02  0.45594000000E+02  0.51100000000E-03 0.  1.
         11   -1    0    0    0    0 -0.00000000000E+00 -0.00000000000E+00 -0.45593999997E+02  0.45594000000E+02  0.51100000000E-03 0. -1.
    9900012    2    1    2    0    0 -0.24361597140E+02  0.22496174245E+02 -0.23528722365E+02  0.50528855309E+02  0.29999986198E+02 0.  0.
        -12    1    1    2    0    0  0.24361597140E+02 -0.22496174245E+02  0.23528722365E+02  0.40659144691E+02  0.00000000000E+00 0.  1.
         11    1    3    3    0    0  0.67736724362E+00  0.97229892770E+01 -0.73339272811E+01  0.12197616017E+02  0.51100000000E-03 0. -1.
        -11    1    3    3    0    0 -0.28513108150E+02  0.98954226647E+01 -0.14760736932E+02  0.33597560642E+02  0.51100000000E-03 0.  1.
        -12    1    3    3    0    0  0.34741437663E+01  0.28777623034E+01 -0.14340581514E+01  0.47336786504E+01  0.00000000000E+00 0.  1.
</event>
<event>
 7    1  0.1023000E-012  0.5052886E+02  0.7816164E-02  0.1300439E+00
        -11   -1    0    0    0    0  0.00000000000E+00  0.00000000000E+00  0.45593999997E+02  0.45594000000E+02  0.51100000000E-03 0.  1.
         11   -1    0    0    0    0 -0.00000000000E+00 -0.00000000000E+00 -0.45593999997E+02  0.45594000000E+02  0.51100000000E-03 0. -1.
    9900012    2    1    2    0    0  0.29118849060E+02  0.15729243257E+02 -0.23618836543E+02  0.50528857072E+02  0.29999991556E+02 0.  0.
        -12    1    1    2    0    0 -0.29118849060E+02 -0.15729243257E+02  0.23618836543E+02  0.40659142928E+02  0.00000000000E+00 0.  1.
         11    1    3    3    0    0  0.11725325414E+02 -0.45259923112E+00 -0.85418620122E+01  0.14513838535E+02  0.51100000000E-03 0. -1.
        -11    1    3    3    0    0  0.20469468337E+01  0.14930471624E+02 -0.14016801990E+02  0.20581052270E+02  0.51100000000E-03 0.  1.
        -12    1    3    3    0    0  0.15346576813E+02  0.12513708644E+01 -0.10601725400E+01  0.15433966267E+02  0.00000000000E+00 0.  1.
</event>
<event>
 7    1  0.1023000E-012  0.5052885E+02  0.7816164E-02  0.1300439E+00
        -11   -1    0    0    0    0  0.00000000000E+00  0.00000000000E+00  0.45593999997E+02  0.45594000000E+02  0.51100000000E-03 0.  1.
         11   -1    0    0    0    0 -0.00000000000E+00 -0.00000000000E+00 -0.45593999997E+02  0.45594000000E+02  0.51100000000E-03 0. -1.
    9900012    2    1    2    0    0 -0.74269248020E+01  0.24602345726E+02 -0.31507644619E+02  0.50528852239E+02  0.29999976864E+02 0.  0.
        -12    1    1    2    0    0  0.74269248020E+01 -0.24602345726E+02  0.31507644619E+02  0.40659147761E+02  0.00000000000E+00 0.  1.
         11    1    3    3    0    0 -0.17103576960E+01  0.15144153370E+02 -0.17954704709E+02  0.23550841306E+02  0.51100000000E-03 0. -1.
        -11    1    3    3    0    0  0.26133190869E+01  0.26853444713E+01  0.45724877716E+01  0.59116965638E+01  0.51100000000E-03 0.  1.
        -12    1    3    3    0    0 -0.83298861928E+01  0.67728478839E+01 -0.18125427682E+02  0.21066314369E+02  0.00000000000E+00 0.  1.
</event>
<event>
 7    1  0.1023000E-012  0.5052886E+02  0.7816164E-02  0.1300439E+00
        -11   -1    0    0    0    0  0.00000000000E+00  0.00000000000E+00  0.45593999997E+02  0.45594000000E+02  0.51100000000E-03 0.  1.
         11   -1    0    0    0    0 -0.00000000000E+00 -0.00000000000E+00 -0.45593999997E+02  0.45594000000E+02  0.51100000000E-03 0. -1.
    9900012    2    1    2    0    0  0.11383004975E+02  0.37965537218E+02 -0.90670366727E+01  0.50528856225E+02  0.29999988981E+02 0.  0.
        -12    1    1    2    0    0 -0.11383004975E+02 -0.37965537218E+02  0.90670366727E+01  0.40659143775E+02  0.00000000000E+00 0.  1.
         11    1    3    3    0    0  0.16343493536E+02  0.35865094489E+02 -0.14182883380E+02  0.41887575305E+02  0.51100000000E-03 0. -1.
        -11    1    3    3    0    0 -0.57447916649E+01  0.20488039504E+01  0.40678291286E+01  0.73312661240E+01  0.51100000000E-03 0.  1.
         12    1    3    3    0    0  0.78430310349E+00  0.51638778659E-01  0.10480175785E+01  0.13100147963E+01  0.00000000000E+00 0. -1.
</event>
<event>
 7    1  0.1023000E-012  0.5052892E+02  0.7816164E-02  0.1300439E+00
        -11   -1    0    0    0    0  0.00000000000E+00  0.00000000000E+00  0.45593999997E+02  0.45594000000E+02  0.51100000000E-03 0. -1.
         11   -1    0    0    0    0 -0.00000000000E+00 -0.00000000000E+00 -0.45593999997E+02  0.45594000000E+02  0.51100000000E-03 0.  1.
    9900012    2    1    2    0    0 -0.13808379280E+02  0.16770961083E+02  0.34368938401E+02  0.50528924742E+02  0.30000197246E+02 0.  0.
        -12    1    1    2    0    0  0.13808379280E+02 -0.16770961083E+02 -0.34368938401E+02  0.40659075258E+02  0.00000000000E+00 0.  1.
         11    1    3    3    0    0 -0.17868370556E+02  0.11268279838E+02  0.32417350966E+02  0.38692860333E+02  0.51100000000E-03 0. -1.
        -11    1    3    3    0    0  0.38206618816E+01  0.81116330696E+01  0.21102347611E+01  0.92113592525E+01  0.51100000000E-03 0.  1.
         12    1    3    3    0    0  0.23932939362E+00 -0.26089518252E+01 -0.15864732601E+00  0.26247051565E+01  0.00000000000E+00 0. -1.
</event>
<event>
 7    1  0.1023000E-012  0.5052886E+02  0.7816164E-02  0.1300439E+00
        -11   -1    0    0    0    0  0.00000000000E+00  0.00000000000E+00  0.45593999997E+02  0.45594000000E+02  0.51100000000E-03 0.  1.
         11   -1    0    0    0    0 -0.00000000000E+00 -0.00000000000E+00 -0.45593999997E+02  0.45594000000E+02  0.51100000000E-03 0. -1.
    9900012    2    1    2    0    0  0.17141796606E+01  0.20144137881E+02 -0.35276630254E+02  0.50528863943E+02  0.30000012440E+02 0.  0.
        -12    1    1    2    0    0 -0.17141796606E+01 -0.20144137881E+02  0.35276630254E+02  0.40659136057E+02  0.00000000000E+00 0.  1.
         11    1    3    3    0    0  0.72516931186E+01 -0.35759285374E+01 -0.18151285278E+01  0.82866766453E+01  0.51100000000E-03 0. -1.
        -11    1    3    3    0    0 -0.32189306919E+01  0.22574818631E+02 -0.31930430098E+02  0.39236925434E+02  0.51100000000E-03 0.  1.
         12    1    3    3    0    0 -0.23185827660E+01  0.11452477875E+01 -0.15310716278E+01  0.30052618633E+01  0.00000000000E+00 0. -1.
</event>
<event>
 7    1  0.1023000E-012  0.5052886E+02  0.7816164E-02  0.1300439E+00
        -11   -1    0    0    0    0  0.00000000000E+00  0.00000000000E+00  0.45593999997E+02  0.45594000000E+02  0.51100000000E-03 0.  1.
         11   -1    0    0    0    0 -0.00000000000E+00 -0.00000000000E+00 -0.45593999997E+02  0.45594000000E+02  0.51100000000E-03 0. -1.
    9900012    2    1    2    0    0 -0.20730881933E+02  0.33256943879E+02 -0.10833832274E+02  0.50528859531E+02  0.29999999031E+02 0.  0.
        -12    1    1    2    0    0  0.20730881933E+02 -0.33256943879E+02  0.10833832274E+02  0.40659140469E+02  0.00000000000E+00 0.  1.
         11    1    3    3    0    0 -0.11035949437E+02  0.11661593000E+02 -0.45584297883E+01  0.16690243068E+02  0.51100000000E-03 0. -1.
        -11    1    3    3    0    0  0.22299012575E+01  0.41600297627E+01  0.73261942190E+01  0.87150117177E+01  0.51100000000E-03 0.  1.
        -12    1    3    3    0    0 -0.11924833754E+02  0.17435321116E+02 -0.13601596705E+02  0.25123604745E+02  0.00000000000E+00 0.  1.
</event>
<event>
 7    1  0.1023000E-012  0.5052884E+02  0.7816164E-02  0.1300439E+00
        -11   -1    0    0    0    0  0.00000000000E+00  0.00000000000E+00  0.45593999997E+02  0.45594000000E+02  0.51100000000E-03 0.  1.
         11   -1    0    0    0    0 -0.00000000000E+00 -0.00000000000E+00 -0.45593999997E+02  0.45594000000E+02  0.51100000000E-03 0. -1.
    9900012    2    1    2    0    0  0.96891195541E+01 -0.27208012063E+02 -0.28618392936E+02  0.50528839010E+02  0.29999936655E+02 0.  0.
        -12    1    1    2    0    0 -0.96891195541E+01  0.27208012063E+02  0.28618392936E+02  0.40659160990E+02  0.00000000000E+00 0.  1.
         11    1    3    3    0    0  0.27920337439E+01 -0.26479077353E+02 -0.18513823743E+02  0.32429903789E+02  0.51100000000E-03 0. -1.
        -11    1    3    3    0    0  0.74647787056E+01  0.25420561923E+01 -0.46020736788E+00  0.78991621005E+01  0.51100000000E-03 0.  1.
        -12    1    3    3    0    0 -0.56769289536E+00 -0.32709909021E+01 -0.96443618249E+01  0.10199773121E+02  0.00000000000E+00 0.  1.
</event>
<event>
 7    1  0.1038477E-012  0.5052886E+02  0.7816164E-02  0.1300439E+00
        -11   -1    0    0    0    0  0.00000000000E+00  0.00000000000E+00  0.45593999997E+02  0.45594000000E+02  0.51100000000E-03 0. -1.
         11   -1    0    0    0    0 -0.00000000000E+00 -0.00000000000E+00 -0.45593999997E+02  0.45594000000E+02  0.51100000000E-03 0.  1.
    9900012    2    1    2    0    0 -0.11343120178E+02 -0.17812791972E+01  0.39004183747E+02  0.50528859813E+02  0.29999999888E+02 0.  0.
        -12    1    1    2    0    0  0.11343120178E+02  0.17812791972E+01 -0.39004183747E+02  0.40659140187E+02  0.00000000000E+00 0.  1.
         11    1    3    3    0    0 -0.29025045483E+01  0.58553235324E+01  0.26510146054E+02  0.27303794432E+02  0.51100000000E-03 0. -1.
        -11    1    3    3    0    0 -0.31711046812E+01 -0.12068521572E+02  0.96547022033E+01  0.15777147801E+02  0.51100000000E-03 0.  1.
        -12    1    3    3    0    0 -0.52695109481E+01  0.44319188423E+01  0.28393354902E+01  0.74479175802E+01  0.00000000000E+00 0.  1.
</event>
<event>
 7    1  0.1023000E-012  0.5052886E+02  0.7816164E-02  0.1300439E+00
        -11   -1    0    0    0    0  0.00000000000E+00  0.00000000000E+00  0.45593999997E+02  0.45594000000E+02  0.51100000000E-03 0. -1.
         11   -1    0    0    0    0 -0.00000000000E+00 -0.00000000000E+00 -0.45593999997E+02  0.45594000000E+02  0.51100000000E-03 0.  1.
    9900012    2    1    2    0    0 -0.11021932175E+02  0.29215580809E+02  0.26040978958E+02  0.50528859134E+02  0.29999997824E+02 0.  0.
        -12    1    1    2    0    0  0.11021932175E+02 -0.29215580809E+02 -0.26040978958E+02  0.40659140866E+02  0.00000000000E+00 0.  1.
         11    1    3    3    0    0  0.59497217795E+01  0.51832434295E+01  0.10987830511E+02  0.13527661339E+02  0.51100000000E-03 0. -1.
        -11    1    3    3    0    0 -0.14627515589E+02  0.23874561728E+02  0.17959387833E+02  0.33264072535E+02  0.51100000000E-03 0.  1.
        -12    1    3    3    0    0 -0.23441383655E+01  0.15777565191E+00 -0.29062393872E+01  0.37371252600E+01  0.00000000000E+00 0.  1.
</event>
<event>
 7    1  0.1023000E-012  0.5052886E+02  0.7816164E-02  0.1300439E+00
        -11   -1    0    0    0    0  0.00000000000E+00  0.00000000000E+00  0.45593999997E+02  0.45594000000E+02  0.51100000000E-03 0. -1.
         11   -1    0    0    0    0 -0.00000000000E+00 -0.00000000000E+00 -0.45593999997E+02  0.45594000000E+02  0.51100000000E-03 0.  1.
    9900012    2    1    2    0    0  0.77741570751E+01 -0.29976825179E+02  0.26346118341E+02  0.50528861818E+02  0.30000005983E+02 0.  0.
        -12    1    1    2    0    0 -0.77741570751E+01  0.29976825179E+02 -0.26346118341E+02  0.40659138182E+02  0.00000000000E+00 0.  1.
         11    1    3    3    0    0 -0.48973377353E+01 -0.39257856813E+01  0.19249286562E+02  0.20246746492E+02  0.51100000000E-03 0. -1.
        -11    1    3    3    0    0  0.88733163695E+01 -0.12999336283E+02  0.25223829209E+01  0.15939915403E+02  0.51100000000E-03 0.  1.
         12    1    3    3    0    0  0.37981784409E+01 -0.13051703215E+02  0.45744488575E+01  0.14342199923E+02  0.00000000000E+00 0. -1.
</event>
<event>
 7    1  0.1023000E-012  0.5052886E+02  0.7816164E-02  0.1300439E+00
        -11   -1    0    0    0    0  0.00000000000E+00  0.00000000000E+00  0.45593999997E+02  0.45594000000E+02  0.51100000000E-03 0. -1.
         11   -1    0    0    0    0 -0.00000000000E+00 -0.00000000000E+00 -0.45593999997E+02  0.45594000000E+02  0.51100000000E-03 0.  1.
    9900012    2    1    2    0    0 -0.18236120527E+02 -0.20165270427E+02  0.30231962050E+02  0.50528858929E+02  0.29999997200E+02 0.  0.
        -12    1    1    2    0    0  0.18236120527E+02  0.20165270427E+02 -0.30231962050E+02  0.40659141071E+02  0.00000000000E+00 0.  1.
         11    1    3    3    0    0 -0.11545142063E+02 -0.73468523962E+01  0.28191136457E+02  0.31336986459E+02  0.51100000000E-03 0. -1.
        -11    1    3    3    0    0  0.11109003311E+01 -0.97612926912E+01  0.39651278865E+01  0.10594299126E+02  0.51100000000E-03 0.  1.
         12    1    3    3    0    0 -0.78018787958E+01 -0.30571253392E+01 -0.19243022936E+01  0.85975733437E+01  0.00000000000E+00 0. -1.
</event>
<event>
 7    1  0.1023000E-012  0.5052886E+02  0.7816164E-02  0.1300439E+00
        -11   -1    0    0    0    0  0.00000000000E+00  0.00000000000E+00  0.45593999997E+02  0.45594000000E+02  0.51100000000E-03 0. -1.
         11   -1    0    0    0    0 -0.00000000000E+00 -0.00000000000E+00 -0.45593999997E+02  0.45594000000E+02  0.51100000000E-03 0.  1.
    9900012    2    1    2    0    0  0.14918723301E+02  0.23053096712E+02  0.29985866008E+02  0.50528859168E+02  0.29999997927E+02 0.  0.
        -12    1    1    2    0    0 -0.14918723301E+02 -0.23053096712E+02 -0.29985866008E+02  0.40659140832E+02  0.00000000000E+00 0.  1.
         11    1    3    3    0    0  0.10879917094E+02 -0.24365720550E+01  0.45726265892E+01  0.12050659464E+02  0.51100000000E-03 0. -1.
        -11    1    3    3    0    0 -0.41566872345E+01  0.14886709331E+02  0.14548769257E+02  0.21226371584E+02  0.51100000000E-03 0.  1.
        -12    1    3    3    0    0  0.81954934423E+01  0.10602959436E+02  0.10864470162E+02  0.17251828120E+02  0.00000000000E+00 0.  1.
</event>
<event>
 7    1  0.1023000E-012  0.5052886E+02  0.7816164E-02  0.1300439E+00
        -11   -1    0    0    0    0  0.00000000000E+00  0.00000000000E+00  0.45593999997E+02  0.45594000000E+02  0.51100000000E-03 0. -1.
         11   -1    0    0    0    0 -0.00000000000E+00 -0.00000000000E+00 -0.45593999997E+02  0.45594000000E+02  0.51100000000E-03 0.  1.
    9900012    2    1    2    0    0 -0.24524141765E+02  0.11219584023E+02  0.30427828772E+02  0.50528863773E+02  0.30000011924E+02 0.  0.
        -12    1    1    2    0    0  0.24524141765E+02 -0.11219584023E+02 -0.30427828772E+02  0.40659136227E+02  0.00000000000E+00 0.  1.
         11    1    3    3    0    0 -0.28795436836E+01  0.30219188560E+01  0.93971497215E+01  0.10282518590E+02  0.51100000000E-03 0. -1.
        -11    1    3    3    0    0 -0.16663887244E+02  0.91264662559E+01  0.40103165440E+00  0.19003640468E+02  0.51100000000E-03 0.  1.
        -12    1    3    3    0    0 -0.49807108375E+01 -0.92880108935E+00  0.20629647396E+02  0.21242704715E+02  0.00000000000E+00 0.  1.
</event>
<event>
 7    1  0.1023000E-012  0.5052886E+02  0.7816164E-02  0.1300439E+00
        -11   -1    0    0    0    0  0.00000000000E+00  0.00000000000E+00  0.45593999997E+02  0.45594000000E+02  0.51100000000E-03 0.  1.
         11   -1    0    0    0    0 -0.00000000000E+00 -0.00000000000E+00 -0.45593999997E+02  0.45594000000E+02  0.51100000000E-03 0. -1.
    9900012    2    1    2    0    0 -0.46581648200E+01 -0.35926620931E+02 -0.18459276701E+02  0.50528862191E+02  0.30000007116E+02 0.  0.
        -12    1    1    2    0    0  0.46581648200E+01  0.35926620931E+02  0.18459276701E+02  0.40659137809E+02  0.00000000000E+00 0.  1.
         11    1    3    3    0    0 -0.17458416875E+01 -0.33773910921E+02 -0.13799768115E+02  0.36526136155E+02  0.51100000000E-03 0. -1.
        -11    1    3    3    0    0 -0.26250449449E+01  0.48511886330E+01 -0.42818470158E+01  0.69827721031E+01  0.51100000000E-03 0.  1.
        -12    1    3    3    0    0 -0.28727818768E+00 -0.70038986431E+01 -0.37766157006E+00  0.70199539330E+01  0.00000000000E+00 0.  1.
</event>
<event>
 7    1  0.1023000E-012  0.5052885E+02  0.7816164E-02  0.1300439E+00
        -11   -1    0    0    0    0  0.00000000000E+00  0.00000000000E+00  0.45593999997E+02  0.45594000000E+02  0.51100000000E-03 0.  1.
         11   -1    0    0    0    0 -0.00000000000E+00 -0.00000000000E+00 -0.45593999997E+02  0.45594000000E+02  0.51100000000E-03 0. -1.
    9900012    2    1    2    0    0  0.18065745117E+02  0.18284751027E+02 -0.31503379398E+02  0.50528853670E+02  0.29999981215E+02 0.  0.
        -12    1    1    2    0    0 -0.18065745117E+02 -0.18284751027E+02  0.31503379398E+02  0.40659146330E+02  0.00000000000E+00 0.  1.
         11    1    3    3    0    0  0.63980916059E+01  0.11758118122E+02 -0.34305773769E+01  0.13818747387E+02  0.51100000000E-03 0. -1.
        -11    1    3    3    0    0  0.82889475115E+01 -0.56888581675E+01 -0.74846298779E+01  0.12533532733E+02  0.51100000000E-03 0.  1.
         12    1    3    3    0    0  0.33787059998E+01  0.12215491073E+02 -0.20588172143E+02  0.24176573550E+02  0.00000000000E+00 0. -1.
</event>
<event>
 7    1  0.1023000E-012  0.5052886E+02  0.7816164E-02  0.1300439E+00
        -11   -1    0    0    0    0  0.00000000000E+00  0.00000000000E+00  0.45593999997E+02  0.45594000000E+02  0.51100000000E-03 0.  1.
         11   -1    0    0    0    0 -0.00000000000E+00 -0.00000000000E+00 -0.45593999997E+02  0.45594000000E+02  0.51100000000E-03 0. -1.
    9900012    2    1    2    0    0 -0.31013750417E+02  0.26229532340E+02  0.18234001895E+01  0.50528857486E+02  0.29999992814E+02 0.  0.
        -12    1    1    2    0    0  0.31013750417E+02 -0.26229532340E+02 -0.18234001895E+01  0.40659142514E+02  0.00000000000E+00 0.  1.
         11    1    3    3    0    0 -0.26725688594E+02  0.29270505081E+02 -0.36400706625E+01  0.39802952318E+02  0.51100000000E-03 0. -1.
        -11    1    3    3    0    0 -0.51350016335E+01 -0.17729579486E+01  0.67963094679E+01  0.87006576940E+01  0.51100000000E-03 0.  1.
         12    1    3    3    0    0  0.84693981014E+00 -0.12680147922E+01 -0.13328386159E+01  0.20252474741E+01  0.00000000000E+00 0. -1.
</event>
<event>
 7    1  0.1023000E-012  0.5052886E+02  0.7816164E-02  0.1300439E+00
        -11   -1    0    0    0    0  0.00000000000E+00  0.00000000000E+00  0.45593999997E+02  0.45594000000E+02  0.51100000000E-03 0. -1.
         11   -1    0    0    0    0 -0.00000000000E+00 -0.00000000000E+00 -0.45593999997E+02  0.45594000000E+02  0.51100000000E-03 0.  1.
    9900012    2    1    2    0    0 -0.39504861881E+02  0.60639899185E+01 -0.74672262474E+01  0.50528861374E+02  0.30000004632E+02 0.  0.
        -12    1    1    2    0    0  0.39504861881E+02 -0.60639899185E+01  0.74672262474E+01  0.40659138626E+02  0.00000000000E+00 0.  1.
         11    1    3    3    0    0 -0.23077731957E+02 -0.19111121108E+01 -0.68227860085E+01  0.24140929372E+02  0.51100000000E-03 0. -1.
        -11    1    3    3    0    0 -0.49369627143E+01  0.98386161110E+01  0.64478149841E+01  0.12757205264E+02  0.51100000000E-03 0.  1.
        -12    1    3    3    0    0 -0.11490167210E+02 -0.18635140816E+01 -0.70922552230E+01  0.13630726737E+02  0.00000000000E+00 0.  1.
</event>
<event>
 7    1  0.1023000E-012  0.5052886E+02  0.7816164E-02  0.1300439E+00
        -11   -1    0    0    0    0  0.00000000000E+00  0.00000000000E+00  0.45593999997E+02  0.45594000000E+02  0.51100000000E-03 0.  1.
         11   -1    0    0    0    0 -0.00000000000E+00 -0.00000000000E+00 -0.45593999997E+02  0.45594000000E+02  0.51100000000E-03 0. -1.
    9900012    2    1    2    0    0 -0.20229849399E+01 -0.35362906328E+02 -0.19963415355E+02  0.50528861240E+02  0.30000004226E+02 0.  0.
        -12    1    1    2    0    0  0.20229849399E+01  0.35362906328E+02  0.19963415355E+02  0.40659138760E+02  0.00000000000E+00 0.  1.
         11    1    3    3    0    0 -0.14063872939E+02 -0.29026562681E+02 -0.16697906864E+02  0.36320159100E+02  0.51100000000E-03 0. -1.
        -11    1    3    3    0    0  0.80462991057E+01 -0.29782468437E+01 -0.15751383465E+01  0.87231843172E+01  0.51100000000E-03 0.  1.
         12    1    3    3    0    0  0.39945888931E+01 -0.33580968029E+01 -0.16903701447E+01  0.54855178232E+01  0.00000000000E+00 0. -1.
</event>
<event>
 7    1  0.1023000E-012  0.5052887E+02  0.7816164E-02  0.1300439E+00
        -11   -1    0    0    0    0  0.00000000000E+00  0.00000000000E+00  0.45593999997E+02  0.45594000000E+02  0.51100000000E-03 0.  1.
         11   -1    0    0    0    0 -0.00000000000E+00 -0.00000000000E+00 -0.45593999997E+02  0.45594000000E+02  0.51100000000E-03 0. -1.
    9900012    2    1    2    0    0 -0.94365183307E+01  0.28736714715E+02 -0.27172018650E+02  0.50528865131E+02  0.30000016052E+02 0.  0.
        -12    1    1    2    0    0  0.94365183307E+01 -0.28736714715E+02  0.27172018650E+02  0.40659134869E+02  0.00000000000E+00 0.  1.
         11    1    3    3    0    0 -0.10409583158E+02  0.73912545592E+01 -0.24460777033E+02  0.27592022014E+02  0.51100000000E-03 0. -1.
        -11    1    3    3    0    0  0.25104554614E+01  0.69021431807E+01  0.20948775495E+01  0.76374393168E+01  0.51100000000E-03 0.  1.
         12    1    3    3    0    0 -0.15373906342E+01  0.14443316975E+02 -0.48061191661E+01  0.15299403800E+02  0.00000000000E+00 0. -1.
</event>
<event>
 7    1  0.1049039E-012  0.5052885E+02  0.7816164E-02  0.1300439E+00
        -11   -1    0    0    0    0  0.00000000000E+00  0.00000000000E+00  0.45593999997E+02  0.45594000000E+02  0.51100000000E-03 0. -1.
         11   -1    0    0    0    0 -0.00000000000E+00 -0.00000000000E+00 -0.45593999997E+02  0.45594000000E+02  0.51100000000E-03 0.  1.
    9900012    2    1    2    0    0 -0.36683759432E+02 -0.12827086168E+02  0.11955490902E+02  0.50528854555E+02  0.29999983904E+02 0.  0.
        -12    1    1    2    0    0  0.36683759432E+02  0.12827086168E+02 -0.11955490902E+02  0.40659145445E+02  0.00000000000E+00 0.  1.
         11    1    3    3    0    0 -0.26597336997E+02 -0.33921605238E+01  0.14126966018E+02  0.30306703177E+02  0.51100000000E-03 0. -1.
        -11    1    3    3    0    0 -0.80690146463E-01 -0.91125773299E+01  0.20776617078E+01  0.93467777831E+01  0.51100000000E-03 0.  1.
        -12    1    3    3    0    0 -0.10005732289E+02 -0.32234831402E+00 -0.42491368233E+01  0.10875373595E+02  0.00000000000E+00 0.  1.
</event>
<event>
 7    1  0.1023000E-012  0.5052886E+02  0.7816164E-02  0.1300439E+00
        -11   -1    0    0    0    0  0.00000000000E+00  0.00000000000E+00  0.45593999997E+02  0.45594000000E+02  0.51100000000E-03 0.  1.
         11   -1    0    0    0    0 -0.00000000000E+00 -0.00000000000E+00 -0.45593999997E+02  0.45594000000E+02  0.51100000000E-03 0. -1.
    9900012    2    1    2    0    0 -0.86525086214E+01  0.28873972915E+02 -0.27287243916E+02  0.50528857143E+02  0.29999991772E+02 0.  0.
        -12    1    1    2    0    0  0.86525086214E+01 -0.28873972915E+02  0.27287243916E+02  0.40659142857E+02  0.00000000000E+00 0.  1.
         11    1    3    3    0    0 -0.15890408499E+01  0.27368373627E+02 -0.29287908706E+02  0.40116511842E+02  0.51100000000E-03 0. -1.
        -11    1    3    3    0    0 -0.61591613537E+01  0.29553150555E+01  0.38929183208E+01  0.78628219470E+01  0.51100000000E-03 0.  1.
         12    1    3    3    0    0 -0.90430641787E+00 -0.14497157676E+01 -0.18922535312E+01  0.25495233536E+01  0.00000000000E+00 0. -1.
</event>
<event>
 7    1  0.1023000E-012  0.5052886E+02  0.7816164E-02  0.1300439E+00
        -11   -1    0    0    0    0  0.00000000000E+00  0.00000000000E+00  0.45593999997E+02  0.45594000000E+02  0.51100000000E-03 0.  1.
         11   -1    0    0    0    0 -0.00000000000E+00 -0.00000000000E+00 -0.45593999997E+02  0.45594000000E+02  0.51100000000E-03 0. -1.
    9900012    2    1    2    0    0 -0.13200679257E+02 -0.35744792982E+01 -0.38290088184E+02  0.50528859721E+02  0.29999999607E+02 0.  0.
        -12    1    1    2    0    0  0.13200679257E+02  0.35744792982E+01  0.38290088184E+02  0.40659140279E+02  0.00000000000E+00 0.  1.
         11    1    3    3    0    0  0.49363484383E+01 -0.89214380815E+00 -0.16580761492E+02  0.17322964769E+02  0.51100000000E-03 0. -1.
        -11    1    3    3    0    0 -0.13647388228E+02 -0.38573505748E+01 -0.37680001718E+01  0.14674065028E+02  0.51100000000E-03 0.  1.
        -12    1    3    3    0    0 -0.44896394679E+01  0.11750150847E+01 -0.17941326520E+02  0.18531829923E+02  0.00000000000E+00 0.  1.
</event>
<event>
 7    1  0.1023000E-012  0.5052886E+02  0.7816164E-02  0.1300439E+00
        -11   -1    0    0    0    0  0.00000000000E+00  0.00000000000E+00  0.45593999997E+02  0.45594000000E+02  0.51100000000E-03 0. -1.
         11   -1    0    0    0    0 -0.00000000000E+00 -0.00000000000E+00 -0.45593999997E+02  0.45594000000E+02  0.51100000000E-03 0.  1.
    9900012    2    1    2    0    0  0.19525258883E+02 -0.96225089296E+01  0.34341482868E+02  0.50528857632E+02  0.29999993257E+02 0.  0.
        -12    1    1    2    0    0 -0.19525258883E+02  0.96225089296E+01 -0.34341482868E+02  0.40659142368E+02  0.00000000000E+00 0.  1.
         11    1    3    3    0    0  0.11269013078E+02 -0.10282671761E+01  0.24987599985E+02  0.27430423665E+02  0.51100000000E-03 0. -1.
        -11    1    3    3    0    0  0.97685816692E+01 -0.10264597166E+02  0.73402881785E+00  0.14188937288E+02  0.51100000000E-03 0.  1.
         12    1    3    3    0    0 -0.15123358642E+01  0.16703554122E+01  0.86198540647E+01  0.89094966786E+01  0.00000000000E+00 0. -1.
</event>
<event>
 7    1  0.1023000E-012  0.5052887E+02  0.7816164E-02  0.1300439E+00
        -11   -1    0    0    0    0  0.00000000000E+00  0.00000000000E+00  0.45593999997E+02  0.45594000000E+02  0.51100000000E-03 0.  1.
         11   -1    0    0    0    0 -0.00000000000E+00 -0.00000000000E+00 -0.45593999997E+02  0.45594000000E+02  0.51100000000E-03 0. -1.
    9900012    2    1    2    0    0  0.32976376057E+02 -0.22862292182E+02  0.65604225772E+01  0.50528869094E+02  0.30000028098E+02 0.  0.
        -12    1    1    2    0    0 -0.32976376057E+02  0.22862292182E+02 -0.65604225772E+01  0.40659130906E+02  0.00000000000E+00 0.  1.
         11    1    3    3    0    0  0.48539001424E+01 -0.77002530109E+01 -0.65451289440E+01  0.11211286999E+02  0.51100000000E-03 0. -1.
        -11    1    3    3    0    0  0.27130875047E+02 -0.18986519745E+02  0.11876896053E+02  0.35180008143E+02  0.51100000000E-03 0.  1.
        -12    1    3    3    0    0  0.99160086752E+00  0.38244805742E+01  0.12286554677E+01  0.41375739512E+01  0.00000000000E+00 0.  1.
</event>
<event>
 7    1  0.1023000E-012  0.5052885E+02  0.7816164E-02  0.1300439E+00
        -11   -1    0    0    0    0  0.00000000000E+00  0.00000000000E+00  0.45593999997E+02  0.45594000000E+02  0.51100000000E-03 0.  1.
         11   -1    0    0    0    0 -0.00000000000E+00 -0.00000000000E+00 -0.45593999997E+02  0.45594000000E+02  0.51100000000E-03 0. -1.
    9900012    2    1    2    0    0  0.23093974579E+02  0.29403402890E+02 -0.15977328003E+02  0.50528846375E+02  0.29999959041E+02 0.  0.
        -12    1    1    2    0    0 -0.23093974579E+02 -0.29403402890E+02  0.15977328003E+02  0.40659153625E+02  0.00000000000E+00 0.  1.
         11    1    3    3    0    0  0.14004974769E+02  0.15012685755E+02  0.31101452057E+01  0.20765188545E+02  0.51100000000E-03 0. -1.
        -11    1    3    3    0    0 -0.40507575360E+01  0.28619446712E+01 -0.67132153091E+01  0.83466534589E+01  0.51100000000E-03 0.  1.
        -12    1    3    3    0    0  0.13139757346E+02  0.11528772464E+02 -0.12374257899E+02  0.21417004370E+02  0.00000000000E+00 0.  1.
</event>
<event>
 7    1  0.1023000E-012  0.5052887E+02  0.7816164E-02  0.1300439E+00
        -11   -1    0    0    0    0  0.00000000000E+00  0.00000000000E+00  0.45593999997E+02  0.45594000000E+02  0.51100000000E-03 0. -1.
         11   -1    0    0    0    0 -0.00000000000E+00 -0.00000000000E+00 -0.45593999997E+02  0.45594000000E+02  0.51100000000E-03 0.  1.
    9900012    2    1    2    0    0  0.28108501266E+02 -0.73813463293E+01  0.28435769130E+02  0.50528867164E+02  0.30000022230E+02 0.  0.
        -12    1    1    2    0    0 -0.28108501266E+02  0.73813463293E+01 -0.28435769130E+02  0.40659132836E+02  0.00000000000E+00 0.  1.
         11    1    3    3    0    0  0.23636424861E+02  0.19471574420E+01  0.12073541740E+02  0.26612824215E+02  0.51100000000E-03 0. -1.
        -11    1    3    3    0    0  0.45969365544E+01 -0.98883558949E+01  0.41147681905E+01  0.11655158751E+02  0.51100000000E-03 0.  1.
        -12    1    3    3    0    0 -0.12486014981E+00  0.55985212356E+00  0.12247459199E+02  0.12260884197E+02  0.00000000000E+00 0.  1.
</event>
<event>
 7    1  0.1023000E-012  0.5052886E+02  0.7816164E-02  0.1300439E+00
        -11   -1    0    0    0    0  0.00000000000E+00  0.00000000000E+00  0.45593999997E+02  0.45594000000E+02  0.51100000000E-03 0.  1.
         11   -1    0    0    0    0 -0.00000000000E+00 -0.00000000000E+00 -0.45593999997E+02  0.45594000000E+02  0.51100000000E-03 0. -1.
    9900012    2    1    2    0    0  0.35570553879E+02 -0.19333547579E+02  0.37569824389E+01  0.50528864714E+02  0.30000014783E+02 0.  0.
        -12    1    1    2    0    0 -0.35570553879E+02  0.19333547579E+02 -0.37569824389E+01  0.40659135286E+02  0.00000000000E+00 0.  1.
         11    1    3    3    0    0  0.21576540997E+02 -0.18627011639E+02 -0.24533587649E+01  0.28609992196E+02  0.51100000000E-03 0. -1.
        -11    1    3    3    0    0  0.14853409852E+02 -0.17057212140E+01  0.99463235479E+01  0.17957244261E+02  0.51100000000E-03 0.  1.
         12    1    3    3    0    0 -0.85939696991E+00  0.99918527398E+00 -0.37359823442E+01  0.39616282561E+01  0.00000000000E+00 0. -1.
</event>
<event>
 7    1  0.1023000E-012  0.5052886E+02  0.7816164E-02  0.1300439E+00
        -11   -1    0    0    0    0  0.00000000000E+00  0.00000000000E+00  0.45593999997E+02  0.45594000000E+02  0.51100000000E-03 0.  1.
         11   -1    0    0    0    0 -0.00000000000E+00 -0.00000000000E+00 -0.45593999997E+02  0.45594000000E+02  0.51100000000E-03 0. -1.
    9900012    2    1    2    0    0  0.21329980106E+02 -0.20016086774E+02  0.28240991184E+02  0.50528863707E+02  0.30000011724E+02 0.  0.
        -12    1    1    2    0    0 -0.21329980106E+02  0.20016086774E+02 -0.28240991184E+02  0.40659136293E+02  0.00000000000E+00 0.  1.
         11    1    3    3    0    0  0.69454542835E+01 -0.84409501752E+01 -0.14430850133E+01  0.11025945297E+02  0.51100000000E-03 0. -1.
        -11    1    3    3    0    0  0.17457340298E+02 -0.11341644747E+02  0.29877636694E+02  0.36415172807E+02  0.51100000000E-03 0.  1.
        -12    1    3    3    0    0 -0.30728144756E+01 -0.23349185100E+00 -0.19356049717E+00  0.30877456035E+01  0.00000000000E+00 0.  1.
</event>
<event>
 7    1  0.1023000E-012  0.5052887E+02  0.7816164E-02  0.1300439E+00
        -11   -1    0    0    0    0  0.00000000000E+00  0.00000000000E+00  0.45593999997E+02  0.45594000000E+02  0.51100000000E-03 0.  1.
         11   -1    0    0    0    0 -0.00000000000E+00 -0.00000000000E+00 -0.45593999997E+02  0.45594000000E+02  0.51100000000E-03 0. -1.
    9900012    2    1    2    0    0 -0.10587988806E+02 -0.10228989171E+02 -0.37900229324E+02  0.50528866841E+02  0.30000021250E+02 0.  0.
        -12    1    1    2    0    0  0.10587988806E+02  0.10228989171E+02  0.37900229324E+02  0.40659133159E+02  0.00000000000E+00 0.  1.
         11    1    3    3    0    0 -0.22232624369E+01  0.94529788589E+01 -0.66838384403E+01  0.11788782877E+02  0.51100000000E-03 0. -1.
        -11    1    3    3    0    0 -0.40546369006E+00 -0.10874015862E+02 -0.12461789245E+02  0.16544026512E+02  0.51100000000E-03 0.  1.
         12    1    3    3    0    0 -0.79592626790E+01 -0.88079521677E+01 -0.18754601639E+02  0.22196057452E+02  0.00000000000E+00 0. -1.
</event>
<event>
 7    1  0.1158739E-012  0.5052885E+02  0.7816164E-02  0.1300439E+00
        -11   -1    0    0    0    0  0.00000000000E+00  0.00000000000E+00  0.45593999997E+02  0.45594000000E+02  0.51100000000E-03 0.  1.
         11   -1    0    0    0    0 -0.00000000000E+00 -0.00000000000E+00 -0.45593999997E+02  0.45594000000E+02  0.51100000000E-03 0. -1.
    9900012    2    1    2    0    0  0.34972180640E+02 -0.29471190456E+01 -0.20528702510E+02  0.50528849048E+02  0.29999967167E+02 0.  0.
        -12    1    1    2    0    0 -0.34972180640E+02  0.29471190456E+01  0.20528702510E+02  0.40659150952E+02  0.00000000000E+00 0.  1.
         11    1    3    3    0    0  0.17832255484E+02 -0.34614307996E+01 -0.97007691832E+01  0.20593099860E+02  0.51100000000E-03 0. -1.
        -11    1    3    3    0    0 -0.18678796894E+01 -0.11029969519E+01 -0.10639444954E+02  0.10858331639E+02  0.51100000000E-03 0.  1.
        -12    1    3    3    0    0  0.19007804845E+02  0.16173087059E+01 -0.18848837358E+00  0.19077417549E+02  0.00000000000E+00 0.  1.
</event>
<event>
 7    1  0.1023000E-012  0.5052886E+02  0.7816164E-02  0.1300439E+00
        -11   -1    0    0    0    0  0.00000000000E+00  0.00000000000E+00  0.45593999997E+02  0.45594000000E+02  0.51100000000E-03 0.  1.
         11   -1    0    0    0    0 -0.00000000000E+00 -0.00000000000E+00 -0.45593999997E+02  0.45594000000E+02  0.51100000000E-03 0. -1.
    9900012    2    1    2    0    0  0.25594110502E+02 -0.20976419568E+02  0.23624072784E+02  0.50528862218E+02  0.30000007197E+02 0.  0.
        -12    1    1    2    0    0 -0.25594110502E+02  0.20976419568E+02 -0.23624072784E+02  0.40659137782E+02  0.00000000000E+00 0.  1.
         11    1    3    3    0    0  0.14768603855E+02 -0.14226227812E+02  0.22820742807E+02  0.30680344198E+02  0.51100000000E-03 0. -1.
        -11    1    3    3    0    0  0.77548437523E+01  0.27149308076E+01 -0.35957881510E+01  0.89687314377E+01  0.51100000000E-03 0.  1.
        -12    1    3    3    0    0  0.30706628950E+01 -0.94651225642E+01  0.43991181271E+01  0.10879786582E+02  0.00000000000E+00 0.  1.
</event>
<event>
 7    1  0.1023000E-012  0.5052887E+02  0.7816164E-02  0.1300439E+00
        -11   -1    0    0    0    0  0.00000000000E+00  0.00000000000E+00  0.45593999997E+02  0.45594000000E+02  0.51100000000E-03 0. -1.
         11   -1    0    0    0    0 -0.00000000000E+00 -0.00000000000E+00 -0.45593999997E+02  0.45594000000E+02  0.51100000000E-03 0.  1.
    9900012    2    1    2    0    0  0.27352476243E+02  0.26651091950E+02  0.13954429909E+02  0.50528870978E+02  0.30000033824E+02 0.  0.
        -12    1    1    2    0    0 -0.27352476243E+02 -0.26651091950E+02 -0.13954429909E+02  0.40659129022E+02  0.00000000000E+00 0.  1.
         11    1    3    3    0    0  0.26394797707E+02  0.94290971658E+01  0.98986727277E+01  0.29725022143E+02  0.51100000000E-03 0. -1.
        -11    1    3    3    0    0 -0.36950980014E+01  0.48572805351E+01 -0.17856670798E+01  0.63588938203E+01  0.51100000000E-03 0.  1.
        -12    1    3    3    0    0  0.46527765369E+01  0.12364714249E+02  0.58414242613E+01  0.14444955015E+02  0.00000000000E+00 0.  1.
</event>
<event>
 7    1  0.1023000E-012  0.5052885E+02  0.7816164E-02  0.1300439E+00
        -11   -1    0    0    0    0  0.00000000000E+00  0.00000000000E+00  0.45593999997E+02  0.45594000000E+02  0.51100000000E-03 0.  1.
         11   -1    0    0    0    0 -0.00000000000E+00 -0.00000000000E+00 -0.45593999997E+02  0.45594000000E+02  0.51100000000E-03 0. -1.
    9900012    2    1    2    0    0  0.21628925291E+02 -0.25594835969E+01 -0.34333727200E+02  0.50528853563E+02  0.29999980890E+02 0.  0.
        -12    1    1    2    0    0 -0.21628925291E+02  0.25594835969E+01  0.34333727200E+02  0.40659146437E+02  0.00000000000E+00 0.  1.
         11    1    3    3    0    0  0.97969055240E+01 -0.10084184433E+01 -0.29865908033E+02  0.31447873195E+02  0.51100000000E-03 0. -1.
        -11    1    3    3    0    0  0.21823620843E+01 -0.42714482633E+01  0.37732182517E+01  0.61028805304E+01  0.51100000000E-03 0.  1.
         12    1    3    3    0    0  0.96496576829E+01  0.27203831096E+01 -0.82410374190E+01  0.12978099838E+02  0.00000000000E+00 0. -1.
</event>
<event>
 7    1  0.1023000E-012  0.5052886E+02  0.7816164E-02  0.1300439E+00
        -11   -1    0    0    0    0  0.00000000000E+00  0.00000000000E+00  0.45593999997E+02  0.45594000000E+02  0.51100000000E-03 0.  1.
         11   -1    0    0    0    0 -0.00000000000E+00 -0.00000000000E+00 -0.45593999997E+02  0.45594000000E+02  0.51100000000E-03 0. -1.
    9900012    2    1    2    0    0 -0.10274031311E+02  0.12692532501E+02 -0.37235864690E+02  0.50528859332E+02  0.29999998425E+02 0.  0.
        -12    1    1    2    0    0  0.10274031311E+02 -0.12692532501E+02  0.37235864690E+02  0.40659140668E+02  0.00000000000E+00 0.  1.
         11    1    3    3    0    0  0.13847125078E+01  0.24517140194E+01 -0.19115148643E+02  0.19321419158E+02  0.51100000000E-03 0. -1.
        -11    1    3    3    0    0 -0.14744453469E+02  0.14012200480E+02 -0.13006961995E+02  0.24143772095E+02  0.51100000000E-03 0.  1.
        -12    1    3    3    0    0  0.30857096503E+01 -0.37713819982E+01 -0.51137540519E+01  0.70636680787E+01  0.00000000000E+00 0.  1.
</event>
<event>
 7    1  0.1023000E-012  0.5052886E+02  0.7816164E-02  0.1300439E+00
        -11   -1    0    0    0    0  0.00000000000E+00  0.00000000000E+00  0.45593999997E+02  0.45594000000E+02  0.51100000000E-03 0. -1.
         11   -1    0    0    0    0 -0.00000000000E+00 -0.00000000000E+00 -0.45593999997E+02  0.45594000000E+02  0.51100000000E-03 0.  1.
    9900012    2    1    2    0    0  0.73181542583E+01 -0.63597366507E+01  0.39486249761E+02  0.50528861394E+02  0.30000004693E+02 0.  0.
        -12    1    1    2    0    0 -0.73181542583E+01  0.63597366507E+01 -0.39486249761E+02  0.40659138606E+02  0.00000000000E+00 0.  1.
         11    1    3    3    0    0  0.71206681751E+01  0.33828710765E+01  0.34756404431E+01  0.86155562055E+01  0.51100000000E-03 0. -1.
        -11    1    3    3    0    0  0.17994695643E+01 -0.14777544594E+02  0.31955492010E+02  0.35252906048E+02  0.51100000000E-03 0.  1.
        -12    1    3    3    0    0 -0.16019834810E+01  0.50349368671E+01  0.40551173075E+01  0.66603991402E+01  0.00000000000E+00 0.  1.
</event>
<event>
 7    1  0.1023000E-012  0.5052886E+02  0.7816164E-02  0.1300439E+00
        -11   -1    0    0    0    0  0.00000000000E+00  0.00000000000E+00  0.45593999997E+02  0.45594000000E+02  0.51100000000E-03 0. -1.
         11   -1    0    0    0    0 -0.00000000000E+00 -0.00000000000E+00 -0.45593999997E+02  0.45594000000E+02  0.51100000000E-03 0.  1.
    9900012    2    1    2    0    0  0.17599304530E+02 -0.27765812904E+02  0.23926751864E+02  0.50528863992E+02  0.30000012591E+02 0.  0.
        -12    1    1    2    0    0 -0.17599304530E+02  0.27765812904E+02 -0.23926751864E+02  0.40659136008E+02  0.00000000000E+00 0.  1.
         11    1    3    3    0    0  0.11929255508E+01 -0.23335305184E+02  0.34017994744E+01  0.23612110861E+02  0.51100000000E-03 0. -1.
        -11    1    3    3    0    0  0.88291821078E+01 -0.11195699190E+01  0.12876548449E+02  0.15652903683E+02  0.51100000000E-03 0.  1.
         12    1    3    3    0    0  0.75771968709E+01 -0.33109378011E+01  0.76484039406E+01  0.11263849448E+02  0.00000000000E+00 0. -1.
</event>
<event>
 7    1  0.1023000E-012  0.5052885E+02  0.7816164E-02  0.1300439E+00
        -11   -1    0    0    0    0  0.00000000000E+00  0.00000000000E+00  0.45593999997E+02  0.45594000000E+02  0.51100000000E-03 0.  1.
         11   -1    0    0    0    0 -0.00000000000E+00 -0.00000000000E+00 -0.45593999997E+02  0.45594000000E+02  0.51100000000E-03 0. -1.
    9900012    2    1    2    0    0 -0.23867476577E+02 -0.66712494198E+01 -0.32233589696E+02  0.50528852055E+02  0.29999976306E+02 0.  0.
        -12    1    1    2    0    0  0.23867476577E+02  0.66712494198E+01  0.32233589696E+02  0.40659147945E+02  0.00000000000E+00 0.  1.
         11    1    3    3    0    0 -0.19200987042E+02 -0.13542413898E+02 -0.21089532927E+02  0.31572824975E+02  0.51100000000E-03 0. -1.
        -11    1    3    3    0    0 -0.70153340954E+01  0.62482087525E+01 -0.12899799125E+02  0.15958065134E+02  0.51100000000E-03 0.  1.
         12    1    3    3    0    0  0.23488445610E+01  0.62295572566E+00  0.17557423561E+01  0.29979619458E+01  0.00000000000E+00 0. -1.
</event>
<event>
 7    1  0.1023000E-012  0.5052887E+02  0.7816164E-02  0.1300439E+00
        -11   -1    0    0    0    0  0.00000000000E+00  0.00000000000E+00  0.45593999997E+02  0.45594000000E+02  0.51100000000E-03 0. -1.
         11   -1    0    0    0    0 -0.00000000000E+00 -0.00000000000E+00 -0.45593999997E+02  0.45594000000E+02  0.51100000000E-03 0.  1.
    9900012    2    1    2    0    0  0.33667473232E+02  0.22792986967E+02  0.38207158309E+00  0.50528868339E+02  0.30000025803E+02 0.  0.
        -12    1    1    2    0    0 -0.33667473232E+02 -0.22792986967E+02 -0.38207158309E+00  0.40659131661E+02  0.00000000000E+00 0.  1.
         11    1    3    3    0    0  0.30882048465E+02  0.72212933365E+01 -0.23547962177E+01  0.31802406518E+02  0.51100000000E-03 0. -1.
        -11    1    3    3    0    0 -0.13943160009E+01  0.87825802690E+01 -0.24391429790E+01  0.92210222874E+01  0.51100000000E-03 0.  1.
         12    1    3    3    0    0  0.41797407680E+01  0.67891133617E+01  0.51760107798E+01  0.95054395331E+01  0.00000000000E+00 0. -1.
</event>
<event>
 7    1  0.1023000E-012  0.5052886E+02  0.7816164E-02  0.1300439E+00
        -11   -1    0    0    0    0  0.00000000000E+00  0.00000000000E+00  0.45593999997E+02  0.45594000000E+02  0.51100000000E-03 0.  1.
         11   -1    0    0    0    0 -0.00000000000E+00 -0.00000000000E+00 -0.45593999997E+02  0.45594000000E+02  0.51100000000E-03 0. -1.
    9900012    2    1    2    0    0 -0.32601232297E+02 -0.15049545614E+02 -0.19074492868E+02  0.50528862667E+02  0.30000008564E+02 0.  0.
        -12    1    1    2    0    0  0.32601232297E+02  0.15049545614E+02  0.19074492868E+02  0.40659137333E+02  0.00000000000E+00 0.  1.
         11    1    3    3    0    0 -0.31260729773E+02 -0.22562117500E+02 -0.13907879745E+02  0.40984283467E+02  0.51100000000E-03 0. -1.
        -11    1    3    3    0    0  0.18121344875E+00  0.48137806789E+01 -0.38976886748E+01  0.61965554953E+01  0.51100000000E-03 0.  1.
         12    1    3    3    0    0 -0.15217159727E+01  0.26987912067E+01 -0.12689244478E+01  0.33480237056E+01  0.00000000000E+00 0. -1.
</event>
<event>
 7    1  0.1023000E-012  0.5052882E+02  0.7816164E-02  0.1300439E+00
        -11   -1    0    0    0    0  0.00000000000E+00  0.00000000000E+00  0.45593999997E+02  0.45594000000E+02  0.51100000000E-03 0.  1.
         11   -1    0    0    0    0 -0.00000000000E+00 -0.00000000000E+00 -0.45593999997E+02  0.45594000000E+02  0.51100000000E-03 0. -1.
    9900012    2    1    2    0    0 -0.28881910881E+02  0.26456026457E+02 -0.10912521082E+02  0.50528816187E+02  0.29999867281E+02 0.  0.
        -12    1    1    2    0    0  0.28881910881E+02 -0.26456026457E+02  0.10912521082E+02  0.40659183813E+02  0.00000000000E+00 0.  1.
         11    1    3    3    0    0 -0.10449230596E+02  0.21244222708E+01  0.59560343507E+01  0.12213678213E+02  0.51100000000E-03 0.  1.
        -11    1    3    3    0    0 -0.16922460608E+02  0.13778533635E+02 -0.16985904310E+02  0.27653907638E+02  0.51100000000E-03 0. -1.
         12    1    3    3    0    0 -0.15102196768E+01  0.10553070551E+02  0.11734887715E+00  0.10661230336E+02  0.00000000000E+00 0. -1.
</event>
<event>
 7    1  0.1023000E-012  0.5052886E+02  0.7816164E-02  0.1300439E+00
        -11   -1    0    0    0    0  0.00000000000E+00  0.00000000000E+00  0.45593999997E+02  0.45594000000E+02  0.51100000000E-03 0. -1.
         11   -1    0    0    0    0 -0.00000000000E+00 -0.00000000000E+00 -0.45593999997E+02  0.45594000000E+02  0.51100000000E-03 0.  1.
    9900012    2    1    2    0    0 -0.34946335823E+02  0.19961891129E+02 -0.57828915830E+01  0.50528864250E+02  0.30000013374E+02 0.  0.
        -12    1    1    2    0    0  0.34946335823E+02 -0.19961891129E+02  0.57828915830E+01  0.40659135750E+02  0.00000000000E+00 0.  1.
         11    1    3    3    0    0 -0.22327732353E+02  0.16405674037E+02  0.16541460304E-01  0.27706931380E+02  0.51100000000E-03 0. -1.
        -11    1    3    3    0    0 -0.10363894062E+01 -0.49726536676E+01 -0.67026797561E+01  0.84099526558E+01  0.51100000000E-03 0.  1.
        -12    1    3    3    0    0 -0.11582214064E+02  0.85288707597E+01  0.90324671281E+00  0.14411980213E+02  0.00000000000E+00 0.  1.
</event>
<event>
 7    1  0.1023000E-012  0.5052884E+02  0.7816164E-02  0.1300439E+00
        -11   -1    0    0    0    0  0.00000000000E+00  0.00000000000E+00  0.45593999997E+02  0.45594000000E+02  0.51100000000E-03 0.  1.
         11   -1    0    0    0    0 -0.00000000000E+00 -0.00000000000E+00 -0.45593999997E+02  0.45594000000E+02  0.51100000000E-03 0. -1.
    9900012    2    1    2    0    0  0.12936818890E+02 -0.32549457237E+02 -0.20647981750E+02  0.50528836214E+02  0.29999928156E+02 0.  0.
        -12    1    1    2    0    0 -0.12936818890E+02  0.32549457237E+02  0.20647981750E+02  0.40659163786E+02  0.00000000000E+00 0.  1.
         11    1    3    3    0    0  0.67053394506E+01 -0.59388753919E+01  0.18720547296E+00  0.89591776531E+01  0.51100000000E-03 0. -1.
        -11    1    3    3    0    0  0.99045346034E+01 -0.21151433648E+02 -0.24655349547E+02  0.33961289914E+02  0.51100000000E-03 0.  1.
        -12    1    3    3    0    0 -0.36730551645E+01 -0.54591481976E+01  0.38201623245E+01  0.76083686471E+01  0.00000000000E+00 0.  1.
</event>
<event>
 7    1  0.1023000E-012  0.5052885E+02  0.7816164E-02  0.1300439E+00
        -11   -1    0    0    0    0  0.00000000000E+00  0.00000000000E+00  0.45593999997E+02  0.45594000000E+02  0.51100000000E-03 0.  1.
         11   -1    0    0    0    0 -0.00000000000E+00 -0.00000000000E+00 -0.45593999997E+02  0.45594000000E+02  0.51100000000E-03 0. -1.
    9900012    2    1    2    0    0 -0.34737011468E+02  0.16051444657E+02 -0.13742537038E+02  0.50528853851E+02  0.29999981766E+02 0.  0.
        -12    1    1    2    0    0  0.34737011468E+02 -0.16051444657E+02  0.13742537038E+02  0.40659146149E+02  0.00000000000E+00 0.  1.
         11    1    3    3    0    0 -0.96640349185E+01  0.42431435733E+01 -0.12667939870E+02  0.16488618472E+02  0.51100000000E-03 0. -1.
        -11    1    3    3    0    0 -0.25005384930E+02  0.16069723965E+02 -0.14687960024E+01  0.29760085111E+02  0.51100000000E-03 0.  1.
        -12    1    3    3    0    0 -0.67591619127E-01 -0.42614228816E+01  0.39419883441E+00  0.42801502688E+01  0.00000000000E+00 0.  1.
</event>
<event>
 7    1  0.1023000E-012  0.5052887E+02  0.7816164E-02  0.1300439E+00
        -11   -1    0    0    0    0  0.00000000000E+00  0.00000000000E+00  0.45593999997E+02  0.45594000000E+02  0.51100000000E-03 0.  1.
         11   -1    0    0    0    0 -0.00000000000E+00 -0.00000000000E+00 -0.45593999997E+02  0.45594000000E+02  0.51100000000E-03 0. -1.
    9900012    2    1    2    0    0 -0.29444829229E+02  0.47399525923E+00 -0.28034665190E+02  0.50528867051E+02  0.30000021890E+02 0.  0.
        -12    1    1    2    0    0  0.29444829229E+02 -0.47399525923E+00  0.28034665190E+02  0.40659132949E+02  0.00000000000E+00 0.  1.
         11    1    3    3    0    0 -0.16625830982E+02  0.86637583184E+01 -0.22166154415E+02  0.29031316984E+02  0.51100000000E-03 0. -1.
        -11    1    3    3    0    0 -0.15260180579E+02 -0.87325959796E+01 -0.32560938802E+01  0.17881093128E+02  0.51100000000E-03 0.  1.
        -12    1    3    3    0    0  0.24411823321E+01  0.54283292038E+00 -0.26124168952E+01  0.36164569391E+01  0.00000000000E+00 0.  1.
</event>
<event>
 7    1  0.1023000E-012  0.5052886E+02  0.7816164E-02  0.1300439E+00
        -11   -1    0    0    0    0  0.00000000000E+00  0.00000000000E+00  0.45593999997E+02  0.45594000000E+02  0.51100000000E-03 0. -1.
         11   -1    0    0    0    0 -0.00000000000E+00 -0.00000000000E+00 -0.45593999997E+02  0.45594000000E+02  0.51100000000E-03 0.  1.
    9900012    2    1    2    0    0  0.33573035937E+02  0.19499548286E+02  0.12074143272E+02  0.50528855135E+02  0.29999985669E+02 0.  0.
        -12    1    1    2    0    0 -0.33573035937E+02 -0.19499548286E+02 -0.12074143272E+02  0.40659144865E+02  0.00000000000E+00 0.  1.
         11    1    3    3    0    0  0.27409273869E+02  0.13606742676E+02 -0.45862858239E+01  0.30942620416E+02  0.51100000000E-03 0. -1.
        -11    1    3    3    0    0  0.41979568881E+01  0.67866570821E+00  0.44011932445E+01  0.61199617167E+01  0.51100000000E-03 0.  1.
         12    1    3    3    0    0  0.19658051795E+01  0.52141399017E+01  0.12259235851E+02  0.13466273002E+02  0.00000000000E+00 0. -1.
</event>
<event>
 7    1  0.1023000E-012  0.5052886E+02  0.7816164E-02  0.1300439E+00
        -11   -1    0    0    0    0  0.00000000000E+00  0.00000000000E+00  0.45593999997E+02  0.45594000000E+02  0.51100000000E-03 0.  1.
         11   -1    0    0    0    0 -0.00000000000E+00 -0.00000000000E+00 -0.45593999997E+02  0.45594000000E+02  0.51100000000E-03 0. -1.
    9900012    2    1    2    0    0 -0.33895232802E+02 -0.22267223792E+02 -0.29068073769E+01  0.50528860914E+02  0.30000003233E+02 0.  0.
        -12    1    1    2    0    0  0.33895232802E+02  0.22267223792E+02  0.29068073769E+01  0.40659139086E+02  0.00000000000E+00 0.  1.
         11    1    3    3    0    0 -0.64106378959E+01 -0.16197058494E+02 -0.57777245371E+01  0.18352740482E+02  0.51100000000E-03 0. -1.
        -11    1    3    3    0    0 -0.23790217604E+02  0.11285788538E+01  0.83052040582E+00  0.23831447885E+02  0.51100000000E-03 0.  1.
        -12    1    3    3    0    0 -0.36943773026E+01 -0.71987441510E+01  0.20403967545E+01  0.83446725472E+01  0.00000000000E+00 0.  1.
</event>
<event>
 7    1  0.1023000E-012  0.5052885E+02  0.7816164E-02  0.1300439E+00
        -11   -1    0    0    0    0  0.00000000000E+00  0.00000000000E+00  0.45593999997E+02  0.45594000000E+02  0.51100000000E-03 0. -1.
         11   -1    0    0    0    0 -0.00000000000E+00 -0.00000000000E+00 -0.45593999997E+02  0.45594000000E+02  0.51100000000E-03 0.  1.
    9900012    2    1    2    0    0 -0.32145355747E+02 -0.24266223639E+02 -0.55671134476E+01  0.50528852716E+02  0.29999978315E+02 0.  0.
        -12    1    1    2    0    0  0.32145355747E+02  0.24266223639E+02  0.55671134476E+01  0.40659147284E+02  0.00000000000E+00 0.  1.
         11    1    3    3    0    0 -0.12609822093E+02 -0.62689465346E+01  0.34115868054E+01  0.14489521340E+02  0.51100000000E-03 0. -1.
        -11    1    3    3    0    0 -0.96130457196E+01 -0.21493077308E+02 -0.97652883490E+01  0.25489681775E+02  0.51100000000E-03 0.  1.
        -12    1    3    3    0    0 -0.99224879339E+01  0.34958002042E+01  0.78658809594E+00  0.10549649601E+02  0.00000000000E+00 0.  1.
</event>
<event>
 7    1  0.1023000E-012  0.5052885E+02  0.7816164E-02  0.1300439E+00
        -11   -1    0    0    0    0  0.00000000000E+00  0.00000000000E+00  0.45593999997E+02  0.45594000000E+02  0.51100000000E-03 0. -1.
         11   -1    0    0    0    0 -0.00000000000E+00 -0.00000000000E+00 -0.45593999997E+02  0.45594000000E+02  0.51100000000E-03 0.  1.
    9900012    2    1    2    0    0 -0.54444289758E+01 -0.80218906766E+01  0.39486379504E+02  0.50528847239E+02  0.29999961669E+02 0.  0.
        -12    1    1    2    0    0  0.54444289758E+01  0.80218906766E+01 -0.39486379504E+02  0.40659152761E+02  0.00000000000E+00 0.  1.
         11    1    3    3    0    0 -0.59421185159E+01  0.62353081742E+01  0.10890289320E+02  0.13884748547E+02  0.51100000000E-03 0. -1.
        -11    1    3    3    0    0 -0.22749728049E+01 -0.15400894812E+02  0.11675416651E+02  0.19459661264E+02  0.51100000000E-03 0.  1.
         12    1    3    3    0    0  0.27726623450E+01  0.11436959609E+01  0.16920673533E+02  0.17184437428E+02  0.00000000000E+00 0. -1.
</event>
<event>
 7    1  0.1023000E-012  0.5052887E+02  0.7816164E-02  0.1300439E+00
        -11   -1    0    0    0    0  0.00000000000E+00  0.00000000000E+00  0.45593999997E+02  0.45594000000E+02  0.51100000000E-03 0.  1.
         11   -1    0    0    0    0 -0.00000000000E+00 -0.00000000000E+00 -0.45593999997E+02  0.45594000000E+02  0.51100000000E-03 0. -1.
    9900012    2    1    2    0    0  0.20387735819E+01  0.26605401366E+02 -0.30678344939E+02  0.50528870302E+02  0.30000031771E+02 0.  0.
        -12    1    1    2    0    0 -0.20387735819E+01 -0.26605401366E+02  0.30678344939E+02  0.40659129698E+02  0.00000000000E+00 0.  1.
         11    1    3    3    0    0 -0.98290928908E+01  0.10313054179E+02 -0.26138225196E+02  0.29768724699E+02  0.51100000000E-03 0. -1.
        -11    1    3    3    0    0  0.48178463005E+01  0.64913061456E+01 -0.81268386089E+00  0.81246017607E+01  0.51100000000E-03 0.  1.
         12    1    3    3    0    0  0.70500201723E+01  0.98010410421E+01 -0.37274358817E+01  0.12635543842E+02  0.00000000000E+00 0. -1.
</event>
<event>
 7    1  0.1023000E-012  0.5052885E+02  0.7816164E-02  0.1300439E+00
        -11   -1    0    0    0    0  0.00000000000E+00  0.00000000000E+00  0.45593999997E+02  0.45594000000E+02  0.51100000000E-03 0. -1.
         11   -1    0    0    0    0 -0.00000000000E+00 -0.00000000000E+00 -0.45593999997E+02  0.45594000000E+02  0.51100000000E-03 0.  1.
    9900012    2    1    2    0    0 -0.24793171059E+02 -0.27894478804E+02 -0.16135763153E+02  0.50528854271E+02  0.29999983041E+02 0.  0.
        -12    1    1    2    0    0  0.24793171059E+02  0.27894478804E+02  0.16135763153E+02  0.40659145729E+02  0.00000000000E+00 0.  1.
         11    1    3    3    0    0 -0.22601291171E+02 -0.20719354738E+02 -0.99360534923E+01  0.32230966206E+02  0.51100000000E-03 0. -1.
        -11    1    3    3    0    0  0.48398866918E+01 -0.17199811342E+01 -0.77166840678E+01  0.92698463609E+01  0.51100000000E-03 0.  1.
        -12    1    3    3    0    0 -0.70317665801E+01 -0.54551429322E+01  0.15169744066E+01  0.90280417034E+01  0.00000000000E+00 0.  1.
</event>
<event>
 7    1  0.1023000E-012  0.5052887E+02  0.7816164E-02  0.1300439E+00
        -11   -1    0    0    0    0  0.00000000000E+00  0.00000000000E+00  0.45593999997E+02  0.45594000000E+02  0.51100000000E-03 0.  1.
         11   -1    0    0    0    0 -0.00000000000E+00 -0.00000000000E+00 -0.45593999997E+02  0.45594000000E+02  0.51100000000E-03 0. -1.
    9900012    2    1    2    0    0  0.56169927484E+01  0.85199618641E+01 -0.39357647283E+02  0.50528871169E+02  0.30000034404E+02 0.  0.
        -12    1    1    2    0    0 -0.56169927484E+01 -0.85199618641E+01  0.39357647283E+02  0.40659128831E+02  0.00000000000E+00 0.  1.
         11    1    3    3    0    0 -0.17412915235E+01 -0.22349382919E+01 -0.17110355850E+02  0.17343336556E+02  0.51100000000E-03 0.  1.
        -11    1    3    3    0    0  0.10947510892E+02  0.11112293014E+02 -0.24418311778E+02  0.28975593197E+02  0.51100000000E-03 0. -1.
        -12    1    3    3    0    0 -0.35892266201E+01 -0.35739285815E+00  0.21710203450E+01  0.42099414157E+01  0.00000000000E+00 0.  1.
</event>
<event>
 7    1  0.1053755E-012  0.5052887E+02  0.7816164E-02  0.1300439E+00
        -11   -1    0    0    0    0  0.00000000000E+00  0.00000000000E+00  0.45593999997E+02  0.45594000000E+02  0.51100000000E-03 0.  1.
         11   -1    0    0    0    0 -0.00000000000E+00 -0.00000000000E+00 -0.45593999997E+02  0.45594000000E+02  0.51100000000E-03 0. -1.
    9900012    2    1    2    0    0  0.35453846776E+02  0.16921900673E+02  0.10480404921E+02  0.50528869895E+02  0.30000030532E+02 0.  0.
        -12    1    1    2    0    0 -0.35453846776E+02 -0.16921900673E+02 -0.10480404921E+02  0.40659130105E+02  0.00000000000E+00 0.  1.
         11    1    3    3    0    0  0.21185302557E+02 -0.40376362060E+01  0.36612336182E+01  0.21875195597E+02  0.51100000000E-03 0. -1.
        -11    1    3    3    0    0 -0.11127382700E+01  0.64871372174E+01  0.28117597695E+01  0.71573129733E+01  0.51100000000E-03 0.  1.
        -12    1    3    3    0    0  0.15381282490E+02  0.14472399661E+02  0.40074115332E+01  0.21496361324E+02  0.00000000000E+00 0.  1.
</event>
<event>
 7    1  0.1023000E-012  0.5052886E+02  0.7816164E-02  0.1300439E+00
        -11   -1    0    0    0    0  0.00000000000E+00  0.00000000000E+00  0.45593999997E+02  0.45594000000E+02  0.51100000000E-03 0.  1.
         11   -1    0    0    0    0 -0.00000000000E+00 -0.00000000000E+00 -0.45593999997E+02  0.45594000000E+02  0.51100000000E-03 0. -1.
    9900012    2    1    2    0    0 -0.11861877629E+02  0.38790809695E+02 -0.27811515760E+01  0.50528857587E+02  0.29999993122E+02 0.  0.
        -12    1    1    2    0    0  0.11861877629E+02 -0.38790809695E+02  0.27811515760E+01  0.40659142413E+02  0.00000000000E+00 0.  1.
         11    1    3    3    0    0 -0.60062154583E+01  0.91177275062E+01  0.69901840951E+01  0.12964191180E+02  0.51100000000E-03 0. -1.
        -11    1    3    3    0    0  0.50109267256E+01  0.16621289411E+02 -0.10975569352E+02  0.20538738305E+02  0.51100000000E-03 0.  1.
         12    1    3    3    0    0 -0.10866588897E+02  0.13051792778E+02  0.12042336808E+01  0.17025928102E+02  0.00000000000E+00 0. -1.
</event>
<event>
 7    1  0.1023000E-012  0.5052887E+02  0.7816164E-02  0.1300439E+00
        -11   -1    0    0    0    0  0.00000000000E+00  0.00000000000E+00  0.45593999997E+02  0.45594000000E+02  0.51100000000E-03 0.  1.
         11   -1    0    0    0    0 -0.00000000000E+00 -0.00000000000E+00 -0.45593999997E+02  0.45594000000E+02  0.51100000000E-03 0. -1.
    9900012    2    1    2    0    0 -0.21095718489E+01  0.40334199369E+02 -0.46761900729E+01  0.50528872050E+02  0.30000037082E+02 0.  0.
        -12    1    1    2    0    0  0.21095718489E+01 -0.40334199369E+02  0.46761900729E+01  0.40659127950E+02  0.00000000000E+00 0.  1.
         11    1    3    3    0    0 -0.24193100627E+01 -0.21163413490E+01 -0.46173239507E+01  0.56259792580E+01  0.51100000000E-03 0. -1.
        -11    1    3    3    0    0 -0.49730226360E+01  0.36227579799E+02 -0.15713516888E+01  0.36601060622E+02  0.51100000000E-03 0.  1.
        -12    1    3    3    0    0  0.52827608497E+01  0.62229609180E+01  0.15124855666E+01  0.83018321696E+01  0.00000000000E+00 0.  1.
</event>
<event>
 7    1  0.1023000E-012  0.5052886E+02  0.7816164E-02  0.1300439E+00
        -11   -1    0    0    0    0  0.00000000000E+00  0.00000000000E+00  0.45593999997E+02  0.45594000000E+02  0.51100000000E-03 0.  1.
         11   -1    0    0    0    0 -0.00000000000E+00 -0.00000000000E+00 -0.45593999997E+02  0.45594000000E+02  0.51100000000E-03 0. -1.
    9900012    2    1    2    0    0 -0.23115303659E+02 -0.20596542651E+02 -0.26355843993E+02  0.50528863942E+02  0.30000012438E+02 0.  0.
        -12    1    1    2    0    0  0.23115303659E+02  0.20596542651E+02  0.26355843993E+02  0.40659136058E+02  0.00000000000E+00 0.  1.
         11    1    3    3    0    0 -0.22588639283E+02 -0.15161375775E+02 -0.11900955423E+02  0.29694219644E+02  0.51100000000E-03 0. -1.
        -11    1    3    3    0    0  0.36438028579E+01 -0.64321459939E+01 -0.14788933554E+02  0.16533673436E+02  0.51100000000E-03 0.  1.
         12    1    3    3    0    0 -0.41704672331E+01  0.99697911775E+00  0.33404498371E+00  0.43009708619E+01  0.00000000000E+00 0. -1.
</event>
<event>
 7    1  0.1023000E-012  0.5052885E+02  0.7816164E-02  0.1300439E+00
        -11   -1    0    0    0    0  0.00000000000E+00  0.00000000000E+00  0.45593999997E+02  0.45594000000E+02  0.51100000000E-03 0. -1.
         11   -1    0    0    0    0 -0.00000000000E+00 -0.00000000000E+00 -0.45593999997E+02  0.45594000000E+02  0.51100000000E-03 0.  1.
    9900012    2    1    2    0    0  0.44723802025E+01  0.11505770308E+02  0.38739919972E+02  0.50528851774E+02  0.29999975451E+02 0.  0.
        -12    1    1    2    0    0 -0.44723802025E+01 -0.11505770308E+02 -0.38739919972E+02  0.40659148226E+02  0.00000000000E+00 0.  1.
         11    1    3    3    0    0 -0.75711254924E+01  0.97630714528E+01  0.17192899767E+02  0.21171568390E+02  0.51100000000E-03 0. -1.
        -11    1    3    3    0    0 -0.24057036410E+00 -0.32085211698E+01 -0.85840235298E+00  0.33300656236E+01  0.51100000000E-03 0.  1.
         12    1    3    3    0    0  0.12284076059E+02  0.49512200252E+01  0.22405422558E+02  0.26027217760E+02  0.00000000000E+00 0. -1.
</event>
<event>
 7    1  0.1023000E-012  0.5052887E+02  0.7816164E-02  0.1300439E+00
        -11   -1    0    0    0    0  0.00000000000E+00  0.00000000000E+00  0.45593999997E+02  0.45594000000E+02  0.51100000000E-03 0. -1.
         11   -1    0    0    0    0 -0.00000000000E+00 -0.00000000000E+00 -0.45593999997E+02  0.45594000000E+02  0.51100000000E-03 0.  1.
    9900012    2    1    2    0    0  0.16757590404E+02 -0.27840122458E+02  0.24439217442E+02  0.50528873056E+02  0.30000040142E+02 0.  0.
        -12    1    1    2    0    0 -0.16757590404E+02  0.27840122458E+02 -0.24439217442E+02  0.40659126944E+02  0.00000000000E+00 0.  1.
         11    1    3    3    0    0 -0.56277907448E+01 -0.13075142869E+02  0.45188475645E+00  0.14242036013E+02  0.51100000000E-03 0. -1.
        -11    1    3    3    0    0  0.42598926936E+01 -0.48022422429E+01  0.72196186978E+01  0.96608027991E+01  0.51100000000E-03 0.  1.
         12    1    3    3    0    0  0.18125488456E+02 -0.99627373465E+01  0.16767713988E+02  0.26626034244E+02  0.00000000000E+00 0. -1.
</event>
<event>
 7    1  0.1023000E-012  0.5052886E+02  0.7816164E-02  0.1300439E+00
        -11   -1    0    0    0    0  0.00000000000E+00  0.00000000000E+00  0.45593999997E+02  0.45594000000E+02  0.51100000000E-03 0. -1.
         11   -1    0    0    0    0 -0.00000000000E+00 -0.00000000000E+00 -0.45593999997E+02  0.45594000000E+02  0.51100000000E-03 0.  1.
    9900012    2    1    2    0    0  0.33213491850E+02  0.38658478848E+01  0.23131901416E+02  0.50528859775E+02  0.29999999772E+02 0.  0.
        -12    1    1    2    0    0 -0.33213491850E+02 -0.38658478848E+01 -0.23131901416E+02  0.40659140225E+02  0.00000000000E+00 0.  1.
         11    1    3    3    0    0  0.12325056118E+02 -0.10762012121E+02  0.14543066112E+02  0.21891292456E+02  0.51100000000E-03 0. -1.
        -11    1    3    3    0    0  0.64097169827E+01  0.84088096720E+01 -0.23809285342E+00  0.10575880123E+02  0.51100000000E-03 0.  1.
         12    1    3    3    0    0  0.14478718749E+02  0.62190503343E+01  0.88269281577E+01  0.18061687197E+02  0.00000000000E+00 0. -1.
</event>
<event>
 7    1  0.1023000E-012  0.5052887E+02  0.7816164E-02  0.1300439E+00
        -11   -1    0    0    0    0  0.00000000000E+00  0.00000000000E+00  0.45593999997E+02  0.45594000000E+02  0.51100000000E-03 0.  1.
         11   -1    0    0    0    0 -0.00000000000E+00 -0.00000000000E+00 -0.45593999997E+02  0.45594000000E+02  0.51100000000E-03 0. -1.
    9900012    2    1    2    0    0 -0.19750878316E+02  0.43247357271E+01 -0.35275552049E+02  0.50528866884E+02  0.30000021380E+02 0.  0.
        -12    1    1    2    0    0  0.19750878316E+02 -0.43247357271E+01  0.35275552049E+02  0.40659133116E+02  0.00000000000E+00 0.  1.
         11    1    3    3    0    0 -0.16903560030E+01  0.26602254188E+01 -0.17297012470E+02  0.17581829920E+02  0.51100000000E-03 0. -1.
        -11    1    3    3    0    0  0.30009614530E+01 -0.60589721012E+00  0.21376792635E+01  0.37339729466E+01  0.51100000000E-03 0.  1.
        -12    1    3    3    0    0 -0.21061483766E+02  0.22704075184E+01 -0.20116218842E+02  0.29213064017E+02  0.00000000000E+00 0.  1.
</event>
<event>
 7    1  0.1023000E-012  0.5052885E+02  0.7816164E-02  0.1300439E+00
        -11   -1    0    0    0    0  0.00000000000E+00  0.00000000000E+00  0.45593999997E+02  0.45594000000E+02  0.51100000000E-03 0.  1.
         11   -1    0    0    0    0 -0.00000000000E+00 -0.00000000000E+00 -0.45593999997E+02  0.45594000000E+02  0.51100000000E-03 0. -1.
    9900012    2    1    2    0    0  0.93679327572E+01  0.38003827245E+02 -0.11005328499E+02  0.50528852139E+02  0.29999976563E+02 0.  0.
        -12    1    1    2    0    0 -0.93679327572E+01 -0.38003827245E+02  0.11005328499E+02  0.40659147861E+02  0.00000000000E+00 0.  1.
         11    1    3    3    0    0  0.34107331481E+01  0.94248188218E+01 -0.87679840481E+01  0.13316826009E+02  0.51100000000E-03 0. -1.
        -11    1    3    3    0    0  0.84823953489E+01  0.48749115669E+01  0.65855533932E+01  0.11793443407E+02  0.51100000000E-03 0.  1.
        -12    1    3    3    0    0 -0.25251957398E+01  0.23704096856E+02 -0.88228978443E+01  0.25418582723E+02  0.00000000000E+00 0.  1.
</event>
<event>
 7    1  0.1023000E-012  0.5052886E+02  0.7816164E-02  0.1300439E+00
        -11   -1    0    0    0    0  0.00000000000E+00  0.00000000000E+00  0.45593999997E+02  0.45594000000E+02  0.51100000000E-03 0.  1.
         11   -1    0    0    0    0 -0.00000000000E+00 -0.00000000000E+00 -0.45593999997E+02  0.45594000000E+02  0.51100000000E-03 0. -1.
    9900012    2    1    2    0    0  0.23019500028E+01 -0.23578605746E+02 -0.33044152406E+02  0.50528860425E+02  0.30000001747E+02 0.  0.
        -12    1    1    2    0    0 -0.23019500028E+01  0.23578605746E+02  0.33044152406E+02  0.40659139575E+02  0.00000000000E+00 0.  1.
         11    1    3    3    0    0  0.11148443364E+02 -0.23114867750E+02 -0.31417848660E+02  0.40566810513E+02  0.51100000000E-03 0. -1.
        -11    1    3    3    0    0 -0.36340255366E+01 -0.11239351437E+01  0.12094696384E+01  0.39915146092E+01  0.51100000000E-03 0.  1.
         12    1    3    3    0    0 -0.52124678249E+01  0.66019714793E+00 -0.28357733851E+01  0.59705353019E+01  0.00000000000E+00 0. -1.
</event>
<event>
 7    1  0.1023000E-012  0.5052887E+02  0.7816164E-02  0.1300439E+00
        -11   -1    0    0    0    0  0.00000000000E+00  0.00000000000E+00  0.45593999997E+02  0.45594000000E+02  0.51100000000E-03 0.  1.
         11   -1    0    0    0    0 -0.00000000000E+00 -0.00000000000E+00 -0.45593999997E+02  0.45594000000E+02  0.51100000000E-03 0. -1.
    9900012    2    1    2    0    0 -0.20769443332E+02 -0.33945824721E+02  0.83352505724E+01  0.50528865794E+02  0.30000018067E+02 0.  0.
        -12    1    1    2    0    0  0.20769443332E+02  0.33945824721E+02 -0.83352505724E+01  0.40659134206E+02  0.00000000000E+00 0.  1.
         11    1    3    3    0    0 -0.71746926080E+01 -0.13582604504E+02 -0.20713368135E+01  0.15500122438E+02  0.51100000000E-03 0. -1.
        -11    1    3    3    0    0 -0.39009059607E+01 -0.19592563081E+02  0.14285396523E+02  0.24559278277E+02  0.51100000000E-03 0.  1.
        -12    1    3    3    0    0 -0.96938447633E+01 -0.77065713547E+00 -0.38788091375E+01  0.10469465079E+02  0.00000000000E+00 0.  1.
</event>
<event>
 7    1  0.1023000E-012  0.5052887E+02  0.7816164E-02  0.1300439E+00
        -11   -1    0    0    0    0  0.00000000000E+00  0.00000000000E+00  0.45593999997E+02  0.45594000000E+02  0.51100000000E-03 0. -1.
         11   -1    0    0    0    0 -0.00000000000E+00 -0.00000000000E+00 -0.45593999997E+02  0.45594000000E+02  0.51100000000E-03 0.  1.
    9900012    2    1    2    0    0  0.34975908952E+02 -0.20717025268E+02 -0.80984650769E+00  0.50528865794E+02  0.30000018069E+02 0.  0.
        -12    1    1    2    0    0 -0.34975908952E+02  0.20717025268E+02  0.80984650769E+00  0.40659134206E+02  0.00000000000E+00 0.  1.
         11    1    3    3    0    0  0.20483370042E+02 -0.92578044498E+01  0.78215269879E+01  0.23800245297E+02  0.51100000000E-03 0. -1.
        -11    1    3    3    0    0 -0.29360722608E+00 -0.10451504742E+02 -0.41019794498E+01  0.11231491097E+02  0.51100000000E-03 0.  1.
        -12    1    3    3    0    0  0.14786146136E+02 -0.10077160758E+01 -0.45293940458E+01  0.15497129401E+02  0.00000000000E+00 0.  1.
</event>
<event>
 7    1  0.1023000E-012  0.5052885E+02  0.7816164E-02  0.1300439E+00
        -11   -1    0    0    0    0  0.00000000000E+00  0.00000000000E+00  0.45593999997E+02  0.45594000000E+02  0.51100000000E-03 0. -1.
         11   -1    0    0    0    0 -0.00000000000E+00 -0.00000000000E+00 -0.45593999997E+02  0.45594000000E+02  0.51100000000E-03 0.  1.
    9900012    2    1    2    0    0  0.26720718927E+02  0.97464100780E+01 -0.29054719868E+02  0.50528854953E+02  0.29999985114E+02 0.  0.
        -12    1    1    2    0    0 -0.26720718927E+02 -0.97464100780E+01  0.29054719868E+02  0.40659145047E+02  0.00000000000E+00 0.  1.
         11    1    3    3    0    0  0.39915487698E+01  0.83807980441E+01  0.11728034903E+01  0.93565862218E+01  0.51100000000E-03 0. -1.
        -11    1    3    3    0    0  0.24023022945E+02  0.40962661434E+01 -0.29077268569E+02  0.37939063977E+02  0.51100000000E-03 0.  1.
         12    1    3    3    0    0 -0.12938527881E+01 -0.27306541095E+01 -0.11502547893E+01  0.32332047543E+01  0.00000000000E+00 0. -1.
</event>
<event>
 7    1  0.1023000E-012  0.5052881E+02  0.7816164E-02  0.1300439E+00
        -11   -1    0    0    0    0  0.00000000000E+00  0.00000000000E+00  0.45593999997E+02  0.45594000000E+02  0.51100000000E-03 0.  1.
         11   -1    0    0    0    0 -0.00000000000E+00 -0.00000000000E+00 -0.45593999997E+02  0.45594000000E+02  0.51100000000E-03 0. -1.
    9900012    2    1    2    0    0 -0.35159985823E+02 -0.18446169580E+02 -0.87569449681E+01  0.50528808414E+02  0.29999843656E+02 0.  0.
        -12    1    1    2    0    0  0.35159985823E+02  0.18446169580E+02  0.87569449681E+01  0.40659191586E+02  0.00000000000E+00 0.  1.
         11    1    3    3    0    0 -0.22639495017E+02 -0.13215953736E+02  0.70026120124E+01  0.27133830231E+02  0.51100000000E-03 0. -1.
        -11    1    3    3    0    0 -0.82224165148E+01 -0.85480712930E+01 -0.10786847821E+02  0.16032271902E+02  0.51100000000E-03 0.  1.
         12    1    3    3    0    0 -0.42980742912E+01  0.33178554489E+01 -0.49727091595E+01  0.73627062809E+01  0.00000000000E+00 0. -1.
</event>
<event>
 7    1  0.1023000E-012  0.5052887E+02  0.7816164E-02  0.1300439E+00
        -11   -1    0    0    0    0  0.00000000000E+00  0.00000000000E+00  0.45593999997E+02  0.45594000000E+02  0.51100000000E-03 0. -1.
         11   -1    0    0    0    0 -0.00000000000E+00 -0.00000000000E+00 -0.45593999997E+02  0.45594000000E+02  0.51100000000E-03 0.  1.
    9900012    2    1    2    0    0  0.25207695973E+02 -0.31587174926E+02  0.44707138898E+01  0.50528870167E+02  0.30000031360E+02 0.  0.
        -12    1    1    2    0    0 -0.25207695973E+02  0.31587174926E+02 -0.44707138898E+01  0.40659129833E+02  0.00000000000E+00 0.  1.
         11    1    3    3    0    0  0.14868204619E+02 -0.26254645230E+01  0.50990888621E+00  0.15106838845E+02  0.51100000000E-03 0. -1.
        -11    1    3    3    0    0  0.99723860921E+01 -0.30796962029E+02  0.56974057707E+01  0.32868857409E+02  0.51100000000E-03 0.  1.
        -12    1    3    3    0    0  0.36710526126E+00  0.18352516263E+01 -0.17366007671E+01  0.25531739127E+01  0.00000000000E+00 0.  1.
</event>
<event>
 7    1  0.1023000E-012  0.5052885E+02  0.7816164E-02  0.1300439E+00
        -11   -1    0    0    0    0  0.00000000000E+00  0.00000000000E+00  0.45593999997E+02  0.45594000000E+02  0.51100000000E-03 0.  1.
         11   -1    0    0    0    0 -0.00000000000E+00 -0.00000000000E+00 -0.45593999997E+02  0.45594000000E+02  0.51100000000E-03 0. -1.
    9900012    2    1    2    0    0 -0.19504736178E+02  0.27442708010E+02 -0.22795387845E+02  0.50528847731E+02  0.29999963162E+02 0.  0.
        -12    1    1    2    0    0  0.19504736178E+02 -0.27442708010E+02  0.22795387845E+02  0.40659152269E+02  0.00000000000E+00 0.  1.
         11    1    3    3    0    0 -0.72507215983E+01  0.70274477694E+01 -0.83566061819E+01  0.13106900968E+02  0.51100000000E-03 0. -1.
        -11    1    3    3    0    0 -0.63655561876E+01  0.23499748943E+02 -0.34651886795E+01  0.24591991355E+02  0.51100000000E-03 0.  1.
        -12    1    3    3    0    0 -0.58884583918E+01 -0.30844887029E+01 -0.10973592984E+02  0.12829955407E+02  0.00000000000E+00 0.  1.
</event>
<event>
 7    1  0.1023000E-012  0.5052886E+02  0.7816164E-02  0.1300439E+00
        -11   -1    0    0    0    0  0.00000000000E+00  0.00000000000E+00  0.45593999997E+02  0.45594000000E+02  0.51100000000E-03 0.  1.
         11   -1    0    0    0    0 -0.00000000000E+00 -0.00000000000E+00 -0.45593999997E+02  0.45594000000E+02  0.51100000000E-03 0. -1.
    9900012    2    1    2    0    0  0.39171359533E+02  0.27829785796E+01  0.10536836228E+02  0.50528864555E+02  0.30000014300E+02 0.  0.
        -12    1    1    2    0    0 -0.39171359533E+02 -0.27829785796E+01 -0.10536836228E+02  0.40659135445E+02  0.00000000000E+00 0.  1.
         11    1    3    3    0    0  0.18362691016E+02 -0.26255321664E+01 -0.49014717670E+01  0.19186095649E+02  0.51100000000E-03 0. -1.
        -11    1    3    3    0    0  0.55312756823E+01 -0.25420429145E+01  0.12456202082E+02  0.13864125050E+02  0.51100000000E-03 0.  1.
        -12    1    3    3    0    0  0.15277392835E+02  0.79505536604E+01  0.29821059129E+01  0.17478643856E+02  0.00000000000E+00 0.  1.
</event>
<event>
 7    1  0.1023000E-012  0.5052886E+02  0.7816164E-02  0.1300439E+00
        -11   -1    0    0    0    0  0.00000000000E+00  0.00000000000E+00  0.45593999997E+02  0.45594000000E+02  0.51100000000E-03 0.  1.
         11   -1    0    0    0    0 -0.00000000000E+00 -0.00000000000E+00 -0.45593999997E+02  0.45594000000E+02  0.51100000000E-03 0. -1.
    9900012    2    1    2    0    0 -0.28539325876E+02  0.11629089010E+02 -0.26522387386E+02  0.50528857544E+02  0.29999992990E+02 0.  0.
        -12    1    1    2    0    0  0.28539325876E+02 -0.11629089010E+02  0.26522387386E+02  0.40659142456E+02  0.00000000000E+00 0.  1.
         11    1    3    3    0    0 -0.21199098180E+02 -0.38006374774E+01 -0.92743844780E+01  0.23449111211E+02  0.51100000000E-03 0. -1.
        -11    1    3    3    0    0 -0.92786004115E+01  0.10597933099E+02 -0.16696535058E+02  0.21844516355E+02  0.51100000000E-03 0.  1.
        -12    1    3    3    0    0  0.19383727154E+01  0.48317933889E+01 -0.55146784936E+00  0.52352299783E+01  0.00000000000E+00 0.  1.
</event>
<event>
 7    1  0.1023000E-012  0.5052886E+02  0.7816164E-02  0.1300439E+00
        -11   -1    0    0    0    0  0.00000000000E+00  0.00000000000E+00  0.45593999997E+02  0.45594000000E+02  0.51100000000E-03 0.  1.
         11   -1    0    0    0    0 -0.00000000000E+00 -0.00000000000E+00 -0.45593999997E+02  0.45594000000E+02  0.51100000000E-03 0. -1.
    9900012    2    1    2    0    0  0.16769156974E+02 -0.22217133727E+02 -0.29637133262E+02  0.50528864193E+02  0.30000013200E+02 0.  0.
        -12    1    1    2    0    0 -0.16769156974E+02  0.22217133727E+02  0.29637133262E+02  0.40659135807E+02  0.00000000000E+00 0.  1.
         11    1    3    3    0    0  0.12641887095E+02 -0.16847470936E+02 -0.28126348935E+02  0.35138954039E+02  0.51100000000E-03 0. -1.
        -11    1    3    3    0    0 -0.92379081278E+00 -0.65221000056E+01  0.40953033922E+01  0.77564610542E+01  0.51100000000E-03 0.  1.
         12    1    3    3    0    0  0.50510606917E+01  0.11524372153E+01 -0.56060877191E+01  0.76334490999E+01  0.00000000000E+00 0. -1.
</event>
<event>
 7    1  0.1023000E-012  0.5052885E+02  0.7816164E-02  0.1300439E+00
        -11   -1    0    0    0    0  0.00000000000E+00  0.00000000000E+00  0.45593999997E+02  0.45594000000E+02  0.51100000000E-03 0. -1.
         11   -1    0    0    0    0 -0.00000000000E+00 -0.00000000000E+00 -0.45593999997E+02  0.45594000000E+02  0.51100000000E-03 0.  1.
    9900012    2    1    2    0    0 -0.22132587521E+02 -0.34072543808E+02 -0.15417147294E+01  0.50528849047E+02  0.29999967163E+02 0.  0.
        -12    1    1    2    0    0  0.22132587521E+02  0.34072543808E+02  0.15417147294E+01  0.40659150953E+02  0.00000000000E+00 0.  1.
         11    1    3    3    0    0 -0.91468838773E+01 -0.12750637249E+02 -0.59362547759E+01  0.16777465719E+02  0.51100000000E-03 0. -1.
        -11    1    3    3    0    0  0.17094812080E+00 -0.69641330681E+01  0.11142773394E+02  0.13141148041E+02  0.51100000000E-03 0.  1.
        -12    1    3    3    0    0 -0.13156651764E+02 -0.14357773491E+02 -0.67482333479E+01  0.20610235287E+02  0.00000000000E+00 0.  1.
</event>
<event>
 7    1  0.1023000E-012  0.5052885E+02  0.7816164E-02  0.1300439E+00
        -11   -1    0    0    0    0  0.00000000000E+00  0.00000000000E+00  0.45593999997E+02  0.45594000000E+02  0.51100000000E-03 0.  1.
         11   -1    0    0    0    0 -0.00000000000E+00 -0.00000000000E+00 -0.45593999997E+02  0.45594000000E+02  0.51100000000E-03 0. -1.
    9900012    2    1    2    0    0  0.37422092828E+01  0.35208359255E+02  0.19988333335E+02  0.50528853904E+02  0.29999981928E+02 0.  0.
        -12    1    1    2    0    0 -0.37422092828E+01 -0.35208359255E+02 -0.19988333335E+02  0.40659146096E+02  0.00000000000E+00 0.  1.
         11    1    3    3    0    0 -0.60003805768E+00  0.33253432706E+02  0.12664357650E+02  0.35588436146E+02  0.51100000000E-03 0. -1.
        -11    1    3    3    0    0  0.50796977874E+01 -0.34801470678E+01  0.48909742614E+00  0.61768899762E+01  0.51100000000E-03 0.  1.
         12    1    3    3    0    0 -0.73745044699E+00  0.54350736166E+01  0.68348782581E+01  0.87635277818E+01  0.00000000000E+00 0. -1.
</event>
<event>
 7    1  0.1023000E-012  0.5052886E+02  0.7816164E-02  0.1300439E+00
        -11   -1    0    0    0    0  0.00000000000E+00  0.00000000000E+00  0.45593999997E+02  0.45594000000E+02  0.51100000000E-03 0.  1.
         11   -1    0    0    0    0 -0.00000000000E+00 -0.00000000000E+00 -0.45593999997E+02  0.45594000000E+02  0.51100000000E-03 0. -1.
    9900012    2    1    2    0    0 -0.22172811678E+02  0.29992398125E+02 -0.16186045496E+02  0.50528860907E+02  0.30000003212E+02 0.  0.
        -12    1    1    2    0    0  0.22172811678E+02 -0.29992398125E+02  0.16186045496E+02  0.40659139093E+02  0.00000000000E+00 0.  1.
         11    1    3    3    0    0 -0.14024324537E+02  0.43108283436E+01 -0.97520167247E+01  0.17617228788E+02  0.51100000000E-03 0. -1.
        -11    1    3    3    0    0  0.15918433293E+01  0.14638162793E+02  0.35178750959E+01  0.15138864574E+02  0.51100000000E-03 0.  1.
         12    1    3    3    0    0 -0.97403304709E+01  0.11043406988E+02 -0.99519038677E+01  0.17772767544E+02  0.00000000000E+00 0. -1.
</event>
<event>
 7    1  0.1023000E-012  0.5052886E+02  0.7816164E-02  0.1300439E+00
        -11   -1    0    0    0    0  0.00000000000E+00  0.00000000000E+00  0.45593999997E+02  0.45594000000E+02  0.51100000000E-03 0.  1.
         11   -1    0    0    0    0 -0.00000000000E+00 -0.00000000000E+00 -0.45593999997E+02  0.45594000000E+02  0.51100000000E-03 0. -1.
    9900012    2    1    2    0    0  0.24870134040E+02  0.31575130076E+02 -0.61362282703E+01  0.50528859529E+02  0.29999999023E+02 0.  0.
        -12    1    1    2    0    0 -0.24870134040E+02 -0.31575130076E+02  0.61362282703E+01  0.40659140471E+02  0.00000000000E+00 0.  1.
         11    1    3    3    0    0  0.62422512634E+01  0.21672512302E+01 -0.96068240545E+01  0.11659920557E+02  0.51100000000E-03 0. -1.
        -11    1    3    3    0    0  0.12788293937E+02  0.14892608110E+02  0.98620245545E+01  0.21967925863E+02  0.51100000000E-03 0.  1.
        -12    1    3    3    0    0  0.58395888388E+01  0.14515270737E+02 -0.63914287703E+01  0.16901013108E+02  0.00000000000E+00 0.  1.
</event>
<event>
 7    1  0.1023000E-012  0.5052886E+02  0.7816164E-02  0.1300439E+00
        -11   -1    0    0    0    0  0.00000000000E+00  0.00000000000E+00  0.45593999997E+02  0.45594000000E+02  0.51100000000E-03 0.  1.
         11   -1    0    0    0    0 -0.00000000000E+00 -0.00000000000E+00 -0.45593999997E+02  0.45594000000E+02  0.51100000000E-03 0. -1.
    9900012    2    1    2    0    0 -0.14589402661E+02  0.30715096686E+02 -0.22291196371E+02  0.50528864863E+02  0.30000015237E+02 0.  0.
        -12    1    1    2    0    0  0.14589402661E+02 -0.30715096686E+02  0.22291196371E+02  0.40659135137E+02  0.00000000000E+00 0.  1.
         11    1    3    3    0    0 -0.67150193476E+01  0.17887171483E+02  0.42892237078E+01  0.19581619667E+02  0.51100000000E-03 0.  1.
        -11    1    3    3    0    0 -0.45027810096E+01  0.80746104878E+01 -0.20687701042E+02  0.22659553085E+02  0.51100000000E-03 0. -1.
        -12    1    3    3    0    0 -0.33716023042E+01  0.47533147151E+01 -0.58927190369E+01  0.82876921109E+01  0.00000000000E+00 0.  1.
</event>
<event>
 7    1  0.1023000E-012  0.5052886E+02  0.7816164E-02  0.1300439E+00
        -11   -1    0    0    0    0  0.00000000000E+00  0.00000000000E+00  0.45593999997E+02  0.45594000000E+02  0.51100000000E-03 0. -1.
         11   -1    0    0    0    0 -0.00000000000E+00 -0.00000000000E+00 -0.45593999997E+02  0.45594000000E+02  0.51100000000E-03 0.  1.
    9900012    2    1    2    0    0 -0.48201149597E+01 -0.14562544658E+02  0.37654541266E+02  0.50528859661E+02  0.29999999425E+02 0.  0.
        -12    1    1    2    0    0  0.48201149597E+01  0.14562544658E+02 -0.37654541266E+02  0.40659140339E+02  0.00000000000E+00 0.  1.
         11    1    3    3    0    0  0.69468091326E+01 -0.29798731009E+01  0.27550073956E+01  0.80453630641E+01  0.51100000000E-03 0.  1.
        -11    1    3    3    0    0 -0.52665529922E+01  0.96153934601E+00  0.24134725921E+02  0.24721369984E+02  0.51100000000E-03 0. -1.
        -12    1    3    3    0    0 -0.65003711001E+01 -0.12544210903E+02  0.10764807950E+02  0.17762126613E+02  0.00000000000E+00 0.  1.
</event>
<event>
 7    1  0.1023000E-012  0.5052886E+02  0.7816164E-02  0.1300439E+00
        -11   -1    0    0    0    0  0.00000000000E+00  0.00000000000E+00  0.45593999997E+02  0.45594000000E+02  0.51100000000E-03 0. -1.
         11   -1    0    0    0    0 -0.00000000000E+00 -0.00000000000E+00 -0.45593999997E+02  0.45594000000E+02  0.51100000000E-03 0.  1.
    9900012    2    1    2    0    0  0.11923647367E+02  0.35677213037E+02 -0.15431425796E+02  0.50528858362E+02  0.29999995478E+02 0.  0.
        -12    1    1    2    0    0 -0.11923647367E+02 -0.35677213037E+02  0.15431425796E+02  0.40659141638E+02  0.00000000000E+00 0.  1.
         11    1    3    3    0    0  0.73557772701E+01  0.28581167084E+02 -0.19835797579E+01  0.29579133862E+02  0.51100000000E-03 0. -1.
        -11    1    3    3    0    0  0.53060124676E+01  0.10249669442E+02 -0.13433697833E+02  0.17710836505E+02  0.51100000000E-03 0.  1.
        -12    1    3    3    0    0 -0.73814237041E+00 -0.31536234893E+01 -0.14148205383E-01  0.32388879948E+01  0.00000000000E+00 0.  1.
</event>
<event>
 7    1  0.1182775E-012  0.5052886E+02  0.7816164E-02  0.1300439E+00
        -11   -1    0    0    0    0  0.00000000000E+00  0.00000000000E+00  0.45593999997E+02  0.45594000000E+02  0.51100000000E-03 0. -1.
         11   -1    0    0    0    0 -0.00000000000E+00 -0.00000000000E+00 -0.45593999997E+02  0.45594000000E+02  0.51100000000E-03 0.  1.
    9900012    2    1    2    0    0 -0.33699677019E+02  0.83373710223E+01  0.21165665461E+02  0.50528863497E+02  0.30000011085E+02 0.  0.
        -12    1    1    2    0    0  0.33699677019E+02 -0.83373710223E+01 -0.21165665461E+02  0.40659136503E+02  0.00000000000E+00 0.  1.
         11    1    3    3    0    0 -0.10556677042E+02  0.61785123503E+01  0.15555792455E+02  0.19788888907E+02  0.51100000000E-03 0. -1.
        -11    1    3    3    0    0 -0.19354297168E+02  0.52569555055E+01 -0.35379841634E+01  0.20365208868E+02  0.51100000000E-03 0.  1.
        -12    1    3    3    0    0 -0.37887028096E+01 -0.30980968335E+01  0.91478571699E+01  0.10374765721E+02  0.00000000000E+00 0.  1.
</event>
<event>
 7    1  0.1023000E-012  0.5052887E+02  0.7816164E-02  0.1300439E+00
        -11   -1    0    0    0    0  0.00000000000E+00  0.00000000000E+00  0.45593999997E+02  0.45594000000E+02  0.51100000000E-03 0.  1.
         11   -1    0    0    0    0 -0.00000000000E+00 -0.00000000000E+00 -0.45593999997E+02  0.45594000000E+02  0.51100000000E-03 0. -1.
    9900012    2    1    2    0    0  0.23693186423E+02  0.68619118113E+01 -0.32322007351E+02  0.50528867253E+02  0.30000022502E+02 0.  0.
        -12    1    1    2    0    0 -0.23693186423E+02 -0.68619118113E+01  0.32322007351E+02  0.40659132747E+02  0.00000000000E+00 0.  1.
         11    1    3    3    0    0  0.81721289905E+01  0.13116130974E+02 -0.29168073846E+02  0.33008985384E+02  0.51100000000E-03 0. -1.
        -11    1    3    3    0    0  0.13559549987E+02 -0.42207007051E+01 -0.36223211859E+01  0.14655951737E+02  0.51100000000E-03 0.  1.
         12    1    3    3    0    0  0.19615074455E+01 -0.20335184575E+01  0.46838768123E+00  0.28639301311E+01  0.00000000000E+00 0. -1.
</event>
<event>
 7    1  0.1023000E-012  0.5052884E+02  0.7816164E-02  0.1300439E+00
        -11   -1    0    0    0    0  0.00000000000E+00  0.00000000000E+00  0.45593999997E+02  0.45594000000E+02  0.51100000000E-03 0. -1.
         11   -1    0    0    0    0 -0.00000000000E+00 -0.00000000000E+00 -0.45593999997E+02  0.45594000000E+02  0.51100000000E-03 0.  1.
    9900012    2    1    2    0    0  0.27327412123E+02  0.17678537241E+02  0.24369022991E+02  0.50528838500E+02  0.29999935105E+02 0.  0.
        -12    1    1    2    0    0 -0.27327412123E+02 -0.17678537241E+02 -0.24369022991E+02  0.40659161500E+02  0.00000000000E+00 0.  1.
         11    1    3    3    0    0  0.59072988719E+01  0.11248893126E+02  0.68176214128E+01  0.14419214213E+02  0.51100000000E-03 0. -1.
        -11    1    3    3    0    0 -0.16849951446E+01 -0.39861750980E+01  0.78655715037E+01  0.89775283842E+01  0.51100000000E-03 0.  1.
        -12    1    3    3    0    0  0.23105108396E+02  0.10415819213E+02  0.96858300747E+01  0.27132095903E+02  0.00000000000E+00 0.  1.
</event>
<event>
 7    1  0.1023000E-012  0.5052887E+02  0.7816164E-02  0.1300439E+00
        -11   -1    0    0    0    0  0.00000000000E+00  0.00000000000E+00  0.45593999997E+02  0.45594000000E+02  0.51100000000E-03 0.  1.
         11   -1    0    0    0    0 -0.00000000000E+00 -0.00000000000E+00 -0.45593999997E+02  0.45594000000E+02  0.51100000000E-03 0. -1.
    9900012    2    1    2    0    0 -0.15616173149E+02 -0.21999231794E+02 -0.30419297801E+02  0.50528871357E+02  0.30000034976E+02 0.  0.
        -12    1    1    2    0    0  0.15616173149E+02  0.21999231794E+02  0.30419297801E+02  0.40659128643E+02  0.00000000000E+00 0.  1.
         11    1    3    3    0    0 -0.66185961076E+01 -0.24316011380E+02 -0.20459925209E+02  0.32460480029E+02  0.51100000000E-03 0. -1.
        -11    1    3    3    0    0 -0.72729191255E+01  0.12514593784E+01 -0.12682633037E+02  0.14673468717E+02  0.51100000000E-03 0.  1.
         12    1    3    3    0    0 -0.17246579162E+01  0.10653202082E+01  0.27232604459E+01  0.33949226103E+01  0.00000000000E+00 0. -1.
</event>
<event>
 7    1  0.1023000E-012  0.5052886E+02  0.7816164E-02  0.1300439E+00
        -11   -1    0    0    0    0  0.00000000000E+00  0.00000000000E+00  0.45593999997E+02  0.45594000000E+02  0.51100000000E-03 0.  1.
         11   -1    0    0    0    0 -0.00000000000E+00 -0.00000000000E+00 -0.45593999997E+02  0.45594000000E+02  0.51100000000E-03 0. -1.
    9900012    2    1    2    0    0  0.31714030730E+02  0.21861409435E+02 -0.13017861019E+02  0.50528859906E+02  0.30000000171E+02 0.  0.
        -12    1    1    2    0    0 -0.31714030730E+02 -0.21861409435E+02  0.13017861019E+02  0.40659140094E+02  0.00000000000E+00 0.  1.
         11    1    3    3    0    0  0.51112053551E+01  0.94711770624E+01 -0.14479088996E+02  0.18040832396E+02  0.51100000000E-03 0. -1.
        -11    1    3    3    0    0  0.15162337964E+02 -0.31820132596E+00 -0.10650593885E+01  0.15203029185E+02  0.51100000000E-03 0.  1.
         12    1    3    3    0    0  0.11440487410E+02  0.12708433699E+02  0.25262873650E+01  0.17284998326E+02  0.00000000000E+00 0. -1.
</event>
<event>
 7    1  0.1023000E-012  0.5052887E+02  0.7816164E-02  0.1300439E+00
        -11   -1    0    0    0    0  0.00000000000E+00  0.00000000000E+00  0.45593999997E+02  0.45594000000E+02  0.51100000000E-03 0.  1.
         11   -1    0    0    0    0 -0.00000000000E+00 -0.00000000000E+00 -0.45593999997E+02  0.45594000000E+02  0.51100000000E-03 0. -1.
    9900012    2    1    2    0    0  0.39757673380E+02  0.33860641766E+01 -0.78119599049E+01  0.50528871372E+02  0.30000035024E+02 0.  0.
        -12    1    1    2    0    0 -0.39757673380E+02 -0.33860641766E+01  0.78119599049E+01  0.40659128628E+02  0.00000000000E+00 0.  1.
         11    1    3    3    0    0  0.12154924701E+02  0.27811748691E+01 -0.16345276588E+02  0.20558336390E+02  0.51100000000E-03 0. -1.
        -11    1    3    3    0    0  0.22522001048E+02 -0.22545827277E+01  0.83872836621E+01  0.24138562550E+02  0.51100000000E-03 0.  1.
        -12    1    3    3    0    0  0.50807476312E+01  0.28594720351E+01  0.14603302052E+00  0.58319724326E+01  0.00000000000E+00 0.  1.
</event>
<event>
 7    1  0.1023000E-012  0.5052889E+02  0.7816164E-02  0.1300439E+00
        -11   -1    0    0    0    0  0.00000000000E+00  0.00000000000E+00  0.45593999997E+02  0.45594000000E+02  0.51100000000E-03 0. -1.
         11   -1    0    0    0    0 -0.00000000000E+00 -0.00000000000E+00 -0.45593999997E+02  0.45594000000E+02  0.51100000000E-03 0.  1.
    9900012    2    1    2    0    0 -0.36438734726E+02  0.17970579098E+02  0.15621148825E+01  0.50528889035E+02  0.30000088712E+02 0.  0.
        -12    1    1    2    0    0  0.36438734726E+02 -0.17970579098E+02 -0.15621148825E+01  0.40659110965E+02  0.00000000000E+00 0.  1.
         11    1    3    3    0    0 -0.31875793284E+02  0.20259527025E+02 -0.21519743426E+00  0.37769841712E+02  0.51100000000E-03 0. -1.
        -11    1    3    3    0    0  0.21734840136E+01 -0.13082905287E+01 -0.33746543039E+01  0.42218418725E+01  0.51100000000E-03 0.  1.
         12    1    3    3    0    0 -0.67364254550E+01 -0.98065739815E+00  0.51519666206E+01  0.85372054504E+01  0.00000000000E+00 0. -1.
</event>
<event>
 7    1  0.1023000E-012  0.5052886E+02  0.7816164E-02  0.1300439E+00
        -11   -1    0    0    0    0  0.00000000000E+00  0.00000000000E+00  0.45593999997E+02  0.45594000000E+02  0.51100000000E-03 0.  1.
         11   -1    0    0    0    0 -0.00000000000E+00 -0.00000000000E+00 -0.45593999997E+02  0.45594000000E+02  0.51100000000E-03 0. -1.
    9900012    2    1    2    0    0  0.34994367610E+01  0.25160987894E+02 -0.31746564256E+02  0.50528859434E+02  0.29999998737E+02 0.  0.
        -12    1    1    2    0    0 -0.34994367610E+01 -0.25160987894E+02  0.31746564256E+02  0.40659140566E+02  0.00000000000E+00 0.  1.
         11    1    3    3    0    0  0.56383929813E+01  0.15370495545E+02 -0.21583982540E+02  0.27090808612E+02  0.51100000000E-03 0. -1.
        -11    1    3    3    0    0 -0.10263846840E+02  0.70830866534E+01 -0.49821500948E+01  0.13429016655E+02  0.51100000000E-03 0.  1.
        -12    1    3    3    0    0  0.81248906195E+01  0.27074056960E+01 -0.51804316213E+01  0.10009034167E+02  0.00000000000E+00 0.  1.
</event>
<event>
 7    1  0.1023000E-012  0.5052886E+02  0.7816164E-02  0.1300439E+00
        -11   -1    0    0    0    0  0.00000000000E+00  0.00000000000E+00  0.45593999997E+02  0.45594000000E+02  0.51100000000E-03 0.  1.
         11   -1    0    0    0    0 -0.00000000000E+00 -0.00000000000E+00 -0.45593999997E+02  0.45594000000E+02  0.51100000000E-03 0. -1.
    9900012    2    1    2    0    0 -0.67887004026E+01  0.22312530425E+02 -0.33305104770E+02  0.50528862394E+02  0.30000007734E+02 0.  0.
        -12    1    1    2    0    0  0.67887004026E+01 -0.22312530425E+02  0.33305104770E+02  0.40659137606E+02  0.00000000000E+00 0.  1.
         11    1    3    3    0    0 -0.16583541768E+01  0.87832393698E+01 -0.24507875165E+02  0.26086996335E+02  0.51100000000E-03 0. -1.
        -11    1    3    3    0    0 -0.54923377833E+01  0.17136447918E+02 -0.40093537640E+01  0.18436337474E+02  0.51100000000E-03 0.  1.
         12    1    3    3    0    0  0.36199155748E+00 -0.36071568634E+01 -0.47878758407E+01  0.60055285855E+01  0.00000000000E+00 0. -1.
</event>
<event>
 7    1  0.1023000E-012  0.5052886E+02  0.7816164E-02  0.1300439E+00
        -11   -1    0    0    0    0  0.00000000000E+00  0.00000000000E+00  0.45593999997E+02  0.45594000000E+02  0.51100000000E-03 0.  1.
         11   -1    0    0    0    0 -0.00000000000E+00 -0.00000000000E+00 -0.45593999997E+02  0.45594000000E+02  0.51100000000E-03 0. -1.
    9900012    2    1    2    0    0  0.66743609870E+01  0.27398269225E+02 -0.29290846755E+02  0.50528856444E+02  0.29999989646E+02 0.  0.
        -12    1    1    2    0    0 -0.66743609870E+01 -0.27398269225E+02  0.29290846755E+02  0.40659143556E+02  0.00000000000E+00 0.  1.
         11    1    3    3    0    0  0.76052970911E+00  0.43092298159E+01 -0.12269963523E+02  0.13026890349E+02  0.51100000000E-03 0. -1.
        -11    1    3    3    0    0  0.87631160006E+01  0.35917240054E+01  0.24688261025E+01  0.97871234771E+01  0.51100000000E-03 0.  1.
        -12    1    3    3    0    0 -0.28492847227E+01  0.19497315404E+02 -0.19489709334E+02  0.27714842618E+02  0.00000000000E+00 0.  1.
</event>
<event>
 7    1  0.1023000E-012  0.5052886E+02  0.7816164E-02  0.1300439E+00
        -11   -1    0    0    0    0  0.00000000000E+00  0.00000000000E+00  0.45593999997E+02  0.45594000000E+02  0.51100000000E-03 0.  1.
         11   -1    0    0    0    0 -0.00000000000E+00 -0.00000000000E+00 -0.45593999997E+02  0.45594000000E+02  0.51100000000E-03 0. -1.
    9900012    2    1    2    0    0 -0.27226700018E+02  0.13445313354E+02 -0.27038785922E+02  0.50528860939E+02  0.30000003310E+02 0.  0.
        -12    1    1    2    0    0  0.27226700018E+02 -0.13445313354E+02  0.27038785922E+02  0.40659139061E+02  0.00000000000E+00 0.  1.
         11    1    3    3    0    0 -0.21882139203E+02  0.35495515023E+01 -0.68466071230E+01  0.23201365505E+02  0.51100000000E-03 0. -1.
        -11    1    3    3    0    0  0.35102620567E+01 -0.57061642647E+00 -0.88378450950E+01  0.95265444416E+01  0.51100000000E-03 0.  1.
         12    1    3    3    0    0 -0.88548228716E+01  0.10466378279E+02 -0.11354333704E+02  0.17800950992E+02  0.00000000000E+00 0. -1.
</event>
<event>
 7    1  0.1023000E-012  0.5052886E+02  0.7816164E-02  0.1300439E+00
        -11   -1    0    0    0    0  0.00000000000E+00  0.00000000000E+00  0.45593999997E+02  0.45594000000E+02  0.51100000000E-03 0.  1.
         11   -1    0    0    0    0 -0.00000000000E+00 -0.00000000000E+00 -0.45593999997E+02  0.45594000000E+02  0.51100000000E-03 0. -1.
    9900012    2    1    2    0    0  0.33315379793E+02  0.88969672605E+01  0.21542858733E+02  0.50528864255E+02  0.30000013388E+02 0.  0.
        -12    1    1    2    0    0 -0.33315379793E+02 -0.88969672605E+01 -0.21542858733E+02  0.40659135745E+02  0.00000000000E+00 0.  1.
         11    1    3    3    0    0  0.19178532809E+02  0.18923910642E+02  0.76294352180E+01  0.28002478403E+02  0.51100000000E-03 0. -1.
        -11    1    3    3    0    0  0.34765454310E+01 -0.37129801544E+01  0.58095627409E+01  0.77216325516E+01  0.51100000000E-03 0.  1.
         12    1    3    3    0    0  0.10660301553E+02 -0.63139632274E+01  0.81038607736E+01  0.14804753300E+02  0.00000000000E+00 0. -1.
</event>
<event>
 7    1 -0.1023000E-012  0.5052886E+02  0.7816164E-02  0.1300439E+00
        -11   -1    0    0    0    0  0.00000000000E+00  0.00000000000E+00  0.45593999997E+02  0.45594000000E+02  0.51100000000E-03 0.  1.
         11   -1    0    0    0    0 -0.00000000000E+00 -0.00000000000E+00 -0.45593999997E+02  0.45594000000E+02  0.51100000000E-03 0. -1.
    9900012    2    1    2    0    0  0.32009605787E+02  0.23409185677E+02 -0.89755709371E+01  0.50528859448E+02  0.29999998780E+02 0.  0.
        -12    1    1    2    0    0 -0.32009605787E+02 -0.23409185677E+02  0.89755709371E+01  0.40659140552E+02  0.00000000000E+00 0.  1.
         11    1    3    3    0    0  0.22216311982E+02  0.20344587478E+02  0.55683395291E+01  0.30634509350E+02  0.51100000000E-03 0. -1.
        -11    1    3    3    0    0 -0.12773925577E+01  0.37738869035E+00  0.10613723693E+00  0.13361958480E+01  0.51100000000E-03 0.  1.
         12    1    3    3    0    0  0.11070686363E+02  0.26872095095E+01 -0.14650047703E+02  0.18558154251E+02  0.00000000000E+00 0. -1.
</event>
<event>
 7    1  0.1023000E-012  0.5052885E+02  0.7816164E-02  0.1300439E+00
        -11   -1    0    0    0    0  0.00000000000E+00  0.00000000000E+00  0.45593999997E+02  0.45594000000E+02  0.51100000000E-03 0. -1.
         11   -1    0    0    0    0 -0.00000000000E+00 -0.00000000000E+00 -0.45593999997E+02  0.45594000000E+02  0.51100000000E-03 0.  1.
    9900012    2    1    2    0    0  0.21012872301E+02  0.34769620834E+02 -0.16429929367E+01  0.50528846528E+02  0.29999959506E+02 0.  0.
        -12    1    1    2    0    0 -0.21012872301E+02 -0.34769620834E+02  0.16429929367E+01  0.40659153472E+02  0.00000000000E+00 0.  1.
         11    1    3    3    0    0  0.31878093310E+00  0.18034810664E+02  0.88571702572E+01  0.20094911849E+02  0.51100000000E-03 0. -1.
        -11    1    3    3    0    0  0.13115803354E+02  0.16336256654E+02 -0.82833563341E+01  0.22528017479E+02  0.51100000000E-03 0.  1.
         12    1    3    3    0    0  0.75782880140E+01  0.39855351528E+00 -0.22168068598E+01  0.79059172005E+01  0.00000000000E+00 0. -1.
</event>
<event>
 7    1  0.1023000E-012  0.5052887E+02  0.7816164E-02  0.1300439E+00
        -11   -1    0    0    0    0  0.00000000000E+00  0.00000000000E+00  0.45593999997E+02  0.45594000000E+02  0.51100000000E-03 0. -1.
         11   -1    0    0    0    0 -0.00000000000E+00 -0.00000000000E+00 -0.45593999997E+02  0.45594000000E+02  0.51100000000E-03 0.  1.
    9900012    2    1    2    0    0  0.25739140969E+02  0.29831235693E+02  0.10037872431E+02  0.50528869615E+02  0.30000029681E+02 0.  0.
        -12    1    1    2    0    0 -0.25739140969E+02 -0.29831235693E+02 -0.10037872431E+02  0.40659130385E+02  0.00000000000E+00 0.  1.
         11    1    3    3    0    0  0.22491560613E+02  0.15454511453E+02 -0.24659818426E+01  0.27400607471E+02  0.51100000000E-03 0. -1.
        -11    1    3    3    0    0  0.52531130049E+01  0.65373858819E+01  0.12480435367E+02  0.15036418377E+02  0.51100000000E-03 0.  1.
         12    1    3    3    0    0 -0.20055326494E+01  0.78393383581E+01  0.23418906450E-01  0.80918437668E+01  0.00000000000E+00 0. -1.
</event>
<event>
 7    1  0.1023000E-012  0.5052886E+02  0.7816164E-02  0.1300439E+00
        -11   -1    0    0    0    0  0.00000000000E+00  0.00000000000E+00  0.45593999997E+02  0.45594000000E+02  0.51100000000E-03 0. -1.
         11   -1    0    0    0    0 -0.00000000000E+00 -0.00000000000E+00 -0.45593999997E+02  0.45594000000E+02  0.51100000000E-03 0.  1.
    9900012    2    1    2    0    0 -0.39231874615E+02 -0.10453684281E+02  0.21785380713E+01  0.50528861679E+02  0.30000005559E+02 0.  0.
        -12    1    1    2    0    0  0.39231874615E+02  0.10453684281E+02 -0.21785380713E+01  0.40659138321E+02  0.00000000000E+00 0.  1.
         11    1    3    3    0    0 -0.25412894415E+02 -0.95452656047E+01  0.10812202556E+02  0.29220387102E+02  0.51100000000E-03 0. -1.
        -11    1    3    3    0    0 -0.15277792090E+02 -0.42260216333E+01 -0.72201843838E+01  0.17418417058E+02  0.51100000000E-03 0.  1.
         12    1    3    3    0    0  0.14588118901E+01  0.33176029566E+01 -0.14134801006E+01  0.38900575192E+01  0.00000000000E+00 0. -1.
</event>
<event>
 7    1  0.1023000E-012  0.5052886E+02  0.7816164E-02  0.1300439E+00
        -11   -1    0    0    0    0  0.00000000000E+00  0.00000000000E+00  0.45593999997E+02  0.45594000000E+02  0.51100000000E-03 0.  1.
         11   -1    0    0    0    0 -0.00000000000E+00 -0.00000000000E+00 -0.45593999997E+02  0.45594000000E+02  0.51100000000E-03 0. -1.
    9900012    2    1    2    0    0  0.16671822976E+01  0.43649845621E+01 -0.40389766422E+02  0.50528858117E+02  0.29999994732E+02 0.  0.
        -12    1    1    2    0    0 -0.16671822976E+01 -0.43649845621E+01  0.40389766422E+02  0.40659141883E+02  0.00000000000E+00 0.  1.
         11    1    3    3    0    0  0.10638096440E+02 -0.11427855199E+01 -0.34180398936E+02  0.35815844626E+02  0.51100000000E-03 0. -1.
        -11    1    3    3    0    0 -0.64458282896E+01  0.14582349088E+01  0.33058278387E+00  0.66169809299E+01  0.51100000000E-03 0.  1.
        -12    1    3    3    0    0 -0.25250858532E+01  0.40495351732E+01 -0.65399502703E+01  0.80960325606E+01  0.00000000000E+00 0.  1.
</event>
<event>
 7    1  0.1023000E-012  0.5052893E+02  0.7816164E-02  0.1300439E+00
        -11   -1    0    0    0    0  0.00000000000E+00  0.00000000000E+00  0.45593999997E+02  0.45594000000E+02  0.51100000000E-03 0.  1.
         11   -1    0    0    0    0 -0.00000000000E+00 -0.00000000000E+00 -0.45593999997E+02  0.45594000000E+02  0.51100000000E-03 0. -1.
    9900012    2    1    2    0    0 -0.10460772938E+02  0.37000773100E+02 -0.13216451643E+02  0.50528934903E+02  0.30000228131E+02 0.  0.
        -12    1    1    2    0    0  0.10460772938E+02 -0.37000773100E+02  0.13216451643E+02  0.40659065097E+02  0.00000000000E+00 0.  1.
         11    1    3    3    0    0 -0.11047440909E+02  0.24608779555E+02 -0.12605211821E+02  0.29774642687E+02  0.51100000000E-03 0. -1.
        -11    1    3    3    0    0  0.44897817357E+01 -0.23849058444E+01  0.15583909488E+01  0.53173770349E+01  0.51100000000E-03 0.  1.
        -12    1    3    3    0    0 -0.39031137652E+01  0.14776899389E+02 -0.21696307713E+01  0.15436915181E+02  0.00000000000E+00 0.  1.
</event>
<event>
 7    1  0.1023000E-012  0.5052886E+02  0.7816164E-02  0.1300439E+00
        -11   -1    0    0    0    0  0.00000000000E+00  0.00000000000E+00  0.45593999997E+02  0.45594000000E+02  0.51100000000E-03 0.  1.
         11   -1    0    0    0    0 -0.00000000000E+00 -0.00000000000E+00 -0.45593999997E+02  0.45594000000E+02  0.51100000000E-03 0. -1.
    9900012    2    1    2    0    0 -0.37645745238E+02 -0.15138927385E+02  0.26030984647E+01  0.50528863529E+02  0.30000011184E+02 0.  0.
        -12    1    1    2    0    0  0.37645745238E+02  0.15138927385E+02 -0.26030984647E+01  0.40659136471E+02  0.00000000000E+00 0.  1.
         11    1    3    3    0    0 -0.28729765453E+02  0.30101892154E+01  0.50924802333E+00  0.28891521176E+02  0.51100000000E-03 0. -1.
        -11    1    3    3    0    0 -0.98098948985E+01 -0.16637802922E+02  0.31772696583E+01  0.19574104493E+02  0.51100000000E-03 0.  1.
         12    1    3    3    0    0  0.89391511293E+00 -0.15113136790E+01 -0.10834192169E+01  0.20632378595E+01  0.00000000000E+00 0. -1.
</event>
<event>
 7    1  0.1023000E-012  0.5052886E+02  0.7816164E-02  0.1300439E+00
        -11   -1    0    0    0    0  0.00000000000E+00  0.00000000000E+00  0.45593999997E+02  0.45594000000E+02  0.51100000000E-03 0.  1.
         11   -1    0    0    0    0 -0.00000000000E+00 -0.00000000000E+00 -0.45593999997E+02  0.45594000000E+02  0.51100000000E-03 0. -1.
    9900012    2    1    2    0    0 -0.11772507687E+02  0.20616039390E+02 -0.33008373285E+02  0.50528859278E+02  0.29999998261E+02 0.  0.
        -12    1    1    2    0    0  0.11772507687E+02 -0.20616039390E+02  0.33008373285E+02  0.40659140722E+02  0.00000000000E+00 0.  1.
         11    1    3    3    0    0  0.17151991358E+01 -0.30949841908E+01 -0.12324482196E+02  0.12822390451E+02  0.51100000000E-03 0. -1.
        -11    1    3    3    0    0 -0.11355957758E+02  0.66321182880E+01 -0.40239912847E+01  0.13752646135E+02  0.51100000000E-03 0.  1.
        -12    1    3    3    0    0 -0.21317490643E+01  0.17078905293E+02 -0.16659899804E+02  0.23953822691E+02  0.00000000000E+00 0.  1.
</event>
<event>
 7    1  0.1023000E-012  0.5052886E+02  0.7816164E-02  0.1300439E+00
        -11   -1    0    0    0    0  0.00000000000E+00  0.00000000000E+00  0.45593999997E+02  0.45594000000E+02  0.51100000000E-03 0.  1.
         11   -1    0    0    0    0 -0.00000000000E+00 -0.00000000000E+00 -0.45593999997E+02  0.45594000000E+02  0.51100000000E-03 0. -1.
    9900012    2    1    2    0    0  0.85421904470E+01 -0.39736764866E+02 -0.10891764979E+01  0.50528858284E+02  0.29999995239E+02 0.  0.
        -12    1    1    2    0    0 -0.85421904470E+01  0.39736764866E+02  0.10891764979E+01  0.40659141716E+02  0.00000000000E+00 0.  1.
         11    1    3    3    0    0  0.65165212603E+00 -0.23974131846E+02  0.10744121359E+02  0.26279645970E+02  0.51100000000E-03 0. -1.
        -11    1    3    3    0    0  0.31085029006E+00  0.11194506134E+01 -0.39801819143E+01  0.41462809735E+01  0.51100000000E-03 0.  1.
         12    1    3    3    0    0  0.75796880309E+01 -0.16882083634E+02 -0.78531159425E+01  0.20102931340E+02  0.00000000000E+00 0. -1.
</event>
<event>
 7    1  0.1023000E-012  0.5052886E+02  0.7816164E-02  0.1300439E+00
        -11   -1    0    0    0    0  0.00000000000E+00  0.00000000000E+00  0.45593999997E+02  0.45594000000E+02  0.51100000000E-03 0. -1.
         11   -1    0    0    0    0 -0.00000000000E+00 -0.00000000000E+00 -0.45593999997E+02  0.45594000000E+02  0.51100000000E-03 0.  1.
    9900012    2    1    2    0    0  0.11264372854E+02 -0.20858406100E+02  0.33033417765E+02  0.50528857239E+02  0.29999992063E+02 0.  0.
        -12    1    1    2    0    0 -0.11264372854E+02  0.20858406100E+02 -0.33033417765E+02  0.40659142761E+02  0.00000000000E+00 0.  1.
         11    1    3    3    0    0 -0.25115905128E+01 -0.19064562033E+02  0.16705393795E+02  0.25472255387E+02  0.51100000000E-03 0. -1.
        -11    1    3    3    0    0  0.10943825521E+02 -0.42100683850E+01  0.43387904585E+01  0.12502683542E+02  0.51100000000E-03 0.  1.
        -12    1    3    3    0    0  0.28321378452E+01  0.24162243180E+01  0.11989233512E+02  0.12553918310E+02  0.00000000000E+00 0.  1.
</event>
<event>
 7    1  0.1023000E-012  0.5052886E+02  0.7816164E-02  0.1300439E+00
        -11   -1    0    0    0    0  0.00000000000E+00  0.00000000000E+00  0.45593999997E+02  0.45594000000E+02  0.51100000000E-03 0. -1.
         11   -1    0    0    0    0 -0.00000000000E+00 -0.00000000000E+00 -0.45593999997E+02  0.45594000000E+02  0.51100000000E-03 0.  1.
    9900012    2    1    2    0    0 -0.55754649343E+01  0.17877651743E+01  0.40235354521E+02  0.50528859982E+02  0.30000000402E+02 0.  0.
        -12    1    1    2    0    0  0.55754649343E+01 -0.17877651743E+01 -0.40235354521E+02  0.40659140018E+02  0.00000000000E+00 0.  1.
         11    1    3    3    0    0  0.13644226171E+01  0.12229091996E+01  0.22390157870E+02  0.22465002241E+02  0.51100000000E-03 0. -1.
        -11    1    3    3    0    0 -0.50191122322E+01  0.65667531082E+01 -0.87504092822E+00  0.83114036643E+01  0.51100000000E-03 0.  1.
        -12    1    3    3    0    0 -0.19207753193E+01 -0.60018971335E+01  0.18720237579E+02  0.19752454077E+02  0.00000000000E+00 0.  1.
</event>
<event>
 7    1  0.1023000E-012  0.5052878E+02  0.7816164E-02  0.1300439E+00
        -11   -1    0    0    0    0  0.00000000000E+00  0.00000000000E+00  0.45593999997E+02  0.45594000000E+02  0.51100000000E-03 0.  1.
         11   -1    0    0    0    0 -0.00000000000E+00 -0.00000000000E+00 -0.45593999997E+02  0.45594000000E+02  0.51100000000E-03 0. -1.
    9900012    2    1    2    0    0 -0.33688322502E+02 -0.21433537409E+02 -0.76728460507E+01  0.50528780069E+02  0.29999757497E+02 0.  0.
        -12    1    1    2    0    0  0.33688322502E+02  0.21433537409E+02  0.76728460507E+01  0.40659219931E+02  0.00000000000E+00 0.  1.
         11    1    3    3    0    0 -0.28998505612E+02 -0.27086517917E+02 -0.16865903023E+01  0.39716965741E+02  0.51100000000E-03 0. -1.
        -11    1    3    3    0    0 -0.64195628247E+00  0.14308009598E+01  0.87498104504E+00  0.17957982474E+01  0.51100000000E-03 0.  1.
         12    1    3    3    0    0 -0.40478606070E+01  0.42221795475E+01 -0.68612367935E+01  0.90160160803E+01  0.00000000000E+00 0. -1.
</event>
<event>
 7    1  0.1023000E-012  0.5052885E+02  0.7816164E-02  0.1300439E+00
        -11   -1    0    0    0    0  0.00000000000E+00  0.00000000000E+00  0.45593999997E+02  0.45594000000E+02  0.51100000000E-03 0.  1.
         11   -1    0    0    0    0 -0.00000000000E+00 -0.00000000000E+00 -0.45593999997E+02  0.45594000000E+02  0.51100000000E-03 0. -1.
    9900012    2    1    2    0    0  0.26059657324E+02 -0.23374914544E+02 -0.20680278265E+02  0.50528852457E+02  0.29999977528E+02 0.  0.
        -12    1    1    2    0    0 -0.26059657324E+02  0.23374914544E+02  0.20680278265E+02  0.40659147543E+02  0.00000000000E+00 0.  1.
         11    1    3    3    0    0  0.10444012746E+02 -0.21995358939E+02 -0.11648595581E+02  0.26991906127E+02  0.51100000000E-03 0. -1.
        -11    1    3    3    0    0  0.60852944047E+01  0.15171069042E+01  0.37692958854E+01  0.73171041460E+01  0.51100000000E-03 0.  1.
         12    1    3    3    0    0  0.95303501737E+01 -0.28966625088E+01 -0.12800978570E+02  0.16219842184E+02  0.00000000000E+00 0. -1.
</event>
<event>
 7    1  0.1023000E-012  0.5052886E+02  0.7816164E-02  0.1300439E+00
        -11   -1    0    0    0    0  0.00000000000E+00  0.00000000000E+00  0.45593999997E+02  0.45594000000E+02  0.51100000000E-03 0.  1.
         11   -1    0    0    0    0 -0.00000000000E+00 -0.00000000000E+00 -0.45593999997E+02  0.45594000000E+02  0.51100000000E-03 0. -1.
    9900012    2    1    2    0    0  0.40012806489E+02 -0.56149395445E+00  0.71989934038E+01  0.50528862471E+02  0.30000007967E+02 0.  0.
        -12    1    1    2    0    0 -0.40012806489E+02  0.56149395445E+00 -0.71989934038E+01  0.40659137529E+02  0.00000000000E+00 0.  1.
         11    1    3    3    0    0  0.61630981185E+01  0.10451114144E+02  0.18095280587E+01  0.12267190278E+02  0.51100000000E-03 0. -1.
        -11    1    3    3    0    0  0.77466363602E+01 -0.87165948736E+01  0.21558795848E+01  0.11859056376E+02  0.51100000000E-03 0.  1.
         12    1    3    3    0    0  0.26103072010E+02 -0.22960132246E+01  0.32335857603E+01  0.26402615817E+02  0.00000000000E+00 0. -1.
</event>
<event>
 7    1  0.1023000E-012  0.5052886E+02  0.7816164E-02  0.1300439E+00
        -11   -1    0    0    0    0  0.00000000000E+00  0.00000000000E+00  0.45593999997E+02  0.45594000000E+02  0.51100000000E-03 0.  1.
         11   -1    0    0    0    0 -0.00000000000E+00 -0.00000000000E+00 -0.45593999997E+02  0.45594000000E+02  0.51100000000E-03 0. -1.
    9900012    2    1    2    0    0 -0.30139695709E+02  0.25355192261E+02 -0.10093496159E+02  0.50528859616E+02  0.29999999290E+02 0.  0.
        -12    1    1    2    0    0  0.30139695709E+02 -0.25355192261E+02  0.10093496159E+02  0.40659140384E+02  0.00000000000E+00 0.  1.
         11    1    3    3    0    0 -0.76363467396E+00  0.70257661246E+01 -0.52463711003E+01  0.88016440246E+01  0.51100000000E-03 0. -1.
        -11    1    3    3    0    0 -0.28331264303E+02  0.66314702270E+01 -0.66442658875E+01  0.29845991420E+02  0.51100000000E-03 0.  1.
        -12    1    3    3    0    0 -0.10447967318E+01  0.11697955910E+02  0.17971408287E+01  0.11881224172E+02  0.00000000000E+00 0.  1.
</event>
<event>
 7    1  0.1023000E-012  0.5052887E+02  0.7816164E-02  0.1300439E+00
        -11   -1    0    0    0    0  0.00000000000E+00  0.00000000000E+00  0.45593999997E+02  0.45594000000E+02  0.51100000000E-03 0.  1.
         11   -1    0    0    0    0 -0.00000000000E+00 -0.00000000000E+00 -0.45593999997E+02  0.45594000000E+02  0.51100000000E-03 0. -1.
    9900012    2    1    2    0    0  0.13640261944E+02  0.18748680383E+02 -0.33400523253E+02  0.50528871682E+02  0.30000035964E+02 0.  0.
        -12    1    1    2    0    0 -0.13640261944E+02 -0.18748680383E+02  0.33400523253E+02  0.40659128318E+02  0.00000000000E+00 0.  1.
         11    1    3    3    0    0  0.75616407035E+00  0.97438373278E+01 -0.21039616228E+02  0.23198698266E+02  0.51100000000E-03 0. -1.
        -11    1    3    3    0    0  0.76622539100E+01 -0.50660595961E+01 -0.63287259321E+01  0.11154723977E+02  0.51100000000E-03 0.  1.
        -12    1    3    3    0    0  0.52218439636E+01  0.14070902651E+02 -0.60321810931E+01  0.16175449439E+02  0.00000000000E+00 0.  1.
</event>
<event>
 7    1  0.1023000E-012  0.5052886E+02  0.7816164E-02  0.1300439E+00
        -11   -1    0    0    0    0  0.00000000000E+00  0.00000000000E+00  0.45593999997E+02  0.45594000000E+02  0.51100000000E-03 0.  1.
         11   -1    0    0    0    0 -0.00000000000E+00 -0.00000000000E+00 -0.45593999997E+02  0.45594000000E+02  0.51100000000E-03 0. -1.
    9900012    2    1    2    0    0 -0.23713663058E+01 -0.37284370272E+02 -0.16044258958E+02  0.50528857237E+02  0.29999992057E+02 0.  0.
        -12    1    1    2    0    0  0.23713663058E+01  0.37284370272E+02  0.16044258958E+02  0.40659142763E+02  0.00000000000E+00 0.  1.
         11    1    3    3    0    0 -0.11990401157E+02 -0.17732650252E+02 -0.72560144158E+01  0.22602352761E+02  0.51100000000E-03 0. -1.
        -11    1    3    3    0    0  0.13055142177E+02 -0.18425060823E+02 -0.89891562116E+01  0.24304825308E+02  0.51100000000E-03 0.  1.
        -12    1    3    3    0    0 -0.34361073253E+01 -0.11266591977E+01  0.20091166975E+00  0.36216791683E+01  0.00000000000E+00 0.  1.
</event>
<event>
 7    1  0.1023000E-012  0.5052885E+02  0.7816164E-02  0.1300439E+00
        -11   -1    0    0    0    0  0.00000000000E+00  0.00000000000E+00  0.45593999997E+02  0.45594000000E+02  0.51100000000E-03 0. -1.
         11   -1    0    0    0    0 -0.00000000000E+00 -0.00000000000E+00 -0.45593999997E+02  0.45594000000E+02  0.51100000000E-03 0.  1.
    9900012    2    1    2    0    0  0.47155305433E+01 -0.29848159634E+02  0.27203269570E+02  0.50528846822E+02  0.29999960401E+02 0.  0.
        -12    1    1    2    0    0 -0.47155305433E+01  0.29848159634E+02 -0.27203269570E+02  0.40659153178E+02  0.00000000000E+00 0.  1.
         11    1    3    3    0    0 -0.64231354779E+01 -0.91720883674E+01  0.94671452573E+01  0.14663243637E+02  0.51100000000E-03 0. -1.
        -11    1    3    3    0    0  0.16312925138E+02 -0.10362486101E+02  0.86244352556E+01  0.21163022669E+02  0.51100000000E-03 0.  1.
        -12    1    3    3    0    0 -0.51742591163E+01 -0.10313585165E+02  0.91116890570E+01  0.14702580516E+02  0.00000000000E+00 0.  1.
</event>
<event>
 7    1  0.1023000E-012  0.5052885E+02  0.7816164E-02  0.1300439E+00
        -11   -1    0    0    0    0  0.00000000000E+00  0.00000000000E+00  0.45593999997E+02  0.45594000000E+02  0.51100000000E-03 0.  1.
         11   -1    0    0    0    0 -0.00000000000E+00 -0.00000000000E+00 -0.45593999997E+02  0.45594000000E+02  0.51100000000E-03 0. -1.
    9900012    2    1    2    0    0 -0.11889736709E+02 -0.10130218034E+02 -0.37539037069E+02  0.50528850224E+02  0.29999970741E+02 0.  0.
        -12    1    1    2    0    0  0.11889736709E+02  0.10130218034E+02  0.37539037069E+02  0.40659149776E+02  0.00000000000E+00 0.  1.
         11    1    3    3    0    0 -0.68264307083E+01  0.16484670751E+01 -0.33617083582E+02  0.34342770837E+02  0.51100000000E-03 0. -1.
        -11    1    3    3    0    0  0.10964016402E+01 -0.87354716185E+01 -0.26921707966E+01  0.92064295366E+01  0.51100000000E-03 0.  1.
         12    1    3    3    0    0 -0.61597076413E+01 -0.30432134904E+01 -0.12297826903E+01  0.69796498508E+01  0.00000000000E+00 0. -1.
</event>
<event>
 7    1  0.1023000E-012  0.5052886E+02  0.7816164E-02  0.1300439E+00
        -11   -1    0    0    0    0  0.00000000000E+00  0.00000000000E+00  0.45593999997E+02  0.45594000000E+02  0.51100000000E-03 0. -1.
         11   -1    0    0    0    0 -0.00000000000E+00 -0.00000000000E+00 -0.45593999997E+02  0.45594000000E+02  0.51100000000E-03 0.  1.
    9900012    2    1    2    0    0  0.17998542810E+02 -0.35215883119E+02  0.94371544180E+01  0.50528857724E+02  0.29999993538E+02 0.  0.
        -12    1    1    2    0    0 -0.17998542810E+02  0.35215883119E+02 -0.94371544180E+01  0.40659142276E+02  0.00000000000E+00 0.  1.
         11    1    3    3    0    0  0.19764196423E+00 -0.88833516399E+01  0.13831809054E+02  0.16439949533E+02  0.51100000000E-03 0. -1.
        -11    1    3    3    0    0  0.89541774805E+01 -0.10781748415E+02 -0.75536115772E+01  0.15921069102E+02  0.51100000000E-03 0.  1.
         12    1    3    3    0    0  0.88467233649E+01 -0.15550783063E+02  0.31589569415E+01  0.18167839088E+02  0.00000000000E+00 0. -1.
</event>
<event>
 7    1  0.1023000E-012  0.5052885E+02  0.7816164E-02  0.1300439E+00
        -11   -1    0    0    0    0  0.00000000000E+00  0.00000000000E+00  0.45593999997E+02  0.45594000000E+02  0.51100000000E-03 0.  1.
         11   -1    0    0    0    0 -0.00000000000E+00 -0.00000000000E+00 -0.45593999997E+02  0.45594000000E+02  0.51100000000E-03 0. -1.
    9900012    2    1    2    0    0  0.12017222404E+02  0.16209171808E+02 -0.35298944392E+02  0.50528851457E+02  0.29999974490E+02 0.  0.
        -12    1    1    2    0    0 -0.12017222404E+02 -0.16209171808E+02  0.35298944392E+02  0.40659148543E+02  0.00000000000E+00 0.  1.
         11    1    3    3    0    0  0.90271279355E+01  0.23368317163E+02 -0.19592135146E+02  0.31802815058E+02  0.51100000000E-03 0. -1.
        -11    1    3    3    0    0 -0.23692510664E+00 -0.13412264573E+01 -0.95972076030E+01  0.96933696902E+01  0.51100000000E-03 0.  1.
         12    1    3    3    0    0  0.32270195750E+01 -0.58179188978E+01 -0.61096016431E+01  0.90326667090E+01  0.00000000000E+00 0. -1.
</event>
<event>
 7    1  0.1023000E-012  0.5052887E+02  0.7816164E-02  0.1300439E+00
        -11   -1    0    0    0    0  0.00000000000E+00  0.00000000000E+00  0.45593999997E+02  0.45594000000E+02  0.51100000000E-03 0.  1.
         11   -1    0    0    0    0 -0.00000000000E+00 -0.00000000000E+00 -0.45593999997E+02  0.45594000000E+02  0.51100000000E-03 0. -1.
    9900012    2    1    2    0    0  0.67954536962E+00 -0.26979954427E+02 -0.30410286038E+02  0.50528865482E+02  0.30000017120E+02 0.  0.
        -12    1    1    2    0    0 -0.67954536962E+00  0.26979954427E+02  0.30410286038E+02  0.40659134518E+02  0.00000000000E+00 0.  1.
         11    1    3    3    0    0 -0.63277866327E+01 -0.12571027733E+02 -0.24093820570E+02  0.27903114733E+02  0.51100000000E-03 0. -1.
        -11    1    3    3    0    0  0.54009032604E+01 -0.10613881614E+02  0.31351681634E+01  0.12314768313E+02  0.51100000000E-03 0.  1.
        -12    1    3    3    0    0  0.16064287419E+01 -0.37950450808E+01 -0.94516336324E+01  0.10310982436E+02  0.00000000000E+00 0.  1.
</event>
<event>
 7    1  0.1023000E-012  0.5052885E+02  0.7816164E-02  0.1300439E+00
        -11   -1    0    0    0    0  0.00000000000E+00  0.00000000000E+00  0.45593999997E+02  0.45594000000E+02  0.51100000000E-03 0.  1.
         11   -1    0    0    0    0 -0.00000000000E+00 -0.00000000000E+00 -0.45593999997E+02  0.45594000000E+02  0.51100000000E-03 0. -1.
    9900012    2    1    2    0    0  0.23128906422E+02  0.46214009276E+01 -0.33118919205E+02  0.50528850131E+02  0.29999970458E+02 0.  0.
        -12    1    1    2    0    0 -0.23128906422E+02 -0.46214009276E+01  0.33118919205E+02  0.40659149869E+02  0.00000000000E+00 0.  1.
         11    1    3    3    0    0  0.20013569971E+02  0.12108711223E+02 -0.11246454131E+02  0.25954702874E+02  0.51100000000E-03 0. -1.
        -11    1    3    3    0    0  0.41302832291E+01 -0.58162680211E+01 -0.86691394533E+01  0.11226851400E+02  0.51100000000E-03 0.  1.
         12    1    3    3    0    0 -0.10149467785E+01 -0.16710422748E+01 -0.13203325620E+02  0.13347295856E+02  0.00000000000E+00 0. -1.
</event>
<event>
 7    1  0.1023000E-012  0.5052886E+02  0.7816164E-02  0.1300439E+00
        -11   -1    0    0    0    0  0.00000000000E+00  0.00000000000E+00  0.45593999997E+02  0.45594000000E+02  0.51100000000E-03 0.  1.
         11   -1    0    0    0    0 -0.00000000000E+00 -0.00000000000E+00 -0.45593999997E+02  0.45594000000E+02  0.51100000000E-03 0. -1.
    9900012    2    1    2    0    0  0.40934988172E+00 -0.40337479335E+02  0.50878099960E+01  0.50528860597E+02  0.30000002272E+02 0.  0.
        -12    1    1    2    0    0 -0.40934988172E+00  0.40337479335E+02 -0.50878099960E+01  0.40659139403E+02  0.00000000000E+00 0.  1.
         11    1    3    3    0    0  0.67544199327E+01 -0.28006440430E+02 -0.41019136767E+01  0.29099975778E+02  0.51100000000E-03 0. -1.
        -11    1    3    3    0    0  0.24300036791E+01  0.14602992129E+01  0.24523625997E+01  0.37485296121E+01  0.51100000000E-03 0.  1.
         12    1    3    3    0    0 -0.87750737300E+01 -0.13791338117E+02  0.67373610731E+01  0.17680355208E+02  0.00000000000E+00 0. -1.
</event>
<event>
 7    1  0.1023000E-012  0.5052886E+02  0.7816164E-02  0.1300439E+00
        -11   -1    0    0    0    0  0.00000000000E+00  0.00000000000E+00  0.45593999997E+02  0.45594000000E+02  0.51100000000E-03 0.  1.
         11   -1    0    0    0    0 -0.00000000000E+00 -0.00000000000E+00 -0.45593999997E+02  0.45594000000E+02  0.51100000000E-03 0. -1.
    9900012    2    1    2    0    0  0.34456986007E+02  0.19875280565E+02  0.84175515648E+01  0.50528857896E+02  0.29999994062E+02 0.  0.
        -12    1    1    2    0    0 -0.34456986007E+02 -0.19875280565E+02 -0.84175515648E+01  0.40659142104E+02  0.00000000000E+00 0.  1.
         11    1    3    3    0    0  0.14257927228E+02  0.78918585564E+01  0.69554174066E+01  0.17718570820E+02  0.51100000000E-03 0. -1.
        -11    1    3    3    0    0 -0.74977825039E+00 -0.17921931588E+01 -0.62769599647E+01  0.65707191694E+01  0.51100000000E-03 0.  1.
        -12    1    3    3    0    0  0.20948837029E+02  0.13775615167E+02  0.77390941229E+01  0.26239567907E+02  0.00000000000E+00 0.  1.
</event>
<event>
 7    1  0.1023000E-012  0.5052886E+02  0.7816164E-02  0.1300439E+00
        -11   -1    0    0    0    0  0.00000000000E+00  0.00000000000E+00  0.45593999997E+02  0.45594000000E+02  0.51100000000E-03 0. -1.
         11   -1    0    0    0    0 -0.00000000000E+00 -0.00000000000E+00 -0.45593999997E+02  0.45594000000E+02  0.51100000000E-03 0.  1.
    9900012    2    1    2    0    0 -0.16210787993E+02  0.55362633367E+01  0.36874459227E+02  0.50528860777E+02  0.30000002818E+02 0.  0.
        -12    1    1    2    0    0  0.16210787993E+02 -0.55362633367E+01 -0.36874459227E+02  0.40659139223E+02  0.00000000000E+00 0.  1.
         11    1    3    3    0    0 -0.69506368664E+01 -0.96519642420E+00  0.42021237900E+01  0.81792910202E+01  0.51100000000E-03 0. -1.
        -11    1    3    3    0    0 -0.31795396499E+01  0.14298753200E+02  0.27577286331E+02  0.31226119469E+02  0.51100000000E-03 0.  1.
        -12    1    3    3    0    0 -0.60806114767E+01 -0.77972934391E+01  0.50950491057E+01  0.11123450287E+02  0.00000000000E+00 0.  1.
</event>
<event>
 7    1  0.1023000E-012  0.5052887E+02  0.7816164E-02  0.1300439E+00
        -11   -1    0    0    0    0  0.00000000000E+00  0.00000000000E+00  0.45593999997E+02  0.45594000000E+02  0.51100000000E-03 0. -1.
         11   -1    0    0    0    0 -0.00000000000E+00 -0.00000000000E+00 -0.45593999997E+02  0.45594000000E+02  0.51100000000E-03 0.  1.
    9900012    2    1    2    0    0  0.14604959110E+02  0.97828146986E+01  0.36662745690E+02  0.50528865533E+02  0.30000017275E+02 0.  0.
        -12    1    1    2    0    0 -0.14604959110E+02 -0.97828146986E+01 -0.36662745690E+02  0.40659134467E+02  0.00000000000E+00 0.  1.
         11    1    3    3    0    0  0.19520065476E+01  0.37166863532E+01  0.12504712292E+02  0.13190599561E+02  0.51100000000E-03 0. -1.
        -11    1    3    3    0    0 -0.22429551783E+01 -0.78015968357E+01  0.68065751803E+01  0.10593640879E+02  0.51100000000E-03 0.  1.
        -12    1    3    3    0    0  0.14895907741E+02  0.13867725181E+02  0.17351458218E+02  0.26744625094E+02  0.00000000000E+00 0.  1.
</event>
<event>
 7    1  0.1023000E-012  0.5052886E+02  0.7816164E-02  0.1300439E+00
        -11   -1    0    0    0    0  0.00000000000E+00  0.00000000000E+00  0.45593999997E+02  0.45594000000E+02  0.51100000000E-03 0.  1.
         11   -1    0    0    0    0 -0.00000000000E+00 -0.00000000000E+00 -0.45593999997E+02  0.45594000000E+02  0.51100000000E-03 0. -1.
    9900012    2    1    2    0    0  0.22504594947E+02 -0.13459152955E+02 -0.31073466340E+02  0.50528857087E+02  0.29999991603E+02 0.  0.
        -12    1    1    2    0    0 -0.22504594947E+02  0.13459152955E+02  0.31073466340E+02  0.40659142913E+02  0.00000000000E+00 0.  1.
         11    1    3    3    0    0  0.78597813760E+01 -0.79812315830E+01  0.89992025848E+00  0.11237707844E+02  0.51100000000E-03 0. -1.
        -11    1    3    3    0    0  0.58838864430E+01  0.32341711957E+01 -0.23162419563E+02  0.24115921365E+02  0.51100000000E-03 0.  1.
         12    1    3    3    0    0  0.87609271277E+01 -0.87120925677E+01 -0.88109670354E+01  0.15175227878E+02  0.00000000000E+00 0. -1.
</event>
<event>
 7    1  0.1023000E-012  0.5052884E+02  0.7816164E-02  0.1300439E+00
        -11   -1    0    0    0    0  0.00000000000E+00  0.00000000000E+00  0.45593999997E+02  0.45594000000E+02  0.51100000000E-03 0. -1.
         11   -1    0    0    0    0 -0.00000000000E+00 -0.00000000000E+00 -0.45593999997E+02  0.45594000000E+02  0.51100000000E-03 0.  1.
    9900012    2    1    2    0    0 -0.39083638255E+02 -0.44902292674E+01  0.10270082569E+02  0.50528837022E+02  0.29999930612E+02 0.  0.
        -12    1    1    2    0    0  0.39083638255E+02  0.44902292674E+01 -0.10270082569E+02  0.40659162978E+02  0.00000000000E+00 0.  1.
         11    1    3    3    0    0 -0.57120481778E+01  0.80508653687E+01  0.85101330235E+01  0.13033276331E+02  0.51100000000E-03 0. -1.
        -11    1    3    3    0    0 -0.27712745010E+02 -0.52787772133E+01  0.61311355232E+00  0.28217682990E+02  0.51100000000E-03 0.  1.
        -12    1    3    3    0    0 -0.56588450667E+01 -0.72623174228E+01  0.11468359935E+01  0.92778777010E+01  0.00000000000E+00 0.  1.
</event>
<event>
 7    1  0.1023000E-012  0.5052885E+02  0.7816164E-02  0.1300439E+00
        -11   -1    0    0    0    0  0.00000000000E+00  0.00000000000E+00  0.45593999997E+02  0.45594000000E+02  0.51100000000E-03 0.  1.
         11   -1    0    0    0    0 -0.00000000000E+00 -0.00000000000E+00 -0.45593999997E+02  0.45594000000E+02  0.51100000000E-03 0. -1.
    9900012    2    1    2    0    0 -0.17106482008E+02 -0.29268611640E+02 -0.22447346311E+02  0.50528847150E+02  0.29999961398E+02 0.  0.
        -12    1    1    2    0    0  0.17106482008E+02  0.29268611640E+02  0.22447346311E+02  0.40659152850E+02  0.00000000000E+00 0.  1.
         11    1    3    3    0    0 -0.19478402520E+02 -0.27044582917E+02 -0.20001092487E+02  0.38869799726E+02  0.51100000000E-03 0. -1.
        -11    1    3    3    0    0 -0.10553021627E+01 -0.56009619913E+01  0.93862144501E+00  0.57762832653E+01  0.51100000000E-03 0.  1.
         12    1    3    3    0    0  0.34272226743E+01  0.33769332680E+01 -0.33848752698E+01  0.58827641588E+01  0.00000000000E+00 0. -1.
</event>
<event>
 7    1  0.1023000E-012  0.5052879E+02  0.7816164E-02  0.1300439E+00
        -11   -1    0    0    0    0  0.00000000000E+00  0.00000000000E+00  0.45593999997E+02  0.45594000000E+02  0.51100000000E-03 0.  1.
         11   -1    0    0    0    0 -0.00000000000E+00 -0.00000000000E+00 -0.45593999997E+02  0.45594000000E+02  0.51100000000E-03 0. -1.
    9900012    2    1    2    0    0  0.26629047733E+02  0.30617537836E+02  0.25752243087E+01  0.50528787187E+02  0.29999779133E+02 0.  0.
        -12    1    1    2    0    0 -0.26629047733E+02 -0.30617537836E+02 -0.25752243087E+01  0.40659212813E+02  0.00000000000E+00 0.  1.
         11    1    3    3    0    0  0.15256168982E+02  0.13544745475E+02 -0.38415613704E+01  0.20759778805E+02  0.51100000000E-03 0. -1.
        -11    1    3    3    0    0  0.53656075371E+00  0.17902221751E+02  0.60158742795E+01  0.18893601686E+02  0.51100000000E-03 0.  1.
        -12    1    3    3    0    0  0.10836317998E+02 -0.82942939055E+00  0.40091139958E+00  0.10875406696E+02  0.00000000000E+00 0.  1.
</event>
<event>
 7    1  0.1023000E-012  0.5052886E+02  0.7816164E-02  0.1300439E+00
        -11   -1    0    0    0    0  0.00000000000E+00  0.00000000000E+00  0.45593999997E+02  0.45594000000E+02  0.51100000000E-03 0.  1.
         11   -1    0    0    0    0 -0.00000000000E+00 -0.00000000000E+00 -0.45593999997E+02  0.45594000000E+02  0.51100000000E-03 0. -1.
    9900012    2    1    2    0    0  0.19438424853E+02  0.22480317960E+02 -0.27747949251E+02  0.50528859035E+02  0.29999997523E+02 0.  0.
        -12    1    1    2    0    0 -0.19438424853E+02 -0.22480317960E+02  0.27747949251E+02  0.40659140965E+02  0.00000000000E+00 0.  1.
         11    1    3    3    0    0  0.13477648679E+02  0.18366400569E+02 -0.28998405895E+02  0.36876540354E+02  0.51100000000E-03 0. -1.
        -11    1    3    3    0    0  0.86586880773E+01  0.37886475707E+01  0.35464724510E+01  0.10094760856E+02  0.51100000000E-03 0.  1.
         12    1    3    3    0    0 -0.26979119032E+01  0.32526982074E+00 -0.22960158075E+01  0.35575578255E+01  0.00000000000E+00 0. -1.
</event>
<event>
 7    1  0.1023000E-012  0.5052885E+02  0.7816164E-02  0.1300439E+00
        -11   -1    0    0    0    0  0.00000000000E+00  0.00000000000E+00  0.45593999997E+02  0.45594000000E+02  0.51100000000E-03 0. -1.
         11   -1    0    0    0    0 -0.00000000000E+00 -0.00000000000E+00 -0.45593999997E+02  0.45594000000E+02  0.51100000000E-03 0.  1.
    9900012    2    1    2    0    0  0.36971569480E+00 -0.39274472953E+02 -0.10514056969E+02  0.50528852082E+02  0.29999976390E+02 0.  0.
        -12    1    1    2    0    0 -0.36971569480E+00  0.39274472953E+02  0.10514056969E+02  0.40659147918E+02  0.00000000000E+00 0.  1.
         11    1    3    3    0    0  0.56806900480E+01 -0.36907499729E+02 -0.17161293559E+01  0.37381531214E+02  0.51100000000E-03 0. -1.
        -11    1    3    3    0    0 -0.38388437785E+01 -0.19552639505E+01 -0.92909809642E-01  0.43091079315E+01  0.51100000000E-03 0.  1.
         12    1    3    3    0    0 -0.14721305747E+01 -0.41170927316E+00 -0.87050178033E+01  0.88382129365E+01  0.00000000000E+00 0. -1.
</event>
<event>
 7    1  0.1023000E-012  0.5052886E+02  0.7816164E-02  0.1300439E+00
        -11   -1    0    0    0    0  0.00000000000E+00  0.00000000000E+00  0.45593999997E+02  0.45594000000E+02  0.51100000000E-03 0.  1.
         11   -1    0    0    0    0 -0.00000000000E+00 -0.00000000000E+00 -0.45593999997E+02  0.45594000000E+02  0.51100000000E-03 0. -1.
    9900012    2    1    2    0    0 -0.22414450560E+02 -0.14335431275E+02 -0.30744978483E+02  0.50528857293E+02  0.29999992227E+02 0.  0.
        -12    1    1    2    0    0  0.22414450560E+02  0.14335431275E+02  0.30744978483E+02  0.40659142707E+02  0.00000000000E+00 0.  1.
         11    1    3    3    0    0 -0.11639055524E+02 -0.10610722261E+00 -0.19180519058E+02  0.22435935100E+02  0.51100000000E-03 0. -1.
        -11    1    3    3    0    0 -0.11014678598E+02 -0.18202353425E+02 -0.79373675955E+01  0.22707941770E+02  0.51100000000E-03 0.  1.
         12    1    3    3    0    0  0.23928356151E+00  0.39730293717E+01 -0.36270918294E+01  0.53849804225E+01  0.00000000000E+00 0. -1.
</event>
<event>
 7    1  0.1023000E-012  0.5052884E+02  0.7816164E-02  0.1300439E+00
        -11   -1    0    0    0    0  0.00000000000E+00  0.00000000000E+00  0.45593999997E+02  0.45594000000E+02  0.51100000000E-03 0.  1.
         11   -1    0    0    0    0 -0.00000000000E+00 -0.00000000000E+00 -0.45593999997E+02  0.45594000000E+02  0.51100000000E-03 0. -1.
    9900012    2    1    2    0    0  0.25234085949E+02  0.66497006748E+01 -0.31179960799E+02  0.50528836603E+02  0.29999929337E+02 0.  0.
        -12    1    1    2    0    0 -0.25234085949E+02 -0.66497006748E+01  0.31179960799E+02  0.40659163397E+02  0.00000000000E+00 0.  1.
         11    1    3    3    0    0  0.11913288504E+02  0.11106759167E+02 -0.73525916762E+00  0.16304206466E+02  0.51100000000E-03 0. -1.
        -11    1    3    3    0    0  0.45970282248E+01 -0.10323296632E+01 -0.18228801227E+02  0.18827840223E+02  0.51100000000E-03 0.  1.
         12    1    3    3    0    0  0.87237692207E+01 -0.34247288289E+01 -0.12215900405E+02  0.15396789914E+02  0.00000000000E+00 0. -1.
</event>
<event>
 7    1  0.1023000E-012  0.5052885E+02  0.7816164E-02  0.1300439E+00
        -11   -1    0    0    0    0  0.00000000000E+00  0.00000000000E+00  0.45593999997E+02  0.45594000000E+02  0.51100000000E-03 0.  1.
         11   -1    0    0    0    0 -0.00000000000E+00 -0.00000000000E+00 -0.45593999997E+02  0.45594000000E+02  0.51100000000E-03 0. -1.
    9900012    2    1    2    0    0 -0.35441954590E+02  0.63917570728E+01 -0.18872716958E+02  0.50528854054E+02  0.29999982383E+02 0.  0.
        -12    1    1    2    0    0  0.35441954590E+02 -0.63917570728E+01  0.18872716958E+02  0.40659145946E+02  0.00000000000E+00 0.  1.
         11    1    3    3    0    0 -0.91576803640E+01 -0.24049206611E+01 -0.73196585170E+01  0.11967629427E+02  0.51100000000E-03 0. -1.
        -11    1    3    3    0    0 -0.86175588373E+01  0.15604667388E+02 -0.48151173415E+01  0.18464921335E+02  0.51100000000E-03 0.  1.
        -12    1    3    3    0    0 -0.17666715389E+02 -0.68079896544E+01 -0.67379410996E+01  0.20096303293E+02  0.00000000000E+00 0.  1.
</event>
<event>
 7    1  0.1023000E-012  0.5052886E+02  0.7816164E-02  0.1300439E+00
        -11   -1    0    0    0    0  0.00000000000E+00  0.00000000000E+00  0.45593999997E+02  0.45594000000E+02  0.51100000000E-03 0.  1.
         11   -1    0    0    0    0 -0.00000000000E+00 -0.00000000000E+00 -0.45593999997E+02  0.45594000000E+02  0.51100000000E-03 0. -1.
    9900012    2    1    2    0    0  0.65810201414E+01 -0.44403321853E+01 -0.39876551578E+02  0.50528859063E+02  0.29999997607E+02 0.  0.
        -12    1    1    2    0    0 -0.65810201414E+01  0.44403321853E+01  0.39876551578E+02  0.40659140937E+02  0.00000000000E+00 0.  1.
         11    1    3    3    0    0 -0.14182936257E+01  0.53835727907E+01  0.21714038662E+01  0.59757349182E+01  0.51100000000E-03 0.  1.
        -11    1    3    3    0    0  0.80622781119E+01 -0.10413193661E+02 -0.33664826353E+02  0.36149072798E+02  0.51100000000E-03 0. -1.
        -12    1    3    3    0    0 -0.62964344797E-01  0.58928868550E+00 -0.83831290915E+01  0.84040513461E+01  0.00000000000E+00 0.  1.
</event>
<event>
 7    1  0.1023000E-012  0.5052898E+02  0.7816164E-02  0.1300438E+00
        -11   -1    0    0    0    0  0.00000000000E+00  0.00000000000E+00  0.45593999997E+02  0.45594000000E+02  0.51100000000E-03 0.  1.
         11   -1    0    0    0    0 -0.00000000000E+00 -0.00000000000E+00 -0.45593999997E+02  0.45594000000E+02  0.51100000000E-03 0. -1.
    9900012    2    1    2    0    0 -0.99111907039E+01 -0.47345085235E+00 -0.39429684919E+02  0.50528979972E+02  0.30000365120E+02 0.  0.
        -12    1    1    2    0    0  0.99111907039E+01  0.47345085235E+00  0.39429684919E+02  0.40659020028E+02  0.00000000000E+00 0.  1.
         11    1    3    3    0    0 -0.28164492448E+01  0.55451604646E+01 -0.25939269219E+02  0.26674461172E+02  0.51100000000E-03 0. -1.
        -11    1    3    3    0    0 -0.48743565686E+01 -0.10931364993E+02 -0.34466045994E+01  0.12455246930E+02  0.51100000000E-03 0.  1.
        -12    1    3    3    0    0 -0.22203848905E+01  0.49127536760E+01 -0.10043811100E+02  0.11399271870E+02  0.00000000000E+00 0.  1.
</event>
<event>
 7    1  0.1023000E-012  0.5052886E+02  0.7816164E-02  0.1300439E+00
        -11   -1    0    0    0    0  0.00000000000E+00  0.00000000000E+00  0.45593999997E+02  0.45594000000E+02  0.51100000000E-03 0. -1.
         11   -1    0    0    0    0 -0.00000000000E+00 -0.00000000000E+00 -0.45593999997E+02  0.45594000000E+02  0.51100000000E-03 0.  1.
    9900012    2    1    2    0    0  0.19204042352E+02  0.35775936421E+02  0.21101449302E+01  0.50528861038E+02  0.30000003611E+02 0.  0.
        -12    1    1    2    0    0 -0.19204042352E+02 -0.35775936421E+02 -0.21101449302E+01  0.40659138962E+02  0.00000000000E+00 0.  1.
         11    1    3    3    0    0  0.63895316318E+00  0.30404776148E+01 -0.50882240522E+01  0.59617773807E+01  0.51100000000E-03 0.  1.
        -11    1    3    3    0    0  0.18416730898E+02  0.34535901376E+02  0.21424936295E+01  0.39198147151E+02  0.51100000000E-03 0. -1.
        -12    1    3    3    0    0  0.14835829100E+00 -0.18004425695E+01  0.50558753529E+01  0.53689365066E+01  0.00000000000E+00 0.  1.
</event>
<event>
 7    1  0.1023000E-012  0.5052885E+02  0.7816164E-02  0.1300439E+00
        -11   -1    0    0    0    0  0.00000000000E+00  0.00000000000E+00  0.45593999997E+02  0.45594000000E+02  0.51100000000E-03 0.  1.
         11   -1    0    0    0    0 -0.00000000000E+00 -0.00000000000E+00 -0.45593999997E+02  0.45594000000E+02  0.51100000000E-03 0. -1.
    9900012    2    1    2    0    0  0.71830199518E+01 -0.22380973932E+02  0.33176235427E+02  0.50528851375E+02  0.29999974239E+02 0.  0.
        -12    1    1    2    0    0 -0.71830199518E+01  0.22380973932E+02 -0.33176235427E+02  0.40659148625E+02  0.00000000000E+00 0.  1.
         11    1    3    3    0    0 -0.16652246153E-01 -0.21654824746E+02  0.20975516176E+02  0.30148034616E+02  0.51100000000E-03 0. -1.
        -11    1    3    3    0    0  0.88863563962E+01 -0.45557662979E+01  0.32524174224E+01  0.10502407148E+02  0.51100000000E-03 0.  1.
         12    1    3    3    0    0 -0.16866841982E+01  0.38296171122E+01  0.89483018292E+01  0.98784096107E+01  0.00000000000E+00 0. -1.
</event>
<event>
 7    1  0.1023000E-012  0.5052882E+02  0.7816164E-02  0.1300439E+00
        -11   -1    0    0    0    0  0.00000000000E+00  0.00000000000E+00  0.45593999997E+02  0.45594000000E+02  0.51100000000E-03 0.  1.
         11   -1    0    0    0    0 -0.00000000000E+00 -0.00000000000E+00 -0.45593999997E+02  0.45594000000E+02  0.51100000000E-03 0. -1.
    9900012    2    1    2    0    0 -0.35704695824E+02 -0.19006837951E+02  0.41332118153E+01  0.50528823512E+02  0.29999889548E+02 0.  0.
        -12    1    1    2    0    0  0.35704695824E+02  0.19006837951E+02 -0.41332118153E+01  0.40659176488E+02  0.00000000000E+00 0.  1.
         11    1    3    3    0    0 -0.83508423723E+01 -0.73025761907E+01 -0.73522780136E+01  0.13308650555E+02  0.51100000000E-03 0. -1.
        -11    1    3    3    0    0 -0.25434178154E+02 -0.14226467250E+02  0.14756273187E+02  0.32665538223E+02  0.51100000000E-03 0.  1.
        -12    1    3    3    0    0 -0.19196752973E+01  0.25222054900E+01 -0.32707833583E+01  0.45546347337E+01  0.00000000000E+00 0.  1.
</event>
<event>
 7    1  0.1023000E-012  0.5052885E+02  0.7816164E-02  0.1300439E+00
        -11   -1    0    0    0    0  0.00000000000E+00  0.00000000000E+00  0.45593999997E+02  0.45594000000E+02  0.51100000000E-03 0.  1.
         11   -1    0    0    0    0 -0.00000000000E+00 -0.00000000000E+00 -0.45593999997E+02  0.45594000000E+02  0.51100000000E-03 0. -1.
    9900012    2    1    2    0    0  0.27718648259E+02  0.64997332586E+01 -0.29027506008E+02  0.50528854673E+02  0.29999984263E+02 0.  0.
        -12    1    1    2    0    0 -0.27718648259E+02 -0.64997332586E+01  0.29027506008E+02  0.40659145327E+02  0.00000000000E+00 0.  1.
         11    1    3    3    0    0  0.23042849165E+02 -0.34482143023E+01 -0.59030150705E+01  0.24035570863E+02  0.51100000000E-03 0. -1.
        -11    1    3    3    0    0  0.13815726565E+01  0.89368713274E+01 -0.19485529611E+02  0.21481673040E+02  0.51100000000E-03 0.  1.
         12    1    3    3    0    0  0.32942264373E+01  0.10110762335E+01 -0.36389613263E+01  0.50116107695E+01  0.00000000000E+00 0. -1.
</event>
<event>
 7    1  0.1023000E-012  0.5052886E+02  0.7816164E-02  0.1300439E+00
        -11   -1    0    0    0    0  0.00000000000E+00  0.00000000000E+00  0.45593999997E+02  0.45594000000E+02  0.51100000000E-03 0.  1.
         11   -1    0    0    0    0 -0.00000000000E+00 -0.00000000000E+00 -0.45593999997E+02  0.45594000000E+02  0.51100000000E-03 0. -1.
    9900012    2    1    2    0    0 -0.30364068018E+02  0.66771886072E+01 -0.26203137094E+02  0.50528857512E+02  0.29999992893E+02 0.  0.
        -12    1    1    2    0    0  0.30364068018E+02 -0.66771886072E+01  0.26203137094E+02  0.40659142488E+02  0.00000000000E+00 0.  1.
         11    1    3    3    0    0 -0.96601201941E+01  0.12093295196E+02 -0.20298364334E+02  0.25526247389E+02  0.51100000000E-03 0. -1.
        -11    1    3    3    0    0 -0.10251826431E+02  0.15058745934E+01  0.14581478187E+01  0.10463928459E+02  0.51100000000E-03 0.  1.
         12    1    3    3    0    0 -0.10452121393E+02 -0.69219811820E+01 -0.73629205784E+01  0.14538681664E+02  0.00000000000E+00 0. -1.
</event>
<event>
 7    1  0.1023000E-012  0.5052886E+02  0.7816164E-02  0.1300439E+00
        -11   -1    0    0    0    0  0.00000000000E+00  0.00000000000E+00  0.45593999997E+02  0.45594000000E+02  0.51100000000E-03 0.  1.
         11   -1    0    0    0    0 -0.00000000000E+00 -0.00000000000E+00 -0.45593999997E+02  0.45594000000E+02  0.51100000000E-03 0. -1.
    9900012    2    1    2    0    0  0.33827041798E+01  0.31735441961E+02 -0.25190963207E+02  0.50528860912E+02  0.30000003229E+02 0.  0.
        -12    1    1    2    0    0 -0.33827041798E+01 -0.31735441961E+02  0.25190963207E+02  0.40659139088E+02  0.00000000000E+00 0.  1.
         11    1    3    3    0    0  0.22957686956E+01  0.85740596096E+01  0.42815301100E+01  0.98547730789E+01  0.51100000000E-03 0. -1.
        -11    1    3    3    0    0  0.42173701592E+01  0.21005559777E+01 -0.12773182761E+02  0.13614431482E+02  0.51100000000E-03 0.  1.
         12    1    3    3    0    0 -0.31304346749E+01  0.21060826374E+02 -0.16699310557E+02  0.27059656352E+02  0.00000000000E+00 0. -1.
</event>
<event>
 7    1  0.1023000E-012  0.5052885E+02  0.7816164E-02  0.1300439E+00
        -11   -1    0    0    0    0  0.00000000000E+00  0.00000000000E+00  0.45593999997E+02  0.45594000000E+02  0.51100000000E-03 0.  1.
         11   -1    0    0    0    0 -0.00000000000E+00 -0.00000000000E+00 -0.45593999997E+02  0.45594000000E+02  0.51100000000E-03 0. -1.
    9900012    2    1    2    0    0 -0.18082253244E+02  0.10865237171E+02 -0.34758381187E+02  0.50528851904E+02  0.29999975849E+02 0.  0.
        -12    1    1    2    0    0  0.18082253244E+02 -0.10865237171E+02  0.34758381187E+02  0.40659148096E+02  0.00000000000E+00 0.  1.
         11    1    3    3    0    0 -0.12964100356E+02 -0.73329166093E+01 -0.11471873597E+02  0.18800091705E+02  0.51100000000E-03 0. -1.
        -11    1    3    3    0    0 -0.63104240238E+01  0.51899204822E+01 -0.63950744017E+01  0.10375630238E+02  0.51100000000E-03 0.  1.
         12    1    3    3    0    0  0.11922711364E+01  0.13008233298E+02 -0.16891433188E+02  0.21353129961E+02  0.00000000000E+00 0. -1.
</event>
<event>
 7    1  0.1023000E-012  0.5052889E+02  0.7816164E-02  0.1300439E+00
        -11   -1    0    0    0    0  0.00000000000E+00  0.00000000000E+00  0.45593999997E+02  0.45594000000E+02  0.51100000000E-03 0.  1.
         11   -1    0    0    0    0 -0.00000000000E+00 -0.00000000000E+00 -0.45593999997E+02  0.45594000000E+02  0.51100000000E-03 0. -1.
    9900012    2    1    2    0    0  0.28688916576E+02  0.19982367423E+02 -0.20756074126E+02  0.50528885951E+02  0.30000079337E+02 0.  0.
        -12    1    1    2    0    0 -0.28688916576E+02 -0.19982367423E+02  0.20756074126E+02  0.40659114049E+02  0.00000000000E+00 0.  1.
         11    1    3    3    0    0 -0.30784081933E+01  0.30772921877E+00 -0.69391763967E+01  0.75975959094E+01  0.51100000000E-03 0.  1.
        -11    1    3    3    0    0  0.21180285572E+02  0.74076751209E+01 -0.13360819390E+01  0.22478061812E+02  0.51100000000E-03 0. -1.
        -12    1    3    3    0    0  0.10587039197E+02  0.12266963083E+02 -0.12480815790E+02  0.20453228230E+02  0.00000000000E+00 0.  1.
</event>
<event>
 7    1  0.1023000E-012  0.5052887E+02  0.7816164E-02  0.1300439E+00
        -11   -1    0    0    0    0  0.00000000000E+00  0.00000000000E+00  0.45593999997E+02  0.45594000000E+02  0.51100000000E-03 0.  1.
         11   -1    0    0    0    0 -0.00000000000E+00 -0.00000000000E+00 -0.45593999997E+02  0.45594000000E+02  0.51100000000E-03 0. -1.
    9900012    2    1    2    0    0  0.24710965192E+02  0.28567634583E+02 -0.15047371031E+02  0.50528869152E+02  0.30000028275E+02 0.  0.
        -12    1    1    2    0    0 -0.24710965192E+02 -0.28567634583E+02  0.15047371031E+02  0.40659130848E+02  0.00000000000E+00 0.  1.
         11    1    3    3    0    0  0.99323015780E+01  0.14612699391E+02 -0.52819279038E+01  0.18441267873E+02  0.51100000000E-03 0. -1.
        -11    1    3    3    0    0 -0.13935943566E+01  0.10413311488E+00  0.56371748019E+01  0.58078127505E+01  0.51100000000E-03 0.  1.
        -12    1    3    3    0    0  0.16172257971E+02  0.13850802077E+02 -0.15402617929E+02  0.26279788529E+02  0.00000000000E+00 0.  1.
</event>
<event>
 7    1  0.1023000E-012  0.5052887E+02  0.7816164E-02  0.1300439E+00
        -11   -1    0    0    0    0  0.00000000000E+00  0.00000000000E+00  0.45593999997E+02  0.45594000000E+02  0.51100000000E-03 0.  1.
         11   -1    0    0    0    0 -0.00000000000E+00 -0.00000000000E+00 -0.45593999997E+02  0.45594000000E+02  0.51100000000E-03 0. -1.
    9900012    2    1    2    0    0 -0.14338767818E+02 -0.34558586806E+02 -0.15914420910E+02  0.50528868462E+02  0.30000026176E+02 0.  0.
        -12    1    1    2    0    0  0.14338767818E+02  0.34558586806E+02  0.15914420910E+02  0.40659131538E+02  0.00000000000E+00 0.  1.
         11    1    3    3    0    0  0.20623473429E+00 -0.21771960322E+02 -0.14548479281E+02  0.26186237582E+02  0.51100000000E-03 0. -1.
        -11    1    3    3    0    0 -0.16736436185E+02 -0.71971004666E+01 -0.18897993934E+01  0.18316055616E+02  0.51100000000E-03 0.  1.
        -12    1    3    3    0    0  0.21914336331E+01 -0.55895260170E+01  0.52385776414E+00  0.60265752647E+01  0.00000000000E+00 0.  1.
</event>
<event>
 7    1  0.1023000E-012  0.5052883E+02  0.7816164E-02  0.1300439E+00
        -11   -1    0    0    0    0  0.00000000000E+00  0.00000000000E+00  0.45593999997E+02  0.45594000000E+02  0.51100000000E-03 0.  1.
         11   -1    0    0    0    0 -0.00000000000E+00 -0.00000000000E+00 -0.45593999997E+02  0.45594000000E+02  0.51100000000E-03 0. -1.
    9900012    2    1    2    0    0  0.11777788386E+02 -0.14258963863E+02 -0.36209586212E+02  0.50528825348E+02  0.29999895128E+02 0.  0.
        -12    1    1    2    0    0 -0.11777788386E+02  0.14258963863E+02  0.36209586212E+02  0.40659174652E+02  0.00000000000E+00 0.  1.
         11    1    3    3    0    0  0.91328952535E+00 -0.14998622022E+01 -0.56134928491E+00  0.18435828333E+01  0.51100000000E-03 0. -1.
        -11    1    3    3    0    0  0.17449478135E+02 -0.81054823376E+01 -0.97674745737E+01  0.21577457934E+02  0.51100000000E-03 0.  1.
        -12    1    3    3    0    0 -0.65849792740E+01 -0.46536193234E+01 -0.25880762354E+02  0.27107784580E+02  0.00000000000E+00 0.  1.
</event>
<event>
 7    1  0.1023000E-012  0.5052886E+02  0.7816164E-02  0.1300439E+00
        -11   -1    0    0    0    0  0.00000000000E+00  0.00000000000E+00  0.45593999997E+02  0.45594000000E+02  0.51100000000E-03 0. -1.
         11   -1    0    0    0    0 -0.00000000000E+00 -0.00000000000E+00 -0.45593999997E+02  0.45594000000E+02  0.51100000000E-03 0.  1.
    9900012    2    1    2    0    0  0.27139707815E+01 -0.39816890013E+02  0.77727413248E+01  0.50528857419E+02  0.29999992610E+02 0.  0.
        -12    1    1    2    0    0 -0.27139707815E+01  0.39816890013E+02 -0.77727413248E+01  0.40659142581E+02  0.00000000000E+00 0.  1.
         11    1    3    3    0    0  0.89161398934E+01 -0.17251679439E+02  0.56910715895E+01  0.20236261763E+02  0.51100000000E-03 0. -1.
        -11    1    3    3    0    0 -0.67662520477E+01 -0.47887237538E+01 -0.65105244502E+01  0.10540444528E+02  0.51100000000E-03 0.  1.
         12    1    3    3    0    0  0.56408293579E+00 -0.17776486821E+02  0.85921941855E+01  0.19752151128E+02  0.00000000000E+00 0. -1.
</event>
<event>
 7    1  0.1023000E-012  0.5052886E+02  0.7816164E-02  0.1300439E+00
        -11   -1    0    0    0    0  0.00000000000E+00  0.00000000000E+00  0.45593999997E+02  0.45594000000E+02  0.51100000000E-03 0.  1.
         11   -1    0    0    0    0 -0.00000000000E+00 -0.00000000000E+00 -0.45593999997E+02  0.45594000000E+02  0.51100000000E-03 0. -1.
    9900012    2    1    2    0    0  0.24100718756E+01  0.38894096451E+02  0.11602007863E+02  0.50528858695E+02  0.29999996489E+02 0.  0.
        -12    1    1    2    0    0 -0.24100718756E+01 -0.38894096451E+02 -0.11602007863E+02  0.40659141305E+02  0.00000000000E+00 0.  1.
         11    1    3    3    0    0  0.12904859549E+02  0.20563996026E+02  0.12261454069E+02  0.27198466660E+02  0.51100000000E-03 0. -1.
        -11    1    3    3    0    0 -0.56673942088E+01  0.38332956702E+01 -0.36595040433E+01  0.77592192208E+01  0.51100000000E-03 0.  1.
         12    1    3    3    0    0 -0.48273934642E+01  0.14496804755E+02  0.30000578369E+01  0.15571172814E+02  0.00000000000E+00 0. -1.
</event>
<event>
 7    1  0.1023000E-012  0.5052885E+02  0.7816164E-02  0.1300439E+00
        -11   -1    0    0    0    0  0.00000000000E+00  0.00000000000E+00  0.45593999997E+02  0.45594000000E+02  0.51100000000E-03 0. -1.
         11   -1    0    0    0    0 -0.00000000000E+00 -0.00000000000E+00 -0.45593999997E+02  0.45594000000E+02  0.51100000000E-03 0.  1.
    9900012    2    1    2    0    0  0.45302854140E+01 -0.39333146624E+02 -0.92491214340E+01  0.50528853961E+02  0.29999982101E+02 0.  0.
        -12    1    1    2    0    0 -0.45302854140E+01  0.39333146624E+02  0.92491214340E+01  0.40659146039E+02  0.00000000000E+00 0.  1.
         11    1    3    3    0    0  0.14093728829E+02 -0.19519920484E+02 -0.10906106778E+02  0.26431111466E+02  0.51100000000E-03 0. -1.
        -11    1    3    3    0    0 -0.48162026035E+01 -0.15327122321E+01  0.12500466461E+01  0.52064989372E+01  0.51100000000E-03 0.  1.
         12    1    3    3    0    0 -0.47472408117E+01 -0.18280513908E+02  0.40693869815E+00  0.18891243558E+02  0.00000000000E+00 0. -1.
</event>
<event>
 7    1  0.1023000E-012  0.5052886E+02  0.7816164E-02  0.1300439E+00
        -11   -1    0    0    0    0  0.00000000000E+00  0.00000000000E+00  0.45593999997E+02  0.45594000000E+02  0.51100000000E-03 0.  1.
         11   -1    0    0    0    0 -0.00000000000E+00 -0.00000000000E+00 -0.45593999997E+02  0.45594000000E+02  0.51100000000E-03 0. -1.
    9900012    2    1    2    0    0 -0.57630569820E+00  0.17826904099E+02 -0.36538130591E+02  0.50528860498E+02  0.30000001969E+02 0.  0.
        -12    1    1    2    0    0  0.57630569820E+00 -0.17826904099E+02  0.36538130591E+02  0.40659139502E+02  0.00000000000E+00 0.  1.
         11    1    3    3    0    0  0.38164938458E+01  0.12990701658E+02 -0.16146554862E+02  0.21072142488E+02  0.51100000000E-03 0. -1.
        -11    1    3    3    0    0 -0.73904656309E+01 -0.10364165925E+01  0.56814782043E+00  0.74843793198E+01  0.51100000000E-03 0.  1.
        -12    1    3    3    0    0  0.29976660870E+01  0.58726190328E+01 -0.20959723549E+02  0.21972338690E+02  0.00000000000E+00 0.  1.
</event>
<event>
 7    1  0.1023000E-012  0.5052886E+02  0.7816164E-02  0.1300439E+00
        -11   -1    0    0    0    0  0.00000000000E+00  0.00000000000E+00  0.45593999997E+02  0.45594000000E+02  0.51100000000E-03 0.  1.
         11   -1    0    0    0    0 -0.00000000000E+00 -0.00000000000E+00 -0.45593999997E+02  0.45594000000E+02  0.51100000000E-03 0. -1.
    9900012    2    1    2    0    0  0.15989556916E+02  0.20273178526E+02 -0.31408559152E+02  0.50528864668E+02  0.30000014645E+02 0.  0.
        -12    1    1    2    0    0 -0.15989556916E+02 -0.20273178526E+02  0.31408559152E+02  0.40659135332E+02  0.00000000000E+00 0.  1.
         11    1    3    3    0    0  0.36374773450E+01  0.15708072936E+01 -0.14185355421E+02  0.14728305594E+02  0.51100000000E-03 0. -1.
        -11    1    3    3    0    0  0.11310758001E+02  0.21901141478E+02 -0.78927644407E+01  0.25882213494E+02  0.51100000000E-03 0.  1.
        -12    1    3    3    0    0  0.10413215695E+01 -0.31987702447E+01 -0.93304392905E+01  0.99183455799E+01  0.00000000000E+00 0.  1.
</event>
<event>
 7    1  0.1023000E-012  0.5052885E+02  0.7816164E-02  0.1300439E+00
        -11   -1    0    0    0    0  0.00000000000E+00  0.00000000000E+00  0.45593999997E+02  0.45594000000E+02  0.51100000000E-03 0. -1.
         11   -1    0    0    0    0 -0.00000000000E+00 -0.00000000000E+00 -0.45593999997E+02  0.45594000000E+02  0.51100000000E-03 0.  1.
    9900012    2    1    2    0    0 -0.39041346954E+02 -0.94632571041E+01  0.62758366245E+01  0.50528854260E+02  0.29999983008E+02 0.  0.
        -12    1    1    2    0    0  0.39041346954E+02  0.94632571041E+01 -0.62758366245E+01  0.40659145740E+02  0.00000000000E+00 0.  1.
         11    1    3    3    0    0 -0.20435600783E+02 -0.53284446111E+01 -0.22355994584E+01  0.21236854912E+02  0.51100000000E-03 0. -1.
        -11    1    3    3    0    0  0.14079057875E+01  0.12737557823E+01  0.83465386292E+01  0.85597523241E+01  0.51100000000E-03 0.  1.
        -12    1    3    3    0    0 -0.20013651958E+02 -0.54085682752E+01  0.16489745365E+00  0.20732247024E+02  0.00000000000E+00 0.  1.
</event>
<event>
 7    1  0.1023000E-012  0.5052888E+02  0.7816164E-02  0.1300439E+00
        -11   -1    0    0    0    0  0.00000000000E+00  0.00000000000E+00  0.45593999997E+02  0.45594000000E+02  0.51100000000E-03 0. -1.
         11   -1    0    0    0    0 -0.00000000000E+00 -0.00000000000E+00 -0.45593999997E+02  0.45594000000E+02  0.51100000000E-03 0.  1.
    9900012    2    1    2    0    0  0.35326836471E+02  0.14259451632E+02  0.14207289794E+02  0.50528875327E+02  0.30000047043E+02 0.  0.
        -12    1    1    2    0    0 -0.35326836471E+02 -0.14259451632E+02 -0.14207289794E+02  0.40659124673E+02  0.00000000000E+00 0.  1.
         11    1    3    3    0    0  0.18178286007E+02  0.68752732220E+01  0.21868453921E+02  0.29256601669E+02  0.51100000000E-03 0. -1.
        -11    1    3    3    0    0  0.70582391294E+00  0.26013275061E+01 -0.14168379614E+01  0.30450816508E+01  0.51100000000E-03 0.  1.
         12    1    3    3    0    0  0.16442726551E+02  0.47828509041E+01 -0.62443261659E+01  0.18227192007E+02  0.00000000000E+00 0. -1.
</event>
<event>
 7    1  0.1023000E-012  0.5052886E+02  0.7816164E-02  0.1300439E+00
        -11   -1    0    0    0    0  0.00000000000E+00  0.00000000000E+00  0.45593999997E+02  0.45594000000E+02  0.51100000000E-03 0.  1.
         11   -1    0    0    0    0 -0.00000000000E+00 -0.00000000000E+00 -0.45593999997E+02  0.45594000000E+02  0.51100000000E-03 0. -1.
    9900012    2    1    2    0    0  0.97507492669E+01  0.27189847558E+02 -0.28614692281E+02  0.50528861595E+02  0.30000005303E+02 0.  0.
        -12    1    1    2    0    0 -0.97507492669E+01 -0.27189847558E+02  0.28614692281E+02  0.40659138405E+02  0.00000000000E+00 0.  1.
         11    1    3    3    0    0  0.12953568634E+02  0.15385947000E+02 -0.15325933666E+02  0.25286489445E+02  0.51100000000E-03 0. -1.
        -11    1    3    3    0    0 -0.42057794893E+01  0.12862489725E+02 -0.17888294695E+01  0.13650352896E+02  0.51100000000E-03 0.  1.
         12    1    3    3    0    0  0.10029601225E+01 -0.10585891671E+01 -0.11499929146E+02  0.11592019254E+02  0.00000000000E+00 0. -1.
</event>
<event>
 7    1  0.1023000E-012  0.5052888E+02  0.7816164E-02  0.1300439E+00
        -11   -1    0    0    0    0  0.00000000000E+00  0.00000000000E+00  0.45593999997E+02  0.45594000000E+02  0.51100000000E-03 0.  1.
         11   -1    0    0    0    0 -0.00000000000E+00 -0.00000000000E+00 -0.45593999997E+02  0.45594000000E+02  0.51100000000E-03 0. -1.
    9900012    2    1    2    0    0 -0.11348310162E+02  0.29031038644E+02 -0.26107060440E+02  0.50528881059E+02  0.30000064466E+02 0.  0.
        -12    1    1    2    0    0  0.11348310162E+02 -0.29031038644E+02  0.26107060440E+02  0.40659118941E+02  0.00000000000E+00 0.  1.
         11    1    3    3    0    0  0.45318920283E+01  0.22463290736E+02 -0.20237405874E+02  0.30572701431E+02  0.51100000000E-03 0. -1.
        -11    1    3    3    0    0 -0.20187325386E+01  0.34934477353E+01  0.10387984269E+01  0.41663605910E+01  0.51100000000E-03 0.  1.
         12    1    3    3    0    0 -0.13861469652E+02  0.30743001733E+01 -0.69084529926E+01  0.15789819037E+02  0.00000000000E+00 0. -1.
</event>
<event>
 7    1  0.1023000E-012  0.5052887E+02  0.7816164E-02  0.1300439E+00
        -11   -1    0    0    0    0  0.00000000000E+00  0.00000000000E+00  0.45593999997E+02  0.45594000000E+02  0.51100000000E-03 0. -1.
         11   -1    0    0    0    0 -0.00000000000E+00 -0.00000000000E+00 -0.45593999997E+02  0.45594000000E+02  0.51100000000E-03 0.  1.
    9900012    2    1    2    0    0  0.16638800485E+02 -0.33632037133E+02 -0.15658904165E+02  0.50528869624E+02  0.30000029710E+02 0.  0.
        -12    1    1    2    0    0 -0.16638800485E+02  0.33632037133E+02  0.15658904165E+02  0.40659130376E+02  0.00000000000E+00 0.  1.
         11    1    3    3    0    0  0.14012239633E+02 -0.75422489916E+01 -0.68158692108E+01  0.17311396614E+02  0.51100000000E-03 0. -1.
        -11    1    3    3    0    0 -0.52975575306E+01 -0.22852599849E+02 -0.64127822525E+01  0.24319317674E+02  0.51100000000E-03 0.  1.
        -12    1    3    3    0    0  0.79241183828E+01 -0.32371882920E+01 -0.24302527014E+01  0.88981553356E+01  0.00000000000E+00 0.  1.
</event>
<event>
 7    1  0.1023000E-012  0.5052885E+02  0.7816164E-02  0.1300439E+00
        -11   -1    0    0    0    0  0.00000000000E+00  0.00000000000E+00  0.45593999997E+02  0.45594000000E+02  0.51100000000E-03 0.  1.
         11   -1    0    0    0    0 -0.00000000000E+00 -0.00000000000E+00 -0.45593999997E+02  0.45594000000E+02  0.51100000000E-03 0. -1.
    9900012    2    1    2    0    0 -0.16235358451E+02 -0.14143964271E+02 -0.34489534027E+02  0.50528849164E+02  0.29999967518E+02 0.  0.
        -12    1    1    2    0    0  0.16235358451E+02  0.14143964271E+02  0.34489534027E+02  0.40659150836E+02  0.00000000000E+00 0.  1.
         11    1    3    3    0    0  0.34796406485E+01  0.64899947273E+01 -0.40944431846E+01  0.84256985382E+01  0.51100000000E-03 0. -1.
        -11    1    3    3    0    0 -0.47503138301E+01 -0.89368167497E+01 -0.11309810870E+02  0.15177087905E+02  0.51100000000E-03 0.  1.
         12    1    3    3    0    0 -0.14964685269E+02 -0.11697142249E+02 -0.19085279973E+02  0.26926062721E+02  0.00000000000E+00 0. -1.
</event>
<event>
 7    1  0.1023000E-012  0.5052886E+02  0.7816164E-02  0.1300439E+00
        -11   -1    0    0    0    0  0.00000000000E+00  0.00000000000E+00  0.45593999997E+02  0.45594000000E+02  0.51100000000E-03 0.  1.
         11   -1    0    0    0    0 -0.00000000000E+00 -0.00000000000E+00 -0.45593999997E+02  0.45594000000E+02  0.51100000000E-03 0. -1.
    9900012    2    1    2    0    0 -0.13423548705E+02 -0.10634592014E+02 -0.36876545326E+02  0.50528858318E+02  0.29999995344E+02 0.  0.
        -12    1    1    2    0    0  0.13423548705E+02  0.10634592014E+02  0.36876545326E+02  0.40659141682E+02  0.00000000000E+00 0.  1.
         11    1    3    3    0    0 -0.13614633057E+02 -0.77470190343E+01 -0.35204050417E+02  0.38531801194E+02  0.51100000000E-03 0. -1.
        -11    1    3    3    0    0  0.55077152638E+01  0.87456502034E-01  0.49492588539E+00  0.55305992406E+01  0.51100000000E-03 0.  1.
         12    1    3    3    0    0 -0.53166309111E+01 -0.29750294817E+01 -0.21674207944E+01  0.64664578837E+01  0.00000000000E+00 0. -1.
</event>
<event>
 7    1  0.1023000E-012  0.5052889E+02  0.7816164E-02  0.1300439E+00
        -11   -1    0    0    0    0  0.00000000000E+00  0.00000000000E+00  0.45593999997E+02  0.45594000000E+02  0.51100000000E-03 0. -1.
         11   -1    0    0    0    0 -0.00000000000E+00 -0.00000000000E+00 -0.45593999997E+02  0.45594000000E+02  0.51100000000E-03 0.  1.
    9900012    2    1    2    0    0  0.31677752498E+02  0.10326787565E+02  0.23303226124E+02  0.50528894101E+02  0.30000104108E+02 0.  0.
        -12    1    1    2    0    0 -0.31677752498E+02 -0.10326787565E+02 -0.23303226124E+02  0.40659105899E+02  0.00000000000E+00 0.  1.
         11    1    3    3    0    0  0.10183982068E+02  0.71709284393E+01  0.77979117579E+01  0.14695003691E+02  0.51100000000E-03 0. -1.
        -11    1    3    3    0    0  0.16168978231E+02 -0.51933434927E+01  0.18859236639E+02  0.25378681615E+02  0.51100000000E-03 0.  1.
        -12    1    3    3    0    0  0.53247922000E+01  0.83492026180E+01 -0.33539222726E+01  0.10455208795E+02  0.00000000000E+00 0.  1.
</event>
<event>
 7    1  0.1023000E-012  0.5052887E+02  0.7816164E-02  0.1300439E+00
        -11   -1    0    0    0    0  0.00000000000E+00  0.00000000000E+00  0.45593999997E+02  0.45594000000E+02  0.51100000000E-03 0.  1.
         11   -1    0    0    0    0 -0.00000000000E+00 -0.00000000000E+00 -0.45593999997E+02  0.45594000000E+02  0.51100000000E-03 0. -1.
    9900012    2    1    2    0    0  0.55664147991E+01 -0.21410355076E+02 -0.34114170570E+02  0.50528869268E+02  0.30000028627E+02 0.  0.
        -12    1    1    2    0    0 -0.55664147991E+01  0.21410355076E+02  0.34114170570E+02  0.40659130732E+02  0.00000000000E+00 0.  1.
         11    1    3    3    0    0 -0.33340495859E+01 -0.17797454817E+02 -0.29958423660E+02  0.35005320068E+02  0.51100000000E-03 0. -1.
        -11    1    3    3    0    0  0.43557077119E+01  0.22199137249E+01  0.25742131917E+01  0.55251045633E+01  0.51100000000E-03 0.  1.
        -12    1    3    3    0    0  0.45447566731E+01 -0.58328139842E+01 -0.67299601018E+01  0.99984446373E+01  0.00000000000E+00 0.  1.
</event>
<event>
 7    1  0.1023000E-012  0.5052885E+02  0.7816164E-02  0.1300439E+00
        -11   -1    0    0    0    0  0.00000000000E+00  0.00000000000E+00  0.45593999997E+02  0.45594000000E+02  0.51100000000E-03 0.  1.
         11   -1    0    0    0    0 -0.00000000000E+00 -0.00000000000E+00 -0.45593999997E+02  0.45594000000E+02  0.51100000000E-03 0. -1.
    9900012    2    1    2    0    0 -0.14064812526E+02 -0.22872357749E+02 -0.30531997384E+02  0.50528848943E+02  0.29999966848E+02 0.  0.
        -12    1    1    2    0    0  0.14064812526E+02  0.22872357749E+02  0.30531997384E+02  0.40659151057E+02  0.00000000000E+00 0.  1.
         11    1    3    3    0    0 -0.10999321395E+02 -0.22002675481E+02 -0.12318535885E+02  0.27510891045E+02  0.51100000000E-03 0. -1.
        -11    1    3    3    0    0  0.18529860633E+01  0.25756952548E+01  0.63508000998E+00  0.32359064073E+01  0.51100000000E-03 0.  1.
         12    1    3    3    0    0 -0.49184771942E+01 -0.34453775227E+01 -0.18848541509E+02  0.19782051491E+02  0.00000000000E+00 0. -1.
</event>
<event>
 7    1  0.1023000E-012  0.5052888E+02  0.7816164E-02  0.1300439E+00
        -11   -1    0    0    0    0  0.00000000000E+00  0.00000000000E+00  0.45593999997E+02  0.45594000000E+02  0.51100000000E-03 0. -1.
         11   -1    0    0    0    0 -0.00000000000E+00 -0.00000000000E+00 -0.45593999997E+02  0.45594000000E+02  0.51100000000E-03 0.  1.
    9900012    2    1    2    0    0 -0.10136183181E+02  0.20084627962E+02  0.33867828289E+02  0.50528877003E+02  0.30000052139E+02 0.  0.
        -12    1    1    2    0    0  0.10136183181E+02 -0.20084627962E+02 -0.33867828289E+02  0.40659122997E+02  0.00000000000E+00 0.  1.
         11    1    3    3    0    0 -0.13258549013E+02  0.10841324407E+02  0.17695197790E+02  0.24626072807E+02  0.51100000000E-03 0. -1.
        -11    1    3    3    0    0  0.67152283748E+01 -0.28710553191E-01 -0.23247376809E+00  0.67193125196E+01  0.51100000000E-03 0.  1.
        -12    1    3    3    0    0 -0.35928625432E+01  0.92720141084E+01  0.16405104267E+02  0.19183491676E+02  0.00000000000E+00 0.  1.
</event>
<event>
 7    1  0.1167181E-012  0.5052886E+02  0.7816164E-02  0.1300439E+00
        -11   -1    0    0    0    0  0.00000000000E+00  0.00000000000E+00  0.45593999997E+02  0.45594000000E+02  0.51100000000E-03 0. -1.
         11   -1    0    0    0    0 -0.00000000000E+00 -0.00000000000E+00 -0.45593999997E+02  0.45594000000E+02  0.51100000000E-03 0.  1.
    9900012    2    1    2    0    0  0.36314417322E+02 -0.34686825476E+00  0.18284112501E+02  0.50528855973E+02  0.29999988216E+02 0.  0.
        -12    1    1    2    0    0 -0.36314417322E+02  0.34686825476E+00 -0.18284112501E+02  0.40659144027E+02  0.00000000000E+00 0.  1.
         11    1    3    3    0    0  0.12489508335E+02  0.46836940343E+01  0.94868986015E+01  0.16368446890E+02  0.51100000000E-03 0. -1.
        -11    1    3    3    0    0  0.22373495195E+02 -0.49031052116E+01 -0.22526007452E+01  0.23014950322E+02  0.51100000000E-03 0.  1.
        -12    1    3    3    0    0  0.14514137920E+01 -0.12745707743E+00  0.11049814645E+02  0.11145458761E+02  0.00000000000E+00 0.  1.
</event>
<event>
 7    1  0.1023000E-012  0.5052887E+02  0.7816164E-02  0.1300439E+00
        -11   -1    0    0    0    0  0.00000000000E+00  0.00000000000E+00  0.45593999997E+02  0.45594000000E+02  0.51100000000E-03 0.  1.
         11   -1    0    0    0    0 -0.00000000000E+00 -0.00000000000E+00 -0.45593999997E+02  0.45594000000E+02  0.51100000000E-03 0. -1.
    9900012    2    1    2    0    0 -0.21006828542E+02  0.18675425641E+02 -0.29378676963E+02  0.50528867836E+02  0.30000024274E+02 0.  0.
        -12    1    1    2    0    0  0.21006828542E+02 -0.18675425641E+02  0.29378676963E+02  0.40659132164E+02  0.00000000000E+00 0.  1.
         11    1    3    3    0    0 -0.80985879183E+01  0.40702030960E+01 -0.19088566141E+02  0.21131186362E+02  0.51100000000E-03 0. -1.
        -11    1    3    3    0    0 -0.10183936088E+02  0.17776878083E+02 -0.26095464922E+01  0.20652837136E+02  0.51100000000E-03 0.  1.
        -12    1    3    3    0    0 -0.27243045364E+01 -0.31716555386E+01 -0.76805643297E+01  0.87448443374E+01  0.00000000000E+00 0.  1.
</event>
<event>
 7    1  0.1023000E-012  0.5052886E+02  0.7816164E-02  0.1300439E+00
        -11   -1    0    0    0    0  0.00000000000E+00  0.00000000000E+00  0.45593999997E+02  0.45594000000E+02  0.51100000000E-03 0.  1.
         11   -1    0    0    0    0 -0.00000000000E+00 -0.00000000000E+00 -0.45593999997E+02  0.45594000000E+02  0.51100000000E-03 0. -1.
    9900012    2    1    2    0    0  0.56663690563E+01 -0.20000150486E+02 -0.34943555976E+02  0.50528857584E+02  0.29999993111E+02 0.  0.
        -12    1    1    2    0    0 -0.56663690563E+01  0.20000150486E+02  0.34943555976E+02  0.40659142416E+02  0.00000000000E+00 0.  1.
         11    1    3    3    0    0 -0.36710618170E+01 -0.72035591082E+01 -0.14761183952E+02  0.16830344934E+02  0.51100000000E-03 0. -1.
        -11    1    3    3    0    0  0.19193900588E+01 -0.74072124817E+01  0.34172491782E+01  0.83802414735E+01  0.51100000000E-03 0.  1.
        -12    1    3    3    0    0  0.74180408145E+01 -0.53893788967E+01 -0.23599621203E+02  0.25318271176E+02  0.00000000000E+00 0.  1.
</event>
<event>
 7    1  0.1023000E-012  0.5052888E+02  0.7816164E-02  0.1300439E+00
        -11   -1    0    0    0    0  0.00000000000E+00  0.00000000000E+00  0.45593999997E+02  0.45594000000E+02  0.51100000000E-03 0.  1.
         11   -1    0    0    0    0 -0.00000000000E+00 -0.00000000000E+00 -0.45593999997E+02  0.45594000000E+02  0.51100000000E-03 0. -1.
    9900012    2    1    2    0    0 -0.15163123899E+02  0.34410814101E+01 -0.37568643952E+02  0.50528875857E+02  0.30000048656E+02 0.  0.
        -12    1    1    2    0    0  0.15163123899E+02 -0.34410814101E+01  0.37568643952E+02  0.40659124143E+02  0.00000000000E+00 0.  1.
         11    1    3    3    0    0 -0.15607026931E+02  0.18887395592E+01 -0.20837163332E+02  0.26102375423E+02  0.51100000000E-03 0. -1.
        -11    1    3    3    0    0  0.32846624641E+01  0.88940093498E+01 -0.64059195505E+01  0.11442386786E+02  0.51100000000E-03 0.  1.
        -12    1    3    3    0    0 -0.28407594319E+01 -0.73416674989E+01 -0.10325561070E+02  0.12984113648E+02  0.00000000000E+00 0.  1.
</event>
<event>
 7    1  0.1023000E-012  0.5052884E+02  0.7816164E-02  0.1300439E+00
        -11   -1    0    0    0    0  0.00000000000E+00  0.00000000000E+00  0.45593999997E+02  0.45594000000E+02  0.51100000000E-03 0.  1.
         11   -1    0    0    0    0 -0.00000000000E+00 -0.00000000000E+00 -0.45593999997E+02  0.45594000000E+02  0.51100000000E-03 0. -1.
    9900012    2    1    2    0    0 -0.10824940225E+02  0.10441709406E+02 -0.37775101203E+02  0.50528844855E+02  0.29999954421E+02 0.  0.
        -12    1    1    2    0    0  0.10824940225E+02 -0.10441709406E+02  0.37775101203E+02  0.40659155145E+02  0.00000000000E+00 0.  1.
         11    1    3    3    0    0 -0.44775515353E+01  0.78156164728E+01 -0.14190210863E+02  0.16807570116E+02  0.51100000000E-03 0. -1.
        -11    1    3    3    0    0 -0.13477848672E+02 -0.91158590415E+00 -0.67537933435E+01  0.15102884442E+02  0.51100000000E-03 0.  1.
        -12    1    3    3    0    0  0.71304599826E+01  0.35376788373E+01 -0.16831096996E+02  0.18618390296E+02  0.00000000000E+00 0.  1.
</event>
<event>
 7    1  0.1023000E-012  0.5052887E+02  0.7816164E-02  0.1300439E+00
        -11   -1    0    0    0    0  0.00000000000E+00  0.00000000000E+00  0.45593999997E+02  0.45594000000E+02  0.51100000000E-03 0. -1.
         11   -1    0    0    0    0 -0.00000000000E+00 -0.00000000000E+00 -0.45593999997E+02  0.45594000000E+02  0.51100000000E-03 0.  1.
    9900012    2    1    2    0    0  0.35375367007E+02  0.18264117818E+02  0.82565522349E+01  0.50528865167E+02  0.30000016162E+02 0.  0.
        -12    1    1    2    0    0 -0.35375367007E+02 -0.18264117818E+02 -0.82565522349E+01  0.40659134833E+02  0.00000000000E+00 0.  1.
         11    1    3    3    0    0  0.17070636929E+01  0.10411723207E+01 -0.14168914610E+01  0.24506505108E+01  0.51100000000E-03 0.  1.
        -11    1    3    3    0    0  0.29564194904E+02  0.77173180120E+01 -0.41198168171E+01  0.30831339713E+02  0.51100000000E-03 0. -1.
        -12    1    3    3    0    0  0.41041084099E+01  0.95056274854E+01  0.13793260513E+02  0.17246874943E+02  0.00000000000E+00 0.  1.
</event>
<event>
 7    1  0.1023000E-012  0.5052886E+02  0.7816164E-02  0.1300439E+00
        -11   -1    0    0    0    0  0.00000000000E+00  0.00000000000E+00  0.45593999997E+02  0.45594000000E+02  0.51100000000E-03 0. -1.
         11   -1    0    0    0    0 -0.00000000000E+00 -0.00000000000E+00 -0.45593999997E+02  0.45594000000E+02  0.51100000000E-03 0.  1.
    9900012    2    1    2    0    0  0.32833230720E+02 -0.21293666921E+02  0.11032886913E+02  0.50528857313E+02  0.29999992288E+02 0.  0.
        -12    1    1    2    0    0 -0.32833230720E+02  0.21293666921E+02 -0.11032886913E+02  0.40659142687E+02  0.00000000000E+00 0.  1.
         11    1    3    3    0    0  0.12802249686E+02 -0.14864494456E+02 -0.21265348743E+01  0.19732535146E+02  0.51100000000E-03 0. -1.
        -11    1    3    3    0    0  0.47724431726E+01  0.61060902483E+01  0.59636249344E+01  0.97788227602E+01  0.51100000000E-03 0.  1.
         12    1    3    3    0    0  0.15258537861E+02 -0.12535262713E+02  0.71957968527E+01  0.21017499407E+02  0.00000000000E+00 0. -1.
</event>
<event>
 7    1  0.1023000E-012  0.5052892E+02  0.7816164E-02  0.1300439E+00
        -11   -1    0    0    0    0  0.00000000000E+00  0.00000000000E+00  0.45593999997E+02  0.45594000000E+02  0.51100000000E-03 0.  1.
         11   -1    0    0    0    0 -0.00000000000E+00 -0.00000000000E+00 -0.45593999997E+02  0.45594000000E+02  0.51100000000E-03 0. -1.
    9900012    2    1    2    0    0 -0.13472928975E+02  0.26109858235E+02 -0.28105455509E+02  0.50528915633E+02  0.30000169557E+02 0.  0.
        -12    1    1    2    0    0  0.13472928975E+02 -0.26109858235E+02  0.28105455509E+02  0.40659084367E+02  0.00000000000E+00 0.  1.
         11    1    3    3    0    0 -0.11906909125E+02  0.42499741046E+01 -0.71052812074E+01  0.14502475172E+02  0.51100000000E-03 0. -1.
        -11    1    3    3    0    0  0.20459391271E+01  0.13496606841E+02 -0.22956787832E+02  0.26708769552E+02  0.51100000000E-03 0.  1.
        -12    1    3    3    0    0 -0.36119589768E+01  0.83632772891E+01  0.19566135306E+01  0.93176709092E+01  0.00000000000E+00 0.  1.
</event>
<event>
 7    1  0.1023000E-012  0.5052886E+02  0.7816164E-02  0.1300439E+00
        -11   -1    0    0    0    0  0.00000000000E+00  0.00000000000E+00  0.45593999997E+02  0.45594000000E+02  0.51100000000E-03 0.  1.
         11   -1    0    0    0    0 -0.00000000000E+00 -0.00000000000E+00 -0.45593999997E+02  0.45594000000E+02  0.51100000000E-03 0. -1.
    9900012    2    1    2    0    0 -0.83747939513E+01  0.39781552501E+02  0.67556174810E+00  0.50528862321E+02  0.30000007511E+02 0.  0.
        -12    1    1    2    0    0  0.83747939513E+01 -0.39781552501E+02 -0.67556174810E+00  0.40659137679E+02  0.00000000000E+00 0.  1.
         11    1    3    3    0    0 -0.17669670241E+02  0.22808219506E+02 -0.62596962166E+01  0.29523142116E+02  0.51100000000E-03 0. -1.
        -11    1    3    3    0    0  0.40478619867E+01  0.35696269325E+01  0.13276834411E+01  0.55578922877E+01  0.51100000000E-03 0.  1.
         12    1    3    3    0    0  0.52470143032E+01  0.13403706063E+02  0.56075745235E+01  0.15447827917E+02  0.00000000000E+00 0. -1.
</event>
<event>
 7    1  0.1023000E-012  0.5052886E+02  0.7816164E-02  0.1300439E+00
        -11   -1    0    0    0    0  0.00000000000E+00  0.00000000000E+00  0.45593999997E+02  0.45594000000E+02  0.51100000000E-03 0.  1.
         11   -1    0    0    0    0 -0.00000000000E+00 -0.00000000000E+00 -0.45593999997E+02  0.45594000000E+02  0.51100000000E-03 0. -1.
    9900012    2    1    2    0    0  0.12796929719E+01  0.41416377276E+01 -0.40427401402E+02  0.50528861282E+02  0.30000004353E+02 0.  0.
        -12    1    1    2    0    0 -0.12796929719E+01 -0.41416377276E+01  0.40427401402E+02  0.40659138718E+02  0.00000000000E+00 0.  1.
         11    1    3    3    0    0  0.31901356988E+01 -0.11072188235E+02 -0.10154437536E+02  0.15358480394E+02  0.51100000000E-03 0. -1.
        -11    1    3    3    0    0  0.83887873854E+00  0.13935971183E+02 -0.19524532223E+02  0.24002549222E+02  0.51100000000E-03 0.  1.
         12    1    3    3    0    0 -0.27493214654E+01  0.12778547795E+01 -0.10748431642E+02  0.11167831666E+02  0.00000000000E+00 0. -1.
</event>
<event>
 7    1  0.1023000E-012  0.5052890E+02  0.7816164E-02  0.1300439E+00
        -11   -1    0    0    0    0  0.00000000000E+00  0.00000000000E+00  0.45593999997E+02  0.45594000000E+02  0.51100000000E-03 0.  1.
         11   -1    0    0    0    0 -0.00000000000E+00 -0.00000000000E+00 -0.45593999997E+02  0.45594000000E+02  0.51100000000E-03 0. -1.
    9900012    2    1    2    0    0  0.16316244021E+02 -0.13224137727E+02 -0.34814725594E+02  0.50528895783E+02  0.30000109222E+02 0.  0.
        -12    1    1    2    0    0 -0.16316244021E+02  0.13224137727E+02  0.34814725594E+02  0.40659104217E+02  0.00000000000E+00 0.  1.
         11    1    3    3    0    0  0.20389207564E+01 -0.16053405676E+02 -0.21957740707E+02  0.27276572528E+02  0.51100000000E-03 0. -1.
        -11    1    3    3    0    0  0.15256113655E+02  0.25685917255E+01 -0.14576866579E+02  0.21256333335E+02  0.51100000000E-03 0.  1.
         12    1    3    3    0    0 -0.97879039064E+00  0.26067622363E+00  0.17198816930E+01  0.19959899199E+01  0.00000000000E+00 0. -1.
</event>
<event>
 7    1  0.1023000E-012  0.5052887E+02  0.7816164E-02  0.1300439E+00
        -11   -1    0    0    0    0  0.00000000000E+00  0.00000000000E+00  0.45593999997E+02  0.45594000000E+02  0.51100000000E-03 0. -1.
         11   -1    0    0    0    0 -0.00000000000E+00 -0.00000000000E+00 -0.45593999997E+02  0.45594000000E+02  0.51100000000E-03 0.  1.
    9900012    2    1    2    0    0 -0.18974688687E+01  0.32514618662E+01  0.40484471273E+02  0.50528870563E+02  0.30000032562E+02 0.  0.
        -12    1    1    2    0    0  0.18974688687E+01 -0.32514618662E+01 -0.40484471273E+02  0.40659129437E+02  0.00000000000E+00 0.  1.
         11    1    3    3    0    0  0.46290352014E+01 -0.80929194848E+01  0.19567588967E+02  0.21675189755E+02  0.51100000000E-03 0. -1.
        -11    1    3    3    0    0 -0.19133670933E+01  0.13508701833E+02  0.19039444286E+02  0.23423202980E+02  0.51100000000E-03 0.  1.
        -12    1    3    3    0    0 -0.46131369768E+01 -0.21643204825E+01  0.18774380195E+01  0.54304778275E+01  0.00000000000E+00 0.  1.
</event>
<event>
 7    1  0.1023000E-012  0.5052886E+02  0.7816164E-02  0.1300439E+00
        -11   -1    0    0    0    0  0.00000000000E+00  0.00000000000E+00  0.45593999997E+02  0.45594000000E+02  0.51100000000E-03 0.  1.
         11   -1    0    0    0    0 -0.00000000000E+00 -0.00000000000E+00 -0.45593999997E+02  0.45594000000E+02  0.51100000000E-03 0. -1.
    9900012    2    1    2    0    0  0.24662666568E+01  0.38444392481E+02  0.13004309172E+02  0.50528857836E+02  0.29999993880E+02 0.  0.
        -12    1    1    2    0    0 -0.24662666568E+01 -0.38444392481E+02 -0.13004309172E+02  0.40659142164E+02  0.00000000000E+00 0.  1.
         11    1    3    3    0    0  0.35702239452E+01  0.18838766006E+02  0.57860795987E+01  0.20028088302E+02  0.51100000000E-03 0. -1.
        -11    1    3    3    0    0 -0.65028559296E+01  0.46043983666E+01 -0.58510457842E+01  0.98854618804E+01  0.51100000000E-03 0.  1.
        -12    1    3    3    0    0  0.53988986411E+01  0.15001228108E+02  0.13069275358E+02  0.20615307654E+02  0.00000000000E+00 0.  1.
</event>
<event>
 7    1  0.1023000E-012  0.5052889E+02  0.7816164E-02  0.1300439E+00
        -11   -1    0    0    0    0  0.00000000000E+00  0.00000000000E+00  0.45593999997E+02  0.45594000000E+02  0.51100000000E-03 0.  1.
         11   -1    0    0    0    0 -0.00000000000E+00 -0.00000000000E+00 -0.45593999997E+02  0.45594000000E+02  0.51100000000E-03 0. -1.
    9900012    2    1    2    0    0  0.27634962912E+02 -0.13979512246E+02 -0.26344743972E+02  0.50528886966E+02  0.30000082423E+02 0.  0.
        -12    1    1    2    0    0 -0.27634962912E+02  0.13979512246E+02  0.26344743972E+02  0.40659113034E+02  0.00000000000E+00 0.  1.
         11    1    3    3    0    0  0.30033595860E+01  0.74567324985E+01 -0.91074546569E+01  0.12147788233E+02  0.51100000000E-03 0. -1.
        -11    1    3    3    0    0  0.24183202959E+02 -0.16793423683E+02 -0.16191943205E+02  0.33600973340E+02  0.51100000000E-03 0.  1.
         12    1    3    3    0    0  0.44840036706E+00 -0.46428210611E+01 -0.10453461094E+01  0.47801253941E+01  0.00000000000E+00 0. -1.
</event>
<event>
 7    1  0.1023000E-012  0.5052887E+02  0.7816164E-02  0.1300439E+00
        -11   -1    0    0    0    0  0.00000000000E+00  0.00000000000E+00  0.45593999997E+02  0.45594000000E+02  0.51100000000E-03 0.  1.
         11   -1    0    0    0    0 -0.00000000000E+00 -0.00000000000E+00 -0.45593999997E+02  0.45594000000E+02  0.51100000000E-03 0. -1.
    9900012    2    1    2    0    0  0.37355920816E+02 -0.13133044718E+02  0.92316541960E+01  0.50528866675E+02  0.30000020745E+02 0.  0.
        -12    1    1    2    0    0 -0.37355920816E+02  0.13133044718E+02 -0.92316541960E+01  0.40659133325E+02  0.00000000000E+00 0.  1.
         11    1    3    3    0    0  0.24408293363E+02  0.35328889640E+01  0.66809005478E+01  0.25551526798E+02  0.51100000000E-03 0. -1.
        -11    1    3    3    0    0  0.50245639203E+01 -0.16061299997E+02  0.26158048421E+01  0.17030972827E+02  0.51100000000E-03 0.  1.
        -12    1    3    3    0    0  0.79230635330E+01 -0.60463368463E+00 -0.65051193869E-01  0.79463670503E+01  0.00000000000E+00 0.  1.
</event>
<event>
 7    1  0.1023000E-012  0.5052885E+02  0.7816164E-02  0.1300439E+00
        -11   -1    0    0    0    0  0.00000000000E+00  0.00000000000E+00  0.45593999997E+02  0.45594000000E+02  0.51100000000E-03 0. -1.
         11   -1    0    0    0    0 -0.00000000000E+00 -0.00000000000E+00 -0.45593999997E+02  0.45594000000E+02  0.51100000000E-03 0.  1.
    9900012    2    1    2    0    0  0.18478305339E+02  0.26915050867E+02  0.24234239654E+02  0.50528854621E+02  0.29999984105E+02 0.  0.
        -12    1    1    2    0    0 -0.18478305339E+02 -0.26915050867E+02 -0.24234239654E+02  0.40659145379E+02  0.00000000000E+00 0.  1.
         11    1    3    3    0    0  0.30601361151E+01 -0.47286344555E+01  0.10882565260E+02  0.12253760393E+02  0.51100000000E-03 0. -1.
        -11    1    3    3    0    0  0.10086585297E+02  0.26368467073E+02  0.91468582380E+01  0.29676594728E+02  0.51100000000E-03 0.  1.
         12    1    3    3    0    0  0.53315839274E+01  0.52752182494E+01  0.42048161553E+01  0.85984995001E+01  0.00000000000E+00 0. -1.
</event>
<event>
 7    1  0.1023000E-012  0.5052887E+02  0.7816164E-02  0.1300439E+00
        -11   -1    0    0    0    0  0.00000000000E+00  0.00000000000E+00  0.45593999997E+02  0.45594000000E+02  0.51100000000E-03 0.  1.
         11   -1    0    0    0    0 -0.00000000000E+00 -0.00000000000E+00 -0.45593999997E+02  0.45594000000E+02  0.51100000000E-03 0. -1.
    9900012    2    1    2    0    0 -0.17409896118E+02 -0.99905480798E+01 -0.35358865557E+02  0.50528869325E+02  0.30000028800E+02 0.  0.
        -12    1    1    2    0    0  0.17409896118E+02  0.99905480798E+01  0.35358865557E+02  0.40659130675E+02  0.00000000000E+00 0.  1.
         11    1    3    3    0    0 -0.54497589084E+00  0.16828255962E+01 -0.20790531656E+02  0.20865644191E+02  0.51100000000E-03 0.  1.
        -11    1    3    3    0    0 -0.40336140099E+01 -0.12250708155E+02 -0.85854875105E+01  0.15493885514E+02  0.51100000000E-03 0. -1.
         12    1    3    3    0    0 -0.12831306217E+02  0.57733447884E+00 -0.59828463910E+01  0.14169339620E+02  0.00000000000E+00 0. -1.
</event>
<event>
 7    1  0.1023000E-012  0.5052887E+02  0.7816164E-02  0.1300439E+00
        -11   -1    0    0    0    0  0.00000000000E+00  0.00000000000E+00  0.45593999997E+02  0.45594000000E+02  0.51100000000E-03 0.  1.
         11   -1    0    0    0    0 -0.00000000000E+00 -0.00000000000E+00 -0.45593999997E+02  0.45594000000E+02  0.51100000000E-03 0. -1.
    9900012    2    1    2    0    0  0.31700005799E+02 -0.14140380691E+02 -0.21173673248E+02  0.50528866062E+02  0.30000018883E+02 0.  0.
        -12    1    1    2    0    0 -0.31700005799E+02  0.14140380691E+02  0.21173673248E+02  0.40659133938E+02  0.00000000000E+00 0.  1.
         11    1    3    3    0    0  0.10693736763E+02 -0.13468696642E+02 -0.18124935003E+02  0.24985497079E+02  0.51100000000E-03 0. -1.
        -11    1    3    3    0    0  0.22189690978E+02 -0.36814183549E+00 -0.54473726742E+01  0.22851515999E+02  0.51100000000E-03 0.  1.
        -12    1    3    3    0    0 -0.11834219420E+01 -0.30354221344E+00  0.23986344287E+01  0.26918529846E+01  0.00000000000E+00 0.  1.
</event>
<event>
 7    1  0.1023000E-012  0.5052886E+02  0.7816164E-02  0.1300439E+00
        -11   -1    0    0    0    0  0.00000000000E+00  0.00000000000E+00  0.45593999997E+02  0.45594000000E+02  0.51100000000E-03 0.  1.
         11   -1    0    0    0    0 -0.00000000000E+00 -0.00000000000E+00 -0.45593999997E+02  0.45594000000E+02  0.51100000000E-03 0. -1.
    9900012    2    1    2    0    0 -0.26761922669E+02  0.24566540769E+02  0.18260624154E+02  0.50528858042E+02  0.29999994504E+02 0.  0.
        -12    1    1    2    0    0  0.26761922669E+02 -0.24566540769E+02 -0.18260624154E+02  0.40659141958E+02  0.00000000000E+00 0.  1.
         11    1    3    3    0    0 -0.12665308405E+02  0.25277469588E+02  0.13338204815E+02  0.31261289380E+02  0.51100000000E-03 0.  1.
        -11    1    3    3    0    0 -0.10355978686E+02  0.61351537268E+00 -0.26598469880E+01  0.10709691028E+02  0.51100000000E-03 0. -1.
         12    1    3    3    0    0 -0.37406355780E+01 -0.13244441916E+01  0.75822663267E+01  0.85578776336E+01  0.00000000000E+00 0. -1.
</event>
<event>
 7    1  0.1023000E-012  0.5052886E+02  0.7816164E-02  0.1300439E+00
        -11   -1    0    0    0    0  0.00000000000E+00  0.00000000000E+00  0.45593999997E+02  0.45594000000E+02  0.51100000000E-03 0.  1.
         11   -1    0    0    0    0 -0.00000000000E+00 -0.00000000000E+00 -0.45593999997E+02  0.45594000000E+02  0.51100000000E-03 0. -1.
    9900012    2    1    2    0    0 -0.32325752614E+02 -0.31035083269E+01 -0.24465886683E+02  0.50528860102E+02  0.30000000767E+02 0.  0.
        -12    1    1    2    0    0  0.32325752614E+02  0.31035083269E+01  0.24465886683E+02  0.40659139898E+02  0.00000000000E+00 0.  1.
         11    1    3    3    0    0  0.37841498716E+01 -0.36669517504E+01  0.62402159560E+00  0.53061971886E+01  0.51100000000E-03 0. -1.
        -11    1    3    3    0    0 -0.11852119409E+02  0.16235139780E+01 -0.28540308402E+01  0.12298537492E+02  0.51100000000E-03 0.  1.
         12    1    3    3    0    0 -0.24257783076E+02 -0.10600705544E+01 -0.22235877439E+02  0.32924125422E+02  0.00000000000E+00 0. -1.
</event>
<event>
 7    1  0.1023000E-012  0.5052885E+02  0.7816164E-02  0.1300439E+00
        -11   -1    0    0    0    0  0.00000000000E+00  0.00000000000E+00  0.45593999997E+02  0.45594000000E+02  0.51100000000E-03 0.  1.
         11   -1    0    0    0    0 -0.00000000000E+00 -0.00000000000E+00 -0.45593999997E+02  0.45594000000E+02  0.51100000000E-03 0. -1.
    9900012    2    1    2    0    0 -0.14755549926E+02  0.50108165352E+01 -0.37554383621E+02  0.50528852626E+02  0.29999978043E+02 0.  0.
        -12    1    1    2    0    0  0.14755549926E+02 -0.50108165352E+01  0.37554383621E+02  0.40659147374E+02  0.00000000000E+00 0.  1.
         11    1    3    3    0    0 -0.18694748051E+02 -0.40845193742E+01 -0.32342558692E+02  0.37579489169E+02  0.51100000000E-03 0. -1.
        -11    1    3    3    0    0  0.19681152887E+01  0.44360018536E+01  0.98264990146E+00  0.49514837498E+01  0.51100000000E-03 0.  1.
         12    1    3    3    0    0  0.19710828360E+01  0.46593340559E+01 -0.61944748308E+01  0.79978797077E+01  0.00000000000E+00 0. -1.
</event>
<event>
 7    1  0.1023000E-012  0.5052886E+02  0.7816164E-02  0.1300439E+00
        -11   -1    0    0    0    0  0.00000000000E+00  0.00000000000E+00  0.45593999997E+02  0.45594000000E+02  0.51100000000E-03 0. -1.
         11   -1    0    0    0    0 -0.00000000000E+00 -0.00000000000E+00 -0.45593999997E+02  0.45594000000E+02  0.51100000000E-03 0.  1.
    9900012    2    1    2    0    0  0.22417362516E+02 -0.12476631855E+02  0.31543004814E+02  0.50528860347E+02  0.30000001510E+02 0.  0.
        -12    1    1    2    0    0 -0.22417362516E+02  0.12476631855E+02 -0.31543004814E+02  0.40659139653E+02  0.00000000000E+00 0.  1.
         11    1    3    3    0    0  0.21772923466E+02  0.38852421424E+01  0.14602522933E+02  0.26502622116E+02  0.51100000000E-03 0.  1.
        -11    1    3    3    0    0  0.26042577331E+01 -0.11500274843E+02  0.11473716019E+02  0.16452496448E+02  0.51100000000E-03 0. -1.
        -12    1    3    3    0    0 -0.19598186830E+01 -0.48615991547E+01  0.54667658617E+01  0.75737417831E+01  0.00000000000E+00 0.  1.
</event>
<event>
 7    1  0.1023000E-012  0.5052890E+02  0.7816164E-02  0.1300439E+00
        -11   -1    0    0    0    0  0.00000000000E+00  0.00000000000E+00  0.45593999997E+02  0.45594000000E+02  0.51100000000E-03 0. -1.
         11   -1    0    0    0    0 -0.00000000000E+00 -0.00000000000E+00 -0.45593999997E+02  0.45594000000E+02  0.51100000000E-03 0.  1.
    9900012    2    1    2    0    0 -0.18478439026E+02  0.72143135992E+01  0.35491740385E+02  0.50528896897E+02  0.30000112609E+02 0.  0.
        -12    1    1    2    0    0  0.18478439026E+02 -0.72143135992E+01 -0.35491740385E+02  0.40659103103E+02  0.00000000000E+00 0.  1.
         11    1    3    3    0    0 -0.15269514234E+01  0.51393402432E+01  0.27834678843E+02  0.28346318021E+02  0.51100000000E-03 0. -1.
        -11    1    3    3    0    0 -0.96030656571E+01 -0.28375822716E+01 -0.67376918606E+00  0.10036170004E+02  0.51100000000E-03 0.  1.
         12    1    3    3    0    0 -0.73484219456E+01  0.49125556276E+01  0.83308307285E+01  0.12146408873E+02  0.00000000000E+00 0. -1.
</event>
<event>
 7    1  0.1023000E-012  0.5052886E+02  0.7816164E-02  0.1300439E+00
        -11   -1    0    0    0    0  0.00000000000E+00  0.00000000000E+00  0.45593999997E+02  0.45594000000E+02  0.51100000000E-03 0.  1.
         11   -1    0    0    0    0 -0.00000000000E+00 -0.00000000000E+00 -0.45593999997E+02  0.45594000000E+02  0.51100000000E-03 0. -1.
    9900012    2    1    2    0    0  0.32430237580E+01  0.16477252051E+02 -0.37029025946E+02  0.50528858337E+02  0.29999995402E+02 0.  0.
        -12    1    1    2    0    0 -0.32430237580E+01 -0.16477252051E+02  0.37029025946E+02  0.40659141663E+02  0.00000000000E+00 0.  1.
         11    1    3    3    0    0  0.37621815685E+01  0.14389257261E+02 -0.33481670317E+02  0.36636416066E+02  0.51100000000E-03 0. -1.
        -11    1    3    3    0    0  0.90180315416E+00 -0.18009087452E+01  0.44512765206E+01  0.48857327149E+01  0.51100000000E-03 0.  1.
         12    1    3    3    0    0 -0.14209609647E+01  0.38889035354E+01 -0.79986321496E+01  0.90067095565E+01  0.00000000000E+00 0. -1.
</event>
<event>
 7    1  0.1023000E-012  0.5052886E+02  0.7816164E-02  0.1300439E+00
        -11   -1    0    0    0    0  0.00000000000E+00  0.00000000000E+00  0.45593999997E+02  0.45594000000E+02  0.51100000000E-03 0.  1.
         11   -1    0    0    0    0 -0.00000000000E+00 -0.00000000000E+00 -0.45593999997E+02  0.45594000000E+02  0.51100000000E-03 0. -1.
    9900012    2    1    2    0    0 -0.17143310938E+02  0.29823663668E+02 -0.21675368056E+02  0.50528860746E+02  0.30000002724E+02 0.  0.
        -12    1    1    2    0    0  0.17143310938E+02 -0.29823663668E+02  0.21675368056E+02  0.40659139254E+02  0.00000000000E+00 0.  1.
         11    1    3    3    0    0 -0.17202715508E+02  0.24821942326E+02 -0.17698273144E+02  0.35004158528E+02  0.51100000000E-03 0. -1.
        -11    1    3    3    0    0 -0.22716411295E+01 -0.44141994245E+01 -0.29389471179E+01  0.57691351521E+01  0.51100000000E-03 0.  1.
         12    1    3    3    0    0  0.23310457001E+01  0.94159207665E+01 -0.10381477940E+01  0.97555670660E+01  0.00000000000E+00 0. -1.
</event>
<event>
 7    1  0.1023000E-012  0.5052886E+02  0.7816164E-02  0.1300439E+00
        -11   -1    0    0    0    0  0.00000000000E+00  0.00000000000E+00  0.45593999997E+02  0.45594000000E+02  0.51100000000E-03 0.  1.
         11   -1    0    0    0    0 -0.00000000000E+00 -0.00000000000E+00 -0.45593999997E+02  0.45594000000E+02  0.51100000000E-03 0. -1.
    9900012    2    1    2    0    0 -0.24635412182E+02  0.32344922232E+02  0.26173228103E+00  0.50528855502E+02  0.29999986783E+02 0.  0.
        -12    1    1    2    0    0  0.24635412182E+02 -0.32344922232E+02 -0.26173228103E+00  0.40659144498E+02  0.00000000000E+00 0.  1.
         11    1    3    3    0    0 -0.81000975927E+00  0.88238602856E+01  0.11517464391E+02  0.14531641766E+02  0.51100000000E-03 0.  1.
        -11    1    3    3    0    0 -0.16224835934E+02  0.11201050634E+02 -0.65985225453E+01  0.20790606928E+02  0.51100000000E-03 0. -1.
        -12    1    3    3    0    0 -0.76005664883E+01  0.12320011312E+02 -0.46572095647E+01  0.15206606808E+02  0.00000000000E+00 0.  1.
</event>
<event>
 7    1  0.1023000E-012  0.5052886E+02  0.7816164E-02  0.1300439E+00
        -11   -1    0    0    0    0  0.00000000000E+00  0.00000000000E+00  0.45593999997E+02  0.45594000000E+02  0.51100000000E-03 0.  1.
         11   -1    0    0    0    0 -0.00000000000E+00 -0.00000000000E+00 -0.45593999997E+02  0.45594000000E+02  0.51100000000E-03 0. -1.
    9900012    2    1    2    0    0 -0.18369330894E+02  0.34890257874E+02  0.99198429432E+01  0.50528859625E+02  0.29999999316E+02 0.  0.
        -12    1    1    2    0    0  0.18369330894E+02 -0.34890257874E+02 -0.99198429432E+01  0.40659140375E+02  0.00000000000E+00 0.  1.
         11    1    3    3    0    0 -0.33807475344E+00  0.21481264280E+02  0.44993625323E+01  0.21950017609E+02  0.51100000000E-03 0. -1.
        -11    1    3    3    0    0 -0.99318772870E+00 -0.23241846703E+01  0.47469871011E+01  0.53779311120E+01  0.51100000000E-03 0.  1.
         12    1    3    3    0    0 -0.17038068412E+02  0.15733178265E+02  0.67349330984E+00  0.23200910904E+02  0.00000000000E+00 0. -1.
</event>
<event>
 7    1  0.1023000E-012  0.5052885E+02  0.7816164E-02  0.1300439E+00
        -11   -1    0    0    0    0  0.00000000000E+00  0.00000000000E+00  0.45593999997E+02  0.45594000000E+02  0.51100000000E-03 0.  1.
         11   -1    0    0    0    0 -0.00000000000E+00 -0.00000000000E+00 -0.45593999997E+02  0.45594000000E+02  0.51100000000E-03 0. -1.
    9900012    2    1    2    0    0 -0.12871367100E+02  0.11571792293E+02 -0.36791137331E+02  0.50528852763E+02  0.29999978460E+02 0.  0.
        -12    1    1    2    0    0  0.12871367100E+02 -0.11571792293E+02  0.36791137331E+02  0.40659147237E+02  0.00000000000E+00 0.  1.
         11    1    3    3    0    0 -0.54874883103E+01  0.12873656834E+01 -0.19100494383E+02  0.19914786574E+02  0.51100000000E-03 0. -1.
        -11    1    3    3    0    0 -0.13485194979E+01  0.80102542192E+00  0.50277686364E+01  0.52667451319E+01  0.51100000000E-03 0.  1.
        -12    1    3    3    0    0 -0.60353592917E+01  0.94834011875E+01 -0.22718411585E+02  0.25347321058E+02  0.00000000000E+00 0.  1.
</event>
<event>
 7    1  0.1023000E-012  0.5052886E+02  0.7816164E-02  0.1300439E+00
        -11   -1    0    0    0    0  0.00000000000E+00  0.00000000000E+00  0.45593999997E+02  0.45594000000E+02  0.51100000000E-03 0. -1.
         11   -1    0    0    0    0 -0.00000000000E+00 -0.00000000000E+00 -0.45593999997E+02  0.45594000000E+02  0.51100000000E-03 0.  1.
    9900012    2    1    2    0    0  0.38476789329E+02 -0.13063410384E+02 -0.14315779088E+01  0.50528862979E+02  0.30000009512E+02 0.  0.
        -12    1    1    2    0    0 -0.38476789329E+02  0.13063410384E+02  0.14315779088E+01  0.40659137021E+02  0.00000000000E+00 0.  1.
         11    1    3    3    0    0  0.25657276633E+02 -0.20684902143E+02 -0.19578084429E+01  0.33015057702E+02  0.51100000000E-03 0. -1.
        -11    1    3    3    0    0  0.55507338759E+01  0.85118970902E+01  0.72828524597E+00  0.10187906473E+02  0.51100000000E-03 0.  1.
         12    1    3    3    0    0  0.72687788200E+01 -0.89040533187E+00 -0.20205471179E+00  0.73258988046E+01  0.00000000000E+00 0. -1.
</event>
<event>
 7    1  0.1023000E-012  0.5052886E+02  0.7816164E-02  0.1300439E+00
        -11   -1    0    0    0    0  0.00000000000E+00  0.00000000000E+00  0.45593999997E+02  0.45594000000E+02  0.51100000000E-03 0. -1.
         11   -1    0    0    0    0 -0.00000000000E+00 -0.00000000000E+00 -0.45593999997E+02  0.45594000000E+02  0.51100000000E-03 0.  1.
    9900012    2    1    2    0    0 -0.25397420253E+02 -0.26090189492E+02  0.18095269112E+02  0.50528859484E+02  0.29999998889E+02 0.  0.
        -12    1    1    2    0    0  0.25397420253E+02  0.26090189492E+02 -0.18095269112E+02  0.40659140516E+02  0.00000000000E+00 0.  1.
         11    1    3    3    0    0 -0.27411667184E+02 -0.19029928417E+02  0.10674830217E+02  0.35035548716E+02  0.51100000000E-03 0. -1.
        -11    1    3    3    0    0  0.41140778344E+01 -0.88884758912E+01  0.29540474139E+01  0.10230202172E+02  0.51100000000E-03 0.  1.
         12    1    3    3    0    0 -0.20998309029E+01  0.18282148164E+01  0.44663914814E+01  0.52631085967E+01  0.00000000000E+00 0. -1.
</event>
<event>
 7    1  0.1023000E-012  0.5052887E+02  0.7816164E-02  0.1300439E+00
        -11   -1    0    0    0    0  0.00000000000E+00  0.00000000000E+00  0.45593999997E+02  0.45594000000E+02  0.51100000000E-03 0. -1.
         11   -1    0    0    0    0 -0.00000000000E+00 -0.00000000000E+00 -0.45593999997E+02  0.45594000000E+02  0.51100000000E-03 0.  1.
    9900012    2    1    2    0    0 -0.34204334261E+02 -0.15998926668E+02  0.15075233309E+02  0.50528870692E+02  0.30000032957E+02 0.  0.
        -12    1    1    2    0    0  0.34204334261E+02  0.15998926668E+02 -0.15075233309E+02  0.40659129308E+02  0.00000000000E+00 0.  1.
         11    1    3    3    0    0 -0.82022989284E+01  0.30466846048E-01  0.72934553457E+01  0.10976025104E+02  0.51100000000E-03 0. -1.
        -11    1    3    3    0    0 -0.30215772483E+02 -0.14955771787E+02  0.43106867011E+01  0.33988969337E+02  0.51100000000E-03 0.  1.
        -12    1    3    3    0    0  0.42137371513E+01 -0.10736217275E+01  0.34710912618E+01  0.55638762515E+01  0.00000000000E+00 0.  1.
</event>
<event>
 7    1  0.1023000E-012  0.5052884E+02  0.7816164E-02  0.1300439E+00
        -11   -1    0    0    0    0  0.00000000000E+00  0.00000000000E+00  0.45593999997E+02  0.45594000000E+02  0.51100000000E-03 0. -1.
         11   -1    0    0    0    0 -0.00000000000E+00 -0.00000000000E+00 -0.45593999997E+02  0.45594000000E+02  0.51100000000E-03 0.  1.
    9900012    2    1    2    0    0 -0.94446752967E+01 -0.10131142193E+02  0.38227280956E+02  0.50528844291E+02  0.29999952708E+02 0.  0.
        -12    1    1    2    0    0  0.94446752967E+01  0.10131142193E+02 -0.38227280956E+02  0.40659155709E+02  0.00000000000E+00 0.  1.
         11    1    3    3    0    0  0.40552429895E+01 -0.49774018925E+01  0.33322320122E+02  0.33935181506E+02  0.51100000000E-03 0. -1.
        -11    1    3    3    0    0 -0.99190873085E+01 -0.25786500898E+01  0.62232365764E+01  0.11990262844E+02  0.51100000000E-03 0.  1.
         12    1    3    3    0    0 -0.35808309778E+01 -0.25750902111E+01 -0.13182757419E+01  0.46033999412E+01  0.00000000000E+00 0. -1.
</event>
<event>
 7    1  0.1023000E-012  0.5052886E+02  0.7816164E-02  0.1300439E+00
        -11   -1    0    0    0    0  0.00000000000E+00  0.00000000000E+00  0.45593999997E+02  0.45594000000E+02  0.51100000000E-03 0. -1.
         11   -1    0    0    0    0 -0.00000000000E+00 -0.00000000000E+00 -0.45593999997E+02  0.45594000000E+02  0.51100000000E-03 0.  1.
    9900012    2    1    2    0    0  0.40344374236E+02  0.12670613669E+01 -0.48879100993E+01  0.50528860287E+02  0.30000001329E+02 0.  0.
        -12    1    1    2    0    0 -0.40344374236E+02 -0.12670613669E+01  0.48879100993E+01  0.40659139713E+02  0.00000000000E+00 0.  1.
         11    1    3    3    0    0  0.26386802107E+02 -0.12327055094E+02 -0.66757826559E+01  0.29879519525E+02  0.51100000000E-03 0. -1.
        -11    1    3    3    0    0  0.13038290834E+02  0.11439931863E+02 -0.53068272622E+00  0.17353693939E+02  0.51100000000E-03 0.  1.
         12    1    3    3    0    0  0.91928129476E+00  0.21541845982E+01  0.23185552829E+01  0.32956468230E+01  0.00000000000E+00 0. -1.
</event>
<event>
 7    1  0.1023000E-012  0.5052887E+02  0.7816164E-02  0.1300439E+00
        -11   -1    0    0    0    0  0.00000000000E+00  0.00000000000E+00  0.45593999997E+02  0.45594000000E+02  0.51100000000E-03 0.  1.
         11   -1    0    0    0    0 -0.00000000000E+00 -0.00000000000E+00 -0.45593999997E+02  0.45594000000E+02  0.51100000000E-03 0. -1.
    9900012    2    1    2    0    0 -0.30603021603E+02  0.11593078498E+02 -0.24129241809E+02  0.50528871743E+02  0.30000036151E+02 0.  0.
        -12    1    1    2    0    0  0.30603021603E+02 -0.11593078498E+02  0.24129241809E+02  0.40659128257E+02  0.00000000000E+00 0.  1.
         11    1    3    3    0    0 -0.87611300662E+01 -0.25546588839E+01 -0.70165383297E+01  0.11511537362E+02  0.51100000000E-03 0. -1.
        -11    1    3    3    0    0 -0.94092769671E+01  0.15241029261E+02 -0.19317295332E+02  0.26343526058E+02  0.51100000000E-03 0.  1.
        -12    1    3    3    0    0 -0.12432614570E+02 -0.10932918791E+01  0.22045918525E+01  0.12673808323E+02  0.00000000000E+00 0.  1.
</event>
<event>
 7    1  0.1023000E-012  0.5052885E+02  0.7816164E-02  0.1300439E+00
        -11   -1    0    0    0    0  0.00000000000E+00  0.00000000000E+00  0.45593999997E+02  0.45594000000E+02  0.51100000000E-03 0.  1.
         11   -1    0    0    0    0 -0.00000000000E+00 -0.00000000000E+00 -0.45593999997E+02  0.45594000000E+02  0.51100000000E-03 0. -1.
    9900012    2    1    2    0    0  0.20080049798E+01 -0.15858115654E+02 -0.37385220811E+02  0.50528847879E+02  0.29999963613E+02 0.  0.
        -12    1    1    2    0    0 -0.20080049798E+01  0.15858115654E+02  0.37385220811E+02  0.40659152121E+02  0.00000000000E+00 0.  1.
         11    1    3    3    0    0 -0.39724945306E+01 -0.48195172018E+01 -0.24207654482E+02  0.25000379890E+02  0.51100000000E-03 0. -1.
        -11    1    3    3    0    0  0.12066518114E+02 -0.46329950744E+01 -0.65980745675E+01  0.14512067083E+02  0.51100000000E-03 0.  1.
         12    1    3    3    0    0 -0.60860186039E+01 -0.64056033780E+01 -0.65794917611E+01  0.11016400906E+02  0.00000000000E+00 0. -1.
</event>
<event>
 7    1  0.1023000E-012  0.5052885E+02  0.7816164E-02  0.1300439E+00
        -11   -1    0    0    0    0  0.00000000000E+00  0.00000000000E+00  0.45593999997E+02  0.45594000000E+02  0.51100000000E-03 0.  1.
         11   -1    0    0    0    0 -0.00000000000E+00 -0.00000000000E+00 -0.45593999997E+02  0.45594000000E+02  0.51100000000E-03 0. -1.
    9900012    2    1    2    0    0  0.19082216544E+02 -0.13577429298E+02 -0.33236861792E+02  0.50528849045E+02  0.29999967157E+02 0.  0.
        -12    1    1    2    0    0 -0.19082216544E+02  0.13577429298E+02  0.33236861792E+02  0.40659150955E+02  0.00000000000E+00 0.  1.
         11    1    3    3    0    0  0.12385713210E+02 -0.12005916610E+02 -0.20375062272E+02  0.26696274801E+02  0.51100000000E-03 0. -1.
        -11    1    3    3    0    0  0.37638380433E+01  0.41004066436E+01  0.32892029022E+01  0.64651888953E+01  0.51100000000E-03 0.  1.
        -12    1    3    3    0    0  0.29326652904E+01 -0.56719193317E+01 -0.16151002422E+02  0.17367385349E+02  0.00000000000E+00 0.  1.
</event>
<event>
 7    1  0.1023000E-012  0.5052886E+02  0.7816164E-02  0.1300439E+00
        -11   -1    0    0    0    0  0.00000000000E+00  0.00000000000E+00  0.45593999997E+02  0.45594000000E+02  0.51100000000E-03 0. -1.
         11   -1    0    0    0    0 -0.00000000000E+00 -0.00000000000E+00 -0.45593999997E+02  0.45594000000E+02  0.51100000000E-03 0.  1.
    9900012    2    1    2    0    0  0.91105895172E+01 -0.22236750988E+02  0.32797707412E+02  0.50528861454E+02  0.30000004875E+02 0.  0.
        -12    1    1    2    0    0 -0.91105895172E+01  0.22236750988E+02 -0.32797707412E+02  0.40659138546E+02  0.00000000000E+00 0.  1.
         11    1    3    3    0    0  0.95408475692E+01 -0.34822033203E+01  0.11369233847E+02  0.15245097272E+02  0.51100000000E-03 0. -1.
        -11    1    3    3    0    0 -0.90506759352E+01 -0.11890941916E+02  0.55172804583E+01  0.15929520346E+02  0.51100000000E-03 0.  1.
        -12    1    3    3    0    0  0.86204178831E+01 -0.68636057515E+01  0.15911193107E+02  0.19354243836E+02  0.00000000000E+00 0.  1.
</event>
<event>
 7    1  0.1023000E-012  0.5052886E+02  0.7816164E-02  0.1300439E+00
        -11   -1    0    0    0    0  0.00000000000E+00  0.00000000000E+00  0.45593999997E+02  0.45594000000E+02  0.51100000000E-03 0.  1.
         11   -1    0    0    0    0 -0.00000000000E+00 -0.00000000000E+00 -0.45593999997E+02  0.45594000000E+02  0.51100000000E-03 0. -1.
    9900012    2    1    2    0    0  0.10337641339E+01 -0.40410773556E+02  0.43665313502E+01  0.50528857317E+02  0.29999992302E+02 0.  0.
        -12    1    1    2    0    0 -0.10337641339E+01  0.40410773556E+02 -0.43665313502E+01  0.40659142683E+02  0.00000000000E+00 0.  1.
         11    1    3    3    0    0 -0.27010679414E+01 -0.30825971763E+02 -0.56945063959E+01  0.31463688699E+02  0.51100000000E-03 0. -1.
        -11    1    3    3    0    0 -0.87695798705E+00 -0.10734049875E+02  0.93444994403E+01  0.14258630792E+02  0.51100000000E-03 0.  1.
         12    1    3    3    0    0  0.46117900624E+01  0.11492480822E+01  0.71653830582E+00  0.48065378265E+01  0.00000000000E+00 0. -1.
</event>
<event>
 7    1  0.1023000E-012  0.5052886E+02  0.7816164E-02  0.1300439E+00
        -11   -1    0    0    0    0  0.00000000000E+00  0.00000000000E+00  0.45593999997E+02  0.45594000000E+02  0.51100000000E-03 0. -1.
         11   -1    0    0    0    0 -0.00000000000E+00 -0.00000000000E+00 -0.45593999997E+02  0.45594000000E+02  0.51100000000E-03 0.  1.
    9900012    2    1    2    0    0  0.20887152066E+02  0.31263360834E+02 -0.15475609787E+02  0.50528863876E+02  0.30000012239E+02 0.  0.
        -12    1    1    2    0    0 -0.20887152066E+02 -0.31263360834E+02  0.15475609787E+02  0.40659136124E+02  0.00000000000E+00 0.  1.
         11    1    3    3    0    0  0.19293420233E+02  0.34043379946E+02 -0.15128638084E+02  0.41953110409E+02  0.51100000000E-03 0. -1.
        -11    1    3    3    0    0  0.47462506655E+01 -0.21090345603E+01  0.56946615860E+00  0.52248649862E+01  0.51100000000E-03 0.  1.
         12    1    3    3    0    0 -0.31525188327E+01 -0.67098455212E+00 -0.91643786166E+00  0.33508884813E+01  0.00000000000E+00 0. -1.
</event>
<event>
 7    1  0.1023000E-012  0.5052886E+02  0.7816164E-02  0.1300439E+00
        -11   -1    0    0    0    0  0.00000000000E+00  0.00000000000E+00  0.45593999997E+02  0.45594000000E+02  0.51100000000E-03 0.  1.
         11   -1    0    0    0    0 -0.00000000000E+00 -0.00000000000E+00 -0.45593999997E+02  0.45594000000E+02  0.51100000000E-03 0. -1.
    9900012    2    1    2    0    0 -0.96467441487E+01  0.14881359554E+02 -0.36587584298E+02  0.50528857613E+02  0.29999993200E+02 0.  0.
        -12    1    1    2    0    0  0.96467441487E+01 -0.14881359554E+02  0.36587584298E+02  0.40659142387E+02  0.00000000000E+00 0.  1.
         11    1    3    3    0    0  0.10095728350E+01  0.14218177958E+02 -0.29811424689E+02  0.33043862728E+02  0.51100000000E-03 0. -1.
        -11    1    3    3    0    0 -0.33435945883E+01 -0.53179320102E+01 -0.46122654523E+01  0.77931391942E+01  0.51100000000E-03 0.  1.
         12    1    3    3    0    0 -0.73127223955E+01  0.59811136064E+01 -0.21638941575E+01  0.96918556908E+01  0.00000000000E+00 0. -1.
</event>
<event>
 7    1  0.1023000E-012  0.5052885E+02  0.7816164E-02  0.1300439E+00
        -11   -1    0    0    0    0  0.00000000000E+00  0.00000000000E+00  0.45593999997E+02  0.45594000000E+02  0.51100000000E-03 0. -1.
         11   -1    0    0    0    0 -0.00000000000E+00 -0.00000000000E+00 -0.45593999997E+02  0.45594000000E+02  0.51100000000E-03 0.  1.
    9900012    2    1    2    0    0  0.27854639182E+02  0.45084041317E+01  0.29273872541E+02  0.50528852870E+02  0.29999978784E+02 0.  0.
        -12    1    1    2    0    0 -0.27854639182E+02 -0.45084041317E+01 -0.29273872541E+02  0.40659147130E+02  0.00000000000E+00 0.  1.
         11    1    3    3    0    0  0.82801835190E+01  0.57809794484E+01  0.19294323144E+02  0.21777329229E+02  0.51100000000E-03 0. -1.
        -11    1    3    3    0    0  0.19752949065E+01 -0.72259474847E+01 -0.34057144256E+00  0.74988063175E+01  0.51100000000E-03 0.  1.
        -12    1    3    3    0    0  0.17599160757E+02  0.59533721680E+01  0.10320120840E+02  0.21252717324E+02  0.00000000000E+00 0.  1.
</event>
<event>
 7    1  0.1023000E-012  0.5052886E+02  0.7816164E-02  0.1300439E+00
        -11   -1    0    0    0    0  0.00000000000E+00  0.00000000000E+00  0.45593999997E+02  0.45594000000E+02  0.51100000000E-03 0. -1.
         11   -1    0    0    0    0 -0.00000000000E+00 -0.00000000000E+00 -0.45593999997E+02  0.45594000000E+02  0.51100000000E-03 0.  1.
    9900012    2    1    2    0    0  0.11723684086E+02  0.36160787140E+02  0.14426301462E+02  0.50528862417E+02  0.30000007803E+02 0.  0.
        -12    1    1    2    0    0 -0.11723684086E+02 -0.36160787140E+02 -0.14426301462E+02  0.40659137583E+02  0.00000000000E+00 0.  1.
         11    1    3    3    0    0 -0.90480088105E+01  0.86446549676E+01  0.35890779644E+01  0.13018371781E+02  0.51100000000E-03 0. -1.
        -11    1    3    3    0    0  0.42370634667E+01  0.64265100127E+01 -0.17638703427E+01  0.78970865901E+01  0.51100000000E-03 0.  1.
         12    1    3    3    0    0  0.16534629430E+02  0.21089622159E+02  0.12601093840E+02  0.29613404046E+02  0.00000000000E+00 0. -1.
</event>
<event>
 7    1  0.1023000E-012  0.5052887E+02  0.7816164E-02  0.1300439E+00
        -11   -1    0    0    0    0  0.00000000000E+00  0.00000000000E+00  0.45593999997E+02  0.45594000000E+02  0.51100000000E-03 0.  1.
         11   -1    0    0    0    0 -0.00000000000E+00 -0.00000000000E+00 -0.45593999997E+02  0.45594000000E+02  0.51100000000E-03 0. -1.
    9900012    2    1    2    0    0  0.22003062305E+02  0.66757952382E+01 -0.33533031948E+02  0.50528865423E+02  0.30000016941E+02 0.  0.
        -12    1    1    2    0    0 -0.22003062305E+02 -0.66757952382E+01  0.33533031948E+02  0.40659134577E+02  0.00000000000E+00 0.  1.
         11    1    3    3    0    0  0.13170163504E+02  0.73205451358E+00 -0.74664833435E+01  0.15157093531E+02  0.51100000000E-03 0.  1.
        -11    1    3    3    0    0 -0.16456461705E+01  0.11785293520E+02 -0.12380848900E+02  0.17172265850E+02  0.51100000000E-03 0. -1.
         12    1    3    3    0    0  0.10478544972E+02 -0.58415527952E+01 -0.13685699704E+02  0.18199506042E+02  0.00000000000E+00 0. -1.
</event>
<event>
 7    1  0.1023000E-012  0.5052886E+02  0.7816164E-02  0.1300439E+00
        -11   -1    0    0    0    0  0.00000000000E+00  0.00000000000E+00  0.45593999997E+02  0.45594000000E+02  0.51100000000E-03 0. -1.
         11   -1    0    0    0    0 -0.00000000000E+00 -0.00000000000E+00 -0.45593999997E+02  0.45594000000E+02  0.51100000000E-03 0.  1.
    9900012    2    1    2    0    0  0.69409762596E+01  0.10164619596E+02  0.38751376878E+02  0.50528857696E+02  0.29999993452E+02 0.  0.
        -12    1    1    2    0    0 -0.69409762596E+01 -0.10164619596E+02 -0.38751376878E+02  0.40659142304E+02  0.00000000000E+00 0.  1.
         11    1    3    3    0    0  0.17554392080E+02  0.11650034528E+02  0.22675106523E+02  0.30952228383E+02  0.51100000000E-03 0. -1.
        -11    1    3    3    0    0 -0.39345286219E+01 -0.19282239709E+01  0.51353125932E+01  0.67505554475E+01  0.51100000000E-03 0.  1.
         12    1    3    3    0    0 -0.66788871980E+01  0.44280903825E+00  0.10940957762E+02  0.12826073865E+02  0.00000000000E+00 0. -1.
</event>
<event>
 7    1  0.1023000E-012  0.5052886E+02  0.7816164E-02  0.1300439E+00
        -11   -1    0    0    0    0  0.00000000000E+00  0.00000000000E+00  0.45593999997E+02  0.45594000000E+02  0.51100000000E-03 0.  1.
         11   -1    0    0    0    0 -0.00000000000E+00 -0.00000000000E+00 -0.45593999997E+02  0.45594000000E+02  0.51100000000E-03 0. -1.
    9900012    2    1    2    0    0  0.78967945791E+01  0.14371713564E+02 -0.37205646188E+02  0.50528860515E+02  0.30000002021E+02 0.  0.
        -12    1    1    2    0    0 -0.78967945791E+01 -0.14371713564E+02  0.37205646188E+02  0.40659139485E+02  0.00000000000E+00 0.  1.
         11    1    3    3    0    0 -0.67056342224E+01  0.55805383232E+01 -0.94492684047E+01  0.12860661412E+02  0.51100000000E-03 0. -1.
        -11    1    3    3    0    0  0.38431712049E+01 -0.60299244796E+01 -0.77684302809E+01  0.10558336206E+02  0.51100000000E-03 0.  1.
        -12    1    3    3    0    0  0.10759257597E+02  0.14821099721E+02 -0.19987947503E+02  0.27109862897E+02  0.00000000000E+00 0.  1.
</event>
<event>
 7    1  0.1023000E-012  0.5052886E+02  0.7816164E-02  0.1300439E+00
        -11   -1    0    0    0    0  0.00000000000E+00  0.00000000000E+00  0.45593999997E+02  0.45594000000E+02  0.51100000000E-03 0. -1.
         11   -1    0    0    0    0 -0.00000000000E+00 -0.00000000000E+00 -0.45593999997E+02  0.45594000000E+02  0.51100000000E-03 0.  1.
    9900012    2    1    2    0    0  0.63306369273E+01  0.30864512833E+02  0.25699624713E+02  0.50528858018E+02  0.29999994431E+02 0.  0.
        -12    1    1    2    0    0 -0.63306369273E+01 -0.30864512833E+02 -0.25699624713E+02  0.40659141982E+02  0.00000000000E+00 0.  1.
         11    1    3    3    0    0  0.18096875048E+02  0.19300230185E+02  0.15932263492E+02  0.30884183523E+02  0.51100000000E-03 0. -1.
        -11    1    3    3    0    0 -0.56988270038E+01  0.30046790809E+01  0.26482803303E+01  0.69654945673E+01  0.51100000000E-03 0.  1.
         12    1    3    3    0    0 -0.60674111167E+01  0.85596035677E+01  0.71190808910E+01  0.12679179927E+02  0.00000000000E+00 0. -1.
</event>
<event>
 7    1  0.1023000E-012  0.5052886E+02  0.7816164E-02  0.1300439E+00
        -11   -1    0    0    0    0  0.00000000000E+00  0.00000000000E+00  0.45593999997E+02  0.45594000000E+02  0.51100000000E-03 0.  1.
         11   -1    0    0    0    0 -0.00000000000E+00 -0.00000000000E+00 -0.45593999997E+02  0.45594000000E+02  0.51100000000E-03 0. -1.
    9900012    2    1    2    0    0 -0.16507849657E+02  0.18058022386E+02 -0.32474052003E+02  0.50528864172E+02  0.30000013137E+02 0.  0.
        -12    1    1    2    0    0  0.16507849657E+02 -0.18058022386E+02  0.32474052003E+02  0.40659135828E+02  0.00000000000E+00 0.  1.
         11    1    3    3    0    0  0.33671523723E+01 -0.18836274351E+01  0.22824733557E+01  0.44827951429E+01  0.51100000000E-03 0.  1.
        -11    1    3    3    0    0 -0.88551815484E+01  0.68099153660E+01 -0.22013669316E+02  0.24685842594E+02  0.51100000000E-03 0. -1.
         12    1    3    3    0    0 -0.11019820481E+02  0.13131734455E+02 -0.12742856042E+02  0.21360226435E+02  0.00000000000E+00 0. -1.
</event>
<event>
 7    1  0.1023000E-012  0.5052885E+02  0.7816164E-02  0.1300439E+00
        -11   -1    0    0    0    0  0.00000000000E+00  0.00000000000E+00  0.45593999997E+02  0.45594000000E+02  0.51100000000E-03 0. -1.
         11   -1    0    0    0    0 -0.00000000000E+00 -0.00000000000E+00 -0.45593999997E+02  0.45594000000E+02  0.51100000000E-03 0.  1.
    9900012    2    1    2    0    0 -0.25485192998E+02 -0.26346466647E+02  0.17593604232E+02  0.50528852483E+02  0.29999977608E+02 0.  0.
        -12    1    1    2    0    0  0.25485192998E+02  0.26346466647E+02 -0.17593604232E+02  0.40659147517E+02  0.00000000000E+00 0.  1.
         11    1    3    3    0    0 -0.14175606425E+02 -0.20705757674E+02  0.21370975513E+02  0.32960503834E+02  0.51100000000E-03 0. -1.
        -11    1    3    3    0    0  0.11185740741E+01 -0.14359723965E+01 -0.40554675801E+01  0.44452269051E+01  0.51100000000E-03 0.  1.
         12    1    3    3    0    0 -0.12428160647E+02 -0.42047365760E+01  0.27809629878E+00  0.13123121744E+02  0.00000000000E+00 0. -1.
</event>
<event>
 7    1  0.1023000E-012  0.5052886E+02  0.7816164E-02  0.1300439E+00
        -11   -1    0    0    0    0  0.00000000000E+00  0.00000000000E+00  0.45593999997E+02  0.45594000000E+02  0.51100000000E-03 0.  1.
         11   -1    0    0    0    0 -0.00000000000E+00 -0.00000000000E+00 -0.45593999997E+02  0.45594000000E+02  0.51100000000E-03 0. -1.
    9900012    2    1    2    0    0  0.94116239181E+01 -0.34536077443E+02 -0.19283317027E+02  0.50528860493E+02  0.30000001953E+02 0.  0.
        -12    1    1    2    0    0 -0.94116239181E+01  0.34536077443E+02  0.19283317027E+02  0.40659139507E+02  0.00000000000E+00 0.  1.
         11    1    3    3    0    0  0.70189643360E+01 -0.21671769708E+02 -0.24964299529E+02  0.33795675964E+02  0.51100000000E-03 0. -1.
        -11    1    3    3    0    0  0.54697954256E+01 -0.79851560007E+01  0.19794124430E+01  0.98792435051E+01  0.51100000000E-03 0.  1.
         12    1    3    3    0    0 -0.30771358434E+01 -0.48791517341E+01  0.37015700596E+01  0.68539410232E+01  0.00000000000E+00 0. -1.
</event>
<event>
 7    1  0.1023000E-012  0.5052886E+02  0.7816164E-02  0.1300439E+00
        -11   -1    0    0    0    0  0.00000000000E+00  0.00000000000E+00  0.45593999997E+02  0.45594000000E+02  0.51100000000E-03 0. -1.
         11   -1    0    0    0    0 -0.00000000000E+00 -0.00000000000E+00 -0.45593999997E+02  0.45594000000E+02  0.51100000000E-03 0.  1.
    9900012    2    1    2    0    0  0.78511755070E+01 -0.81436338683E-01  0.39893836950E+02  0.50528858158E+02  0.29999994857E+02 0.  0.
        -12    1    1    2    0    0 -0.78511755070E+01  0.81436338683E-01 -0.39893836950E+02  0.40659141842E+02  0.00000000000E+00 0.  1.
         11    1    3    3    0    0  0.11351728015E+02  0.31681367597E+01  0.19021744551E+01  0.11938052076E+02  0.51100000000E-03 0. -1.
        -11    1    3    3    0    0 -0.31571508647E+01 -0.33522046978E+01  0.17490999360E+02  0.18087010167E+02  0.51100000000E-03 0.  1.
         12    1    3    3    0    0 -0.34340164285E+00  0.10263159941E+00  0.20500663135E+02  0.20503795915E+02  0.00000000000E+00 0. -1.
</event>
<event>
 7    1  0.1023000E-012  0.5052886E+02  0.7816164E-02  0.1300439E+00
        -11   -1    0    0    0    0  0.00000000000E+00  0.00000000000E+00  0.45593999997E+02  0.45594000000E+02  0.51100000000E-03 0.  1.
         11   -1    0    0    0    0 -0.00000000000E+00 -0.00000000000E+00 -0.45593999997E+02  0.45594000000E+02  0.51100000000E-03 0. -1.
    9900012    2    1    2    0    0 -0.36834230225E+02  0.25695661019E+01 -0.17023579187E+02  0.50528862841E+02  0.30000009090E+02 0.  0.
        -12    1    1    2    0    0  0.36834230225E+02 -0.25695661019E+01  0.17023579187E+02  0.40659137159E+02  0.00000000000E+00 0.  1.
         11    1    3    3    0    0 -0.26959527285E+02 -0.11808193826E+02 -0.12562824923E+02  0.32001158154E+02  0.51100000000E-03 0. -1.
        -11    1    3    3    0    0 -0.58187871719E+01  0.11608326241E+02 -0.24164181951E+01  0.13207974842E+02  0.51100000000E-03 0.  1.
         12    1    3    3    0    0 -0.40559157677E+01  0.27694336867E+01 -0.20443360685E+01  0.53197298448E+01  0.00000000000E+00 0. -1.
</event>
<event>
 7    1  0.1023000E-012  0.5052886E+02  0.7816164E-02  0.1300439E+00
        -11   -1    0    0    0    0  0.00000000000E+00  0.00000000000E+00  0.45593999997E+02  0.45594000000E+02  0.51100000000E-03 0. -1.
         11   -1    0    0    0    0 -0.00000000000E+00 -0.00000000000E+00 -0.45593999997E+02  0.45594000000E+02  0.51100000000E-03 0.  1.
    9900012    2    1    2    0    0  0.40473330394E+02  0.15375954544E+01  0.35652437025E+01  0.50528860368E+02  0.30000001576E+02 0.  0.
        -12    1    1    2    0    0 -0.40473330394E+02 -0.15375954544E+01 -0.35652437025E+01  0.40659139632E+02  0.00000000000E+00 0.  1.
         11    1    3    3    0    0  0.77220037435E+01  0.47657636563E+01  0.12463053850E+02  0.15416535168E+02  0.51100000000E-03 0. -1.
        -11    1    3    3    0    0  0.11575532203E+02  0.24500235288E+01 -0.12723874816E+01  0.11900190387E+02  0.51100000000E-03 0.  1.
         12    1    3    3    0    0  0.21175794447E+02 -0.56781917307E+01 -0.76254226659E+01  0.23212134814E+02  0.00000000000E+00 0. -1.
</event>
<event>
 7    1  0.1023000E-012  0.5052888E+02  0.7816164E-02  0.1300439E+00
        -11   -1    0    0    0    0  0.00000000000E+00  0.00000000000E+00  0.45593999997E+02  0.45594000000E+02  0.51100000000E-03 0.  1.
         11   -1    0    0    0    0 -0.00000000000E+00 -0.00000000000E+00 -0.45593999997E+02  0.45594000000E+02  0.51100000000E-03 0. -1.
    9900012    2    1    2    0    0  0.66191895922E+01  0.32673357449E+02 -0.23276650802E+02  0.50528875189E+02  0.30000046624E+02 0.  0.
        -12    1    1    2    0    0 -0.66191895922E+01 -0.32673357449E+02  0.23276650802E+02  0.40659124811E+02  0.00000000000E+00 0.  1.
         11    1    3    3    0    0  0.14111141675E+02  0.50993849864E+01 -0.12617887220E+02  0.19604568977E+02  0.51100000000E-03 0. -1.
        -11    1    3    3    0    0 -0.55440860343E+01  0.24552397034E+02 -0.10645751677E+02  0.27329272202E+02  0.51100000000E-03 0.  1.
        -12    1    3    3    0    0 -0.19478660490E+01  0.30215754292E+01 -0.13011904587E-01  0.35950340094E+01  0.00000000000E+00 0.  1.
</event>
<event>
 7    1  0.1023000E-012  0.5052886E+02  0.7816164E-02  0.1300439E+00
        -11   -1    0    0    0    0  0.00000000000E+00  0.00000000000E+00  0.45593999997E+02  0.45594000000E+02  0.51100000000E-03 0.  1.
         11   -1    0    0    0    0 -0.00000000000E+00 -0.00000000000E+00 -0.45593999997E+02  0.45594000000E+02  0.51100000000E-03 0. -1.
    9900012    2    1    2    0    0  0.15837547589E+02 -0.37171446767E+02  0.45410689536E+01  0.50528859876E+02  0.30000000079E+02 0.  0.
        -12    1    1    2    0    0 -0.15837547589E+02  0.37171446767E+02 -0.45410689536E+01  0.40659140124E+02  0.00000000000E+00 0.  1.
         11    1    3    3    0    0  0.80088375147E+01 -0.76546602336E+01 -0.50322784969E+01  0.12167954995E+02  0.51100000000E-03 0. -1.
        -11    1    3    3    0    0 -0.57258615828E+01 -0.18814023456E+02  0.30590595838E+01  0.19902532886E+02  0.51100000000E-03 0.  1.
        -12    1    3    3    0    0  0.13554571658E+02 -0.10702763077E+02  0.65142878668E+01  0.18458371995E+02  0.00000000000E+00 0.  1.
</event>
<event>
 7    1  0.1023000E-012  0.5052886E+02  0.7816164E-02  0.1300439E+00
        -11   -1    0    0    0    0  0.00000000000E+00  0.00000000000E+00  0.45593999997E+02  0.45594000000E+02  0.51100000000E-03 0. -1.
         11   -1    0    0    0    0 -0.00000000000E+00 -0.00000000000E+00 -0.45593999997E+02  0.45594000000E+02  0.51100000000E-03 0.  1.
    9900012    2    1    2    0    0  0.22765823154E+02  0.33256875423E+02  0.53724192600E+01  0.50528863813E+02  0.30000012046E+02 0.  0.
        -12    1    1    2    0    0 -0.22765823154E+02 -0.33256875423E+02 -0.53724192600E+01  0.40659136187E+02  0.00000000000E+00 0.  1.
         11    1    3    3    0    0 -0.39863857240E+00  0.56385375973E+01  0.11220528065E+02  0.12563927303E+02  0.51100000000E-03 0. -1.
        -11    1    3    3    0    0  0.97859476955E+00  0.38667888240E+01 -0.36210923099E+01  0.53872083040E+01  0.51100000000E-03 0.  1.
         12    1    3    3    0    0  0.22185866957E+02  0.23751549002E+02 -0.22270164955E+01  0.32577728206E+02  0.00000000000E+00 0. -1.
</event>
<event>
 7    1  0.1023000E-012  0.5052894E+02  0.7816164E-02  0.1300438E+00
        -11   -1    0    0    0    0  0.00000000000E+00  0.00000000000E+00  0.45593999997E+02  0.45594000000E+02  0.51100000000E-03 0.  1.
         11   -1    0    0    0    0 -0.00000000000E+00 -0.00000000000E+00 -0.45593999997E+02  0.45594000000E+02  0.51100000000E-03 0. -1.
    9900012    2    1    2    0    0 -0.31909112231E-01  0.10072830597E+02 -0.39391572293E+02  0.50528943172E+02  0.30000253265E+02 0.  0.
        -12    1    1    2    0    0  0.31909112231E-01 -0.10072830597E+02  0.39391572293E+02  0.40659056828E+02  0.00000000000E+00 0.  1.
         11    1    3    3    0    0 -0.21160195957E+01  0.14125057753E+02 -0.28255275841E+02  0.31659996977E+02  0.51100000000E-03 0.  1.
        -11    1    3    3    0    0  0.66434914498E+01 -0.43703049523E+01 -0.11821685733E+02  0.14247378631E+02  0.51100000000E-03 0. -1.
        -12    1    3    3    0    0 -0.45593809662E+01  0.31807779587E+00  0.68538928154E+00  0.46215675638E+01  0.00000000000E+00 0.  1.
</event>
<event>
 7    1  0.1023000E-012  0.5052886E+02  0.7816164E-02  0.1300439E+00
        -11   -1    0    0    0    0  0.00000000000E+00  0.00000000000E+00  0.45593999997E+02  0.45594000000E+02  0.51100000000E-03 0.  1.
         11   -1    0    0    0    0 -0.00000000000E+00 -0.00000000000E+00 -0.45593999997E+02  0.45594000000E+02  0.51100000000E-03 0. -1.
    9900012    2    1    2    0    0 -0.12429128641E+02 -0.30209792869E+02 -0.24208481280E+02  0.50528863390E+02  0.30000010761E+02 0.  0.
        -12    1    1    2    0    0  0.12429128641E+02  0.30209792869E+02  0.24208481280E+02  0.40659136610E+02  0.00000000000E+00 0.  1.
         11    1    3    3    0    0 -0.10043342711E+02 -0.14714755694E+02 -0.23618107511E+02  0.29583910671E+02  0.51100000000E-03 0. -1.
        -11    1    3    3    0    0  0.50614062448E+01 -0.85573859931E+01 -0.31878415897E+01  0.10440738598E+02  0.51100000000E-03 0.  1.
         12    1    3    3    0    0 -0.74471921750E+01 -0.69376511819E+01  0.25974678208E+01  0.10504214121E+02  0.00000000000E+00 0. -1.
</event>
<event>
 7    1  0.1023000E-012  0.5052886E+02  0.7816164E-02  0.1300439E+00
        -11   -1    0    0    0    0  0.00000000000E+00  0.00000000000E+00  0.45593999997E+02  0.45594000000E+02  0.51100000000E-03 0.  1.
         11   -1    0    0    0    0 -0.00000000000E+00 -0.00000000000E+00 -0.45593999997E+02  0.45594000000E+02  0.51100000000E-03 0. -1.
    9900012    2    1    2    0    0 -0.19572486707E+02  0.16958580719E+02 -0.31344701353E+02  0.50528855901E+02  0.29999987997E+02 0.  0.
        -12    1    1    2    0    0  0.19572486707E+02 -0.16958580719E+02  0.31344701353E+02  0.40659144099E+02  0.00000000000E+00 0.  1.
         11    1    3    3    0    0 -0.23881468499E+02  0.95397584102E+01 -0.20048186232E+02  0.32607687739E+02  0.51100000000E-03 0. -1.
        -11    1    3    3    0    0  0.70696904420E+01  0.49981188571E+01 -0.11317427999E+02  0.14249417245E+02  0.51100000000E-03 0.  1.
        -12    1    3    3    0    0 -0.27607086499E+01  0.24207034516E+01  0.20912877642E-01  0.36717509173E+01  0.00000000000E+00 0.  1.
</event>
<event>
 7    1  0.1023000E-012  0.5052886E+02  0.7816164E-02  0.1300439E+00
        -11   -1    0    0    0    0  0.00000000000E+00  0.00000000000E+00  0.45593999997E+02  0.45594000000E+02  0.51100000000E-03 0.  1.
         11   -1    0    0    0    0 -0.00000000000E+00 -0.00000000000E+00 -0.45593999997E+02  0.45594000000E+02  0.51100000000E-03 0. -1.
    9900012    2    1    2    0    0  0.25526148762E+02  0.17905204944E+02 -0.26095690636E+02  0.50528859521E+02  0.29999999000E+02 0.  0.
        -12    1    1    2    0    0 -0.25526148762E+02 -0.17905204944E+02  0.26095690636E+02  0.40659140479E+02  0.00000000000E+00 0.  1.
         11    1    3    3    0    0  0.10559519874E+02  0.16268095181E+02 -0.10096723682E+02  0.21865457008E+02  0.51100000000E-03 0. -1.
        -11    1    3    3    0    0  0.51760221770E+01 -0.44572026122E+01 -0.15706226999E+02  0.17127271455E+02  0.51100000000E-03 0.  1.
        -12    1    3    3    0    0  0.97906067115E+01  0.60943123759E+01 -0.29273995515E+00  0.11536131058E+02  0.00000000000E+00 0.  1.
</event>
<event>
 7    1  0.1023000E-012  0.5052888E+02  0.7816164E-02  0.1300439E+00
        -11   -1    0    0    0    0  0.00000000000E+00  0.00000000000E+00  0.45593999997E+02  0.45594000000E+02  0.51100000000E-03 0.  1.
         11   -1    0    0    0    0 -0.00000000000E+00 -0.00000000000E+00 -0.45593999997E+02  0.45594000000E+02  0.51100000000E-03 0. -1.
    9900012    2    1    2    0    0  0.76973859085E+01  0.27379521041E+02 -0.29056427996E+02  0.50528881341E+02  0.30000065325E+02 0.  0.
        -12    1    1    2    0    0 -0.76973859085E+01 -0.27379521041E+02  0.29056427996E+02  0.40659118659E+02  0.00000000000E+00 0.  1.
         11    1    3    3    0    0 -0.62194359532E+01  0.17221557926E+02 -0.18442706458E+02  0.25988398618E+02  0.51100000000E-03 0. -1.
        -11    1    3    3    0    0  0.22881606772E+01 -0.39114134795E+00  0.29767502398E+01  0.37748792153E+01  0.51100000000E-03 0.  1.
         12    1    3    3    0    0  0.11628661184E+02  0.10549104463E+02 -0.13590471778E+02  0.20765603508E+02  0.00000000000E+00 0. -1.
</event>
<event>
 7    1  0.1023000E-012  0.5052886E+02  0.7816164E-02  0.1300439E+00
        -11   -1    0    0    0    0  0.00000000000E+00  0.00000000000E+00  0.45593999997E+02  0.45594000000E+02  0.51100000000E-03 0.  1.
         11   -1    0    0    0    0 -0.00000000000E+00 -0.00000000000E+00 -0.45593999997E+02  0.45594000000E+02  0.51100000000E-03 0. -1.
    9900012    2    1    2    0    0 -0.11951461487E+02  0.89293346699E+01 -0.37823208852E+02  0.50528861086E+02  0.30000003757E+02 0.  0.
        -12    1    1    2    0    0  0.11951461487E+02 -0.89293346699E+01  0.37823208852E+02  0.40659138914E+02  0.00000000000E+00 0.  1.
         11    1    3    3    0    0 -0.17162828309E+02  0.78412545288E+00 -0.30132133354E+02  0.34686063325E+02  0.51100000000E-03 0. -1.
        -11    1    3    3    0    0  0.31007958840E+01  0.20970196986E+01  0.19860478360E+01  0.42375479936E+01  0.51100000000E-03 0.  1.
         12    1    3    3    0    0  0.21105709375E+01  0.60481895185E+01 -0.96771233344E+01  0.11605249767E+02  0.00000000000E+00 0. -1.
</event>
<event>
 7    1  0.1023000E-012  0.5052887E+02  0.7816164E-02  0.1300439E+00
        -11   -1    0    0    0    0  0.00000000000E+00  0.00000000000E+00  0.45593999997E+02  0.45594000000E+02  0.51100000000E-03 0.  1.
         11   -1    0    0    0    0 -0.00000000000E+00 -0.00000000000E+00 -0.45593999997E+02  0.45594000000E+02  0.51100000000E-03 0. -1.
    9900012    2    1    2    0    0  0.24305314033E+02  0.30306190241E+02 -0.11997974018E+02  0.50528870180E+02  0.30000031400E+02 0.  0.
        -12    1    1    2    0    0 -0.24305314033E+02 -0.30306190241E+02  0.11997974018E+02  0.40659129820E+02  0.00000000000E+00 0.  1.
         11    1    3    3    0    0 -0.21880009476E+00  0.83330733658E+01  0.63968833550E+01  0.10507525975E+02  0.51100000000E-03 0. -1.
        -11    1    3    3    0    0  0.12191608868E+01  0.21271977546E+01 -0.69023545335E+01  0.73248769220E+01  0.51100000000E-03 0.  1.
         12    1    3    3    0    0  0.23304953241E+02  0.19845919121E+02 -0.11492502839E+02  0.32696467283E+02  0.00000000000E+00 0. -1.
</event>
<event>
 7    1  0.1023000E-012  0.5052886E+02  0.7816164E-02  0.1300439E+00
        -11   -1    0    0    0    0  0.00000000000E+00  0.00000000000E+00  0.45593999997E+02  0.45594000000E+02  0.51100000000E-03 0. -1.
         11   -1    0    0    0    0 -0.00000000000E+00 -0.00000000000E+00 -0.45593999997E+02  0.45594000000E+02  0.51100000000E-03 0.  1.
    9900012    2    1    2    0    0 -0.29428782611E+01  0.36404703512E+02  0.17866248999E+02  0.50528858056E+02  0.29999994548E+02 0.  0.
        -12    1    1    2    0    0  0.29428782611E+01 -0.36404703512E+02 -0.17866248999E+02  0.40659141944E+02  0.00000000000E+00 0.  1.
         11    1    3    3    0    0 -0.10068668863E+01  0.15437540454E+02 -0.59560293027E+01  0.16577265200E+02  0.51100000000E-03 0. -1.
        -11    1    3    3    0    0  0.53975924929E+00 -0.12272018776E+01  0.35344105252E+01  0.37801352512E+01  0.51100000000E-03 0.  1.
         12    1    3    3    0    0 -0.24757706241E+01  0.22194364936E+02  0.20287867777E+02  0.30171457606E+02  0.00000000000E+00 0. -1.
</event>
<event>
 7    1  0.1023000E-012  0.5052886E+02  0.7816164E-02  0.1300439E+00
        -11   -1    0    0    0    0  0.00000000000E+00  0.00000000000E+00  0.45593999997E+02  0.45594000000E+02  0.51100000000E-03 0.  1.
         11   -1    0    0    0    0 -0.00000000000E+00 -0.00000000000E+00 -0.45593999997E+02  0.45594000000E+02  0.51100000000E-03 0. -1.
    9900012    2    1    2    0    0 -0.21472609635E+02  0.10820707079E+02 -0.32787271928E+02  0.50528857526E+02  0.29999992937E+02 0.  0.
        -12    1    1    2    0    0  0.21472609635E+02 -0.10820707079E+02  0.32787271928E+02  0.40659142474E+02  0.00000000000E+00 0.  1.
         11    1    3    3    0    0 -0.10070425496E+02  0.15042010293E+02 -0.21420556454E+02  0.28044888704E+02  0.51100000000E-03 0. -1.
        -11    1    3    3    0    0 -0.49211244799E+00 -0.74877316581E+01 -0.70759132706E+01  0.10313915305E+02  0.51100000000E-03 0.  1.
        -12    1    3    3    0    0 -0.10910071690E+02  0.32664284445E+01 -0.42908022031E+01  0.12170053517E+02  0.00000000000E+00 0.  1.
</event>
<event>
 7    1  0.1023000E-012  0.5052885E+02  0.7816164E-02  0.1300439E+00
        -11   -1    0    0    0    0  0.00000000000E+00  0.00000000000E+00  0.45593999997E+02  0.45594000000E+02  0.51100000000E-03 0. -1.
         11   -1    0    0    0    0 -0.00000000000E+00 -0.00000000000E+00 -0.45593999997E+02  0.45594000000E+02  0.51100000000E-03 0.  1.
    9900012    2    1    2    0    0 -0.92709474076E+01 -0.11834640095E+02  0.37777731717E+02  0.50528853604E+02  0.29999981014E+02 0.  0.
        -12    1    1    2    0    0  0.92709474076E+01  0.11834640095E+02 -0.37777731717E+02  0.40659146396E+02  0.00000000000E+00 0.  1.
         11    1    3    3    0    0  0.86544286122E+00 -0.11479511491E+01 -0.31506407317E+01  0.34631373736E+01  0.51100000000E-03 0.  1.
        -11    1    3    3    0    0  0.11944350885E+01 -0.88581766464E+01  0.29674664019E+02  0.30991606179E+02  0.51100000000E-03 0. -1.
        -12    1    3    3    0    0 -0.11330825357E+02 -0.18285122994E+01  0.11253708430E+02  0.16074110051E+02  0.00000000000E+00 0.  1.
</event>
<event>
 7    1  0.1023000E-012  0.5052884E+02  0.7816164E-02  0.1300439E+00
        -11   -1    0    0    0    0  0.00000000000E+00  0.00000000000E+00  0.45593999997E+02  0.45594000000E+02  0.51100000000E-03 0.  1.
         11   -1    0    0    0    0 -0.00000000000E+00 -0.00000000000E+00 -0.45593999997E+02  0.45594000000E+02  0.51100000000E-03 0. -1.
    9900012    2    1    2    0    0  0.22261402643E+02  0.11576346560E+02 -0.31993525432E+02  0.50528837233E+02  0.29999931254E+02 0.  0.
        -12    1    1    2    0    0 -0.22261402643E+02 -0.11576346560E+02  0.31993525432E+02  0.40659162767E+02  0.00000000000E+00 0.  1.
         11    1    3    3    0    0  0.11410859464E+02  0.41079766097E+01  0.30026207219E+01  0.12493955218E+02  0.51100000000E-03 0. -1.
        -11    1    3    3    0    0  0.23549110809E+01  0.48131984239E+01 -0.81682476205E+01  0.97689689690E+01  0.51100000000E-03 0.  1.
         12    1    3    3    0    0  0.84956320986E+01  0.26551715261E+01 -0.26827898534E+02  0.28265913046E+02  0.00000000000E+00 0. -1.
</event>
<event>
 7    1  0.1023000E-012  0.5052886E+02  0.7816164E-02  0.1300439E+00
        -11   -1    0    0    0    0  0.00000000000E+00  0.00000000000E+00  0.45593999997E+02  0.45594000000E+02  0.51100000000E-03 0. -1.
         11   -1    0    0    0    0 -0.00000000000E+00 -0.00000000000E+00 -0.45593999997E+02  0.45594000000E+02  0.51100000000E-03 0.  1.
    9900012    2    1    2    0    0 -0.24365400918E+02  0.30113542300E+02  0.12355882064E+02  0.50528855723E+02  0.29999987457E+02 0.  0.
        -12    1    1    2    0    0  0.24365400918E+02 -0.30113542300E+02 -0.12355882064E+02  0.40659144277E+02  0.00000000000E+00 0.  1.
         11    1    3    3    0    0 -0.48262225852E+01  0.22692543960E+02  0.13699840200E+02  0.26943080700E+02  0.51100000000E-03 0. -1.
        -11    1    3    3    0    0 -0.80248853598E+01 -0.13568503173E+01 -0.36586722322E+01  0.89233239651E+01  0.51100000000E-03 0.  1.
         12    1    3    3    0    0 -0.11514292973E+02  0.87778486573E+01  0.23147140960E+01  0.14662451059E+02  0.00000000000E+00 0. -1.
</event>
<event>
 7    1  0.1023000E-012  0.5052885E+02  0.7816164E-02  0.1300439E+00
        -11   -1    0    0    0    0  0.00000000000E+00  0.00000000000E+00  0.45593999997E+02  0.45594000000E+02  0.51100000000E-03 0.  1.
         11   -1    0    0    0    0 -0.00000000000E+00 -0.00000000000E+00 -0.45593999997E+02  0.45594000000E+02  0.51100000000E-03 0. -1.
    9900012    2    1    2    0    0  0.88132764431E+01  0.16138647189E+02 -0.36263434384E+02  0.50528850377E+02  0.29999971205E+02 0.  0.
        -12    1    1    2    0    0 -0.88132764431E+01 -0.16138647189E+02  0.36263434384E+02  0.40659149623E+02  0.00000000000E+00 0.  1.
         11    1    3    3    0    0  0.10922172944E+02  0.17799388816E+02 -0.22741008191E+02  0.30874998913E+02  0.51100000000E-03 0. -1.
        -11    1    3    3    0    0 -0.48806984726E+01 -0.22735680726E+01 -0.15357245767E+02  0.16273761925E+02  0.51100000000E-03 0.  1.
        -12    1    3    3    0    0  0.27718019717E+01  0.61282644611E+00  0.18348195746E+01  0.33800895395E+01  0.00000000000E+00 0.  1.
</event>
<event>
 7    1  0.1023000E-012  0.5052885E+02  0.7816164E-02  0.1300439E+00
        -11   -1    0    0    0    0  0.00000000000E+00  0.00000000000E+00  0.45593999997E+02  0.45594000000E+02  0.51100000000E-03 0.  1.
         11   -1    0    0    0    0 -0.00000000000E+00 -0.00000000000E+00 -0.45593999997E+02  0.45594000000E+02  0.51100000000E-03 0. -1.
    9900012    2    1    2    0    0  0.40541208525E+02 -0.55836648034E+00  0.30438201179E+01  0.50528853394E+02  0.29999980376E+02 0.  0.
        -12    1    1    2    0    0 -0.40541208525E+02  0.55836648034E+00 -0.30438201179E+01  0.40659146606E+02  0.00000000000E+00 0.  1.
         11    1    3    3    0    0  0.74479049961E+01  0.63004890636E+01  0.57713625445E+01  0.11334728808E+02  0.51100000000E-03 0. -1.
        -11    1    3    3    0    0  0.27730963273E+02 -0.80908354677E+01  0.53919159282E+01  0.29386063028E+02  0.51100000000E-03 0.  1.
        -12    1    3    3    0    0  0.53623402559E+01  0.12319799238E+01 -0.81194583548E+01  0.98080615581E+01  0.00000000000E+00 0.  1.
</event>
<event>
 7    1  0.1023000E-012  0.5052883E+02  0.7816164E-02  0.1300439E+00
        -11   -1    0    0    0    0  0.00000000000E+00  0.00000000000E+00  0.45593999997E+02  0.45594000000E+02  0.51100000000E-03 0.  1.
         11   -1    0    0    0    0 -0.00000000000E+00 -0.00000000000E+00 -0.45593999997E+02  0.45594000000E+02  0.51100000000E-03 0. -1.
    9900012    2    1    2    0    0 -0.38969024018E+01  0.50981895812E+01 -0.40149607367E+02  0.50528826902E+02  0.29999899850E+02 0.  0.
        -12    1    1    2    0    0  0.38969024018E+01 -0.50981895812E+01  0.40149607367E+02  0.40659173098E+02  0.00000000000E+00 0.  1.
         11    1    3    3    0    0 -0.14873509334E+02  0.69220084074E+01 -0.24262885055E+02  0.29288616761E+02  0.51100000000E-03 0. -1.
        -11    1    3    3    0    0  0.40696031073E+01 -0.25763247635E+01 -0.11562107279E+01  0.49533768529E+01  0.51100000000E-03 0.  1.
         12    1    3    3    0    0  0.69070038252E+01  0.75250593728E+00 -0.14730511584E+02  0.16286833288E+02  0.00000000000E+00 0. -1.
</event>
<event>
 7    1  0.1023000E-012  0.5052884E+02  0.7816164E-02  0.1300439E+00
        -11   -1    0    0    0    0  0.00000000000E+00  0.00000000000E+00  0.45593999997E+02  0.45594000000E+02  0.51100000000E-03 0.  1.
         11   -1    0    0    0    0 -0.00000000000E+00 -0.00000000000E+00 -0.45593999997E+02  0.45594000000E+02  0.51100000000E-03 0. -1.
    9900012    2    1    2    0    0 -0.13105591888E+01 -0.34230538516E+02 -0.21902515052E+02  0.50528837464E+02  0.29999931956E+02 0.  0.
        -12    1    1    2    0    0  0.13105591888E+01  0.34230538516E+02  0.21902515052E+02  0.40659162536E+02  0.00000000000E+00 0.  1.
         11    1    3    3    0    0 -0.24970547111E+01 -0.33070716537E+02 -0.59167603020E+01  0.33688508830E+02  0.51100000000E-03 0.  1.
        -11    1    3    3    0    0  0.42186609106E+00 -0.15441244488E+01 -0.15899886251E+02  0.15980258896E+02  0.51100000000E-03 0. -1.
        -12    1    3    3    0    0  0.76462943124E+00  0.38430246939E+00 -0.85868499071E-01  0.86006973801E+00  0.00000000000E+00 0.  1.
</event>
<event>
 7    1  0.1023000E-012  0.5052886E+02  0.7816164E-02  0.1300439E+00
        -11   -1    0    0    0    0  0.00000000000E+00  0.00000000000E+00  0.45593999997E+02  0.45594000000E+02  0.51100000000E-03 0.  1.
         11   -1    0    0    0    0 -0.00000000000E+00 -0.00000000000E+00 -0.45593999997E+02  0.45594000000E+02  0.51100000000E-03 0. -1.
    9900012    2    1    2    0    0 -0.34947037695E+02  0.20154236014E+02 -0.50672375619E+01  0.50528861182E+02  0.30000004047E+02 0.  0.
        -12    1    1    2    0    0  0.34947037695E+02 -0.20154236014E+02  0.50672375619E+01  0.40659138818E+02  0.00000000000E+00 0.  1.
         11    1    3    3    0    0 -0.51229112843E+01  0.35826487206E+01 -0.76948928762E+01  0.99141801739E+01  0.51100000000E-03 0. -1.
        -11    1    3    3    0    0 -0.47615572776E+01  0.17374079715E+01  0.94311932079E+01  0.10706933256E+02  0.51100000000E-03 0.  1.
        -12    1    3    3    0    0 -0.25062569133E+02  0.14834179322E+02 -0.68035378936E+01  0.29907747751E+02  0.00000000000E+00 0.  1.
</event>
<event>
 7    1  0.1109128E-012  0.5052887E+02  0.7816164E-02  0.1300439E+00
        -11   -1    0    0    0    0  0.00000000000E+00  0.00000000000E+00  0.45593999997E+02  0.45594000000E+02  0.51100000000E-03 0. -1.
         11   -1    0    0    0    0 -0.00000000000E+00 -0.00000000000E+00 -0.45593999997E+02  0.45594000000E+02  0.51100000000E-03 0.  1.
    9900012    2    1    2    0    0 -0.26530523884E+02  0.47899960297E+01  0.30436031938E+02  0.50528870648E+02  0.30000032823E+02 0.  0.
        -12    1    1    2    0    0  0.26530523884E+02 -0.47899960297E+01 -0.30436031938E+02  0.40659129352E+02  0.00000000000E+00 0.  1.
         11    1    3    3    0    0 -0.19420700895E+02  0.55571892908E+01  0.12615741141E+02  0.23816021937E+02  0.51100000000E-03 0. -1.
        -11    1    3    3    0    0 -0.12624602686E+01 -0.91797752574E+01  0.58564133763E+01  0.10961736067E+02  0.51100000000E-03 0.  1.
        -12    1    3    3    0    0 -0.58473627200E+01  0.84125819962E+01  0.11963877420E+02  0.15751112645E+02  0.00000000000E+00 0.  1.
</event>
<event>
 7    1  0.1023000E-012  0.5052885E+02  0.7816164E-02  0.1300439E+00
        -11   -1    0    0    0    0  0.00000000000E+00  0.00000000000E+00  0.45593999997E+02  0.45594000000E+02  0.51100000000E-03 0.  1.
         11   -1    0    0    0    0 -0.00000000000E+00 -0.00000000000E+00 -0.45593999997E+02  0.45594000000E+02  0.51100000000E-03 0. -1.
    9900012    2    1    2    0    0  0.15579272175E+02  0.72020427581E+01 -0.36858959995E+02  0.50528854985E+02  0.29999985214E+02 0.  0.
        -12    1    1    2    0    0 -0.15579272175E+02 -0.72020427581E+01  0.36858959995E+02  0.40659145015E+02  0.00000000000E+00 0.  1.
         11    1    3    3    0    0 -0.71645244093E+00 -0.35369315798E+01 -0.53652958463E+01  0.64660334734E+01  0.51100000000E-03 0. -1.
        -11    1    3    3    0    0  0.94638963441E+01  0.18250790438E+02 -0.19339845233E+02  0.28225631960E+02  0.51100000000E-03 0.  1.
        -12    1    3    3    0    0  0.68318282721E+01 -0.75118161005E+01 -0.12153818916E+02  0.15837189552E+02  0.00000000000E+00 0.  1.
</event>
<event>
 7    1  0.1023000E-012  0.5052886E+02  0.7816164E-02  0.1300439E+00
        -11   -1    0    0    0    0  0.00000000000E+00  0.00000000000E+00  0.45593999997E+02  0.45594000000E+02  0.51100000000E-03 0.  1.
         11   -1    0    0    0    0 -0.00000000000E+00 -0.00000000000E+00 -0.45593999997E+02  0.45594000000E+02  0.51100000000E-03 0. -1.
    9900012    2    1    2    0    0 -0.13354422916E+02 -0.28933678959E+02 -0.25252072961E+02  0.50528861072E+02  0.30000003715E+02 0.  0.
        -12    1    1    2    0    0  0.13354422916E+02  0.28933678959E+02  0.25252072961E+02  0.40659138928E+02  0.00000000000E+00 0.  1.
         11    1    3    3    0    0 -0.66557133995E+00 -0.99665117279E-01 -0.66512512542E+01  0.66852121770E+01  0.51100000000E-03 0. -1.
        -11    1    3    3    0    0 -0.29180761510E+01 -0.56315353353E+01  0.59370838616E+01  0.86878261779E+01  0.51100000000E-03 0.  1.
        -12    1    3    3    0    0 -0.97707754253E+01 -0.23202478507E+02 -0.24537905568E+02  0.35155822717E+02  0.00000000000E+00 0.  1.
</event>
<event>
 7    1  0.1023000E-012  0.5052886E+02  0.7816164E-02  0.1300439E+00
        -11   -1    0    0    0    0  0.00000000000E+00  0.00000000000E+00  0.45593999997E+02  0.45594000000E+02  0.51100000000E-03 0.  1.
         11   -1    0    0    0    0 -0.00000000000E+00 -0.00000000000E+00 -0.45593999997E+02  0.45594000000E+02  0.51100000000E-03 0. -1.
    9900012    2    1    2    0    0  0.26446788755E+02 -0.24964661777E+02 -0.18179616594E+02  0.50528862865E+02  0.30000009164E+02 0.  0.
        -12    1    1    2    0    0 -0.26446788755E+02  0.24964661777E+02  0.18179616594E+02  0.40659137135E+02  0.00000000000E+00 0.  1.
         11    1    3    3    0    0  0.15740805787E+02 -0.25258892062E+01  0.29800571479E+01  0.16218317545E+02  0.51100000000E-03 0. -1.
        -11    1    3    3    0    0 -0.10055581378E+01  0.49001358321E+00 -0.25847214829E+00  0.11480716845E+01  0.51100000000E-03 0.  1.
         12    1    3    3    0    0  0.11711541105E+02 -0.22928786154E+02 -0.20901201594E+02  0.33162473635E+02  0.00000000000E+00 0. -1.
</event>
<event>
 7    1  0.1023000E-012  0.5052881E+02  0.7816164E-02  0.1300439E+00
        -11   -1    0    0    0    0  0.00000000000E+00  0.00000000000E+00  0.45593999997E+02  0.45594000000E+02  0.51100000000E-03 0.  1.
         11   -1    0    0    0    0 -0.00000000000E+00 -0.00000000000E+00 -0.45593999997E+02  0.45594000000E+02  0.51100000000E-03 0. -1.
    9900012    2    1    2    0    0  0.33494468838E+02 -0.13385128399E+02 -0.18765097039E+02  0.50528807043E+02  0.29999839489E+02 0.  0.
        -12    1    1    2    0    0 -0.33494468838E+02  0.13385128399E+02  0.18765097039E+02  0.40659192957E+02  0.00000000000E+00 0.  1.
         11    1    3    3    0    0  0.31516041130E+02  0.56380751334E+00 -0.73621176447E+01  0.32369422360E+02  0.51100000000E-03 0. -1.
        -11    1    3    3    0    0  0.15872605065E+01 -0.80804223662E+01 -0.70809073011E+01  0.10860564902E+02  0.51100000000E-03 0.  1.
         12    1    3    3    0    0  0.39116720140E+00 -0.58685135464E+01 -0.43220720929E+01  0.72988197813E+01  0.00000000000E+00 0. -1.
</event>
<event>
 7    1  0.1023000E-012  0.5052886E+02  0.7816164E-02  0.1300439E+00
        -11   -1    0    0    0    0  0.00000000000E+00  0.00000000000E+00  0.45593999997E+02  0.45594000000E+02  0.51100000000E-03 0.  1.
         11   -1    0    0    0    0 -0.00000000000E+00 -0.00000000000E+00 -0.45593999997E+02  0.45594000000E+02  0.51100000000E-03 0. -1.
    9900012    2    1    2    0    0  0.33890676487E+01  0.34818762400E+02  0.20720375043E+02  0.50528856667E+02  0.29999990326E+02 0.  0.
        -12    1    1    2    0    0 -0.33890676487E+01 -0.34818762400E+02 -0.20720375043E+02  0.40659143333E+02  0.00000000000E+00 0.  1.
         11    1    3    3    0    0 -0.90586281063E+01  0.16035107819E+02  0.71112352110E+01  0.19742165343E+02  0.51100000000E-03 0. -1.
        -11    1    3    3    0    0  0.54971803456E+01  0.10948204457E+02  0.15892989043E+02  0.20066620881E+02  0.51100000000E-03 0.  1.
         12    1    3    3    0    0  0.69505154094E+01  0.78354501238E+01 -0.22838492105E+01  0.10720070444E+02  0.00000000000E+00 0. -1.
</event>
<event>
 7    1  0.1023000E-012  0.5052885E+02  0.7816164E-02  0.1300439E+00
        -11   -1    0    0    0    0  0.00000000000E+00  0.00000000000E+00  0.45593999997E+02  0.45594000000E+02  0.51100000000E-03 0. -1.
         11   -1    0    0    0    0 -0.00000000000E+00 -0.00000000000E+00 -0.45593999997E+02  0.45594000000E+02  0.51100000000E-03 0.  1.
    9900012    2    1    2    0    0 -0.30524398191E+02 -0.22373074012E+02 -0.14861797874E+02  0.50528851439E+02  0.29999974434E+02 0.  0.
        -12    1    1    2    0    0  0.30524398191E+02  0.22373074012E+02  0.14861797874E+02  0.40659148561E+02  0.00000000000E+00 0.  1.
         11    1    3    3    0    0 -0.35249041992E+02 -0.14800425437E+02 -0.16125429943E+02  0.41491891323E+02  0.51100000000E-03 0. -1.
        -11    1    3    3    0    0  0.25180092348E+01 -0.46108032207E+01  0.67083814069E+00  0.52962157168E+01  0.51100000000E-03 0.  1.
         12    1    3    3    0    0  0.22066345666E+01 -0.29618453550E+01  0.59279392834E+00  0.37407443990E+01  0.00000000000E+00 0. -1.
</event>
<event>
 7    1  0.1023000E-012  0.5052887E+02  0.7816164E-02  0.1300439E+00
        -11   -1    0    0    0    0  0.00000000000E+00  0.00000000000E+00  0.45593999997E+02  0.45594000000E+02  0.51100000000E-03 0.  1.
         11   -1    0    0    0    0 -0.00000000000E+00 -0.00000000000E+00 -0.45593999997E+02  0.45594000000E+02  0.51100000000E-03 0. -1.
    9900012    2    1    2    0    0  0.40406659944E+02 -0.41650941219E+01  0.17659399010E+01  0.50528871620E+02  0.30000035776E+02 0.  0.
        -12    1    1    2    0    0 -0.40406659944E+02  0.41650941219E+01 -0.17659399010E+01  0.40659128380E+02  0.00000000000E+00 0.  1.
         11    1    3    3    0    0  0.21780289126E+02  0.11588258116E+02  0.39082218502E+01  0.24978849431E+02  0.51100000000E-03 0. -1.
        -11    1    3    3    0    0  0.15793743072E+02 -0.13330432644E+02 -0.44836220759E+01  0.21148182473E+02  0.51100000000E-03 0.  1.
         12    1    3    3    0    0  0.28326277455E+01 -0.24229195936E+01  0.23413401267E+01  0.44018397166E+01  0.00000000000E+00 0. -1.
</event>
<event>
 7    1  0.1023000E-012  0.5052886E+02  0.7816164E-02  0.1300439E+00
        -11   -1    0    0    0    0  0.00000000000E+00  0.00000000000E+00  0.45593999997E+02  0.45594000000E+02  0.51100000000E-03 0.  1.
         11   -1    0    0    0    0 -0.00000000000E+00 -0.00000000000E+00 -0.45593999997E+02  0.45594000000E+02  0.51100000000E-03 0. -1.
    9900012    2    1    2    0    0  0.15446004354E+02  0.12065167407E+02 -0.35623279814E+02  0.50528863514E+02  0.30000011138E+02 0.  0.
        -12    1    1    2    0    0 -0.15446004354E+02 -0.12065167407E+02  0.35623279814E+02  0.40659136486E+02  0.00000000000E+00 0.  1.
         11    1    3    3    0    0  0.10499727714E+02  0.94163053185E+01 -0.20625102212E+02  0.24986114733E+02  0.51100000000E-03 0. -1.
        -11    1    3    3    0    0  0.76212851900E+01 -0.54225879305E+01 -0.13330524451E+01  0.94480409024E+01  0.51100000000E-03 0.  1.
        -12    1    3    3    0    0 -0.26750085508E+01  0.80714500186E+01 -0.13665125157E+02  0.16094707879E+02  0.00000000000E+00 0.  1.
</event>
<event>
 7    1  0.1023000E-012  0.5052887E+02  0.7816164E-02  0.1300439E+00
        -11   -1    0    0    0    0  0.00000000000E+00  0.00000000000E+00  0.45593999997E+02  0.45594000000E+02  0.51100000000E-03 0. -1.
         11   -1    0    0    0    0 -0.00000000000E+00 -0.00000000000E+00 -0.45593999997E+02  0.45594000000E+02  0.51100000000E-03 0.  1.
    9900012    2    1    2    0    0 -0.39022655062E+02 -0.87117659663E+00 -0.11385890829E+02  0.50528867364E+02  0.30000022839E+02 0.  0.
        -12    1    1    2    0    0  0.39022655062E+02  0.87117659663E+00  0.11385890829E+02  0.40659132636E+02  0.00000000000E+00 0.  1.
         11    1    3    3    0    0 -0.97727974986E+01 -0.12499783093E+02 -0.40780234990E+01  0.16382381519E+02  0.51100000000E-03 0. -1.
        -11    1    3    3    0    0 -0.61719115977E+01  0.75325564260E+01 -0.55272654259E+00  0.97538405755E+01  0.51100000000E-03 0.  1.
         12    1    3    3    0    0 -0.23077945966E+02  0.40960500703E+01 -0.67551407870E+01  0.24392645269E+02  0.00000000000E+00 0. -1.
</event>
<event>
 7    1  0.1023000E-012  0.5052878E+02  0.7816164E-02  0.1300439E+00
        -11   -1    0    0    0    0  0.00000000000E+00  0.00000000000E+00  0.45593999997E+02  0.45594000000E+02  0.51100000000E-03 0.  1.
         11   -1    0    0    0    0 -0.00000000000E+00 -0.00000000000E+00 -0.45593999997E+02  0.45594000000E+02  0.51100000000E-03 0. -1.
    9900012    2    1    2    0    0 -0.10459315154E+02 -0.10886255322E+02 -0.37752673953E+02  0.50528779410E+02  0.29999755494E+02 0.  0.
        -12    1    1    2    0    0  0.10459315154E+02  0.10886255322E+02  0.37752673953E+02  0.40659220590E+02  0.00000000000E+00 0.  1.
         11    1    3    3    0    0 -0.21628470921E+01  0.28110678137E+01 -0.32943549001E+02  0.33133931714E+02  0.51100000000E-03 0. -1.
        -11    1    3    3    0    0 -0.26920228768E+01 -0.53744003732E+01  0.52021625939E+00  0.60333897403E+01  0.51100000000E-03 0.  1.
         12    1    3    3    0    0 -0.56044451849E+01 -0.83229227620E+01 -0.53293412111E+01  0.11361457956E+02  0.00000000000E+00 0. -1.
</event>
<event>
 7    1  0.1023000E-012  0.5052886E+02  0.7816164E-02  0.1300439E+00
        -11   -1    0    0    0    0  0.00000000000E+00  0.00000000000E+00  0.45593999997E+02  0.45594000000E+02  0.51100000000E-03 0.  1.
         11   -1    0    0    0    0 -0.00000000000E+00 -0.00000000000E+00 -0.45593999997E+02  0.45594000000E+02  0.51100000000E-03 0. -1.
    9900012    2    1    2    0    0 -0.82511584909E+01 -0.21260070151E+02 -0.33661454631E+02  0.50528859243E+02  0.29999998155E+02 0.  0.
        -12    1    1    2    0    0  0.82511584909E+01  0.21260070151E+02  0.33661454631E+02  0.40659140757E+02  0.00000000000E+00 0.  1.
         11    1    3    3    0    0 -0.99094441790E+01 -0.23976926552E+02 -0.21663891459E+02  0.33799619587E+02  0.51100000000E-03 0. -1.
        -11    1    3    3    0    0  0.20769800172E+01  0.54278647219E+01 -0.16747550408E+01  0.60481704786E+01  0.51100000000E-03 0.  1.
         12    1    3    3    0    0 -0.41869432910E+00 -0.27110083199E+01 -0.10322808131E+02  0.10681069177E+02  0.00000000000E+00 0. -1.
</event>
<event>
 7    1  0.1023000E-012  0.5052886E+02  0.7816164E-02  0.1300439E+00
        -11   -1    0    0    0    0  0.00000000000E+00  0.00000000000E+00  0.45593999997E+02  0.45594000000E+02  0.51100000000E-03 0.  1.
         11   -1    0    0    0    0 -0.00000000000E+00 -0.00000000000E+00 -0.45593999997E+02  0.45594000000E+02  0.51100000000E-03 0. -1.
    9900012    2    1    2    0    0 -0.25312972183E+01  0.19331966646E+02 -0.35679594377E+02  0.50528857671E+02  0.29999993377E+02 0.  0.
        -12    1    1    2    0    0  0.25312972183E+01 -0.19331966646E+02  0.35679594377E+02  0.40659142329E+02  0.00000000000E+00 0.  1.
         11    1    3    3    0    0  0.99642342360E+01  0.67058395120E+01 -0.15154645290E+02  0.19336947060E+02  0.51100000000E-03 0.  1.
        -11    1    3    3    0    0 -0.14663316660E+02  0.84920137697E+01 -0.20403608827E+02  0.26522337883E+02  0.51100000000E-03 0. -1.
         12    1    3    3    0    0  0.21677852057E+01  0.41341133641E+01 -0.12134025986E+00  0.46695727282E+01  0.00000000000E+00 0. -1.
</event>
<event>
 7    1  0.1023000E-012  0.5052886E+02  0.7816164E-02  0.1300439E+00
        -11   -1    0    0    0    0  0.00000000000E+00  0.00000000000E+00  0.45593999997E+02  0.45594000000E+02  0.51100000000E-03 0. -1.
         11   -1    0    0    0    0 -0.00000000000E+00 -0.00000000000E+00 -0.45593999997E+02  0.45594000000E+02  0.51100000000E-03 0.  1.
    9900012    2    1    2    0    0  0.47421183779E+01 -0.35894070615E+02 -0.18501184473E+02  0.50528858114E+02  0.29999994723E+02 0.  0.
        -12    1    1    2    0    0 -0.47421183779E+01  0.35894070615E+02  0.18501184473E+02  0.40659141886E+02  0.00000000000E+00 0.  1.
         11    1    3    3    0    0  0.98895696231E+01 -0.10955056536E+02  0.28502594124E+00  0.14761371585E+02  0.51100000000E-03 0. -1.
        -11    1    3    3    0    0 -0.71570887669E+01 -0.38335039339E+01 -0.98376701840E+01  0.12755368554E+02  0.51100000000E-03 0.  1.
         12    1    3    3    0    0  0.20096375217E+01 -0.21105510145E+02 -0.89485402300E+01  0.23012117975E+02  0.00000000000E+00 0. -1.
</event>
<event>
 7    1  0.1023000E-012  0.5052887E+02  0.7816164E-02  0.1300439E+00
        -11   -1    0    0    0    0  0.00000000000E+00  0.00000000000E+00  0.45593999997E+02  0.45594000000E+02  0.51100000000E-03 0.  1.
         11   -1    0    0    0    0 -0.00000000000E+00 -0.00000000000E+00 -0.45593999997E+02  0.45594000000E+02  0.51100000000E-03 0. -1.
    9900012    2    1    2    0    0  0.32823473969E+02  0.17583981310E+02 -0.16327526822E+02  0.50528868501E+02  0.30000026296E+02 0.  0.
        -12    1    1    2    0    0 -0.32823473969E+02 -0.17583981310E+02  0.16327526822E+02  0.40659131499E+02  0.00000000000E+00 0.  1.
         11    1    3    3    0    0  0.27064747074E+02  0.20079613356E+02 -0.12380335778E+02  0.35902146467E+02  0.51100000000E-03 0. -1.
        -11    1    3    3    0    0 -0.27752847694E+01 -0.15724154207E+01  0.23658468178E+01  0.39713885774E+01  0.51100000000E-03 0.  1.
        -12    1    3    3    0    0  0.85340116643E+01 -0.92321662532E+00 -0.63130378620E+01  0.10655333457E+02  0.00000000000E+00 0.  1.
</event>
<event>
 7    1  0.1023000E-012  0.5052886E+02  0.7816164E-02  0.1300439E+00
        -11   -1    0    0    0    0  0.00000000000E+00  0.00000000000E+00  0.45593999997E+02  0.45594000000E+02  0.51100000000E-03 0.  1.
         11   -1    0    0    0    0 -0.00000000000E+00 -0.00000000000E+00 -0.45593999997E+02  0.45594000000E+02  0.51100000000E-03 0. -1.
    9900012    2    1    2    0    0 -0.21947768409E+02 -0.10927865678E+02 -0.32435210081E+02  0.50528860322E+02  0.30000001434E+02 0.  0.
        -12    1    1    2    0    0  0.21947768409E+02  0.10927865678E+02  0.32435210081E+02  0.40659139678E+02  0.00000000000E+00 0.  1.
         11    1    3    3    0    0 -0.39733241382E+01  0.48509184742E+01  0.14698705753E+00  0.62721862382E+01  0.51100000000E-03 0. -1.
        -11    1    3    3    0    0 -0.63400519994E+00 -0.11938855096E+02 -0.15870575492E+02  0.19869911683E+02  0.51100000000E-03 0.  1.
         12    1    3    3    0    0 -0.17340439070E+02 -0.38399290564E+01 -0.16711621647E+02  0.24386762401E+02  0.00000000000E+00 0. -1.
</event>
<event>
 7    1  0.1023000E-012  0.5052885E+02  0.7816164E-02  0.1300439E+00
        -11   -1    0    0    0    0  0.00000000000E+00  0.00000000000E+00  0.45593999997E+02  0.45594000000E+02  0.51100000000E-03 0.  1.
         11   -1    0    0    0    0 -0.00000000000E+00 -0.00000000000E+00 -0.45593999997E+02  0.45594000000E+02  0.51100000000E-03 0. -1.
    9900012    2    1    2    0    0  0.17061486974E+02  0.32394964345E+01 -0.36763805936E+02  0.50528854635E+02  0.29999984149E+02 0.  0.
        -12    1    1    2    0    0 -0.17061486974E+02 -0.32394964345E+01  0.36763805936E+02  0.40659145365E+02  0.00000000000E+00 0.  1.
         11    1    3    3    0    0 -0.69888186732E+01 -0.90562771984E+00 -0.53269100800E+01  0.88340092412E+01  0.51100000000E-03 0. -1.
        -11    1    3    3    0    0  0.85562147473E+01  0.65763657544E+01 -0.18260037598E+02  0.21210524997E+02  0.51100000000E-03 0.  1.
         12    1    3    3    0    0  0.15494090900E+02 -0.24312416001E+01 -0.13176858258E+02  0.20484320396E+02  0.00000000000E+00 0. -1.
</event>
<event>
 7    1  0.1023000E-012  0.5052886E+02  0.7816164E-02  0.1300439E+00
        -11   -1    0    0    0    0  0.00000000000E+00  0.00000000000E+00  0.45593999997E+02  0.45594000000E+02  0.51100000000E-03 0.  1.
         11   -1    0    0    0    0 -0.00000000000E+00 -0.00000000000E+00 -0.45593999997E+02  0.45594000000E+02  0.51100000000E-03 0. -1.
    9900012    2    1    2    0    0  0.33891616160E+01 -0.39395249902E+02 -0.94706664771E+01  0.50528860132E+02  0.30000000856E+02 0.  0.
        -12    1    1    2    0    0 -0.33891616160E+01  0.39395249902E+02  0.94706664771E+01  0.40659139868E+02  0.00000000000E+00 0.  1.
         11    1    3    3    0    0 -0.85964636427E+01 -0.24043035015E+01 -0.36442083872E+01  0.96415827289E+01  0.51100000000E-03 0. -1.
        -11    1    3    3    0    0  0.10627277086E+02 -0.24729260800E+02  0.71097776700E+00  0.26925468383E+02  0.51100000000E-03 0.  1.
         12    1    3    3    0    0  0.13583481729E+01 -0.12261685600E+02 -0.65374358569E+01  0.13961809020E+02  0.00000000000E+00 0. -1.
</event>
<event>
 7    1  0.1023000E-012  0.5052886E+02  0.7816164E-02  0.1300439E+00
        -11   -1    0    0    0    0  0.00000000000E+00  0.00000000000E+00  0.45593999997E+02  0.45594000000E+02  0.51100000000E-03 0. -1.
         11   -1    0    0    0    0 -0.00000000000E+00 -0.00000000000E+00 -0.45593999997E+02  0.45594000000E+02  0.51100000000E-03 0.  1.
    9900012    2    1    2    0    0  0.16427327361E+02  0.26212723740E+02  0.26385628678E+02  0.50528863624E+02  0.30000011473E+02 0.  0.
        -12    1    1    2    0    0 -0.16427327361E+02 -0.26212723740E+02 -0.26385628678E+02  0.40659136376E+02  0.00000000000E+00 0.  1.
         11    1    3    3    0    0  0.22046952249E+02  0.91512495770E+01  0.12592443927E+02  0.26988573816E+02  0.51100000000E-03 0. -1.
        -11    1    3    3    0    0 -0.20158535464E+01  0.25395533793E+01  0.56274040081E+01  0.64946649658E+01  0.51100000000E-03 0.  1.
         12    1    3    3    0    0 -0.36037713420E+01  0.14521920784E+02  0.81657807424E+01  0.17045624842E+02  0.00000000000E+00 0. -1.
</event>
<event>
 7    1  0.1023000E-012  0.5052885E+02  0.7816164E-02  0.1300439E+00
        -11   -1    0    0    0    0  0.00000000000E+00  0.00000000000E+00  0.45593999997E+02  0.45594000000E+02  0.51100000000E-03 0.  1.
         11   -1    0    0    0    0 -0.00000000000E+00 -0.00000000000E+00 -0.45593999997E+02  0.45594000000E+02  0.51100000000E-03 0. -1.
    9900012    2    1    2    0    0 -0.16693389767E+02  0.35062059775E+02  0.12047775288E+02  0.50528853587E+02  0.29999980964E+02 0.  0.
        -12    1    1    2    0    0  0.16693389767E+02 -0.35062059775E+02 -0.12047775288E+02  0.40659146413E+02  0.00000000000E+00 0.  1.
         11    1    3    3    0    0  0.11998095864E+01  0.26495345371E+02  0.10155745173E+02  0.28400387843E+02  0.51100000000E-03 0. -1.
        -11    1    3    3    0    0 -0.10242340607E+02  0.76126467803E+01  0.51456876118E+01  0.13759943073E+02  0.51100000000E-03 0.  1.
         12    1    3    3    0    0 -0.76508587471E+01  0.95406762443E+00 -0.32536574967E+01  0.83685226717E+01  0.00000000000E+00 0. -1.
</event>
<event>
 7    1  0.1023000E-012  0.5052886E+02  0.7816164E-02  0.1300439E+00
        -11   -1    0    0    0    0  0.00000000000E+00  0.00000000000E+00  0.45593999997E+02  0.45594000000E+02  0.51100000000E-03 0.  1.
         11   -1    0    0    0    0 -0.00000000000E+00 -0.00000000000E+00 -0.45593999997E+02  0.45594000000E+02  0.51100000000E-03 0. -1.
    9900012    2    1    2    0    0  0.17654869225E+02  0.17443330076E+02 -0.32205611972E+02  0.50528860634E+02  0.30000002384E+02 0.  0.
        -12    1    1    2    0    0 -0.17654869225E+02 -0.17443330076E+02  0.32205611972E+02  0.40659139366E+02  0.00000000000E+00 0.  1.
         11    1    3    3    0    0  0.82333652161E+01 -0.27331357585E+01 -0.12952686616E+02  0.15589433110E+02  0.51100000000E-03 0. -1.
        -11    1    3    3    0    0  0.15124881497E+02  0.15706497835E+02 -0.13132531976E+02  0.25454263119E+02  0.51100000000E-03 0.  1.
        -12    1    3    3    0    0 -0.57033774883E+01  0.44699679987E+01 -0.61203933794E+01  0.94851644056E+01  0.00000000000E+00 0.  1.
</event>
<event>
 7    1  0.1023000E-012  0.5052886E+02  0.7816164E-02  0.1300439E+00
        -11   -1    0    0    0    0  0.00000000000E+00  0.00000000000E+00  0.45593999997E+02  0.45594000000E+02  0.51100000000E-03 0.  1.
         11   -1    0    0    0    0 -0.00000000000E+00 -0.00000000000E+00 -0.45593999997E+02  0.45594000000E+02  0.51100000000E-03 0. -1.
    9900012    2    1    2    0    0  0.26986088766E+02  0.71805501325E+01 -0.29552599797E+02  0.50528862751E+02  0.30000008818E+02 0.  0.
        -12    1    1    2    0    0 -0.26986088766E+02 -0.71805501325E+01  0.29552599797E+02  0.40659137249E+02  0.00000000000E+00 0.  1.
         11    1    3    3    0    0  0.28441722676E+01 -0.26842172872E+01 -0.17245996934E+02  0.17683855598E+02  0.51100000000E-03 0. -1.
        -11    1    3    3    0    0  0.24044140150E+02  0.38427233896E+01 -0.88955338938E+01  0.25923304614E+02  0.51100000000E-03 0.  1.
        -12    1    3    3    0    0  0.97776348336E-01  0.60220440302E+01 -0.34110689693E+01  0.69217025383E+01  0.00000000000E+00 0.  1.
</event>
<event>
 7    1  0.1023000E-012  0.5052886E+02  0.7816164E-02  0.1300439E+00
        -11   -1    0    0    0    0  0.00000000000E+00  0.00000000000E+00  0.45593999997E+02  0.45594000000E+02  0.51100000000E-03 0.  1.
         11   -1    0    0    0    0 -0.00000000000E+00 -0.00000000000E+00 -0.45593999997E+02  0.45594000000E+02  0.51100000000E-03 0. -1.
    9900012    2    1    2    0    0 -0.29753764258E+02 -0.51034168069E+01 -0.27236628263E+02  0.50528864868E+02  0.30000015251E+02 0.  0.
        -12    1    1    2    0    0  0.29753764258E+02  0.51034168069E+01  0.27236628263E+02  0.40659135132E+02  0.00000000000E+00 0.  1.
         11    1    3    3    0    0 -0.27491291204E+02 -0.14829175444E+01 -0.13673248690E+02  0.30739679025E+02  0.51100000000E-03 0. -1.
        -11    1    3    3    0    0 -0.22587802831E+00  0.51362017495E+01 -0.68702613808E+01  0.85809137623E+01  0.51100000000E-03 0.  1.
         12    1    3    3    0    0 -0.20365950249E+01 -0.87567010120E+01 -0.66931181915E+01  0.11208272081E+02  0.00000000000E+00 0. -1.
</event>
<event>
 7    1  0.1023000E-012  0.5052884E+02  0.7816164E-02  0.1300439E+00
        -11   -1    0    0    0    0  0.00000000000E+00  0.00000000000E+00  0.45593999997E+02  0.45594000000E+02  0.51100000000E-03 0. -1.
         11   -1    0    0    0    0 -0.00000000000E+00 -0.00000000000E+00 -0.45593999997E+02  0.45594000000E+02  0.51100000000E-03 0.  1.
    9900012    2    1    2    0    0 -0.20156095210E+02  0.23211695285E+02  0.26610458495E+02  0.50528837768E+02  0.29999932880E+02 0.  0.
        -12    1    1    2    0    0  0.20156095210E+02 -0.23211695285E+02 -0.26610458495E+02  0.40659162232E+02  0.00000000000E+00 0.  1.
         11    1    3    3    0    0 -0.77967954025E+01  0.19149574276E+02  0.26153297653E+02  0.33339034057E+02  0.51100000000E-03 0. -1.
        -11    1    3    3    0    0 -0.10568862110E+02  0.71627413044E+01  0.25827053772E+01  0.13025976993E+02  0.51100000000E-03 0.  1.
         12    1    3    3    0    0 -0.17904376975E+01 -0.31006202955E+01 -0.21255445355E+01  0.41638267180E+01  0.00000000000E+00 0. -1.
</event>
<event>
 7    1  0.1023000E-012  0.5052886E+02  0.7816164E-02  0.1300439E+00
        -11   -1    0    0    0    0  0.00000000000E+00  0.00000000000E+00  0.45593999997E+02  0.45594000000E+02  0.51100000000E-03 0.  1.
         11   -1    0    0    0    0 -0.00000000000E+00 -0.00000000000E+00 -0.45593999997E+02  0.45594000000E+02  0.51100000000E-03 0. -1.
    9900012    2    1    2    0    0  0.18553566850E+02  0.12418156947E+02 -0.33981178655E+02  0.50528856285E+02  0.29999989164E+02 0.  0.
        -12    1    1    2    0    0 -0.18553566850E+02 -0.12418156947E+02  0.33981178655E+02  0.40659143715E+02  0.00000000000E+00 0.  1.
         11    1    3    3    0    0  0.10565725477E+02  0.15596548786E+02 -0.33247562537E+02  0.38213705706E+02  0.51100000000E-03 0. -1.
        -11    1    3    3    0    0 -0.41057881803E+00  0.19539625312E+01  0.11352470025E+01  0.22968087768E+01  0.51100000000E-03 0.  1.
         12    1    3    3    0    0  0.83984201917E+01 -0.51323543705E+01 -0.18688631205E+01  0.10018341802E+02  0.00000000000E+00 0. -1.
</event>
<event>
 7    1  0.1023000E-012  0.5052887E+02  0.7816164E-02  0.1300439E+00
        -11   -1    0    0    0    0  0.00000000000E+00  0.00000000000E+00  0.45593999997E+02  0.45594000000E+02  0.51100000000E-03 0. -1.
         11   -1    0    0    0    0 -0.00000000000E+00 -0.00000000000E+00 -0.45593999997E+02  0.45594000000E+02  0.51100000000E-03 0.  1.
    9900012    2    1    2    0    0  0.37372188303E+02 -0.15514783254E+02 -0.39718851468E+01  0.50528870280E+02  0.30000031702E+02 0.  0.
        -12    1    1    2    0    0 -0.37372188303E+02  0.15514783254E+02  0.39718851468E+01  0.40659129720E+02  0.00000000000E+00 0.  1.
         11    1    3    3    0    0  0.34586223413E+02 -0.13465986568E+02 -0.24344497904E+01  0.37194975336E+02  0.51100000000E-03 0. -1.
        -11    1    3    3    0    0 -0.24973430320E+01 -0.17024784275E+01 -0.57975978280E+01  0.65381416207E+01  0.51100000000E-03 0.  1.
         12    1    3    3    0    0  0.52833079223E+01 -0.34631825921E+00  0.42601624716E+01  0.67957533227E+01  0.00000000000E+00 0. -1.
</event>
<event>
 7    1  0.1023000E-012  0.5052885E+02  0.7816164E-02  0.1300439E+00
        -11   -1    0    0    0    0  0.00000000000E+00  0.00000000000E+00  0.45593999997E+02  0.45594000000E+02  0.51100000000E-03 0.  1.
         11   -1    0    0    0    0 -0.00000000000E+00 -0.00000000000E+00 -0.45593999997E+02  0.45594000000E+02  0.51100000000E-03 0. -1.
    9900012    2    1    2    0    0 -0.11127457134E+02 -0.10269074845E+02 -0.37734492067E+02  0.50528854756E+02  0.29999984515E+02 0.  0.
        -12    1    1    2    0    0  0.11127457134E+02  0.10269074845E+02  0.37734492067E+02  0.40659145244E+02  0.00000000000E+00 0.  1.
         11    1    3    3    0    0 -0.76123333080E+01 -0.41860230714E+01 -0.13251347230E+02  0.15845144721E+02  0.51100000000E-03 0. -1.
        -11    1    3    3    0    0 -0.25882695694E+01 -0.35377716430E+01  0.40823690981E+01  0.59900505237E+01  0.51100000000E-03 0.  1.
        -12    1    3    3    0    0 -0.92685425634E+00 -0.25452801304E+01 -0.28565513935E+02  0.28693659511E+02  0.00000000000E+00 0.  1.
</event>
<event>
 7    1  0.1023000E-012  0.5052886E+02  0.7816164E-02  0.1300439E+00
        -11   -1    0    0    0    0  0.00000000000E+00  0.00000000000E+00  0.45593999997E+02  0.45594000000E+02  0.51100000000E-03 0. -1.
         11   -1    0    0    0    0 -0.00000000000E+00 -0.00000000000E+00 -0.45593999997E+02  0.45594000000E+02  0.51100000000E-03 0.  1.
    9900012    2    1    2    0    0 -0.29872322276E+02  0.14432873182E+02 -0.23505368708E+02  0.50528858044E+02  0.29999994511E+02 0.  0.
        -12    1    1    2    0    0  0.29872322276E+02 -0.14432873182E+02  0.23505368708E+02  0.40659141956E+02  0.00000000000E+00 0.  1.
         11    1    3    3    0    0 -0.24831668522E+02  0.14537631212E+02 -0.35044792478E+01  0.28986822143E+02  0.51100000000E-03 0. -1.
        -11    1    3    3    0    0  0.19412711891E+00  0.22054047937E+01 -0.68899797966E+01  0.72369411702E+01  0.51100000000E-03 0.  1.
         12    1    3    3    0    0 -0.52347808730E+01 -0.23101628239E+01 -0.13110909664E+02  0.14305094731E+02  0.00000000000E+00 0. -1.
</event>
<event>
 7    1  0.1023000E-012  0.5052886E+02  0.7816164E-02  0.1300439E+00
        -11   -1    0    0    0    0  0.00000000000E+00  0.00000000000E+00  0.45593999997E+02  0.45594000000E+02  0.51100000000E-03 0.  1.
         11   -1    0    0    0    0 -0.00000000000E+00 -0.00000000000E+00 -0.45593999997E+02  0.45594000000E+02  0.51100000000E-03 0. -1.
    9900012    2    1    2    0    0 -0.39161851159E+02  0.10308562963E+02  0.36398411190E+01  0.50528862036E+02  0.30000006645E+02 0.  0.
        -12    1    1    2    0    0  0.39161851159E+02 -0.10308562963E+02 -0.36398411190E+01  0.40659137964E+02  0.00000000000E+00 0.  1.
         11    1    3    3    0    0  0.64356130023E+00 -0.13253519410E+01 -0.30437274183E+01  0.33815685374E+01  0.51100000000E-03 0.  1.
        -11    1    3    3    0    0 -0.23000908247E+02  0.14711321281E+02 -0.30697989997E+01  0.27475232850E+02  0.51100000000E-03 0. -1.
        -12    1    3    3    0    0 -0.16804504213E+02 -0.30774063771E+01  0.97533675369E+01  0.19672060649E+02  0.00000000000E+00 0.  1.
</event>
<event>
 7    1  0.1023000E-012  0.5052887E+02  0.7816164E-02  0.1300439E+00
        -11   -1    0    0    0    0  0.00000000000E+00  0.00000000000E+00  0.45593999997E+02  0.45594000000E+02  0.51100000000E-03 0.  1.
         11   -1    0    0    0    0 -0.00000000000E+00 -0.00000000000E+00 -0.45593999997E+02  0.45594000000E+02  0.51100000000E-03 0. -1.
    9900012    2    1    2    0    0 -0.30279735331E+02 -0.72002209661E+01 -0.26162178574E+02  0.50528866445E+02  0.30000020047E+02 0.  0.
        -12    1    1    2    0    0  0.30279735331E+02  0.72002209661E+01  0.26162178574E+02  0.40659133555E+02  0.00000000000E+00 0.  1.
         11    1    3    3    0    0 -0.10570367936E+01 -0.80810738077E+01 -0.66026341407E+01  0.10488844480E+02  0.51100000000E-03 0. -1.
        -11    1    3    3    0    0 -0.24603063761E+02 -0.54750360503E+01 -0.19991784671E+02  0.32170766556E+02  0.51100000000E-03 0.  1.
        -12    1    3    3    0    0 -0.46196347761E+01  0.63558888919E+01  0.43224023787E+00  0.78692554091E+01  0.00000000000E+00 0.  1.
</event>
<event>
 7    1  0.1023000E-012  0.5052888E+02  0.7816164E-02  0.1300439E+00
        -11   -1    0    0    0    0  0.00000000000E+00  0.00000000000E+00  0.45593999997E+02  0.45594000000E+02  0.51100000000E-03 0. -1.
         11   -1    0    0    0    0 -0.00000000000E+00 -0.00000000000E+00 -0.45593999997E+02  0.45594000000E+02  0.51100000000E-03 0.  1.
    9900012    2    1    2    0    0 -0.30411762744E+02  0.26825649634E+02  0.29450777887E+01  0.50528877105E+02  0.30000052448E+02 0.  0.
        -12    1    1    2    0    0  0.30411762744E+02 -0.26825649634E+02 -0.29450777887E+01  0.40659122895E+02  0.00000000000E+00 0.  1.
         11    1    3    3    0    0 -0.17525139426E+02 -0.89454083268E+00  0.10898793316E+01  0.17581767614E+02  0.51100000000E-03 0. -1.
        -11    1    3    3    0    0 -0.10714506746E+02  0.16109894870E+02 -0.40108413147E+01  0.19758952803E+02  0.51100000000E-03 0.  1.
         12    1    3    3    0    0 -0.21721165709E+01  0.11610295596E+02  0.58660397719E+01  0.13188156688E+02  0.00000000000E+00 0. -1.
</event>
<event>
 7    1  0.1023000E-012  0.5052885E+02  0.7816164E-02  0.1300439E+00
        -11   -1    0    0    0    0  0.00000000000E+00  0.00000000000E+00  0.45593999997E+02  0.45594000000E+02  0.51100000000E-03 0.  1.
         11   -1    0    0    0    0 -0.00000000000E+00 -0.00000000000E+00 -0.45593999997E+02  0.45594000000E+02  0.51100000000E-03 0. -1.
    9900012    2    1    2    0    0 -0.35171767815E+02  0.14385502864E+02 -0.14462721128E+02  0.50528852858E+02  0.29999978746E+02 0.  0.
        -12    1    1    2    0    0  0.35171767815E+02 -0.14385502864E+02  0.14462721128E+02  0.40659147142E+02  0.00000000000E+00 0.  1.
         11    1    3    3    0    0 -0.15453285957E+02  0.24566410382E+01  0.13812815377E+01  0.15708184841E+02  0.51100000000E-03 0. -1.
        -11    1    3    3    0    0 -0.12124304406E+02  0.30264309775E+01 -0.18963391645E+02  0.22710532022E+02  0.51100000000E-03 0.  1.
        -12    1    3    3    0    0 -0.75941774520E+01  0.89024308487E+01  0.31193889790E+01  0.12110135994E+02  0.00000000000E+00 0.  1.
</event>
<event>
 7    1  0.1023000E-012  0.5052886E+02  0.7816164E-02  0.1300439E+00
        -11   -1    0    0    0    0  0.00000000000E+00  0.00000000000E+00  0.45593999997E+02  0.45594000000E+02  0.51100000000E-03 0.  1.
         11   -1    0    0    0    0 -0.00000000000E+00 -0.00000000000E+00 -0.45593999997E+02  0.45594000000E+02  0.51100000000E-03 0. -1.
    9900012    2    1    2    0    0 -0.15504803684E+02 -0.26422095339E+02 -0.26732740426E+02  0.50528862404E+02  0.30000007762E+02 0.  0.
        -12    1    1    2    0    0  0.15504803684E+02  0.26422095339E+02  0.26732740426E+02  0.40659137596E+02  0.00000000000E+00 0.  1.
         11    1    3    3    0    0 -0.85122480677E+00 -0.13386505753E+02 -0.42432207537E-02  0.13413543089E+02  0.51100000000E-03 0. -1.
        -11    1    3    3    0    0  0.73572000481E+00 -0.69595339915E+00 -0.13101293607E+02  0.13140377829E+02  0.51100000000E-03 0.  1.
         12    1    3    3    0    0 -0.15389298882E+02 -0.12339636187E+02 -0.13627203598E+02  0.23974941485E+02  0.00000000000E+00 0. -1.
</event>
<event>
 7    1  0.1023000E-012  0.5052886E+02  0.7816164E-02  0.1300439E+00
        -11   -1    0    0    0    0  0.00000000000E+00  0.00000000000E+00  0.45593999997E+02  0.45594000000E+02  0.51100000000E-03 0.  1.
         11   -1    0    0    0    0 -0.00000000000E+00 -0.00000000000E+00 -0.45593999997E+02  0.45594000000E+02  0.51100000000E-03 0. -1.
    9900012    2    1    2    0    0 -0.74358093538E+01 -0.34661341480E+02 -0.19911453198E+02  0.50528858072E+02  0.29999994594E+02 0.  0.
        -12    1    1    2    0    0  0.74358093538E+01  0.34661341480E+02  0.19911453198E+02  0.40659141928E+02  0.00000000000E+00 0.  1.
         11    1    3    3    0    0 -0.60976264213E+01 -0.11926145143E+02 -0.16828249150E+02  0.21508229951E+02  0.51100000000E-03 0. -1.
        -11    1    3    3    0    0  0.65085623683E+00 -0.20283967905E+02  0.45169281940E+01  0.20790998254E+02  0.51100000000E-03 0.  1.
        -12    1    3    3    0    0 -0.19890391694E+01 -0.24512284318E+01 -0.76001322420E+01  0.82296298665E+01  0.00000000000E+00 0.  1.
</event>
<event>
 7    1  0.1023000E-012  0.5052886E+02  0.7816164E-02  0.1300439E+00
        -11   -1    0    0    0    0  0.00000000000E+00  0.00000000000E+00  0.45593999997E+02  0.45594000000E+02  0.51100000000E-03 0.  1.
         11   -1    0    0    0    0 -0.00000000000E+00 -0.00000000000E+00 -0.45593999997E+02  0.45594000000E+02  0.51100000000E-03 0. -1.
    9900012    2    1    2    0    0 -0.28253675322E+02  0.90389599141E+01 -0.27806335745E+02  0.50528864826E+02  0.30000015125E+02 0.  0.
        -12    1    1    2    0    0  0.28253675322E+02 -0.90389599141E+01  0.27806335745E+02  0.40659135174E+02  0.00000000000E+00 0.  1.
         11    1    3    3    0    0  0.52950746534E-01  0.85539248577E+01 -0.17144473988E+02  0.19159995377E+02  0.51100000000E-03 0. -1.
        -11    1    3    3    0    0 -0.28320990375E+02 -0.51848924532E+00 -0.96013499588E+01  0.29908748690E+02  0.51100000000E-03 0.  1.
        -12    1    3    3    0    0  0.14364306036E-01  0.10035243017E+01 -0.10605117986E+01  0.14601207595E+01  0.00000000000E+00 0.  1.
</event>
<event>
 7    1  0.1023000E-012  0.5052884E+02  0.7816164E-02  0.1300439E+00
        -11   -1    0    0    0    0  0.00000000000E+00  0.00000000000E+00  0.45593999997E+02  0.45594000000E+02  0.51100000000E-03 0. -1.
         11   -1    0    0    0    0 -0.00000000000E+00 -0.00000000000E+00 -0.45593999997E+02  0.45594000000E+02  0.51100000000E-03 0.  1.
    9900012    2    1    2    0    0  0.10339344217E+02 -0.22988137096E+02  0.31903141832E+02  0.50528844270E+02  0.29999952642E+02 0.  0.
        -12    1    1    2    0    0 -0.10339344217E+02  0.22988137096E+02 -0.31903141832E+02  0.40659155730E+02  0.00000000000E+00 0.  1.
         11    1    3    3    0    0  0.14546595493E+02 -0.74806829381E+01  0.28639532861E+02  0.32981614582E+02  0.51100000000E-03 0. -1.
        -11    1    3    3    0    0 -0.20144720733E+01 -0.10781009656E+02 -0.71599915386E+00  0.10990947274E+02  0.51100000000E-03 0.  1.
        -12    1    3    3    0    0 -0.21927792032E+01 -0.47264445018E+01  0.39796081240E+01  0.65562824133E+01  0.00000000000E+00 0.  1.
</event>
<event>
 7    1  0.1023000E-012  0.5052886E+02  0.7816164E-02  0.1300439E+00
        -11   -1    0    0    0    0  0.00000000000E+00  0.00000000000E+00  0.45593999997E+02  0.45594000000E+02  0.51100000000E-03 0.  1.
         11   -1    0    0    0    0 -0.00000000000E+00 -0.00000000000E+00 -0.45593999997E+02  0.45594000000E+02  0.51100000000E-03 0. -1.
    9900012    2    1    2    0    0  0.17260980081E+02 -0.28944550587E+02 -0.22747247428E+02  0.50528859483E+02  0.29999998884E+02 0.  0.
        -12    1    1    2    0    0 -0.17260980081E+02  0.28944550587E+02  0.22747247428E+02  0.40659140517E+02  0.00000000000E+00 0.  1.
         11    1    3    3    0    0  0.22056191039E+01 -0.93093662251E+01 -0.15142030292E+02  0.17911173518E+02  0.51100000000E-03 0. -1.
        -11    1    3    3    0    0  0.15696917146E+01 -0.11099459596E+02  0.50056030494E+01  0.12276725848E+02  0.51100000000E-03 0.  1.
        -12    1    3    3    0    0  0.13485669262E+02 -0.85357247656E+01 -0.12610820186E+02  0.20340960117E+02  0.00000000000E+00 0.  1.
</event>
<event>
 7    1  0.1023000E-012  0.5052886E+02  0.7816164E-02  0.1300439E+00
        -11   -1    0    0    0    0  0.00000000000E+00  0.00000000000E+00  0.45593999997E+02  0.45594000000E+02  0.51100000000E-03 0. -1.
         11   -1    0    0    0    0 -0.00000000000E+00 -0.00000000000E+00 -0.45593999997E+02  0.45594000000E+02  0.51100000000E-03 0.  1.
    9900012    2    1    2    0    0  0.61227582540E+01 -0.30148840984E+02  0.26584297446E+02  0.50528860166E+02  0.30000000962E+02 0.  0.
        -12    1    1    2    0    0 -0.61227582540E+01  0.30148840984E+02 -0.26584297446E+02  0.40659139834E+02  0.00000000000E+00 0.  1.
         11    1    3    3    0    0 -0.18275660031E+01 -0.84865682689E+01  0.17249942781E+02  0.19311197909E+02  0.51100000000E-03 0. -1.
        -11    1    3    3    0    0  0.91917614155E+01 -0.18208542435E+01  0.28496242152E+00  0.93747102323E+01  0.51100000000E-03 0.  1.
        -12    1    3    3    0    0 -0.12414371585E+01 -0.19841418472E+02  0.90493922434E+01  0.21842952025E+02  0.00000000000E+00 0.  1.
</event>
<event>
 7    1  0.1023000E-012  0.5052885E+02  0.7816164E-02  0.1300439E+00
        -11   -1    0    0    0    0  0.00000000000E+00  0.00000000000E+00  0.45593999997E+02  0.45594000000E+02  0.51100000000E-03 0.  1.
         11   -1    0    0    0    0 -0.00000000000E+00 -0.00000000000E+00 -0.45593999997E+02  0.45594000000E+02  0.51100000000E-03 0. -1.
    9900012    2    1    2    0    0  0.11349790443E+02 -0.53878766414E+01 -0.38669360381E+02  0.50528851090E+02  0.29999973373E+02 0.  0.
        -12    1    1    2    0    0 -0.11349790443E+02  0.53878766414E+01  0.38669360381E+02  0.40659148910E+02  0.00000000000E+00 0.  1.
         11    1    3    3    0    0  0.53646649235E+01 -0.42422660934E+01 -0.14152369377E+02  0.15718333582E+02  0.51100000000E-03 0. -1.
        -11    1    3    3    0    0  0.80343249227E+01  0.30936113372E+01  0.11763155854E+01  0.86893340762E+01  0.51100000000E-03 0.  1.
        -12    1    3    3    0    0 -0.20491994027E+01 -0.42392218852E+01 -0.25693306590E+02  0.26121183432E+02  0.00000000000E+00 0.  1.
</event>
<event>
 7    1  0.1023000E-012  0.5052886E+02  0.7816164E-02  0.1300439E+00
        -11   -1    0    0    0    0  0.00000000000E+00  0.00000000000E+00  0.45593999997E+02  0.45594000000E+02  0.51100000000E-03 0. -1.
         11   -1    0    0    0    0 -0.00000000000E+00 -0.00000000000E+00 -0.45593999997E+02  0.45594000000E+02  0.51100000000E-03 0.  1.
    9900012    2    1    2    0    0  0.29254756100E+02  0.26214233342E+02  0.10494717950E+02  0.50528857252E+02  0.29999992102E+02 0.  0.
        -12    1    1    2    0    0 -0.29254756100E+02 -0.26214233342E+02 -0.10494717950E+02  0.40659142748E+02  0.00000000000E+00 0.  1.
         11    1    3    3    0    0  0.20372521546E+02  0.25797113344E+00 -0.49501946208E+00  0.20380167511E+02  0.51100000000E-03 0. -1.
        -11    1    3    3    0    0 -0.50323768374E+00  0.26281619681E+01  0.23475242767E+01  0.35596845349E+01  0.51100000000E-03 0.  1.
         12    1    3    3    0    0  0.93854722374E+01  0.23328100241E+02  0.86422131354E+01  0.26589005206E+02  0.00000000000E+00 0. -1.
</event>
<event>
 7    1  0.1023000E-012  0.5052884E+02  0.7816164E-02  0.1300439E+00
        -11   -1    0    0    0    0  0.00000000000E+00  0.00000000000E+00  0.45593999997E+02  0.45594000000E+02  0.51100000000E-03 0. -1.
         11   -1    0    0    0    0 -0.00000000000E+00 -0.00000000000E+00 -0.45593999997E+02  0.45594000000E+02  0.51100000000E-03 0.  1.
    9900012    2    1    2    0    0  0.12104085636E+02  0.19929597388E+02  0.33308699607E+02  0.50528840999E+02  0.29999942702E+02 0.  0.
        -12    1    1    2    0    0 -0.12104085636E+02 -0.19929597388E+02 -0.33308699607E+02  0.40659159001E+02  0.00000000000E+00 0.  1.
         11    1    3    3    0    0  0.12359968215E+02  0.23404223123E+02  0.19217318705E+02  0.32708283549E+02  0.51100000000E-03 0. -1.
        -11    1    3    3    0    0 -0.23477414302E+01 -0.56174353776E+01  0.39768926153E+01  0.72720798386E+01  0.51100000000E-03 0.  1.
         12    1    3    3    0    0  0.20918588507E+01  0.21428096425E+01  0.10114488287E+02  0.10548477611E+02  0.00000000000E+00 0. -1.
</event>
<event>
 7    1  0.1023000E-012  0.5052885E+02  0.7816164E-02  0.1300439E+00
        -11   -1    0    0    0    0  0.00000000000E+00  0.00000000000E+00  0.45593999997E+02  0.45594000000E+02  0.51100000000E-03 0.  1.
         11   -1    0    0    0    0 -0.00000000000E+00 -0.00000000000E+00 -0.45593999997E+02  0.45594000000E+02  0.51100000000E-03 0. -1.
    9900012    2    1    2    0    0 -0.20077910590E+02  0.26719466129E+02 -0.23154138275E+02  0.50528849945E+02  0.29999969894E+02 0.  0.
        -12    1    1    2    0    0  0.20077910590E+02 -0.26719466129E+02  0.23154138275E+02  0.40659150055E+02  0.00000000000E+00 0.  1.
         11    1    3    3    0    0 -0.14452321395E+02  0.24414805463E+02 -0.13248350603E+02  0.31312475365E+02  0.51100000000E-03 0. -1.
        -11    1    3    3    0    0  0.16805014868E+01 -0.13839683321E+01  0.31369647254E+01  0.38183768202E+01  0.51100000000E-03 0.  1.
        -12    1    3    3    0    0 -0.73060906818E+01  0.36886289986E+01 -0.13042752397E+02  0.15397997761E+02  0.00000000000E+00 0.  1.
</event>
<event>
 7    1  0.1023000E-012  0.5052887E+02  0.7816164E-02  0.1300439E+00
        -11   -1    0    0    0    0  0.00000000000E+00  0.00000000000E+00  0.45593999997E+02  0.45594000000E+02  0.51100000000E-03 0.  1.
         11   -1    0    0    0    0 -0.00000000000E+00 -0.00000000000E+00 -0.45593999997E+02  0.45594000000E+02  0.51100000000E-03 0. -1.
    9900012    2    1    2    0    0 -0.23173155183E+02  0.53023180763E+01 -0.32985686820E+02  0.50528865318E+02  0.30000016621E+02 0.  0.
        -12    1    1    2    0    0  0.23173155183E+02 -0.53023180763E+01  0.32985686820E+02  0.40659134682E+02  0.00000000000E+00 0.  1.
         11    1    3    3    0    0 -0.57905616798E+01  0.13033152475E+02 -0.22040393524E+02  0.26252097344E+02  0.51100000000E-03 0. -1.
        -11    1    3    3    0    0 -0.88356786176E+01 -0.49143031833E+01 -0.43524196028E-02  0.10110371488E+02  0.51100000000E-03 0.  1.
         12    1    3    3    0    0 -0.85469148854E+01 -0.28165312160E+01 -0.10940940877E+02  0.14166396487E+02  0.00000000000E+00 0. -1.
</event>
<event>
 7    1  0.1023000E-012  0.5052886E+02  0.7816164E-02  0.1300439E+00
        -11   -1    0    0    0    0  0.00000000000E+00  0.00000000000E+00  0.45593999997E+02  0.45594000000E+02  0.51100000000E-03 0. -1.
         11   -1    0    0    0    0 -0.00000000000E+00 -0.00000000000E+00 -0.45593999997E+02  0.45594000000E+02  0.51100000000E-03 0.  1.
    9900012    2    1    2    0    0  0.11636017210E+02 -0.19862098167E+02  0.33515157531E+02  0.50528860506E+02  0.30000001993E+02 0.  0.
        -12    1    1    2    0    0 -0.11636017210E+02  0.19862098167E+02 -0.33515157531E+02  0.40659139494E+02  0.00000000000E+00 0.  1.
         11    1    3    3    0    0 -0.32974281315E+01 -0.90530875532E+01  0.44119146086E+01  0.10597000392E+02  0.51100000000E-03 0. -1.
        -11    1    3    3    0    0  0.17274525408E+02 -0.37976252996E+01  0.12210101893E+02  0.21492272436E+02  0.51100000000E-03 0.  1.
        -12    1    3    3    0    0 -0.23410800657E+01 -0.70113853146E+01  0.16893141029E+02  0.18439587678E+02  0.00000000000E+00 0.  1.
</event>
<event>
 7    1  0.1023000E-012  0.5052883E+02  0.7816164E-02  0.1300439E+00
        -11   -1    0    0    0    0  0.00000000000E+00  0.00000000000E+00  0.45593999997E+02  0.45594000000E+02  0.51100000000E-03 0.  1.
         11   -1    0    0    0    0 -0.00000000000E+00 -0.00000000000E+00 -0.45593999997E+02  0.45594000000E+02  0.51100000000E-03 0. -1.
    9900012    2    1    2    0    0  0.32749047892E+02 -0.21214346829E+02 -0.11428887438E+02  0.50528829850E+02  0.29999908812E+02 0.  0.
        -12    1    1    2    0    0 -0.32749047892E+02  0.21214346829E+02  0.11428887438E+02  0.40659170150E+02  0.00000000000E+00 0.  1.
         11    1    3    3    0    0  0.19952801173E+02 -0.14608963868E+02 -0.59225134376E+01  0.25428571836E+02  0.51100000000E-03 0. -1.
        -11    1    3    3    0    0 -0.20474104954E+01  0.43612526209E+01  0.19472358234E+01  0.51965509497E+01  0.51100000000E-03 0.  1.
        -12    1    3    3    0    0  0.14843657215E+02 -0.10966635582E+02 -0.74536098234E+01  0.19903707064E+02  0.00000000000E+00 0.  1.
</event>
<event>
 7    1  0.1023000E-012  0.5052892E+02  0.7816164E-02  0.1300439E+00
        -11   -1    0    0    0    0  0.00000000000E+00  0.00000000000E+00  0.45593999997E+02  0.45594000000E+02  0.51100000000E-03 0. -1.
         11   -1    0    0    0    0 -0.00000000000E+00 -0.00000000000E+00 -0.45593999997E+02  0.45594000000E+02  0.51100000000E-03 0.  1.
    9900012    2    1    2    0    0 -0.70984214584E+01  0.14224908095E+01  0.40009370797E+02  0.50528919601E+02  0.30000181620E+02 0.  0.
        -12    1    1    2    0    0  0.70984214584E+01 -0.14224908095E+01 -0.40009370797E+02  0.40659080399E+02  0.00000000000E+00 0.  1.
         11    1    3    3    0    0 -0.98702855467E+01  0.51862330590E+01  0.11599972889E+02  0.16089714771E+02  0.51100000000E-03 0. -1.
        -11    1    3    3    0    0  0.75222197103E+01 -0.56421951071E+01  0.53453511983E+01  0.10816234774E+02  0.51100000000E-03 0.  1.
         12    1    3    3    0    0 -0.47503556219E+01  0.18784528575E+01  0.23064046710E+02  0.23622970057E+02  0.00000000000E+00 0. -1.
</event>
<event>
 7    1  0.1023000E-012  0.5052886E+02  0.7816164E-02  0.1300439E+00
        -11   -1    0    0    0    0  0.00000000000E+00  0.00000000000E+00  0.45593999997E+02  0.45594000000E+02  0.51100000000E-03 0.  1.
         11   -1    0    0    0    0 -0.00000000000E+00 -0.00000000000E+00 -0.45593999997E+02  0.45594000000E+02  0.51100000000E-03 0. -1.
    9900012    2    1    2    0    0  0.16833070350E+02 -0.34366433415E+02  0.13739067649E+02  0.50528856097E+02  0.29999988592E+02 0.  0.
        -12    1    1    2    0    0 -0.16833070350E+02  0.34366433415E+02 -0.13739067649E+02  0.40659143903E+02  0.00000000000E+00 0.  1.
         11    1    3    3    0    0  0.29270877028E+01 -0.10081709188E+02 -0.88455849638E+01  0.13727821247E+02  0.51100000000E-03 0. -1.
        -11    1    3    3    0    0  0.26281440507E+01 -0.12210942258E+02  0.87286533596E+01  0.15238229612E+02  0.51100000000E-03 0.  1.
         12    1    3    3    0    0  0.11277838597E+02 -0.12073781970E+02  0.13855999253E+02  0.21562805239E+02  0.00000000000E+00 0. -1.
</event>
<event>
 7    1  0.1023000E-012  0.5052886E+02  0.7816164E-02  0.1300439E+00
        -11   -1    0    0    0    0  0.00000000000E+00  0.00000000000E+00  0.45593999997E+02  0.45594000000E+02  0.51100000000E-03 0.  1.
         11   -1    0    0    0    0 -0.00000000000E+00 -0.00000000000E+00 -0.45593999997E+02  0.45594000000E+02  0.51100000000E-03 0. -1.
    9900012    2    1    2    0    0  0.24431988367E+02 -0.28969360883E+02 -0.14731586606E+02  0.50528861182E+02  0.30000004048E+02 0.  0.
        -12    1    1    2    0    0 -0.24431988367E+02  0.28969360883E+02  0.14731586606E+02  0.40659138818E+02  0.00000000000E+00 0.  1.
         11    1    3    3    0    0  0.41081916178E+00 -0.79706041424E+01 -0.13004105241E+02  0.15257983359E+02  0.51100000000E-03 0. -1.
        -11    1    3    3    0    0  0.22827679024E+02 -0.15792712262E+02 -0.60381658019E+01  0.28407255001E+02  0.51100000000E-03 0.  1.
         12    1    3    3    0    0  0.11934901812E+01 -0.52060444787E+01  0.43106844372E+01  0.68636228221E+01  0.00000000000E+00 0. -1.
</event>
<event>
 7    1  0.1023000E-012  0.5052885E+02  0.7816164E-02  0.1300439E+00
        -11   -1    0    0    0    0  0.00000000000E+00  0.00000000000E+00  0.45593999997E+02  0.45594000000E+02  0.51100000000E-03 0. -1.
         11   -1    0    0    0    0 -0.00000000000E+00 -0.00000000000E+00 -0.45593999997E+02  0.45594000000E+02  0.51100000000E-03 0.  1.
    9900012    2    1    2    0    0  0.18189634894E+02 -0.84825583615E+01  0.35360288156E+02  0.50528848601E+02  0.29999965809E+02 0.  0.
        -12    1    1    2    0    0 -0.18189634894E+02  0.84825583615E+01 -0.35360288156E+02  0.40659151399E+02  0.00000000000E+00 0.  1.
         11    1    3    3    0    0  0.92146275507E+01  0.51043814009E+01  0.18105832988E+02  0.20947201695E+02  0.51100000000E-03 0. -1.
        -11    1    3    3    0    0 -0.38384640159E+01 -0.69585960929E+01  0.11655319124E+02  0.14106818554E+02  0.51100000000E-03 0.  1.
         12    1    3    3    0    0  0.12813471360E+02 -0.66283436695E+01  0.55991360441E+01  0.15474828352E+02  0.00000000000E+00 0. -1.
</event>
<event>
 7    1  0.1023000E-012  0.5052886E+02  0.7816164E-02  0.1300439E+00
        -11   -1    0    0    0    0  0.00000000000E+00  0.00000000000E+00  0.45593999997E+02  0.45594000000E+02  0.51100000000E-03 0. -1.
         11   -1    0    0    0    0 -0.00000000000E+00 -0.00000000000E+00 -0.45593999997E+02  0.45594000000E+02  0.51100000000E-03 0.  1.
    9900012    2    1    2    0    0 -0.24106276590E+02  0.13753331764E+02  0.29713615334E+02  0.50528860291E+02  0.30000001342E+02 0.  0.
        -12    1    1    2    0    0  0.24106276590E+02 -0.13753331764E+02 -0.29713615334E+02  0.40659139709E+02  0.00000000000E+00 0.  1.
         11    1    3    3    0    0 -0.15604378377E+02  0.17668554118E+02  0.91083830642E+01  0.25271269685E+02  0.51100000000E-03 0. -1.
        -11    1    3    3    0    0  0.11524637538E+01 -0.45033992183E+01  0.44920280316E+01  0.64642937217E+01  0.51100000000E-03 0.  1.
         12    1    3    3    0    0 -0.96543619662E+01  0.58817686443E+00  0.16113204238E+02  0.18793296885E+02  0.00000000000E+00 0. -1.
</event>
<event>
 7    1  0.1023000E-012  0.5052886E+02  0.7816164E-02  0.1300439E+00
        -11   -1    0    0    0    0  0.00000000000E+00  0.00000000000E+00  0.45593999997E+02  0.45594000000E+02  0.51100000000E-03 0. -1.
         11   -1    0    0    0    0 -0.00000000000E+00 -0.00000000000E+00 -0.45593999997E+02  0.45594000000E+02  0.51100000000E-03 0.  1.
    9900012    2    1    2    0    0  0.36764911191E+02 -0.15763018314E+02  0.72824655779E+01  0.50528859009E+02  0.29999997443E+02 0.  0.
        -12    1    1    2    0    0 -0.36764911191E+02  0.15763018314E+02 -0.72824655779E+01  0.40659140991E+02  0.00000000000E+00 0.  1.
         11    1    3    3    0    0  0.14064753563E+02  0.36802358909E+01  0.14369770223E+01  0.14609118119E+02  0.51100000000E-03 0. -1.
        -11    1    3    3    0    0  0.20889974784E+02 -0.18687897579E+02  0.11225454665E+02  0.30193366740E+02  0.51100000000E-03 0.  1.
        -12    1    3    3    0    0  0.18101828435E+01 -0.75535662647E+00 -0.53799661093E+01  0.57263741493E+01  0.00000000000E+00 0.  1.
</event>
<event>
 7    1  0.1111936E-012  0.5052887E+02  0.7816164E-02  0.1300439E+00
        -11   -1    0    0    0    0  0.00000000000E+00  0.00000000000E+00  0.45593999997E+02  0.45594000000E+02  0.51100000000E-03 0.  1.
         11   -1    0    0    0    0 -0.00000000000E+00 -0.00000000000E+00 -0.45593999997E+02  0.45594000000E+02  0.51100000000E-03 0. -1.
    9900012    2    1    2    0    0  0.37147450166E+02 -0.25257401461E+01 -0.16335617706E+02  0.50528870361E+02  0.30000031950E+02 0.  0.
        -12    1    1    2    0    0 -0.37147450166E+02  0.25257401461E+01  0.16335617706E+02  0.40659129639E+02  0.00000000000E+00 0.  1.
         11    1    3    3    0    0  0.10974650626E+02 -0.19790075006E+01 -0.11439973123E+02  0.15975994879E+02  0.51100000000E-03 0. -1.
        -11    1    3    3    0    0  0.25053030879E+02 -0.77575522546E+01 -0.91957573125E+00  0.26242705520E+02  0.51100000000E-03 0.  1.
        -12    1    3    3    0    0  0.11197686605E+01  0.72108196091E+01 -0.39760688509E+01  0.83101699619E+01  0.00000000000E+00 0.  1.
</event>
<event>
 7    1  0.1023000E-012  0.5052886E+02  0.7816164E-02  0.1300439E+00
        -11   -1    0    0    0    0  0.00000000000E+00  0.00000000000E+00  0.45593999997E+02  0.45594000000E+02  0.51100000000E-03 0. -1.
         11   -1    0    0    0    0 -0.00000000000E+00 -0.00000000000E+00 -0.45593999997E+02  0.45594000000E+02  0.51100000000E-03 0.  1.
    9900012    2    1    2    0    0  0.40068158580E+02  0.50978351667E+01 -0.46605305819E+01  0.50528858338E+02  0.29999995405E+02 0.  0.
        -12    1    1    2    0    0 -0.40068158580E+02 -0.50978351667E+01  0.46605305819E+01  0.40659141662E+02  0.00000000000E+00 0.  1.
         11    1    3    3    0    0  0.18933595990E+02  0.32698182038E+01 -0.93136832466E+01  0.21352223867E+02  0.51100000000E-03 0. -1.
        -11    1    3    3    0    0  0.15554123745E+02 -0.93352692236E+00  0.11911657937E+02  0.19613511492E+02  0.51100000000E-03 0.  1.
        -12    1    3    3    0    0  0.55804388452E+01  0.27615438852E+01 -0.72585052720E+01  0.95631229794E+01  0.00000000000E+00 0.  1.
</event>
<event>
 7    1  0.1023000E-012  0.5052886E+02  0.7816164E-02  0.1300439E+00
        -11   -1    0    0    0    0  0.00000000000E+00  0.00000000000E+00  0.45593999997E+02  0.45594000000E+02  0.51100000000E-03 0.  1.
         11   -1    0    0    0    0 -0.00000000000E+00 -0.00000000000E+00 -0.45593999997E+02  0.45594000000E+02  0.51100000000E-03 0. -1.
    9900012    2    1    2    0    0 -0.33237403606E+02 -0.22167297258E+02 -0.75532575130E+01  0.50528858774E+02  0.29999996729E+02 0.  0.
        -12    1    1    2    0    0  0.33237403606E+02  0.22167297258E+02  0.75532575130E+01  0.40659141226E+02  0.00000000000E+00 0.  1.
         11    1    3    3    0    0 -0.21719845854E+02 -0.11636868803E+02  0.17123818494E+01  0.24700216018E+02  0.51100000000E-03 0. -1.
        -11    1    3    3    0    0 -0.67288790996E+01 -0.50878361688E+01 -0.14576847929E+02  0.16841864108E+02  0.51100000000E-03 0.  1.
        -12    1    3    3    0    0 -0.47886786524E+01 -0.54425922863E+01  0.53112085668E+01  0.89867786482E+01  0.00000000000E+00 0.  1.
</event>
<event>
 7    1  0.1023000E-012  0.5052886E+02  0.7816164E-02  0.1300439E+00
        -11   -1    0    0    0    0  0.00000000000E+00  0.00000000000E+00  0.45593999997E+02  0.45594000000E+02  0.51100000000E-03 0. -1.
         11   -1    0    0    0    0 -0.00000000000E+00 -0.00000000000E+00 -0.45593999997E+02  0.45594000000E+02  0.51100000000E-03 0.  1.
    9900012    2    1    2    0    0 -0.34310438173E+02  0.19765621710E+02 -0.92346854864E+01  0.50528863447E+02  0.30000010932E+02 0.  0.
        -12    1    1    2    0    0  0.34310438173E+02 -0.19765621710E+02  0.92346854864E+01  0.40659136553E+02  0.00000000000E+00 0.  1.
         11    1    3    3    0    0 -0.56775265338E+01  0.37417281423E+01 -0.14690364294E+02  0.16187700281E+02  0.51100000000E-03 0.  1.
        -11    1    3    3    0    0 -0.14021858751E+02  0.50812014676E+01 -0.10770687858E+01  0.14952966549E+02  0.51100000000E-03 0. -1.
         12    1    3    3    0    0 -0.14611052889E+02  0.10942692101E+02  0.65327475936E+01  0.19388196617E+02  0.00000000000E+00 0. -1.
</event>
<event>
 7    1  0.1023000E-012  0.5052886E+02  0.7816164E-02  0.1300439E+00
        -11   -1    0    0    0    0  0.00000000000E+00  0.00000000000E+00  0.45593999997E+02  0.45594000000E+02  0.51100000000E-03 0.  1.
         11   -1    0    0    0    0 -0.00000000000E+00 -0.00000000000E+00 -0.45593999997E+02  0.45594000000E+02  0.51100000000E-03 0. -1.
    9900012    2    1    2    0    0 -0.37987467440E+02 -0.14167158764E+02 -0.30675535354E+01  0.50528856445E+02  0.29999989651E+02 0.  0.
        -12    1    1    2    0    0  0.37987467440E+02  0.14167158764E+02  0.30675535354E+01  0.40659143555E+02  0.00000000000E+00 0.  1.
         11    1    3    3    0    0 -0.11564121290E+02  0.30684485844E+01 -0.24191350634E+01  0.12206411948E+02  0.51100000000E-03 0. -1.
        -11    1    3    3    0    0 -0.80145082428E+01 -0.17953361592E+02  0.17746952904E+01  0.19740949279E+02  0.51100000000E-03 0.  1.
        -12    1    3    3    0    0 -0.18408837906E+02  0.71775424338E+00 -0.24231137625E+01  0.18581495218E+02  0.00000000000E+00 0.  1.
</event>
<event>
 7    1  0.1183103E-012  0.5052887E+02  0.7816164E-02  0.1300439E+00
        -11   -1    0    0    0    0  0.00000000000E+00  0.00000000000E+00  0.45593999997E+02  0.45594000000E+02  0.51100000000E-03 0.  1.
         11   -1    0    0    0    0 -0.00000000000E+00 -0.00000000000E+00 -0.45593999997E+02  0.45594000000E+02  0.51100000000E-03 0. -1.
    9900012    2    1    2    0    0  0.37541865079E+02 -0.58921892587E+01 -0.14458744579E+02  0.50528870365E+02  0.30000031962E+02 0.  0.
        -12    1    1    2    0    0 -0.37541865079E+02  0.58921892587E+01  0.14458744579E+02  0.40659129635E+02  0.00000000000E+00 0.  1.
         11    1    3    3    0    0  0.16478986935E+02  0.94641521094E+00 -0.74882465919E+01  0.18125301362E+02  0.51100000000E-03 0. -1.
        -11    1    3    3    0    0 -0.42712014487E+01  0.13401133771E+01 -0.32308471233E+01  0.55206375605E+01  0.51100000000E-03 0.  1.
        -12    1    3    3    0    0  0.25334079592E+02 -0.81787178467E+01 -0.37396508642E+01  0.26882931443E+02  0.00000000000E+00 0.  1.
</event>
<event>
 7    1  0.1023000E-012  0.5052885E+02  0.7816164E-02  0.1300439E+00
        -11   -1    0    0    0    0  0.00000000000E+00  0.00000000000E+00  0.45593999997E+02  0.45594000000E+02  0.51100000000E-03 0. -1.
         11   -1    0    0    0    0 -0.00000000000E+00 -0.00000000000E+00 -0.45593999997E+02  0.45594000000E+02  0.51100000000E-03 0.  1.
    9900012    2    1    2    0    0 -0.49612126693E+01  0.33501774544E+02  0.22498537339E+02  0.50528847142E+02  0.29999961372E+02 0.  0.
        -12    1    1    2    0    0  0.49612126693E+01 -0.33501774544E+02 -0.22498537339E+02  0.40659152858E+02  0.00000000000E+00 0.  1.
         11    1    3    3    0    0 -0.72445250374E+01  0.28461376163E+02  0.17673285656E+02  0.34276494894E+02  0.51100000000E-03 0. -1.
        -11    1    3    3    0    0  0.22822252929E+01 -0.10806317949E+01  0.86658165429E+01  0.90262225754E+01  0.51100000000E-03 0.  1.
         12    1    3    3    0    0  0.10870751799E-02  0.61210301758E+01 -0.38405648599E+01  0.72261296721E+01  0.00000000000E+00 0. -1.
</event>
<event>
 7    1  0.1023000E-012  0.5052886E+02  0.7816164E-02  0.1300439E+00
        -11   -1    0    0    0    0  0.00000000000E+00  0.00000000000E+00  0.45593999997E+02  0.45594000000E+02  0.51100000000E-03 0. -1.
         11   -1    0    0    0    0 -0.00000000000E+00 -0.00000000000E+00 -0.45593999997E+02  0.45594000000E+02  0.51100000000E-03 0.  1.
    9900012    2    1    2    0    0  0.32764007351E+02 -0.22943158452E+02  0.73004932327E+01  0.50528857130E+02  0.29999991732E+02 0.  0.
        -12    1    1    2    0    0 -0.32764007351E+02  0.22943158452E+02 -0.73004932327E+01  0.40659142870E+02  0.00000000000E+00 0.  1.
         11    1    3    3    0    0  0.11331082872E+02 -0.15024565194E+02  0.13325942032E+02  0.23058875290E+02  0.51100000000E-03 0. -1.
        -11    1    3    3    0    0  0.20411817530E+02 -0.22779211236E+01 -0.23783423863E+01  0.20675776461E+02  0.51100000000E-03 0.  1.
        -12    1    3    3    0    0  0.10211069494E+01 -0.56406721351E+01 -0.36471064133E+01  0.67942053787E+01  0.00000000000E+00 0.  1.
</event>
<event>
 7    1  0.1023000E-012  0.5052886E+02  0.7816164E-02  0.1300439E+00
        -11   -1    0    0    0    0  0.00000000000E+00  0.00000000000E+00  0.45593999997E+02  0.45594000000E+02  0.51100000000E-03 0. -1.
         11   -1    0    0    0    0 -0.00000000000E+00 -0.00000000000E+00 -0.45593999997E+02  0.45594000000E+02  0.51100000000E-03 0.  1.
    9900012    2    1    2    0    0  0.25606858991E+02  0.24549542544E+02  0.19868933659E+02  0.50528858454E+02  0.29999995757E+02 0.  0.
        -12    1    1    2    0    0 -0.25606858991E+02 -0.24549542544E+02 -0.19868933659E+02  0.40659141546E+02  0.00000000000E+00 0.  1.
         11    1    3    3    0    0  0.46668753735E+01  0.12475130328E+02  0.10742268978E+02  0.17111544217E+02  0.51100000000E-03 0. -1.
        -11    1    3    3    0    0  0.12539429779E+02 -0.40589959713E+01  0.74771187963E+01  0.15153219237E+02  0.51100000000E-03 0.  1.
        -12    1    3    3    0    0  0.84005538381E+01  0.16133408188E+02  0.16495458850E+01  0.18264095000E+02  0.00000000000E+00 0.  1.
</event>
<event>
 7    1  0.1023000E-012  0.5052885E+02  0.7816164E-02  0.1300439E+00
        -11   -1    0    0    0    0  0.00000000000E+00  0.00000000000E+00  0.45593999997E+02  0.45594000000E+02  0.51100000000E-03 0. -1.
         11   -1    0    0    0    0 -0.00000000000E+00 -0.00000000000E+00 -0.45593999997E+02  0.45594000000E+02  0.51100000000E-03 0.  1.
    9900012    2    1    2    0    0 -0.39402275862E+02 -0.82734003263E+01 -0.56725676119E+01  0.50528849500E+02  0.29999968540E+02 0.  0.
        -12    1    1    2    0    0  0.39402275862E+02  0.82734003263E+01  0.56725676119E+01  0.40659150500E+02  0.00000000000E+00 0.  1.
         11    1    3    3    0    0 -0.31204921918E+02 -0.13257949727E+02  0.65459570177E+00  0.33910896165E+02  0.51100000000E-03 0. -1.
        -11    1    3    3    0    0 -0.90708966817E+01 -0.26195319723E+00 -0.67091911836E+01  0.11285523146E+02  0.51100000000E-03 0.  1.
         12    1    3    3    0    0  0.87354273783E+00  0.52465025983E+01  0.38202786993E+00  0.53324301892E+01  0.00000000000E+00 0. -1.
</event>
<event>
 7    1  0.1023000E-012  0.5052886E+02  0.7816164E-02  0.1300439E+00
        -11   -1    0    0    0    0  0.00000000000E+00  0.00000000000E+00  0.45593999997E+02  0.45594000000E+02  0.51100000000E-03 0.  1.
         11   -1    0    0    0    0 -0.00000000000E+00 -0.00000000000E+00 -0.45593999997E+02  0.45594000000E+02  0.51100000000E-03 0. -1.
    9900012    2    1    2    0    0  0.28745539252E-01 -0.21369298164E+02 -0.34590724392E+02  0.50528856572E+02  0.29999990037E+02 0.  0.
        -12    1    1    2    0    0 -0.28745539252E-01  0.21369298164E+02  0.34590724392E+02  0.40659143428E+02  0.00000000000E+00 0.  1.
         11    1    3    3    0    0 -0.35657992413E+01  0.22078907595E+01 -0.48172133977E+01  0.63871160171E+01  0.51100000000E-03 0. -1.
        -11    1    3    3    0    0 -0.34807815171E+01 -0.25073699855E+02 -0.22195127905E+02  0.33666451660E+02  0.51100000000E-03 0.  1.
        -12    1    3    3    0    0  0.70753262977E+01  0.14965109317E+01 -0.75783830897E+01  0.10475288895E+02  0.00000000000E+00 0.  1.
</event>
<event>
 7    1  0.1023000E-012  0.5052884E+02  0.7816164E-02  0.1300439E+00
        -11   -1    0    0    0    0  0.00000000000E+00  0.00000000000E+00  0.45593999997E+02  0.45594000000E+02  0.51100000000E-03 0.  1.
         11   -1    0    0    0    0 -0.00000000000E+00 -0.00000000000E+00 -0.45593999997E+02  0.45594000000E+02  0.51100000000E-03 0. -1.
    9900012    2    1    2    0    0 -0.32808485168E+02  0.18166597332E+02 -0.15708123109E+02  0.50528842492E+02  0.29999947240E+02 0.  0.
        -12    1    1    2    0    0  0.32808485168E+02 -0.18166597332E+02  0.15708123109E+02  0.40659157508E+02  0.00000000000E+00 0.  1.
         11    1    3    3    0    0 -0.11830344422E+02  0.48379085441E+01  0.65773429744E+01  0.14374416479E+02  0.51100000000E-03 0. -1.
        -11    1    3    3    0    0 -0.15696931962E+02  0.16052481929E+02 -0.18658570678E+02  0.29192774947E+02  0.51100000000E-03 0.  1.
        -12    1    3    3    0    0 -0.52812087838E+01 -0.27237931414E+01 -0.36268954053E+01  0.69616510668E+01  0.00000000000E+00 0.  1.
</event>
<event>
 7    1  0.1023000E-012  0.5052886E+02  0.7816164E-02  0.1300439E+00
        -11   -1    0    0    0    0  0.00000000000E+00  0.00000000000E+00  0.45593999997E+02  0.45594000000E+02  0.51100000000E-03 0.  1.
         11   -1    0    0    0    0 -0.00000000000E+00 -0.00000000000E+00 -0.45593999997E+02  0.45594000000E+02  0.51100000000E-03 0. -1.
    9900012    2    1    2    0    0  0.12371810516E+02 -0.27302902598E+01  0.38634821756E+02  0.50528860407E+02  0.30000001694E+02 0.  0.
        -12    1    1    2    0    0 -0.12371810516E+02  0.27302902598E+01 -0.38634821756E+02  0.40659139593E+02  0.00000000000E+00 0.  1.
         11    1    3    3    0    0 -0.94651654092E+00 -0.10432737663E+02  0.30059638819E+02  0.31832684381E+02  0.51100000000E-03 0. -1.
        -11    1    3    3    0    0  0.21854747243E+01  0.55107032758E-01  0.37746739998E+01  0.43620523406E+01  0.51100000000E-03 0.  1.
         12    1    3    3    0    0  0.11132852332E+02  0.76473403700E+01  0.48005089368E+01  0.14334123686E+02  0.00000000000E+00 0. -1.
</event>
<event>
 7    1  0.1023000E-012  0.5052886E+02  0.7816164E-02  0.1300439E+00
        -11   -1    0    0    0    0  0.00000000000E+00  0.00000000000E+00  0.45593999997E+02  0.45594000000E+02  0.51100000000E-03 0. -1.
         11   -1    0    0    0    0 -0.00000000000E+00 -0.00000000000E+00 -0.45593999997E+02  0.45594000000E+02  0.51100000000E-03 0.  1.
    9900012    2    1    2    0    0  0.20176052957E+02  0.34799197235E+02  0.59252137959E+01  0.50528863270E+02  0.30000010395E+02 0.  0.
        -12    1    1    2    0    0 -0.20176052957E+02 -0.34799197235E+02 -0.59252137959E+01  0.40659136730E+02  0.00000000000E+00 0.  1.
         11    1    3    3    0    0  0.57185261981E+01  0.60413578408E+01  0.98583637758E+01  0.12899103963E+02  0.51100000000E-03 0. -1.
        -11    1    3    3    0    0  0.97732939396E+01  0.33242683815E+01 -0.55451736933E+01  0.11718233069E+02  0.51100000000E-03 0.  1.
         12    1    3    3    0    0  0.46842328196E+01  0.25433571012E+02  0.16120237134E+01  0.25911526239E+02  0.00000000000E+00 0. -1.
</event>
<event>
 7    1  0.1023000E-012  0.5052886E+02  0.7816164E-02  0.1300439E+00
        -11   -1    0    0    0    0  0.00000000000E+00  0.00000000000E+00  0.45593999997E+02  0.45594000000E+02  0.51100000000E-03 0. -1.
         11   -1    0    0    0    0 -0.00000000000E+00 -0.00000000000E+00 -0.45593999997E+02  0.45594000000E+02  0.51100000000E-03 0.  1.
    9900012    2    1    2    0    0 -0.39553126067E+02  0.14776260316E+01  0.93022716137E+01  0.50528863049E+02  0.30000009725E+02 0.  0.
        -12    1    1    2    0    0  0.39553126067E+02 -0.14776260316E+01 -0.93022716137E+01  0.40659136951E+02  0.00000000000E+00 0.  1.
         11    1    3    3    0    0 -0.26651020855E+02 -0.62731198325E+01  0.85976396188E+01  0.28697532164E+02  0.51100000000E-03 0. -1.
        -11    1    3    3    0    0 -0.10593530702E+02  0.11936875351E+02 -0.23884726772E+01  0.16137431267E+02  0.51100000000E-03 0.  1.
        -12    1    3    3    0    0 -0.23085745102E+01 -0.41861294872E+01  0.30931046721E+01  0.56938996185E+01  0.00000000000E+00 0.  1.
</event>
<event>
 7    1  0.1023000E-012  0.5052886E+02  0.7816164E-02  0.1300439E+00
        -11   -1    0    0    0    0  0.00000000000E+00  0.00000000000E+00  0.45593999997E+02  0.45594000000E+02  0.51100000000E-03 0. -1.
         11   -1    0    0    0    0 -0.00000000000E+00 -0.00000000000E+00 -0.45593999997E+02  0.45594000000E+02  0.51100000000E-03 0.  1.
    9900012    2    1    2    0    0  0.27970274865E+02  0.17224521156E+02  0.23961325538E+02  0.50528861708E+02  0.30000005648E+02 0.  0.
        -12    1    1    2    0    0 -0.27970274865E+02 -0.17224521156E+02 -0.23961325538E+02  0.40659138292E+02  0.00000000000E+00 0.  1.
         11    1    3    3    0    0  0.23363714607E+02  0.91852246594E+01  0.12632284477E+02  0.28103489528E+02  0.51100000000E-03 0. -1.
        -11    1    3    3    0    0 -0.15163492908E+01  0.37213954221E+01  0.13927230596E+02  0.14495373448E+02  0.51100000000E-03 0.  1.
        -12    1    3    3    0    0  0.61229095496E+01  0.43179010744E+01 -0.25981895347E+01  0.79299987326E+01  0.00000000000E+00 0.  1.
</event>
<event>
 7    1  0.1023000E-012  0.5052886E+02  0.7816164E-02  0.1300439E+00
        -11   -1    0    0    0    0  0.00000000000E+00  0.00000000000E+00  0.45593999997E+02  0.45594000000E+02  0.51100000000E-03 0. -1.
         11   -1    0    0    0    0 -0.00000000000E+00 -0.00000000000E+00 -0.45593999997E+02  0.45594000000E+02  0.51100000000E-03 0.  1.
    9900012    2    1    2    0    0 -0.15136523237E+02  0.37339504519E+01  0.37551418531E+02  0.50528858895E+02  0.29999997098E+02 0.  0.
        -12    1    1    2    0    0  0.15136523237E+02 -0.37339504519E+01 -0.37551418531E+02  0.40659141105E+02  0.00000000000E+00 0.  1.
         11    1    3    3    0    0  0.85609006847E+00 -0.12293957092E+01  0.31617197637E+02  0.31652669566E+02  0.51100000000E-03 0. -1.
        -11    1    3    3    0    0 -0.23475387869E+01  0.34200459085E+01  0.85874105466E+00  0.42361644010E+01  0.51100000000E-03 0.  1.
         12    1    3    3    0    0 -0.13645074518E+02  0.15433002526E+01  0.50754798397E+01  0.14640024928E+02  0.00000000000E+00 0. -1.
</event>
<event>
 7    1  0.1023000E-012  0.5052884E+02  0.7816164E-02  0.1300439E+00
        -11   -1    0    0    0    0  0.00000000000E+00  0.00000000000E+00  0.45593999997E+02  0.45594000000E+02  0.51100000000E-03 0. -1.
         11   -1    0    0    0    0 -0.00000000000E+00 -0.00000000000E+00 -0.45593999997E+02  0.45594000000E+02  0.51100000000E-03 0.  1.
    9900012    2    1    2    0    0  0.19541492755E+02  0.30656403164E+02 -0.18206653258E+02  0.50528840922E+02  0.29999942467E+02 0.  0.
        -12    1    1    2    0    0 -0.19541492755E+02 -0.30656403164E+02  0.18206653258E+02  0.40659159078E+02  0.00000000000E+00 0.  1.
         11    1    3    3    0    0  0.21101204037E+02  0.19317204385E+02 -0.90962926035E+01  0.30019289406E+02  0.51100000000E-03 0. -1.
        -11    1    3    3    0    0 -0.64746795725E+01  0.93140582750E+01 -0.99973897048E+01  0.15120216873E+02  0.51100000000E-03 0.  1.
        -12    1    3    3    0    0  0.49149682909E+01  0.20251405034E+01  0.88702905013E+00  0.53893346430E+01  0.00000000000E+00 0.  1.
</event>
<event>
 7    1  0.1023000E-012  0.5052889E+02  0.7816164E-02  0.1300439E+00
        -11   -1    0    0    0    0  0.00000000000E+00  0.00000000000E+00  0.45593999997E+02  0.45594000000E+02  0.51100000000E-03 0. -1.
         11   -1    0    0    0    0 -0.00000000000E+00 -0.00000000000E+00 -0.45593999997E+02  0.45594000000E+02  0.51100000000E-03 0.  1.
    9900012    2    1    2    0    0  0.48044001309E+01 -0.15788739535E+02  0.37159071433E+02  0.50528890978E+02  0.30000094616E+02 0.  0.
        -12    1    1    2    0    0 -0.48044001309E+01  0.15788739535E+02 -0.37159071433E+02  0.40659109022E+02  0.00000000000E+00 0.  1.
         11    1    3    3    0    0 -0.63953632751E+01  0.21688170812E+01  0.50256328355E+01  0.84179228204E+01  0.51100000000E-03 0. -1.
        -11    1    3    3    0    0  0.10366615174E+02 -0.50155491340E+01  0.24476816812E+02  0.27050637789E+02  0.51100000000E-03 0.  1.
         12    1    3    3    0    0  0.83314823182E+00 -0.12942007482E+02  0.76566217859E+01  0.15060330368E+02  0.00000000000E+00 0. -1.
</event>
<event>
 7    1  0.1023000E-012  0.5052886E+02  0.7816164E-02  0.1300439E+00
        -11   -1    0    0    0    0  0.00000000000E+00  0.00000000000E+00  0.45593999997E+02  0.45594000000E+02  0.51100000000E-03 0.  1.
         11   -1    0    0    0    0 -0.00000000000E+00 -0.00000000000E+00 -0.45593999997E+02  0.45594000000E+02  0.51100000000E-03 0. -1.
    9900012    2    1    2    0    0 -0.31097722279E+02 -0.21564165887E+02 -0.14868895848E+02  0.50528860252E+02  0.30000001221E+02 0.  0.
        -12    1    1    2    0    0  0.31097722279E+02  0.21564165887E+02  0.14868895848E+02  0.40659139748E+02  0.00000000000E+00 0.  1.
         11    1    3    3    0    0 -0.18753147722E+02 -0.92109079402E+01  0.49791563106E+01  0.21478206918E+02  0.51100000000E-03 0. -1.
        -11    1    3    3    0    0 -0.12694163644E+02 -0.10216641787E+02 -0.21014078053E+02  0.26591597107E+02  0.51100000000E-03 0.  1.
        -12    1    3    3    0    0  0.34958908760E+00 -0.21366161598E+01  0.11660258936E+01  0.24590562273E+01  0.00000000000E+00 0.  1.
</event>
<event>
 7    1  0.1023000E-012  0.5052887E+02  0.7816164E-02  0.1300439E+00
        -11   -1    0    0    0    0  0.00000000000E+00  0.00000000000E+00  0.45593999997E+02  0.45594000000E+02  0.51100000000E-03 0. -1.
         11   -1    0    0    0    0 -0.00000000000E+00 -0.00000000000E+00 -0.45593999997E+02  0.45594000000E+02  0.51100000000E-03 0.  1.
    9900012    2    1    2    0    0  0.38001564934E+02 -0.17610339211E+01  0.14350762342E+02  0.50528873624E+02  0.30000041866E+02 0.  0.
        -12    1    1    2    0    0 -0.38001564934E+02  0.17610339211E+01 -0.14350762342E+02  0.40659126376E+02  0.00000000000E+00 0.  1.
         11    1    3    3    0    0  0.80291572697E+01 -0.46481035203E+01  0.94690929132E+01  0.13256543805E+02  0.51100000000E-03 0. -1.
        -11    1    3    3    0    0  0.18152854952E+02  0.11016161234E+02  0.78220933125E+01  0.22628899560E+02  0.51100000000E-03 0.  1.
        -12    1    3    3    0    0  0.11819552712E+02 -0.81290916347E+01 -0.29404238841E+01  0.14643430259E+02  0.00000000000E+00 0.  1.
</event>
<event>
 7    1  0.1023000E-012  0.5052886E+02  0.7816164E-02  0.1300439E+00
        -11   -1    0    0    0    0  0.00000000000E+00  0.00000000000E+00  0.45593999997E+02  0.45594000000E+02  0.51100000000E-03 0. -1.
         11   -1    0    0    0    0 -0.00000000000E+00 -0.00000000000E+00 -0.45593999997E+02  0.45594000000E+02  0.51100000000E-03 0.  1.
    9900012    2    1    2    0    0  0.74666546547E+01  0.25549339670E+02  0.30735092671E+02  0.50528860673E+02  0.30000002502E+02 0.  0.
        -12    1    1    2    0    0 -0.74666546547E+01 -0.25549339670E+02 -0.30735092671E+02  0.40659139327E+02  0.00000000000E+00 0.  1.
         11    1    3    3    0    0  0.69164794529E+01  0.67311905378E+01 -0.27773525327E+01  0.10042922953E+02  0.51100000000E-03 0.  1.
        -11    1    3    3    0    0  0.48246285207E+01  0.93172296214E+01  0.24715944648E+02  0.26850804984E+02  0.51100000000E-03 0. -1.
        -12    1    3    3    0    0 -0.42744533190E+01  0.95009195108E+01  0.87965005556E+01  0.13635132737E+02  0.00000000000E+00 0.  1.
</event>
<event>
 7    1  0.1081504E-012  0.5052886E+02  0.7816164E-02  0.1300439E+00
        -11   -1    0    0    0    0  0.00000000000E+00  0.00000000000E+00  0.45593999997E+02  0.45594000000E+02  0.51100000000E-03 0.  1.
         11   -1    0    0    0    0 -0.00000000000E+00 -0.00000000000E+00 -0.45593999997E+02  0.45594000000E+02  0.51100000000E-03 0. -1.
    9900012    2    1    2    0    0  0.13859221396E+02  0.24794218556E+02 -0.29091827572E+02  0.50528859293E+02  0.29999998308E+02 0.  0.
        -12    1    1    2    0    0 -0.13859221396E+02 -0.24794218556E+02  0.29091827572E+02  0.40659140707E+02  0.00000000000E+00 0.  1.
         11    1    3    3    0    0  0.85810879216E+01  0.22301311718E+02 -0.28130975385E+02  0.36909827291E+02  0.51100000000E-03 0. -1.
        -11    1    3    3    0    0  0.85122393229E+01 -0.11995866359E+01 -0.13210995871E+01  0.86972714553E+01  0.51100000000E-03 0.  1.
        -12    1    3    3    0    0 -0.32341058481E+01  0.36924934741E+01  0.36024740057E+00  0.49217605470E+01  0.00000000000E+00 0.  1.
</event>
<event>
 7    1  0.1023000E-012  0.5052888E+02  0.7816164E-02  0.1300439E+00
        -11   -1    0    0    0    0  0.00000000000E+00  0.00000000000E+00  0.45593999997E+02  0.45594000000E+02  0.51100000000E-03 0.  1.
         11   -1    0    0    0    0 -0.00000000000E+00 -0.00000000000E+00 -0.45593999997E+02  0.45594000000E+02  0.51100000000E-03 0. -1.
    9900012    2    1    2    0    0  0.29806325856E+02 -0.14823335892E+02 -0.23345576709E+02  0.50528876794E+02  0.30000051503E+02 0.  0.
        -12    1    1    2    0    0 -0.29806325856E+02  0.14823335892E+02  0.23345576709E+02  0.40659123206E+02  0.00000000000E+00 0.  1.
         11    1    3    3    0    0  0.17968408693E+02  0.18577328400E+01 -0.21446409973E+02  0.28040388429E+02  0.51100000000E-03 0. -1.
        -11    1    3    3    0    0  0.15290922931E+01  0.89921620582E+00 -0.11116322591E+01  0.20934277074E+01  0.51100000000E-03 0.  1.
         12    1    3    3    0    0  0.10308824870E+02 -0.17580284938E+02 -0.78753447755E+00  0.20395060658E+02  0.00000000000E+00 0. -1.
</event>
<event>
 7    1  0.1023000E-012  0.5052886E+02  0.7816164E-02  0.1300439E+00
        -11   -1    0    0    0    0  0.00000000000E+00  0.00000000000E+00  0.45593999997E+02  0.45594000000E+02  0.51100000000E-03 0. -1.
         11   -1    0    0    0    0 -0.00000000000E+00 -0.00000000000E+00 -0.45593999997E+02  0.45594000000E+02  0.51100000000E-03 0.  1.
    9900012    2    1    2    0    0 -0.23340925334E+02 -0.28785393166E+02  0.16726267470E+02  0.50528859839E+02  0.29999999965E+02 0.  0.
        -12    1    1    2    0    0  0.23340925334E+02  0.28785393166E+02 -0.16726267470E+02  0.40659140161E+02  0.00000000000E+00 0.  1.
         11    1    3    3    0    0  0.56951153073E+00 -0.73382074921E+00  0.96033156268E+01  0.96481349267E+01  0.51100000000E-03 0.  1.
        -11    1    3    3    0    0 -0.16407703528E+02 -0.12623587172E+02 -0.30658201246E+01  0.20927659722E+02  0.51100000000E-03 0. -1.
         12    1    3    3    0    0 -0.75027333367E+01 -0.15427985245E+02  0.10188771968E+02  0.19953065190E+02  0.00000000000E+00 0. -1.
</event>
<event>
 7    1  0.1023000E-012  0.5052878E+02  0.7816164E-02  0.1300439E+00
        -11   -1    0    0    0    0  0.00000000000E+00  0.00000000000E+00  0.45593999997E+02  0.45594000000E+02  0.51100000000E-03 0. -1.
         11   -1    0    0    0    0 -0.00000000000E+00 -0.00000000000E+00 -0.45593999997E+02  0.45594000000E+02  0.51100000000E-03 0.  1.
    9900012    2    1    2    0    0  0.31818275845E+02  0.20948410892E+02  0.14210325673E+02  0.50528782689E+02  0.29999765460E+02 0.  0.
        -12    1    1    2    0    0 -0.31818275845E+02 -0.20948410892E+02 -0.14210325673E+02  0.40659217311E+02  0.00000000000E+00 0.  1.
         11    1    3    3    0    0  0.19695771478E+02  0.88627218250E+01  0.48894521334E+00  0.21603479348E+02  0.51100000000E-03 0. -1.
        -11    1    3    3    0    0  0.17408282734E+01 -0.45028697438E+01  0.64325074580E+01  0.80426035253E+01  0.51100000000E-03 0.  1.
         12    1    3    3    0    0  0.10381676093E+02  0.16588558811E+02  0.72888730013E+01  0.20882699815E+02  0.00000000000E+00 0. -1.
</event>
<event>
 7    1  0.1023000E-012  0.5052886E+02  0.7816164E-02  0.1300439E+00
        -11   -1    0    0    0    0  0.00000000000E+00  0.00000000000E+00  0.45593999997E+02  0.45594000000E+02  0.51100000000E-03 0.  1.
         11   -1    0    0    0    0 -0.00000000000E+00 -0.00000000000E+00 -0.45593999997E+02  0.45594000000E+02  0.51100000000E-03 0. -1.
    9900012    2    1    2    0    0  0.36387038083E+01 -0.38405758715E+01 -0.40313469496E+02  0.50528855749E+02  0.29999987535E+02 0.  0.
        -12    1    1    2    0    0 -0.36387038083E+01  0.38405758715E+01  0.40313469496E+02  0.40659144251E+02  0.00000000000E+00 0.  1.
         11    1    3    3    0    0  0.89721159226E+01  0.61002762563E+00 -0.51204112058E+01  0.10348410941E+02  0.51100000000E-03 0. -1.
        -11    1    3    3    0    0 -0.47413592476E+01  0.67078325051E+01 -0.14848325716E+02  0.16969038902E+02  0.51100000000E-03 0.  1.
         12    1    3    3    0    0 -0.59205286675E+00 -0.11158436002E+02 -0.20344732574E+02  0.23211405906E+02  0.00000000000E+00 0. -1.
</event>
<event>
 7    1  0.1023000E-012  0.5052885E+02  0.7816164E-02  0.1300439E+00
        -11   -1    0    0    0    0  0.00000000000E+00  0.00000000000E+00  0.45593999997E+02  0.45594000000E+02  0.51100000000E-03 0.  1.
         11   -1    0    0    0    0 -0.00000000000E+00 -0.00000000000E+00 -0.45593999997E+02  0.45594000000E+02  0.51100000000E-03 0. -1.
    9900012    2    1    2    0    0  0.37823330876E+02 -0.13732933616E+02 -0.58282442506E+01  0.50528852747E+02  0.29999978410E+02 0.  0.
        -12    1    1    2    0    0 -0.37823330876E+02  0.13732933616E+02  0.58282442506E+01  0.40659147253E+02  0.00000000000E+00 0.  1.
         11    1    3    3    0    0  0.36074607691E+02 -0.45072959574E+01 -0.11447084885E+01  0.36373113624E+02  0.51100000000E-03 0. -1.
        -11    1    3    3    0    0  0.22906825621E+01 -0.20203042919E+01  0.25147999265E+01  0.39563967146E+01  0.51100000000E-03 0.  1.
         12    1    3    3    0    0 -0.54195937644E+00 -0.72053333668E+01 -0.71983356885E+01  0.10199342409E+02  0.00000000000E+00 0. -1.
</event>
<event>
 7    1  0.1023000E-012  0.5052888E+02  0.7816164E-02  0.1300439E+00
        -11   -1    0    0    0    0  0.00000000000E+00  0.00000000000E+00  0.45593999997E+02  0.45594000000E+02  0.51100000000E-03 0.  1.
         11   -1    0    0    0    0 -0.00000000000E+00 -0.00000000000E+00 -0.45593999997E+02  0.45594000000E+02  0.51100000000E-03 0. -1.
    9900012    2    1    2    0    0 -0.72146748732E+01  0.39800724238E+02 -0.41249479547E+01  0.50528875821E+02  0.30000048546E+02 0.  0.
        -12    1    1    2    0    0  0.72146748732E+01 -0.39800724238E+02  0.41249479547E+01  0.40659124179E+02  0.00000000000E+00 0.  1.
         11    1    3    3    0    0  0.15187792772E+01  0.20840638303E+02 -0.15015663012E+02  0.25731479385E+02  0.51100000000E-03 0. -1.
        -11    1    3    3    0    0 -0.69074182263E+01  0.11250248506E+02  0.28434605901E+01  0.13504287704E+02  0.51100000000E-03 0.  1.
         12    1    3    3    0    0 -0.18260359242E+01  0.77098374281E+01  0.80472544675E+01  0.11293108732E+02  0.00000000000E+00 0. -1.
</event>
<event>
 7    1  0.1023000E-012  0.5052887E+02  0.7816164E-02  0.1300439E+00
        -11   -1    0    0    0    0  0.00000000000E+00  0.00000000000E+00  0.45593999997E+02  0.45594000000E+02  0.51100000000E-03 0.  1.
         11   -1    0    0    0    0 -0.00000000000E+00 -0.00000000000E+00 -0.45593999997E+02  0.45594000000E+02  0.51100000000E-03 0. -1.
    9900012    2    1    2    0    0  0.37151065317E+02 -0.88566040964E+01 -0.13947173005E+02  0.50528871564E+02  0.30000035607E+02 0.  0.
        -12    1    1    2    0    0 -0.37151065317E+02  0.88566040964E+01  0.13947173005E+02  0.40659128436E+02  0.00000000000E+00 0.  1.
         11    1    3    3    0    0  0.25873643830E+02  0.57821582544E+00  0.26563070138E+01  0.26016067070E+02  0.51100000000E-03 0. -1.
        -11    1    3    3    0    0  0.29331636215E+01 -0.83206248723E+01 -0.12072320641E+02  0.14952497217E+02  0.51100000000E-03 0.  1.
        -12    1    3    3    0    0  0.83442578652E+01 -0.11141950495E+01 -0.45311593782E+01  0.95603072774E+01  0.00000000000E+00 0.  1.
</event>
<event>
 7    1  0.1023000E-012  0.5052885E+02  0.7816164E-02  0.1300439E+00
        -11   -1    0    0    0    0  0.00000000000E+00  0.00000000000E+00  0.45593999997E+02  0.45594000000E+02  0.51100000000E-03 0.  1.
         11   -1    0    0    0    0 -0.00000000000E+00 -0.00000000000E+00 -0.45593999997E+02  0.45594000000E+02  0.51100000000E-03 0. -1.
    9900012    2    1    2    0    0 -0.32005246808E+02 -0.19839093252E+02  0.15337558252E+02  0.50528854197E+02  0.29999982819E+02 0.  0.
        -12    1    1    2    0    0  0.32005246808E+02  0.19839093252E+02 -0.15337558252E+02  0.40659145803E+02  0.00000000000E+00 0.  1.
         11    1    3    3    0    0 -0.13692552034E+02 -0.15333113085E+02  0.13499133753E+02  0.24593026459E+02  0.51100000000E-03 0. -1.
        -11    1    3    3    0    0 -0.19263539138E+02 -0.50005795143E+01 -0.37442917510E+01  0.20251159389E+02  0.51100000000E-03 0.  1.
        -12    1    3    3    0    0  0.95084436480E+00  0.49459934737E+00  0.55827162497E+01  0.56846683496E+01  0.00000000000E+00 0.  1.
</event>
<event>
 7    1  0.1023000E-012  0.5052886E+02  0.7816164E-02  0.1300439E+00
        -11   -1    0    0    0    0  0.00000000000E+00  0.00000000000E+00  0.45593999997E+02  0.45594000000E+02  0.51100000000E-03 0.  1.
         11   -1    0    0    0    0 -0.00000000000E+00 -0.00000000000E+00 -0.45593999997E+02  0.45594000000E+02  0.51100000000E-03 0. -1.
    9900012    2    1    2    0    0  0.26913506902E+02 -0.22135803782E+02 -0.20948392795E+02  0.50528858057E+02  0.29999994550E+02 0.  0.
        -12    1    1    2    0    0 -0.26913506902E+02  0.22135803782E+02  0.20948392795E+02  0.40659141943E+02  0.00000000000E+00 0.  1.
         11    1    3    3    0    0  0.22687645461E+02 -0.23930729215E+02 -0.90990707018E+01  0.34208217510E+02  0.51100000000E-03 0.  1.
        -11    1    3    3    0    0 -0.11742871164E+01  0.50714438598E+00  0.14353747246E+01  0.19226145014E+01  0.51100000000E-03 0. -1.
         12    1    3    3    0    0  0.54001485582E+01  0.12877810467E+01 -0.13284696818E+02  0.14398026046E+02  0.00000000000E+00 0. -1.
</event>
<event>
 7    1  0.1023000E-012  0.5052885E+02  0.7816164E-02  0.1300439E+00
        -11   -1    0    0    0    0  0.00000000000E+00  0.00000000000E+00  0.45593999997E+02  0.45594000000E+02  0.51100000000E-03 0.  1.
         11   -1    0    0    0    0 -0.00000000000E+00 -0.00000000000E+00 -0.45593999997E+02  0.45594000000E+02  0.51100000000E-03 0. -1.
    9900012    2    1    2    0    0 -0.22318023282E+02  0.98878782482E+01 -0.32516188022E+02  0.50528846259E+02  0.29999958688E+02 0.  0.
        -12    1    1    2    0    0  0.22318023282E+02 -0.98878782482E+01  0.32516188022E+02  0.40659153741E+02  0.00000000000E+00 0.  1.
         11    1    3    3    0    0 -0.11105889475E+02  0.14839863656E+02 -0.60870941709E+01  0.19509358013E+02  0.51100000000E-03 0.  1.
        -11    1    3    3    0    0 -0.10625615445E+01 -0.55440783647E+01 -0.13026826177E+02  0.14197325186E+02  0.51100000000E-03 0. -1.
        -12    1    3    3    0    0 -0.10149572263E+02  0.59209295669E+00 -0.13402267674E+02  0.16822163060E+02  0.00000000000E+00 0.  1.
</event>
<event>
 7    1  0.1023000E-012  0.5052886E+02  0.7816164E-02  0.1300439E+00
        -11   -1    0    0    0    0  0.00000000000E+00  0.00000000000E+00  0.45593999997E+02  0.45594000000E+02  0.51100000000E-03 0.  1.
         11   -1    0    0    0    0 -0.00000000000E+00 -0.00000000000E+00 -0.45593999997E+02  0.45594000000E+02  0.51100000000E-03 0. -1.
    9900012    2    1    2    0    0 -0.18737908070E+02  0.77040439684E+01 -0.35252013494E+02  0.50528856530E+02  0.29999989909E+02 0.  0.
        -12    1    1    2    0    0  0.18737908070E+02 -0.77040439684E+01  0.35252013494E+02  0.40659143470E+02  0.00000000000E+00 0.  1.
         11    1    3    3    0    0 -0.88550327700E+01  0.32954579581E+01 -0.11878819111E+01  0.95227470935E+01  0.51100000000E-03 0. -1.
        -11    1    3    3    0    0 -0.37126902800E+01  0.87796483770E+01 -0.31671667314E+02  0.33075078313E+02  0.51100000000E-03 0.  1.
        -12    1    3    3    0    0 -0.61701850201E+01 -0.43710623668E+01 -0.23924642696E+01  0.79310311232E+01  0.00000000000E+00 0.  1.
</event>
<event>
 7    1  0.1023000E-012  0.5052878E+02  0.7816164E-02  0.1300439E+00
        -11   -1    0    0    0    0  0.00000000000E+00  0.00000000000E+00  0.45593999997E+02  0.45594000000E+02  0.51100000000E-03 0. -1.
         11   -1    0    0    0    0 -0.00000000000E+00 -0.00000000000E+00 -0.45593999997E+02  0.45594000000E+02  0.51100000000E-03 0.  1.
    9900012    2    1    2    0    0  0.15249940347E+02  0.17266638488E+02  0.33503354438E+02  0.50528779104E+02  0.29999754562E+02 0.  0.
        -12    1    1    2    0    0 -0.15249940347E+02 -0.17266638488E+02 -0.33503354438E+02  0.40659220896E+02  0.00000000000E+00 0.  1.
         11    1    3    3    0    0  0.14923670739E+02  0.11834597011E+02  0.27653795217E+02  0.33578356495E+02  0.51100000000E-03 0. -1.
        -11    1    3    3    0    0 -0.43976658614E+01  0.85681329589E+01  0.58729062856E+01  0.11280221449E+02  0.51100000000E-03 0.  1.
         12    1    3    3    0    0  0.47239354700E+01 -0.31360914819E+01 -0.23347064502E-01  0.56702011598E+01  0.00000000000E+00 0. -1.
</event>
<event>
 7    1  0.1023000E-012  0.5052890E+02  0.7816164E-02  0.1300439E+00
        -11   -1    0    0    0    0  0.00000000000E+00  0.00000000000E+00  0.45593999997E+02  0.45594000000E+02  0.51100000000E-03 0.  1.
         11   -1    0    0    0    0 -0.00000000000E+00 -0.00000000000E+00 -0.45593999997E+02  0.45594000000E+02  0.51100000000E-03 0. -1.
    9900012    2    1    2    0    0  0.10941643635E+02 -0.38876453776E+02  0.46972628343E+01  0.50528898906E+02  0.30000118715E+02 0.  0.
        -12    1    1    2    0    0 -0.10941643635E+02  0.38876453776E+02 -0.46972628343E+01  0.40659101094E+02  0.00000000000E+00 0.  1.
         11    1    3    3    0    0  0.17665787551E+02 -0.26926712856E+02  0.88558671484E+01  0.33399914644E+02  0.51100000000E-03 0. -1.
        -11    1    3    3    0    0 -0.80826692179E+00  0.12494973254E+01  0.97676521784E+00  0.17800588571E+01  0.51100000000E-03 0.  1.
         12    1    3    3    0    0 -0.59158769936E+01 -0.13199238245E+02 -0.51353695319E+01  0.15348925405E+02  0.00000000000E+00 0. -1.
</event>
<event>
 7    1  0.1023000E-012  0.5052886E+02  0.7816164E-02  0.1300439E+00
        -11   -1    0    0    0    0  0.00000000000E+00  0.00000000000E+00  0.45593999997E+02  0.45594000000E+02  0.51100000000E-03 0. -1.
         11   -1    0    0    0    0 -0.00000000000E+00 -0.00000000000E+00 -0.45593999997E+02  0.45594000000E+02  0.51100000000E-03 0.  1.
    9900012    2    1    2    0    0 -0.10238102095E+01 -0.40590481744E+02  0.21285070726E+01  0.50528856650E+02  0.29999990274E+02 0.  0.
        -12    1    1    2    0    0  0.10238102095E+01  0.40590481744E+02 -0.21285070726E+01  0.40659143350E+02  0.00000000000E+00 0.  1.
         11    1    3    3    0    0 -0.87121621682E+01 -0.12360558179E+02 -0.29056374087E+01  0.15398957665E+02  0.51100000000E-03 0. -1.
        -11    1    3    3    0    0  0.85918187786E+01 -0.19910314903E+02  0.11508156387E+02  0.24549493949E+02  0.51100000000E-03 0.  1.
        -12    1    3    3    0    0 -0.90346681984E+00 -0.83196086616E+01 -0.64740119057E+01  0.10580405036E+02  0.00000000000E+00 0.  1.
</event>
<event>
 7    1  0.1023000E-012  0.5052885E+02  0.7816164E-02  0.1300439E+00
        -11   -1    0    0    0    0  0.00000000000E+00  0.00000000000E+00  0.45593999997E+02  0.45594000000E+02  0.51100000000E-03 0. -1.
         11   -1    0    0    0    0 -0.00000000000E+00 -0.00000000000E+00 -0.45593999997E+02  0.45594000000E+02  0.51100000000E-03 0.  1.
    9900012    2    1    2    0    0  0.39649811292E+02  0.77378527157E+01 -0.46026485394E+01  0.50528852521E+02  0.29999977724E+02 0.  0.
        -12    1    1    2    0    0 -0.39649811292E+02 -0.77378527157E+01  0.46026485394E+01  0.40659147479E+02  0.00000000000E+00 0.  1.
         11    1    3    3    0    0  0.22967074127E+02 -0.97183409152E+01 -0.16651588644E+01  0.24994107273E+02  0.51100000000E-03 0. -1.
        -11    1    3    3    0    0  0.11010474817E+02  0.10673796903E+02 -0.55608758606E+01  0.16312076404E+02  0.51100000000E-03 0.  1.
         12    1    3    3    0    0  0.56722623479E+01  0.67823967280E+01  0.26233861856E+01  0.92226688436E+01  0.00000000000E+00 0. -1.
</event>
<event>
 7    1  0.1023000E-012  0.5052887E+02  0.7816164E-02  0.1300439E+00
        -11   -1    0    0    0    0  0.00000000000E+00  0.00000000000E+00  0.45593999997E+02  0.45594000000E+02  0.51100000000E-03 0.  1.
         11   -1    0    0    0    0 -0.00000000000E+00 -0.00000000000E+00 -0.45593999997E+02  0.45594000000E+02  0.51100000000E-03 0. -1.
    9900012    2    1    2    0    0  0.42188484819E+01 -0.13644967870E+02 -0.38068113014E+02  0.50528867457E+02  0.30000023122E+02 0.  0.
        -12    1    1    2    0    0 -0.42188484819E+01  0.13644967870E+02  0.38068113014E+02  0.40659132543E+02  0.00000000000E+00 0.  1.
         11    1    3    3    0    0 -0.25750906351E+01 -0.40127515055E+01 -0.22787418743E+02  0.23280887433E+02  0.51100000000E-03 0. -1.
        -11    1    3    3    0    0  0.57313750407E+01  0.23554077033E+01  0.17089074219E+01  0.64278277935E+01  0.51100000000E-03 0.  1.
        -12    1    3    3    0    0  0.10625640763E+01 -0.11987624068E+02 -0.16989601693E+02  0.20820152231E+02  0.00000000000E+00 0.  1.
</event>
<event>
 7    1  0.1023000E-012  0.5052886E+02  0.7816164E-02  0.1300439E+00
        -11   -1    0    0    0    0  0.00000000000E+00  0.00000000000E+00  0.45593999997E+02  0.45594000000E+02  0.51100000000E-03 0.  1.
         11   -1    0    0    0    0 -0.00000000000E+00 -0.00000000000E+00 -0.45593999997E+02  0.45594000000E+02  0.51100000000E-03 0. -1.
    9900012    2    1    2    0    0  0.12363890072E+02  0.31792792608E+02 -0.22125053793E+02  0.50528862714E+02  0.30000008705E+02 0.  0.
        -12    1    1    2    0    0 -0.12363890072E+02 -0.31792792608E+02  0.22125053793E+02  0.40659137286E+02  0.00000000000E+00 0.  1.
         11    1    3    3    0    0  0.17168794674E+02  0.11237289152E+02 -0.35223204196E+01  0.20819484130E+02  0.51100000000E-03 0.  1.
        -11    1    3    3    0    0 -0.24258012702E+01  0.29153092482E+01  0.22538202600E+00  0.37992548129E+01  0.51100000000E-03 0. -1.
         12    1    3    3    0    0 -0.23791033314E+01  0.17640194207E+02 -0.18828115400E+02  0.25910123771E+02  0.00000000000E+00 0. -1.
</event>
<event>
 7    1  0.1023000E-012  0.5052885E+02  0.7816164E-02  0.1300439E+00
        -11   -1    0    0    0    0  0.00000000000E+00  0.00000000000E+00  0.45593999997E+02  0.45594000000E+02  0.51100000000E-03 0. -1.
         11   -1    0    0    0    0 -0.00000000000E+00 -0.00000000000E+00 -0.45593999997E+02  0.45594000000E+02  0.51100000000E-03 0.  1.
    9900012    2    1    2    0    0 -0.65024110484E+01 -0.76499353972E+01  0.39400043250E+02  0.50528852578E+02  0.29999977896E+02 0.  0.
        -12    1    1    2    0    0  0.65024110484E+01  0.76499353972E+01 -0.39400043250E+02  0.40659147422E+02  0.00000000000E+00 0.  1.
         11    1    3    3    0    0 -0.10596412974E+01 -0.90975348054E+01  0.26438029399E+01  0.95329782052E+01  0.51100000000E-03 0.  1.
        -11    1    3    3    0    0  0.15506714616E+01  0.79349467373E+01  0.21858766150E+02  0.23306085462E+02  0.51100000000E-03 0. -1.
        -12    1    3    3    0    0 -0.69934412127E+01 -0.64873473292E+01  0.14897474160E+02  0.17689788911E+02  0.00000000000E+00 0.  1.
</event>
<event>
 7    1  0.1023000E-012  0.5052886E+02  0.7816164E-02  0.1300439E+00
        -11   -1    0    0    0    0  0.00000000000E+00  0.00000000000E+00  0.45593999997E+02  0.45594000000E+02  0.51100000000E-03 0.  1.
         11   -1    0    0    0    0 -0.00000000000E+00 -0.00000000000E+00 -0.45593999997E+02  0.45594000000E+02  0.51100000000E-03 0. -1.
    9900012    2    1    2    0    0 -0.35386977884E+02 -0.10045550180E+02 -0.17320932308E+02  0.50528856155E+02  0.29999988769E+02 0.  0.
        -12    1    1    2    0    0  0.35386977884E+02  0.10045550180E+02  0.17320932308E+02  0.40659143845E+02  0.00000000000E+00 0.  1.
         11    1    3    3    0    0 -0.28653463726E+02 -0.10190509362E+02 -0.49586871697E+01  0.30813244608E+02  0.51100000000E-03 0. -1.
        -11    1    3    3    0    0  0.31118794030E+01  0.26838978610E+01 -0.72537759434E+01  0.83369279022E+01  0.51100000000E-03 0.  1.
        -12    1    3    3    0    0 -0.98453935603E+01 -0.25389386793E+01 -0.51084691952E+01  0.11378683645E+02  0.00000000000E+00 0.  1.
</event>
<event>
 7    1  0.1023000E-012  0.5052886E+02  0.7816164E-02  0.1300439E+00
        -11   -1    0    0    0    0  0.00000000000E+00  0.00000000000E+00  0.45593999997E+02  0.45594000000E+02  0.51100000000E-03 0.  1.
         11   -1    0    0    0    0 -0.00000000000E+00 -0.00000000000E+00 -0.45593999997E+02  0.45594000000E+02  0.51100000000E-03 0. -1.
    9900012    2    1    2    0    0  0.28020836246E+02  0.27669142574E+02 -0.10120120662E+02  0.50528861336E+02  0.30000004518E+02 0.  0.
        -12    1    1    2    0    0 -0.28020836246E+02 -0.27669142574E+02  0.10120120662E+02  0.40659138664E+02  0.00000000000E+00 0.  1.
         11    1    3    3    0    0  0.13439888546E+02  0.24611766421E+02 -0.58140554161E+01  0.28638660778E+02  0.51100000000E-03 0. -1.
        -11    1    3    3    0    0  0.94167898050E+01 -0.58979364810E+01 -0.26193430084E+01  0.11415889936E+02  0.51100000000E-03 0.  1.
        -12    1    3    3    0    0  0.51641578942E+01  0.89553126337E+01 -0.16867222377E+01  0.10474310623E+02  0.00000000000E+00 0.  1.
</event>
<event>
 7    1  0.1023000E-012  0.5052887E+02  0.7816164E-02  0.1300439E+00
        -11   -1    0    0    0    0  0.00000000000E+00  0.00000000000E+00  0.45593999997E+02  0.45594000000E+02  0.51100000000E-03 0. -1.
         11   -1    0    0    0    0 -0.00000000000E+00 -0.00000000000E+00 -0.45593999997E+02  0.45594000000E+02  0.51100000000E-03 0.  1.
    9900012    2    1    2    0    0  0.29880646230E+02  0.27065111946E+02 -0.52717572092E+01  0.50528871531E+02  0.30000035505E+02 0.  0.
        -12    1    1    2    0    0 -0.29880646230E+02 -0.27065111946E+02  0.52717572092E+01  0.40659128469E+02  0.00000000000E+00 0.  1.
         11    1    3    3    0    0  0.21401759133E+01  0.45803986535E+01  0.65876768015E+01  0.83040887921E+01  0.51100000000E-03 0.  1.
        -11    1    3    3    0    0  0.22007587843E+02  0.12037459157E+02 -0.15832421852E+02  0.29663107181E+02  0.51100000000E-03 0. -1.
         12    1    3    3    0    0  0.57328824737E+01  0.10447254136E+02  0.39729878416E+01  0.12561675558E+02  0.00000000000E+00 0. -1.
</event>
<event>
 7    1  0.1023000E-012  0.5052883E+02  0.7816164E-02  0.1300439E+00
        -11   -1    0    0    0    0  0.00000000000E+00  0.00000000000E+00  0.45593999997E+02  0.45594000000E+02  0.51100000000E-03 0.  1.
         11   -1    0    0    0    0 -0.00000000000E+00 -0.00000000000E+00 -0.45593999997E+02  0.45594000000E+02  0.51100000000E-03 0. -1.
    9900012    2    1    2    0    0  0.65367053361E+01  0.81805311591E+01 -0.39287634227E+02  0.50528833630E+02  0.29999920302E+02 0.  0.
        -12    1    1    2    0    0 -0.65367053361E+01 -0.81805311591E+01  0.39287634227E+02  0.40659166370E+02  0.00000000000E+00 0.  1.
         11    1    3    3    0    0  0.44910483302E+01  0.14973369593E+02 -0.29452835617E+02  0.33344277443E+02  0.51100000000E-03 0. -1.
        -11    1    3    3    0    0 -0.83574480822E+00  0.25614486981E+00  0.25222839021E+01  0.26694561099E+01  0.51100000000E-03 0.  1.
         12    1    3    3    0    0  0.28814018141E+01 -0.70489833036E+01 -0.12357082513E+02  0.14515100078E+02  0.00000000000E+00 0. -1.
</event>
<event>
 7    1  0.1023000E-012  0.5052885E+02  0.7816164E-02  0.1300439E+00
        -11   -1    0    0    0    0  0.00000000000E+00  0.00000000000E+00  0.45593999997E+02  0.45594000000E+02  0.51100000000E-03 0. -1.
         11   -1    0    0    0    0 -0.00000000000E+00 -0.00000000000E+00 -0.45593999997E+02  0.45594000000E+02  0.51100000000E-03 0.  1.
    9900012    2    1    2    0    0 -0.30401631346E+02 -0.16095918144E+02  0.21675535748E+02  0.50528848271E+02  0.29999964804E+02 0.  0.
        -12    1    1    2    0    0  0.30401631346E+02  0.16095918144E+02 -0.21675535748E+02  0.40659151729E+02  0.00000000000E+00 0.  1.
         11    1    3    3    0    0 -0.61681300058E+01 -0.31488403642E+01 -0.52403730181E+01  0.86846147317E+01  0.51100000000E-03 0.  1.
        -11    1    3    3    0    0 -0.26255759745E+02 -0.95504253703E+01  0.24813272021E+02  0.37366750102E+02  0.51100000000E-03 0. -1.
         12    1    3    3    0    0  0.20222584051E+01 -0.33966524093E+01  0.21026367454E+01  0.44774834371E+01  0.00000000000E+00 0. -1.
</event>
<event>
 7    1  0.1037860E-012  0.5052887E+02  0.7816164E-02  0.1300439E+00
        -11   -1    0    0    0    0  0.00000000000E+00  0.00000000000E+00  0.45593999997E+02  0.45594000000E+02  0.51100000000E-03 0. -1.
         11   -1    0    0    0    0 -0.00000000000E+00 -0.00000000000E+00 -0.45593999997E+02  0.45594000000E+02  0.51100000000E-03 0.  1.
    9900012    2    1    2    0    0 -0.28140067807E+02  0.28148088036E+02  0.83058223709E+01  0.50528868658E+02  0.30000026773E+02 0.  0.
        -12    1    1    2    0    0  0.28140067807E+02 -0.28148088036E+02 -0.83058223709E+01  0.40659131342E+02  0.00000000000E+00 0.  1.
         11    1    3    3    0    0 -0.25093255878E+02  0.26635383068E+02  0.25989451172E+01  0.36686095973E+02  0.51100000000E-03 0. -1.
        -11    1    3    3    0    0 -0.38706850442E+01 -0.43521438973E+01  0.31392246479E+00  0.58328300840E+01  0.51100000000E-03 0.  1.
        -12    1    3    3    0    0  0.82387311589E+00  0.58648488646E+01  0.53929547889E+01  0.80099426010E+01  0.00000000000E+00 0.  1.
</event>
<event>
 7    1  0.1023000E-012  0.5052886E+02  0.7816164E-02  0.1300439E+00
        -11   -1    0    0    0    0  0.00000000000E+00  0.00000000000E+00  0.45593999997E+02  0.45594000000E+02  0.51100000000E-03 0.  1.
         11   -1    0    0    0    0 -0.00000000000E+00 -0.00000000000E+00 -0.45593999997E+02  0.45594000000E+02  0.51100000000E-03 0. -1.
    9900012    2    1    2    0    0 -0.15329420993E+02  0.29659652866E+02 -0.23205162650E+02  0.50528859210E+02  0.29999998055E+02 0.  0.
        -12    1    1    2    0    0  0.15329420993E+02 -0.29659652866E+02  0.23205162650E+02  0.40659140790E+02  0.00000000000E+00 0.  1.
         11    1    3    3    0    0 -0.15118403855E+02  0.11148723514E+01 -0.83995655528E+01  0.17330948537E+02  0.51100000000E-03 0. -1.
        -11    1    3    3    0    0 -0.34176863833E+01  0.19821864136E+02 -0.78596041905E+01  0.21595375809E+02  0.51100000000E-03 0.  1.
         12    1    3    3    0    0  0.32066692444E+01  0.87229163788E+01 -0.69459929069E+01  0.11602534863E+02  0.00000000000E+00 0. -1.
</event>
<event>
 7    1  0.1023000E-012  0.5052886E+02  0.7816164E-02  0.1300439E+00
        -11   -1    0    0    0    0  0.00000000000E+00  0.00000000000E+00  0.45593999997E+02  0.45594000000E+02  0.51100000000E-03 0. -1.
         11   -1    0    0    0    0 -0.00000000000E+00 -0.00000000000E+00 -0.45593999997E+02  0.45594000000E+02  0.51100000000E-03 0.  1.
    9900012    2    1    2    0    0  0.89730372518E+01 -0.16670217316E+02 -0.35982691874E+02  0.50528860100E+02  0.30000000760E+02 0.  0.
        -12    1    1    2    0    0 -0.89730372518E+01  0.16670217316E+02  0.35982691874E+02  0.40659139900E+02  0.00000000000E+00 0.  1.
         11    1    3    3    0    0  0.58350603549E+01 -0.11174481701E+02  0.34639474222E+00  0.12610985696E+02  0.51100000000E-03 0. -1.
        -11    1    3    3    0    0  0.47204713901E+01 -0.18762904553E+01 -0.92573256233E+01  0.10559422047E+02  0.51100000000E-03 0.  1.
         12    1    3    3    0    0 -0.15824944932E+01 -0.36194451591E+01 -0.27071760993E+02  0.27358452357E+02  0.00000000000E+00 0. -1.
</event>
<event>
 7    1  0.1023000E-012  0.5052886E+02  0.7816164E-02  0.1300439E+00
        -11   -1    0    0    0    0  0.00000000000E+00  0.00000000000E+00  0.45593999997E+02  0.45594000000E+02  0.51100000000E-03 0. -1.
         11   -1    0    0    0    0 -0.00000000000E+00 -0.00000000000E+00 -0.45593999997E+02  0.45594000000E+02  0.51100000000E-03 0.  1.
    9900012    2    1    2    0    0  0.10950291680E+02  0.39137413682E+02 -0.12328371070E+01  0.50528856811E+02  0.29999990762E+02 0.  0.
        -12    1    1    2    0    0 -0.10950291680E+02 -0.39137413682E+02  0.12328371070E+01  0.40659143189E+02  0.00000000000E+00 0.  1.
         11    1    3    3    0    0  0.12794187126E+02  0.32787968738E+02  0.18809115957E+01  0.35245991926E+02  0.51100000000E-03 0. -1.
        -11    1    3    3    0    0 -0.10152434747E+01 -0.20778340137E+01  0.37343287774E+01  0.43924167812E+01  0.51100000000E-03 0.  1.
         12    1    3    3    0    0 -0.82865197165E+00  0.84272789576E+01 -0.68480774800E+01  0.10890448103E+02  0.00000000000E+00 0. -1.
</event>
<event>
 7    1  0.1023000E-012  0.5052896E+02  0.7816164E-02  0.1300438E+00
        -11   -1    0    0    0    0  0.00000000000E+00  0.00000000000E+00  0.45593999997E+02  0.45594000000E+02  0.51100000000E-03 0. -1.
         11   -1    0    0    0    0 -0.00000000000E+00 -0.00000000000E+00 -0.45593999997E+02  0.45594000000E+02  0.51100000000E-03 0.  1.
    9900012    2    1    2    0    0  0.50856838557E+00  0.39842669538E+02 -0.80907540666E+01  0.50528963378E+02  0.30000314681E+02 0.  0.
        -12    1    1    2    0    0 -0.50856838557E+00 -0.39842669538E+02  0.80907540666E+01  0.40659036622E+02  0.00000000000E+00 0.  1.
         11    1    3    3    0    0  0.25094412286E+01  0.94486827749E+01  0.12609420187E+01  0.98572245838E+01  0.51100000000E-03 0. -1.
        -11    1    3    3    0    0 -0.69949876386E+01  0.17028917919E+02 -0.16492645136E+02  0.24716821022E+02  0.51100000000E-03 0.  1.
        -12    1    3    3    0    0  0.49941147956E+01  0.13365068843E+02  0.71409490507E+01  0.15954917772E+02  0.00000000000E+00 0.  1.
</event>
<event>
 7    1  0.1023000E-012  0.5052886E+02  0.7816164E-02  0.1300439E+00
        -11   -1    0    0    0    0  0.00000000000E+00  0.00000000000E+00  0.45593999997E+02  0.45594000000E+02  0.51100000000E-03 0.  1.
         11   -1    0    0    0    0 -0.00000000000E+00 -0.00000000000E+00 -0.45593999997E+02  0.45594000000E+02  0.51100000000E-03 0. -1.
    9900012    2    1    2    0    0 -0.33431525335E+00  0.38437475469E+02 -0.13251961327E+02  0.50528858763E+02  0.29999996696E+02 0.  0.
        -12    1    1    2    0    0  0.33431525335E+00 -0.38437475469E+02  0.13251961327E+02  0.40659141237E+02  0.00000000000E+00 0.  1.
         11    1    3    3    0    0  0.32749361869E+01  0.95529365336E+01 -0.13871485710E+02  0.17158144408E+02  0.51100000000E-03 0. -1.
        -11    1    3    3    0    0  0.32387682493E+01  0.14366778288E+02  0.67338943063E+01  0.16193803473E+02  0.51100000000E-03 0.  1.
        -12    1    3    3    0    0 -0.68480196895E+01  0.14517760648E+02 -0.61143699224E+01  0.17176910882E+02  0.00000000000E+00 0.  1.
</event>
<event>
 7    1  0.1023000E-012  0.5052886E+02  0.7816164E-02  0.1300439E+00
        -11   -1    0    0    0    0  0.00000000000E+00  0.00000000000E+00  0.45593999997E+02  0.45594000000E+02  0.51100000000E-03 0.  1.
         11   -1    0    0    0    0 -0.00000000000E+00 -0.00000000000E+00 -0.45593999997E+02  0.45594000000E+02  0.51100000000E-03 0. -1.
    9900012    2    1    2    0    0  0.14336770944E+02 -0.27273423403E+02 -0.26528915067E+02  0.50528856381E+02  0.29999989455E+02 0.  0.
        -12    1    1    2    0    0 -0.14336770944E+02  0.27273423403E+02  0.26528915067E+02  0.40659143619E+02  0.00000000000E+00 0.  1.
         11    1    3    3    0    0  0.19429984512E+02 -0.12961371122E+02 -0.10888799298E+02  0.25769893091E+02  0.51100000000E-03 0. -1.
        -11    1    3    3    0    0 -0.46528133104E+01 -0.13518466545E+02 -0.67279894331E+01  0.15800742119E+02  0.51100000000E-03 0.  1.
         12    1    3    3    0    0 -0.44040025804E+00 -0.79358573576E+00 -0.89121263367E+01  0.89582211710E+01  0.00000000000E+00 0. -1.
</event>
<event>
 7    1  0.1023000E-012  0.5052886E+02  0.7816164E-02  0.1300439E+00
        -11   -1    0    0    0    0  0.00000000000E+00  0.00000000000E+00  0.45593999997E+02  0.45594000000E+02  0.51100000000E-03 0.  1.
         11   -1    0    0    0    0 -0.00000000000E+00 -0.00000000000E+00 -0.45593999997E+02  0.45594000000E+02  0.51100000000E-03 0. -1.
    9900012    2    1    2    0    0  0.36571387417E+02  0.92940145728E+01 -0.15143336498E+02  0.50528859271E+02  0.29999998241E+02 0.  0.
        -12    1    1    2    0    0 -0.36571387417E+02 -0.92940145728E+01  0.15143336498E+02  0.40659140729E+02  0.00000000000E+00 0.  1.
         11    1    3    3    0    0  0.24417396215E+02  0.71870167054E+01 -0.24186680087E+02  0.35112076853E+02  0.51100000000E-03 0. -1.
        -11    1    3    3    0    0  0.64387062403E+01  0.74192045116E+00  0.58401250101E+01  0.87243592544E+01  0.51100000000E-03 0.  1.
        -12    1    3    3    0    0  0.57152849621E+01  0.13650774163E+01  0.32032185785E+01  0.66924231644E+01  0.00000000000E+00 0.  1.
</event>
<event>
 7    1  0.1023000E-012  0.5052884E+02  0.7816164E-02  0.1300439E+00
        -11   -1    0    0    0    0  0.00000000000E+00  0.00000000000E+00  0.45593999997E+02  0.45594000000E+02  0.51100000000E-03 0. -1.
         11   -1    0    0    0    0 -0.00000000000E+00 -0.00000000000E+00 -0.45593999997E+02  0.45594000000E+02  0.51100000000E-03 0.  1.
    9900012    2    1    2    0    0  0.62990625475E+01  0.24833560831E+02  0.31571871291E+02  0.50528843720E+02  0.29999950972E+02 0.  0.
        -12    1    1    2    0    0 -0.62990625475E+01 -0.24833560831E+02 -0.31571871291E+02  0.40659156280E+02  0.00000000000E+00 0.  1.
         11    1    3    3    0    0 -0.80290825960E+01  0.91554971824E+01  0.14206206825E+02  0.18711109230E+02  0.51100000000E-03 0. -1.
        -11    1    3    3    0    0  0.13480339556E+02  0.17798631781E+02  0.10675038028E+02  0.24748076390E+02  0.51100000000E-03 0.  1.
         12    1    3    3    0    0  0.84780558731E+00 -0.21205681327E+01  0.66906264387E+01  0.70696581008E+01  0.00000000000E+00 0. -1.
</event>
<event>
 7    1  0.1023000E-012  0.5052885E+02  0.7816164E-02  0.1300439E+00
        -11   -1    0    0    0    0  0.00000000000E+00  0.00000000000E+00  0.45593999997E+02  0.45594000000E+02  0.51100000000E-03 0. -1.
         11   -1    0    0    0    0 -0.00000000000E+00 -0.00000000000E+00 -0.45593999997E+02  0.45594000000E+02  0.51100000000E-03 0.  1.
    9900012    2    1    2    0    0 -0.13558952154E+02  0.38284622559E+02  0.18996894580E+01  0.50528851853E+02  0.29999975693E+02 0.  0.
        -12    1    1    2    0    0  0.13558952154E+02 -0.38284622559E+02 -0.18996894580E+01  0.40659148147E+02  0.00000000000E+00 0.  1.
         11    1    3    3    0    0  0.19215141623E+01  0.58103628455E+01  0.28240234368E+01  0.67400030939E+01  0.51100000000E-03 0. -1.
        -11    1    3    3    0    0 -0.18011034262E+02  0.14795644233E+02 -0.79068282724E+01  0.24613540522E+02  0.51100000000E-03 0.  1.
        -12    1    3    3    0    0  0.25305679456E+01  0.17678615480E+02  0.69824942936E+01  0.19175308237E+02  0.00000000000E+00 0.  1.
</event>
<event>
 7    1  0.1023000E-012  0.5052887E+02  0.7816164E-02  0.1300439E+00
        -11   -1    0    0    0    0  0.00000000000E+00  0.00000000000E+00  0.45593999997E+02  0.45594000000E+02  0.51100000000E-03 0.  1.
         11   -1    0    0    0    0 -0.00000000000E+00 -0.00000000000E+00 -0.45593999997E+02  0.45594000000E+02  0.51100000000E-03 0. -1.
    9900012    2    1    2    0    0  0.32975649856E+01 -0.27355308670E+02 -0.29899461108E+02  0.50528872835E+02  0.30000039469E+02 0.  0.
        -12    1    1    2    0    0 -0.32975649856E+01  0.27355308670E+02  0.29899461108E+02  0.40659127165E+02  0.00000000000E+00 0.  1.
         11    1    3    3    0    0 -0.70368147250E+01 -0.10057213156E+02 -0.87602780222E+01  0.15080012242E+02  0.51100000000E-03 0. -1.
        -11    1    3    3    0    0  0.10534878398E+02 -0.51565835447E+01 -0.79488543100E+00  0.11756098835E+02  0.51100000000E-03 0.  1.
        -12    1    3    3    0    0 -0.20049868727E+00 -0.12141511970E+02 -0.20344297655E+02  0.23692761758E+02  0.00000000000E+00 0.  1.
</event>
<event>
 7    1  0.1023000E-012  0.5052886E+02  0.7816164E-02  0.1300439E+00
        -11   -1    0    0    0    0  0.00000000000E+00  0.00000000000E+00  0.45593999997E+02  0.45594000000E+02  0.51100000000E-03 0.  1.
         11   -1    0    0    0    0 -0.00000000000E+00 -0.00000000000E+00 -0.45593999997E+02  0.45594000000E+02  0.51100000000E-03 0. -1.
    9900012    2    1    2    0    0 -0.25863539765E+02 -0.30979401979E+02 -0.49517063541E+01  0.50528862873E+02  0.30000009188E+02 0.  0.
        -12    1    1    2    0    0  0.25863539765E+02  0.30979401979E+02  0.49517063541E+01  0.40659137127E+02  0.00000000000E+00 0.  1.
         11    1    3    3    0    0 -0.13394242002E+02 -0.20444916880E+02 -0.28705696746E+01  0.24609764638E+02  0.51100000000E-03 0. -1.
        -11    1    3    3    0    0  0.37073643984E+01  0.15500574804E+01 -0.39575790886E+01  0.56400054502E+01  0.51100000000E-03 0.  1.
        -12    1    3    3    0    0 -0.16176662162E+02 -0.12084542579E+02  0.18764424091E+01  0.20279092784E+02  0.00000000000E+00 0.  1.
</event>
<event>
 7    1  0.1023000E-012  0.5052887E+02  0.7816164E-02  0.1300439E+00
        -11   -1    0    0    0    0  0.00000000000E+00  0.00000000000E+00  0.45593999997E+02  0.45594000000E+02  0.51100000000E-03 0.  1.
         11   -1    0    0    0    0 -0.00000000000E+00 -0.00000000000E+00 -0.45593999997E+02  0.45594000000E+02  0.51100000000E-03 0. -1.
    9900012    2    1    2    0    0  0.12832454237E+01 -0.23267326608E+02 -0.33318913802E+02  0.50528865439E+02  0.30000016989E+02 0.  0.
        -12    1    1    2    0    0 -0.12832454237E+01  0.23267326608E+02  0.33318913802E+02  0.40659134561E+02  0.00000000000E+00 0.  1.
         11    1    3    3    0    0 -0.35150355046E+00 -0.47780726919E+01  0.38266793115E+01  0.61316399282E+01  0.51100000000E-03 0.  1.
        -11    1    3    3    0    0 -0.67389431284E+01 -0.90953289547E+01 -0.13555422871E+02  0.17660346904E+02  0.51100000000E-03 0. -1.
         12    1    3    3    0    0  0.83736921025E+01 -0.93939249612E+01 -0.23590170242E+02  0.26736878607E+02  0.00000000000E+00 0. -1.
</event>
<event>
 7    1  0.1023000E-012  0.5052885E+02  0.7816164E-02  0.1300439E+00
        -11   -1    0    0    0    0  0.00000000000E+00  0.00000000000E+00  0.45593999997E+02  0.45594000000E+02  0.51100000000E-03 0. -1.
         11   -1    0    0    0    0 -0.00000000000E+00 -0.00000000000E+00 -0.45593999997E+02  0.45594000000E+02  0.51100000000E-03 0.  1.
    9900012    2    1    2    0    0  0.15137743485E+02  0.15936691641E+02  0.34205801691E+02  0.50528852350E+02  0.29999977203E+02 0.  0.
        -12    1    1    2    0    0 -0.15137743485E+02 -0.15936691641E+02 -0.34205801691E+02  0.40659147650E+02  0.00000000000E+00 0.  1.
         11    1    3    3    0    0  0.19890437989E+02  0.78011833212E+01  0.28769290541E+02  0.35835179128E+02  0.51100000000E-03 0. -1.
        -11    1    3    3    0    0 -0.32349321266E+01  0.10129332154E+02  0.26748230015E+01  0.10964617371E+02  0.51100000000E-03 0.  1.
        -12    1    3    3    0    0 -0.15177623773E+01 -0.19938238337E+01  0.27616881482E+01  0.37290558512E+01  0.00000000000E+00 0.  1.
</event>
<event>
 7    1  0.1023000E-012  0.5052886E+02  0.7816164E-02  0.1300439E+00
        -11   -1    0    0    0    0  0.00000000000E+00  0.00000000000E+00  0.45593999997E+02  0.45594000000E+02  0.51100000000E-03 0. -1.
         11   -1    0    0    0    0 -0.00000000000E+00 -0.00000000000E+00 -0.45593999997E+02  0.45594000000E+02  0.51100000000E-03 0.  1.
    9900012    2    1    2    0    0 -0.31494177100E+02  0.46091125206E+01  0.25298989757E+02  0.50528855984E+02  0.29999988248E+02 0.  0.
        -12    1    1    2    0    0  0.31494177100E+02 -0.46091125206E+01 -0.25298989757E+02  0.40659144016E+02  0.00000000000E+00 0.  1.
         11    1    3    3    0    0 -0.96718005324E+01  0.18348336339E+01  0.71691818429E+01  0.12178157026E+02  0.51100000000E-03 0. -1.
        -11    1    3    3    0    0  0.42169937561E+01 -0.50497213134E+01  0.29402586892E+01  0.72060976334E+01  0.51100000000E-03 0.  1.
        -12    1    3    3    0    0 -0.26039370324E+02  0.78240002001E+01  0.15189549224E+02  0.31144601324E+02  0.00000000000E+00 0.  1.
</event>
<event>
 7    1  0.1023000E-012  0.5052884E+02  0.7816164E-02  0.1300439E+00
        -11   -1    0    0    0    0  0.00000000000E+00  0.00000000000E+00  0.45593999997E+02  0.45594000000E+02  0.51100000000E-03 0.  1.
         11   -1    0    0    0    0 -0.00000000000E+00 -0.00000000000E+00 -0.45593999997E+02  0.45594000000E+02  0.51100000000E-03 0. -1.
    9900012    2    1    2    0    0 -0.26416046731E+02  0.83518084964E+01 -0.29759145105E+02  0.50528844236E+02  0.29999952541E+02 0.  0.
        -12    1    1    2    0    0  0.26416046731E+02 -0.83518084964E+01  0.29759145105E+02  0.40659155764E+02  0.00000000000E+00 0.  1.
         11    1    3    3    0    0 -0.21095724264E+02  0.12387570340E+02 -0.52085303816E+01  0.25012202425E+02  0.51100000000E-03 0. -1.
        -11    1    3    3    0    0 -0.29473095128E+01 -0.19222298160E+01 -0.16294003858E+02  0.16669617957E+02  0.51100000000E-03 0.  1.
         12    1    3    3    0    0 -0.23730129539E+01 -0.21135320275E+01 -0.82566108648E+01  0.88470238546E+01  0.00000000000E+00 0. -1.
</event>
<event>
 7    1  0.1023000E-012  0.5052885E+02  0.7816164E-02  0.1300439E+00
        -11   -1    0    0    0    0  0.00000000000E+00  0.00000000000E+00  0.45593999997E+02  0.45594000000E+02  0.51100000000E-03 0.  1.
         11   -1    0    0    0    0 -0.00000000000E+00 -0.00000000000E+00 -0.45593999997E+02  0.45594000000E+02  0.51100000000E-03 0. -1.
    9900012    2    1    2    0    0  0.15197466940E+02 -0.12440910834E+02 -0.35600938633E+02  0.50528854715E+02  0.29999984392E+02 0.  0.
        -12    1    1    2    0    0 -0.15197466940E+02  0.12440910834E+02  0.35600938633E+02  0.40659145285E+02  0.00000000000E+00 0.  1.
         11    1    3    3    0    0  0.28574045907E+01 -0.12612076400E+02 -0.47425697387E+01  0.13773931904E+02  0.51100000000E-03 0.  1.
        -11    1    3    3    0    0  0.12471707426E+02 -0.56898306651E+01 -0.24721879103E+02  0.28268161697E+02  0.51100000000E-03 0. -1.
         12    1    3    3    0    0 -0.13164507662E+00  0.58609962309E+01 -0.61364897913E+01  0.84867611138E+01  0.00000000000E+00 0. -1.
</event>
<event>
 7    1  0.1023000E-012  0.5052886E+02  0.7816164E-02  0.1300439E+00
        -11   -1    0    0    0    0  0.00000000000E+00  0.00000000000E+00  0.45593999997E+02  0.45594000000E+02  0.51100000000E-03 0.  1.
         11   -1    0    0    0    0 -0.00000000000E+00 -0.00000000000E+00 -0.45593999997E+02  0.45594000000E+02  0.51100000000E-03 0. -1.
    9900012    2    1    2    0    0 -0.34192878471E+02 -0.21405914916E+01 -0.21895905360E+02  0.50528859064E+02  0.29999997611E+02 0.  0.
        -12    1    1    2    0    0  0.34192878471E+02  0.21405914916E+01  0.21895905360E+02  0.40659140936E+02  0.00000000000E+00 0.  1.
         11    1    3    3    0    0  0.34194087949E+01  0.25024691560E+01 -0.69255420415E+00  0.42935230255E+01  0.51100000000E-03 0. -1.
        -11    1    3    3    0    0 -0.19542413068E+02 -0.84224109768E+01 -0.54508078152E+01  0.21967116817E+02  0.51100000000E-03 0.  1.
         12    1    3    3    0    0 -0.18069874199E+02  0.37793503291E+01 -0.15752543341E+02  0.24268219221E+02  0.00000000000E+00 0. -1.
</event>
<event>
 7    1  0.1023000E-012  0.5052886E+02  0.7816164E-02  0.1300439E+00
        -11   -1    0    0    0    0  0.00000000000E+00  0.00000000000E+00  0.45593999997E+02  0.45594000000E+02  0.51100000000E-03 0. -1.
         11   -1    0    0    0    0 -0.00000000000E+00 -0.00000000000E+00 -0.45593999997E+02  0.45594000000E+02  0.51100000000E-03 0.  1.
    9900012    2    1    2    0    0 -0.14786599299E+02  0.46700073942E+01  0.37586078613E+02  0.50528858427E+02  0.29999995676E+02 0.  0.
        -12    1    1    2    0    0  0.14786599299E+02 -0.46700073942E+01 -0.37586078613E+02  0.40659141573E+02  0.00000000000E+00 0.  1.
         11    1    3    3    0    0  0.50532518398E+01  0.36729577373E+01  0.20024945363E+02  0.20976758800E+02  0.51100000000E-03 0. -1.
        -11    1    3    3    0    0 -0.16563549378E+02 -0.43842372114E+01  0.10528917030E+02  0.20110464888E+02  0.51100000000E-03 0.  1.
        -12    1    3    3    0    0 -0.32763017607E+01  0.53812868684E+01  0.70322162205E+01  0.94416347397E+01  0.00000000000E+00 0.  1.
</event>
<event>
 7    1  0.1023000E-012  0.5052886E+02  0.7816164E-02  0.1300439E+00
        -11   -1    0    0    0    0  0.00000000000E+00  0.00000000000E+00  0.45593999997E+02  0.45594000000E+02  0.51100000000E-03 0.  1.
         11   -1    0    0    0    0 -0.00000000000E+00 -0.00000000000E+00 -0.45593999997E+02  0.45594000000E+02  0.51100000000E-03 0. -1.
    9900012    2    1    2    0    0 -0.32003806168E+02  0.24323598010E+02 -0.61061104744E+01  0.50528860628E+02  0.30000002364E+02 0.  0.
        -12    1    1    2    0    0  0.32003806168E+02 -0.24323598010E+02  0.61061104744E+01  0.40659139372E+02  0.00000000000E+00 0.  1.
         11    1    3    3    0    0 -0.18534454538E+02  0.99801004443E+01  0.17765924125E+01  0.21125451255E+02  0.51100000000E-03 0. -1.
        -11    1    3    3    0    0 -0.55186291571E+01  0.14099454884E+02 -0.12990659023E+02  0.19950115737E+02  0.51100000000E-03 0.  1.
        -12    1    3    3    0    0 -0.79507224730E+01  0.24404268150E+00  0.51079561362E+01  0.94532936356E+01  0.00000000000E+00 0.  1.
</event>
<event>
 7    1  0.1023000E-012  0.5052895E+02  0.7816164E-02  0.1300438E+00
        -11   -1    0    0    0    0  0.00000000000E+00  0.00000000000E+00  0.45593999997E+02  0.45594000000E+02  0.51100000000E-03 0. -1.
         11   -1    0    0    0    0 -0.00000000000E+00 -0.00000000000E+00 -0.45593999997E+02  0.45594000000E+02  0.51100000000E-03 0.  1.
    9900012    2    1    2    0    0  0.97696527651E+00 -0.29040155401E+01  0.40543445057E+02  0.50528945603E+02  0.30000260652E+02 0.  0.
        -12    1    1    2    0    0 -0.97696527651E+00  0.29040155401E+01 -0.40543445057E+02  0.40659054397E+02  0.00000000000E+00 0.  1.
         11    1    3    3    0    0 -0.97524761941E+01 -0.84114435307E+01  0.18834217937E+02  0.22816462034E+02  0.51100000000E-03 0. -1.
        -11    1    3    3    0    0  0.56773465741E+00  0.61351355336E+01  0.41942792821E+01  0.74534682943E+01  0.51100000000E-03 0.  1.
         12    1    3    3    0    0  0.10161706813E+02 -0.62770754307E+00  0.17514947838E+02  0.20259015274E+02  0.00000000000E+00 0. -1.
</event>
<event>
 7    1  0.1023000E-012  0.5052888E+02  0.7816164E-02  0.1300439E+00
        -11   -1    0    0    0    0  0.00000000000E+00  0.00000000000E+00  0.45593999997E+02  0.45594000000E+02  0.51100000000E-03 0.  1.
         11   -1    0    0    0    0 -0.00000000000E+00 -0.00000000000E+00 -0.45593999997E+02  0.45594000000E+02  0.51100000000E-03 0. -1.
    9900012    2    1    2    0    0  0.16672835798E+01  0.31195902503E+02 -0.26023060434E+02  0.50528882426E+02  0.30000068623E+02 0.  0.
        -12    1    1    2    0    0 -0.16672835798E+01 -0.31195902503E+02  0.26023060434E+02  0.40659117574E+02  0.00000000000E+00 0.  1.
         11    1    3    3    0    0  0.22851735531E+01  0.53750633124E+01 -0.20663382558E+02  0.21472976105E+02  0.51100000000E-03 0. -1.
        -11    1    3    3    0    0  0.29755771329E+01  0.24366913519E+02 -0.55766273166E+01  0.25173384877E+02  0.51100000000E-03 0.  1.
         12    1    3    3    0    0 -0.35934671063E+01  0.14539256718E+01  0.21694944053E+00  0.38825214440E+01  0.00000000000E+00 0. -1.
</event>
<event>
 7    1  0.1023000E-012  0.5052887E+02  0.7816164E-02  0.1300439E+00
        -11   -1    0    0    0    0  0.00000000000E+00  0.00000000000E+00  0.45593999997E+02  0.45594000000E+02  0.51100000000E-03 0.  1.
         11   -1    0    0    0    0 -0.00000000000E+00 -0.00000000000E+00 -0.45593999997E+02  0.45594000000E+02  0.51100000000E-03 0. -1.
    9900012    2    1    2    0    0  0.40530869632E+02  0.17639781904E+01  0.27022427020E+01  0.50528866613E+02  0.30000020557E+02 0.  0.
        -12    1    1    2    0    0 -0.40530869632E+02 -0.17639781904E+01 -0.27022427020E+01  0.40659133387E+02  0.00000000000E+00 0.  1.
         11    1    3    3    0    0 -0.28188294622E+01  0.59846219176E+01 -0.11589280451E+01  0.67159968365E+01  0.51100000000E-03 0. -1.
        -11    1    3    3    0    0  0.25211529978E+02 -0.11484803911E+01  0.18132899853E+01  0.25302732498E+02  0.51100000000E-03 0.  1.
         12    1    3    3    0    0  0.18138169117E+02 -0.30721633361E+01  0.20478807619E+01  0.18510137279E+02  0.00000000000E+00 0. -1.
</event>
<event>
 7    1  0.1023000E-012  0.5052877E+02  0.7816164E-02  0.1300439E+00
        -11   -1    0    0    0    0  0.00000000000E+00  0.00000000000E+00  0.45593999997E+02  0.45594000000E+02  0.51100000000E-03 0. -1.
         11   -1    0    0    0    0 -0.00000000000E+00 -0.00000000000E+00 -0.45593999997E+02  0.45594000000E+02  0.51100000000E-03 0.  1.
    9900012    2    1    2    0    0  0.10624651707E+02  0.17311412076E+02  0.35222217617E+02  0.50528771948E+02  0.29999732811E+02 0.  0.
        -12    1    1    2    0    0 -0.10624651707E+02 -0.17311412076E+02 -0.35222217617E+02  0.40659228052E+02  0.00000000000E+00 0.  1.
         11    1    3    3    0    0  0.10129649870E+02  0.19055444051E+02  0.34206081164E+02  0.40444724542E+02  0.51100000000E-03 0. -1.
        -11    1    3    3    0    0  0.16910848014E-01 -0.57418193817E+01  0.17260501766E+01  0.59956672074E+01  0.51100000000E-03 0.  1.
         12    1    3    3    0    0  0.47809098827E+00  0.39977874074E+01 -0.70991372381E+00  0.40883801980E+01  0.00000000000E+00 0. -1.
</event>
<event>
 7    1  0.1023000E-012  0.5052883E+02  0.7816164E-02  0.1300439E+00
        -11   -1    0    0    0    0  0.00000000000E+00  0.00000000000E+00  0.45593999997E+02  0.45594000000E+02  0.51100000000E-03 0. -1.
         11   -1    0    0    0    0 -0.00000000000E+00 -0.00000000000E+00 -0.45593999997E+02  0.45594000000E+02  0.51100000000E-03 0.  1.
    9900012    2    1    2    0    0 -0.15444334648E+02  0.27706653215E+02  0.25435836654E+02  0.50528832628E+02  0.29999917255E+02 0.  0.
        -12    1    1    2    0    0  0.15444334648E+02 -0.27706653215E+02 -0.25435836654E+02  0.40659167372E+02  0.00000000000E+00 0.  1.
         11    1    3    3    0    0 -0.18805198274E+01 -0.41359323146E+00  0.64545026568E+01  0.67355785936E+01  0.51100000000E-03 0. -1.
        -11    1    3    3    0    0 -0.73959729346E+01  0.28117023463E+02  0.22435961581E+02  0.36723831451E+02  0.51100000000E-03 0.  1.
        -12    1    3    3    0    0 -0.61678418863E+01  0.32229834580E-02 -0.34546275836E+01  0.70694225835E+01  0.00000000000E+00 0.  1.
</event>
<event>
 7    1  0.1023000E-012  0.5052886E+02  0.7816164E-02  0.1300439E+00
        -11   -1    0    0    0    0  0.00000000000E+00  0.00000000000E+00  0.45593999997E+02  0.45594000000E+02  0.51100000000E-03 0.  1.
         11   -1    0    0    0    0 -0.00000000000E+00 -0.00000000000E+00 -0.45593999997E+02  0.45594000000E+02  0.51100000000E-03 0. -1.
    9900012    2    1    2    0    0 -0.17489466959E+02 -0.16855995952E+02 -0.32606125066E+02  0.50528862702E+02  0.30000008668E+02 0.  0.
        -12    1    1    2    0    0  0.17489466959E+02  0.16855995952E+02  0.32606125066E+02  0.40659137298E+02  0.00000000000E+00 0.  1.
         11    1    3    3    0    0 -0.17566220750E+02 -0.44623701674E+01 -0.30849573148E+02  0.35779617419E+02  0.51100000000E-03 0. -1.
        -11    1    3    3    0    0  0.16790999479E+01 -0.47285600754E+00  0.14863514336E+01  0.22917701203E+01  0.51100000000E-03 0.  1.
         12    1    3    3    0    0 -0.16023461567E+01 -0.11920769777E+02 -0.32429033515E+01  0.12457475162E+02  0.00000000000E+00 0. -1.
</event>
<event>
 7    1  0.1023000E-012  0.5052888E+02  0.7816164E-02  0.1300439E+00
        -11   -1    0    0    0    0  0.00000000000E+00  0.00000000000E+00  0.45593999997E+02  0.45594000000E+02  0.51100000000E-03 0. -1.
         11   -1    0    0    0    0 -0.00000000000E+00 -0.00000000000E+00 -0.45593999997E+02  0.45594000000E+02  0.51100000000E-03 0.  1.
    9900012    2    1    2    0    0  0.20382517134E+02 -0.34879258241E+02 -0.45993997687E+01  0.50528878780E+02  0.30000057540E+02 0.  0.
        -12    1    1    2    0    0 -0.20382517134E+02  0.34879258241E+02  0.45993997687E+01  0.40659121220E+02  0.00000000000E+00 0.  1.
         11    1    3    3    0    0  0.11779183152E+02 -0.32020486934E+02 -0.99811156274E+01  0.35548324976E+02  0.51100000000E-03 0. -1.
        -11    1    3    3    0    0  0.39190036510E+01 -0.46393406454E+01 -0.16986703910E+01  0.63061519645E+01  0.51100000000E-03 0.  1.
         12    1    3    3    0    0  0.46843303311E+01  0.17805693383E+01  0.70803862497E+01  0.86744018390E+01  0.00000000000E+00 0. -1.
</event>
<event>
 7    1  0.1023000E-012  0.5052884E+02  0.7816164E-02  0.1300439E+00
        -11   -1    0    0    0    0  0.00000000000E+00  0.00000000000E+00  0.45593999997E+02  0.45594000000E+02  0.51100000000E-03 0.  1.
         11   -1    0    0    0    0 -0.00000000000E+00 -0.00000000000E+00 -0.45593999997E+02  0.45594000000E+02  0.51100000000E-03 0. -1.
    9900012    2    1    2    0    0  0.42229282133E+01  0.79748627945E+01 -0.39645120075E+02  0.50528842298E+02  0.29999946649E+02 0.  0.
        -12    1    1    2    0    0 -0.42229282133E+01 -0.79748627945E+01  0.39645120075E+02  0.40659157702E+02  0.00000000000E+00 0.  1.
         11    1    3    3    0    0 -0.14785735990E+01  0.16887518071E+02 -0.15189707597E+02  0.22761846666E+02  0.51100000000E-03 0. -1.
        -11    1    3    3    0    0  0.28229746039E+01 -0.97186674913E+01 -0.17917060540E+02  0.20577724415E+02  0.51100000000E-03 0.  1.
        -12    1    3    3    0    0  0.28785272084E+01  0.80601221473E+00 -0.65383519378E+01  0.71892712177E+01  0.00000000000E+00 0.  1.
</event>
<event>
 7    1  0.1023000E-012  0.5052886E+02  0.7816164E-02  0.1300439E+00
        -11   -1    0    0    0    0  0.00000000000E+00  0.00000000000E+00  0.45593999997E+02  0.45594000000E+02  0.51100000000E-03 0.  1.
         11   -1    0    0    0    0 -0.00000000000E+00 -0.00000000000E+00 -0.45593999997E+02  0.45594000000E+02  0.51100000000E-03 0. -1.
    9900012    2    1    2    0    0  0.40340443155E+02 -0.17691685484E+01  0.47627847980E+01  0.50528862893E+02  0.30000009249E+02 0.  0.
        -12    1    1    2    0    0 -0.40340443155E+02  0.17691685484E+01 -0.47627847980E+01  0.40659137107E+02  0.00000000000E+00 0.  1.
         11    1    3    3    0    0  0.15254450297E+02  0.10274532866E+02 -0.36741998225E+01  0.18755373205E+02  0.51100000000E-03 0. -1.
        -11    1    3    3    0    0  0.14818689685E+02 -0.11459634127E+02  0.10215189114E+02  0.21336983555E+02  0.51100000000E-03 0.  1.
         12    1    3    3    0    0  0.10267303173E+02 -0.58406728690E+00 -0.17782044939E+01  0.10436506133E+02  0.00000000000E+00 0. -1.
</event>
<event>
 7    1  0.1023000E-012  0.5052886E+02  0.7816164E-02  0.1300439E+00
        -11   -1    0    0    0    0  0.00000000000E+00  0.00000000000E+00  0.45593999997E+02  0.45594000000E+02  0.51100000000E-03 0.  1.
         11   -1    0    0    0    0 -0.00000000000E+00 -0.00000000000E+00 -0.45593999997E+02  0.45594000000E+02  0.51100000000E-03 0. -1.
    9900012    2    1    2    0    0 -0.10591643121E+02 -0.39178051038E+02 -0.24622701809E+01  0.50528863738E+02  0.30000011819E+02 0.  0.
        -12    1    1    2    0    0  0.10591643121E+02  0.39178051038E+02  0.24622701809E+01  0.40659136262E+02  0.00000000000E+00 0.  1.
         11    1    3    3    0    0 -0.95469945407E+01 -0.36635507990E+02 -0.10211432908E+02  0.39211974098E+02  0.51100000000E-03 0. -1.
        -11    1    3    3    0    0  0.16400534747E+01 -0.43863760989E+01  0.60276993455E+01  0.76330354605E+01  0.51100000000E-03 0.  1.
         12    1    3    3    0    0 -0.26847020547E+01  0.18438330506E+01  0.17214633812E+01  0.36838541792E+01  0.00000000000E+00 0. -1.
</event>
<event>
 7    1  0.1023000E-012  0.5052886E+02  0.7816164E-02  0.1300439E+00
        -11   -1    0    0    0    0  0.00000000000E+00  0.00000000000E+00  0.45593999997E+02  0.45594000000E+02  0.51100000000E-03 0. -1.
         11   -1    0    0    0    0 -0.00000000000E+00 -0.00000000000E+00 -0.45593999997E+02  0.45594000000E+02  0.51100000000E-03 0.  1.
    9900012    2    1    2    0    0 -0.25006721955E+02  0.27667295867E+02  0.16197224061E+02  0.50528862394E+02  0.30000007734E+02 0.  0.
        -12    1    1    2    0    0  0.25006721955E+02 -0.27667295867E+02 -0.16197224061E+02  0.40659137606E+02  0.00000000000E+00 0.  1.
         11    1    3    3    0    0  0.50309968189E+00 -0.68284226654E+00  0.10581900082E+02  0.10615836870E+02  0.51100000000E-03 0. -1.
        -11    1    3    3    0    0 -0.60672514800E+01  0.12523367298E+02 -0.11006187932E+01  0.13959141485E+02  0.51100000000E-03 0.  1.
         12    1    3    3    0    0 -0.19442570157E+02  0.15826770835E+02  0.67159427725E+01  0.25953884039E+02  0.00000000000E+00 0. -1.
</event>
<event>
 7    1  0.1023000E-012  0.5052886E+02  0.7816164E-02  0.1300439E+00
        -11   -1    0    0    0    0  0.00000000000E+00  0.00000000000E+00  0.45593999997E+02  0.45594000000E+02  0.51100000000E-03 0.  1.
         11   -1    0    0    0    0 -0.00000000000E+00 -0.00000000000E+00 -0.45593999997E+02  0.45594000000E+02  0.51100000000E-03 0. -1.
    9900012    2    1    2    0    0  0.19572836893E+02 -0.18320233885E+02 -0.30568587174E+02  0.50528862829E+02  0.30000009056E+02 0.  0.
        -12    1    1    2    0    0 -0.19572836893E+02  0.18320233885E+02  0.30568587174E+02  0.40659137171E+02  0.00000000000E+00 0.  1.
         11    1    3    3    0    0  0.16609266276E+01  0.69897506131E+00 -0.12579004957E+02  0.12707423396E+02  0.51100000000E-03 0. -1.
        -11    1    3    3    0    0  0.18290695730E+02 -0.19800481515E+02 -0.84595669779E+01  0.28251953777E+02  0.51100000000E-03 0.  1.
        -12    1    3    3    0    0 -0.37878546484E+00  0.78127256919E+00 -0.95300152393E+01  0.95694856558E+01  0.00000000000E+00 0.  1.
</event>
<event>
 7    1  0.1023000E-012  0.5052886E+02  0.7816164E-02  0.1300439E+00
        -11   -1    0    0    0    0  0.00000000000E+00  0.00000000000E+00  0.45593999997E+02  0.45594000000E+02  0.51100000000E-03 0.  1.
         11   -1    0    0    0    0 -0.00000000000E+00 -0.00000000000E+00 -0.45593999997E+02  0.45594000000E+02  0.51100000000E-03 0. -1.
    9900012    2    1    2    0    0  0.30129515456E+01 -0.39636869595E+02 -0.85443716328E+01  0.50528860869E+02  0.30000003098E+02 0.  0.
        -12    1    1    2    0    0 -0.30129515456E+01  0.39636869595E+02  0.85443716328E+01  0.40659139131E+02  0.00000000000E+00 0.  1.
         11    1    3    3    0    0 -0.30036184758E+00 -0.30972431015E+02 -0.93702457656E+01  0.32360210230E+02  0.51100000000E-03 0. -1.
        -11    1    3    3    0    0  0.28526998970E+01  0.90540686159E+00 -0.57952556707E+01  0.65224724482E+01  0.51100000000E-03 0.  1.
         12    1    3    3    0    0  0.46061349620E+00 -0.95698454415E+01  0.66211298035E+01  0.11646178190E+02  0.00000000000E+00 0. -1.
</event>
<event>
 7    1  0.1023000E-012  0.5052887E+02  0.7816164E-02  0.1300439E+00
        -11   -1    0    0    0    0  0.00000000000E+00  0.00000000000E+00  0.45593999997E+02  0.45594000000E+02  0.51100000000E-03 0. -1.
         11   -1    0    0    0    0 -0.00000000000E+00 -0.00000000000E+00 -0.45593999997E+02  0.45594000000E+02  0.51100000000E-03 0.  1.
    9900012    2    1    2    0    0 -0.14814750936E+02 -0.26154859591E+02  0.27379037360E+02  0.50528865574E+02  0.30000017399E+02 0.  0.
        -12    1    1    2    0    0  0.14814750936E+02  0.26154859591E+02 -0.27379037360E+02  0.40659134426E+02  0.00000000000E+00 0.  1.
         11    1    3    3    0    0 -0.21945428593E+02 -0.21048690170E+02  0.14484648781E+02  0.33681660359E+02  0.51100000000E-03 0. -1.
        -11    1    3    3    0    0  0.33170247010E+01 -0.11608749841E+00  0.11207629218E+01  0.35031755541E+01  0.51100000000E-03 0.  1.
         12    1    3    3    0    0  0.38136529558E+01 -0.49900819225E+01  0.11773625657E+02  0.13344029661E+02  0.00000000000E+00 0. -1.
</event>
<event>
 7    1  0.1023000E-012  0.5052886E+02  0.7816164E-02  0.1300439E+00
        -11   -1    0    0    0    0  0.00000000000E+00  0.00000000000E+00  0.45593999997E+02  0.45594000000E+02  0.51100000000E-03 0. -1.
         11   -1    0    0    0    0 -0.00000000000E+00 -0.00000000000E+00 -0.45593999997E+02  0.45594000000E+02  0.51100000000E-03 0.  1.
    9900012    2    1    2    0    0 -0.24295989230E+02 -0.25700848291E+02  0.20058329630E+02  0.50528864703E+02  0.30000014751E+02 0.  0.
        -12    1    1    2    0    0  0.24295989230E+02  0.25700848291E+02 -0.20058329630E+02  0.40659135297E+02  0.00000000000E+00 0.  1.
         11    1    3    3    0    0 -0.17015424418E+02 -0.18271131079E+02  0.23424651408E+02  0.34235554514E+02  0.51100000000E-03 0. -1.
        -11    1    3    3    0    0 -0.63257738574E+01 -0.98310054351E+01 -0.55212299127E+01  0.12928575435E+02  0.51100000000E-03 0.  1.
         12    1    3    3    0    0 -0.95479095421E+00  0.24012882229E+01  0.21549081347E+01  0.33647347540E+01  0.00000000000E+00 0. -1.
</event>
<event>
 7    1  0.1023000E-012  0.5052886E+02  0.7816164E-02  0.1300439E+00
        -11   -1    0    0    0    0  0.00000000000E+00  0.00000000000E+00  0.45593999997E+02  0.45594000000E+02  0.51100000000E-03 0. -1.
         11   -1    0    0    0    0 -0.00000000000E+00 -0.00000000000E+00 -0.45593999997E+02  0.45594000000E+02  0.51100000000E-03 0.  1.
    9900012    2    1    2    0    0  0.20251944771E+02  0.30044283271E+02  0.18448988599E+02  0.50528863209E+02  0.30000010210E+02 0.  0.
        -12    1    1    2    0    0 -0.20251944771E+02 -0.30044283271E+02 -0.18448988599E+02  0.40659136791E+02  0.00000000000E+00 0.  1.
         11    1    3    3    0    0  0.72717892538E+01  0.28770781678E+02  0.15061631238E+02  0.33278965325E+02  0.51100000000E-03 0. -1.
        -11    1    3    3    0    0  0.45225574862E+01 -0.35949779671E+01 -0.19865815900E+01  0.61093288890E+01  0.51100000000E-03 0.  1.
         12    1    3    3    0    0  0.84575980311E+01  0.48684795598E+01  0.53739389506E+01  0.11140568995E+02  0.00000000000E+00 0. -1.
</event>
<event>
 7    1  0.1023000E-012  0.5052884E+02  0.7816164E-02  0.1300439E+00
        -11   -1    0    0    0    0  0.00000000000E+00  0.00000000000E+00  0.45593999997E+02  0.45594000000E+02  0.51100000000E-03 0.  1.
         11   -1    0    0    0    0 -0.00000000000E+00 -0.00000000000E+00 -0.45593999997E+02  0.45594000000E+02  0.51100000000E-03 0. -1.
    9900012    2    1    2    0    0  0.15323817124E+02  0.24160985213E+01 -0.37583375344E+02  0.50528843521E+02  0.29999950367E+02 0.  0.
        -12    1    1    2    0    0 -0.15323817124E+02 -0.24160985213E+01  0.37583375344E+02  0.40659156479E+02  0.00000000000E+00 0.  1.
         11    1    3    3    0    0  0.34175123123E+01  0.59359013899E+01 -0.24229335335E+02  0.25178860314E+02  0.51100000000E-03 0. -1.
        -11    1    3    3    0    0  0.78348426430E+01 -0.21891770404E+01  0.28265738050E+01  0.86120134167E+01  0.51100000000E-03 0.  1.
        -12    1    3    3    0    0  0.40714621685E+01 -0.13306258282E+01 -0.16180613814E+02  0.16737969790E+02  0.00000000000E+00 0.  1.
</event>
<event>
 7    1  0.1023000E-012  0.5052886E+02  0.7816164E-02  0.1300439E+00
        -11   -1    0    0    0    0  0.00000000000E+00  0.00000000000E+00  0.45593999997E+02  0.45594000000E+02  0.51100000000E-03 0.  1.
         11   -1    0    0    0    0 -0.00000000000E+00 -0.00000000000E+00 -0.45593999997E+02  0.45594000000E+02  0.51100000000E-03 0. -1.
    9900012    2    1    2    0    0  0.17096086964E+02 -0.32884290646E+02 -0.16718634255E+02  0.50528862132E+02  0.30000006938E+02 0.  0.
        -12    1    1    2    0    0 -0.17096086964E+02  0.32884290646E+02  0.16718634255E+02  0.40659137868E+02  0.00000000000E+00 0.  1.
         11    1    3    3    0    0  0.12134697423E+02 -0.18286701403E+02 -0.21965540767E+02  0.31050592767E+02  0.51100000000E-03 0. -1.
        -11    1    3    3    0    0 -0.13735052291E+01  0.14077890809E+00  0.29701320581E+01  0.32753656314E+01  0.51100000000E-03 0.  1.
        -12    1    3    3    0    0  0.63348947699E+01 -0.14738368151E+02  0.22767744532E+01  0.16202903734E+02  0.00000000000E+00 0.  1.
</event>
<event>
 7    1  0.1023000E-012  0.5052886E+02  0.7816164E-02  0.1300439E+00
        -11   -1    0    0    0    0  0.00000000000E+00  0.00000000000E+00  0.45593999997E+02  0.45594000000E+02  0.51100000000E-03 0.  1.
         11   -1    0    0    0    0 -0.00000000000E+00 -0.00000000000E+00 -0.45593999997E+02  0.45594000000E+02  0.51100000000E-03 0. -1.
    9900012    2    1    2    0    0  0.18750058678E+02 -0.29972916861E+02 -0.20080474312E+02  0.50528857188E+02  0.29999991910E+02 0.  0.
        -12    1    1    2    0    0 -0.18750058678E+02  0.29972916861E+02  0.20080474312E+02  0.40659142812E+02  0.00000000000E+00 0.  1.
         11    1    3    3    0    0  0.23888795898E+02 -0.29384428954E+02 -0.12074051574E+02  0.39747980528E+02  0.51100000000E-03 0. -1.
        -11    1    3    3    0    0  0.30373547474E+00  0.11498903357E+01 -0.28360903712E+01  0.30753718275E+01  0.51100000000E-03 0.  1.
         12    1    3    3    0    0 -0.54424726945E+01 -0.17383782431E+01 -0.51703323668E+01  0.77055048329E+01  0.00000000000E+00 0. -1.
</event>
<event>
 7    1  0.1023000E-012  0.5052885E+02  0.7816164E-02  0.1300439E+00
        -11   -1    0    0    0    0  0.00000000000E+00  0.00000000000E+00  0.45593999997E+02  0.45594000000E+02  0.51100000000E-03 0. -1.
         11   -1    0    0    0    0 -0.00000000000E+00 -0.00000000000E+00 -0.45593999997E+02  0.45594000000E+02  0.51100000000E-03 0.  1.
    9900012    2    1    2    0    0 -0.17319290355E+02 -0.32998461290E+02 -0.16257614055E+02  0.50528852436E+02  0.29999977464E+02 0.  0.
        -12    1    1    2    0    0  0.17319290355E+02  0.32998461290E+02  0.16257614055E+02  0.40659147564E+02  0.00000000000E+00 0.  1.
         11    1    3    3    0    0  0.72417162785E+01 -0.98846440598E+01 -0.59184419898E+01  0.13607960857E+02  0.51100000000E-03 0. -1.
        -11    1    3    3    0    0 -0.23844915272E+02 -0.22240731700E+02 -0.69379767327E+01  0.33337151232E+02  0.51100000000E-03 0.  1.
        -12    1    3    3    0    0 -0.71609136163E+00 -0.87308552971E+00 -0.34011953323E+01  0.35837403462E+01  0.00000000000E+00 0.  1.
</event>
<event>
 7    1  0.1023000E-012  0.5052888E+02  0.7816164E-02  0.1300439E+00
        -11   -1    0    0    0    0  0.00000000000E+00  0.00000000000E+00  0.45593999997E+02  0.45594000000E+02  0.51100000000E-03 0.  1.
         11   -1    0    0    0    0 -0.00000000000E+00 -0.00000000000E+00 -0.45593999997E+02  0.45594000000E+02  0.51100000000E-03 0. -1.
    9900012    2    1    2    0    0 -0.28006076204E+02 -0.98380321652E+01 -0.27785556840E+02  0.50528876176E+02  0.30000049625E+02 0.  0.
        -12    1    1    2    0    0  0.28006076204E+02  0.98380321652E+01  0.27785556840E+02  0.40659123824E+02  0.00000000000E+00 0.  1.
         11    1    3    3    0    0 -0.18565294459E+02 -0.99478474347E+01 -0.13005176765E+02  0.24754079460E+02  0.51100000000E-03 0. -1.
        -11    1    3    3    0    0  0.13232941330E+01  0.99378844882E+00 -0.14882273908E+02  0.14974004133E+02  0.51100000000E-03 0.  1.
         12    1    3    3    0    0 -0.10764075878E+02 -0.88397317931E+00  0.10189383325E+00  0.10800792584E+02  0.00000000000E+00 0. -1.
</event>
<event>
 7    1  0.1023000E-012  0.5052887E+02  0.7816164E-02  0.1300439E+00
        -11   -1    0    0    0    0  0.00000000000E+00  0.00000000000E+00  0.45593999997E+02  0.45594000000E+02  0.51100000000E-03 0. -1.
         11   -1    0    0    0    0 -0.00000000000E+00 -0.00000000000E+00 -0.45593999997E+02  0.45594000000E+02  0.51100000000E-03 0.  1.
    9900012    2    1    2    0    0  0.63638073181E+00 -0.16115901521E+02  0.37323419501E+02  0.50528869347E+02  0.30000028867E+02 0.  0.
        -12    1    1    2    0    0 -0.63638073181E+00  0.16115901521E+02 -0.37323419501E+02  0.40659130653E+02  0.00000000000E+00 0.  1.
         11    1    3    3    0    0 -0.37862975645E+01 -0.91517936649E+01 -0.20581096523E+01  0.10115690393E+02  0.51100000000E-03 0.  1.
        -11    1    3    3    0    0  0.33839316126E+01 -0.26198069778E+01  0.24671925756E+02  0.25040333515E+02  0.51100000000E-03 0. -1.
        -12    1    3    3    0    0  0.10387466837E+01 -0.43443008779E+01  0.14709603397E+02  0.15372845439E+02  0.00000000000E+00 0.  1.
</event>
<event>
 7    1  0.1023000E-012  0.5052886E+02  0.7816164E-02  0.1300439E+00
        -11   -1    0    0    0    0  0.00000000000E+00  0.00000000000E+00  0.45593999997E+02  0.45594000000E+02  0.51100000000E-03 0.  1.
         11   -1    0    0    0    0 -0.00000000000E+00 -0.00000000000E+00 -0.45593999997E+02  0.45594000000E+02  0.51100000000E-03 0. -1.
    9900012    2    1    2    0    0  0.30156765672E+02 -0.79270855016E+01 -0.26093997612E+02  0.50528856973E+02  0.29999991255E+02 0.  0.
        -12    1    1    2    0    0 -0.30156765672E+02  0.79270855016E+01  0.26093997612E+02  0.40659143027E+02  0.00000000000E+00 0.  1.
         11    1    3    3    0    0  0.31360958853E+02  0.65904201574E+00 -0.23651923625E+02  0.39285589826E+02  0.51100000000E-03 0. -1.
        -11    1    3    3    0    0 -0.50109156369E+00 -0.81106577480E+01  0.53874351012E+00  0.81439613635E+01  0.51100000000E-03 0.  1.
         12    1    3    3    0    0 -0.70310161769E+00 -0.47546976933E+00 -0.29808174971E+01  0.30993057832E+01  0.00000000000E+00 0. -1.
</event>
<event>
 7    1  0.1023000E-012  0.5052886E+02  0.7816164E-02  0.1300439E+00
        -11   -1    0    0    0    0  0.00000000000E+00  0.00000000000E+00  0.45593999997E+02  0.45594000000E+02  0.51100000000E-03 0.  1.
         11   -1    0    0    0    0 -0.00000000000E+00 -0.00000000000E+00 -0.45593999997E+02  0.45594000000E+02  0.51100000000E-03 0. -1.
    9900012    2    1    2    0    0 -0.94976375760E+01  0.20192024916E+02 -0.33988863545E+02  0.50528857919E+02  0.29999994129E+02 0.  0.
        -12    1    1    2    0    0  0.94976375760E+01 -0.20192024916E+02  0.33988863545E+02  0.40659142081E+02  0.00000000000E+00 0.  1.
         11    1    3    3    0    0 -0.96809968901E+00  0.79176714611E+00 -0.51158719787E+01  0.52665224376E+01  0.51100000000E-03 0. -1.
        -11    1    3    3    0    0 -0.54587261440E+01 -0.35541546957E+01 -0.19002120792E+02  0.20087565845E+02  0.51100000000E-03 0.  1.
        -12    1    3    3    0    0 -0.30708117430E+01  0.22954412465E+02 -0.98708707741E+01  0.25174769636E+02  0.00000000000E+00 0.  1.
</event>
<event>
 7    1  0.1023000E-012  0.5052886E+02  0.7816164E-02  0.1300439E+00
        -11   -1    0    0    0    0  0.00000000000E+00  0.00000000000E+00  0.45593999997E+02  0.45594000000E+02  0.51100000000E-03 0. -1.
         11   -1    0    0    0    0 -0.00000000000E+00 -0.00000000000E+00 -0.45593999997E+02  0.45594000000E+02  0.51100000000E-03 0.  1.
    9900012    2    1    2    0    0 -0.26420974146E+02  0.30847751815E+02 -0.18746628256E+01  0.50528855548E+02  0.29999986924E+02 0.  0.
        -12    1    1    2    0    0  0.26420974146E+02 -0.30847751815E+02  0.18746628256E+01  0.40659144452E+02  0.00000000000E+00 0.  1.
         11    1    3    3    0    0 -0.19427638143E+02  0.15191707516E+02 -0.97671123102E+01  0.26525790925E+02  0.51100000000E-03 0. -1.
        -11    1    3    3    0    0  0.69129886686E+00  0.53230874440E+01  0.96142434669E+01  0.11011213910E+02  0.51100000000E-03 0.  1.
        -12    1    3    3    0    0 -0.76846348702E+01  0.10332956854E+02 -0.17217939823E+01  0.12991850713E+02  0.00000000000E+00 0.  1.
</event>
<event>
 7    1  0.1023000E-012  0.5052886E+02  0.7816164E-02  0.1300439E+00
        -11   -1    0    0    0    0  0.00000000000E+00  0.00000000000E+00  0.45593999997E+02  0.45594000000E+02  0.51100000000E-03 0.  1.
         11   -1    0    0    0    0 -0.00000000000E+00 -0.00000000000E+00 -0.45593999997E+02  0.45594000000E+02  0.51100000000E-03 0. -1.
    9900012    2    1    2    0    0  0.13878042728E+02 -0.37080949332E+02 -0.92503589291E+01  0.50528855719E+02  0.29999987445E+02 0.  0.
        -12    1    1    2    0    0 -0.13878042728E+02  0.37080949332E+02  0.92503589291E+01  0.40659144281E+02  0.00000000000E+00 0.  1.
         11    1    3    3    0    0 -0.72890137504E+01 -0.13935778339E+02 -0.28323369321E+01  0.15979917776E+02  0.51100000000E-03 0. -1.
        -11    1    3    3    0    0  0.37645489228E+01 -0.13239692623E+00  0.22939173917E+01  0.44103758116E+01  0.51100000000E-03 0.  1.
         12    1    3    3    0    0  0.17402507556E+02 -0.23012774067E+02 -0.87119393887E+01  0.30138562132E+02  0.00000000000E+00 0. -1.
</event>
<event>
 7    1  0.1023000E-012  0.5052873E+02  0.7816164E-02  0.1300439E+00
        -11   -1    0    0    0    0  0.00000000000E+00  0.00000000000E+00  0.45593999997E+02  0.45594000000E+02  0.51100000000E-03 0.  1.
         11   -1    0    0    0    0 -0.00000000000E+00 -0.00000000000E+00 -0.45593999997E+02  0.45594000000E+02  0.51100000000E-03 0. -1.
    9900012    2    1    2    0    0  0.13345533473E+02  0.18855613194E+02 -0.33459512531E+02  0.50528728100E+02  0.29999599531E+02 0.  0.
        -12    1    1    2    0    0 -0.13345533473E+02 -0.18855613194E+02  0.33459512531E+02  0.40659271900E+02  0.00000000000E+00 0.  1.
         11    1    3    3    0    0  0.68608342660E+01  0.10639038305E+02 -0.16130403320E+02  0.20504879771E+02  0.51100000000E-03 0. -1.
        -11    1    3    3    0    0 -0.64920271592E+01 -0.16074686067E+01 -0.10331587855E+02  0.12307399393E+02  0.51100000000E-03 0.  1.
        -12    1    3    3    0    0  0.12976726366E+02  0.98240434950E+01 -0.69975213562E+01  0.17716448936E+02  0.00000000000E+00 0.  1.
</event>
<event>
 7    1  0.1023000E-012  0.5052886E+02  0.7816164E-02  0.1300439E+00
        -11   -1    0    0    0    0  0.00000000000E+00  0.00000000000E+00  0.45593999997E+02  0.45594000000E+02  0.51100000000E-03 0.  1.
         11   -1    0    0    0    0 -0.00000000000E+00 -0.00000000000E+00 -0.45593999997E+02  0.45594000000E+02  0.51100000000E-03 0. -1.
    9900012    2    1    2    0    0 -0.37320497196E+02  0.10672222690E+01  0.16099922970E+02  0.50528855961E+02  0.29999988179E+02 0.  0.
        -12    1    1    2    0    0  0.37320497196E+02 -0.10672222690E+01 -0.16099922970E+02  0.40659144039E+02  0.00000000000E+00 0.  1.
         11    1    3    3    0    0 -0.46210350244E+01 -0.10198301881E+02  0.45452485212E+01  0.12083816050E+02  0.51100000000E-03 0.  1.
        -11    1    3    3    0    0 -0.32857158798E+01  0.47933855870E+01 -0.84967887888E+00  0.58731957814E+01  0.51100000000E-03 0. -1.
         12    1    3    3    0    0 -0.29413746292E+02  0.64721385632E+01  0.12404353328E+02  0.32571844129E+02  0.00000000000E+00 0. -1.
</event>
<event>
 7    1  0.1023000E-012  0.5052880E+02  0.7816164E-02  0.1300439E+00
        -11   -1    0    0    0    0  0.00000000000E+00  0.00000000000E+00  0.45593999997E+02  0.45594000000E+02  0.51100000000E-03 0. -1.
         11   -1    0    0    0    0 -0.00000000000E+00 -0.00000000000E+00 -0.45593999997E+02  0.45594000000E+02  0.51100000000E-03 0.  1.
    9900012    2    1    2    0    0  0.30799393991E+01 -0.15022903856E+02  0.37656300029E+02  0.50528799333E+02  0.29999816053E+02 0.  0.
        -12    1    1    2    0    0 -0.30799393991E+01  0.15022903856E+02 -0.37656300029E+02  0.40659200667E+02  0.00000000000E+00 0.  1.
         11    1    3    3    0    0 -0.35170755768E+01 -0.15187623116E+02  0.82902928598E+01  0.17656802443E+02  0.51100000000E-03 0. -1.
        -11    1    3    3    0    0  0.88580997323E+01  0.62292948681E+00  0.29243161118E+02  0.30561682618E+02  0.51100000000E-03 0.  1.
        -12    1    3    3    0    0 -0.22610847564E+01 -0.45821022597E+00  0.12284605212E+00  0.23103142729E+01  0.00000000000E+00 0.  1.
</event>
<event>
 7    1  0.1023000E-012  0.5052886E+02  0.7816164E-02  0.1300439E+00
        -11   -1    0    0    0    0  0.00000000000E+00  0.00000000000E+00  0.45593999997E+02  0.45594000000E+02  0.51100000000E-03 0. -1.
         11   -1    0    0    0    0 -0.00000000000E+00 -0.00000000000E+00 -0.45593999997E+02  0.45594000000E+02  0.51100000000E-03 0.  1.
    9900012    2    1    2    0    0  0.28236075636E+02 -0.10336647414E+01  0.29237328621E+02  0.50528858162E+02  0.29999994869E+02 0.  0.
        -12    1    1    2    0    0 -0.28236075636E+02  0.10336647414E+01 -0.29237328621E+02  0.40659141838E+02  0.00000000000E+00 0.  1.
         11    1    3    3    0    0  0.20781223636E+02  0.18464841384E+00  0.23834101998E+02  0.31622108866E+02  0.51100000000E-03 0. -1.
        -11    1    3    3    0    0 -0.58930745865E+00 -0.73981259496E+01  0.17083605341E-01  0.74215795460E+01  0.51100000000E-03 0.  1.
        -12    1    3    3    0    0  0.80441594588E+01  0.61798127944E+01  0.53861430183E+01  0.11485169750E+02  0.00000000000E+00 0.  1.
</event>
<event>
 7    1  0.1023000E-012  0.5052886E+02  0.7816164E-02  0.1300439E+00
        -11   -1    0    0    0    0  0.00000000000E+00  0.00000000000E+00  0.45593999997E+02  0.45594000000E+02  0.51100000000E-03 0. -1.
         11   -1    0    0    0    0 -0.00000000000E+00 -0.00000000000E+00 -0.45593999997E+02  0.45594000000E+02  0.51100000000E-03 0.  1.
    9900012    2    1    2    0    0 -0.38219280882E+02 -0.82042634707E+01  0.11186719609E+02  0.50528855077E+02  0.29999985494E+02 0.  0.
        -12    1    1    2    0    0  0.38219280882E+02  0.82042634707E+01 -0.11186719609E+02  0.40659144923E+02  0.00000000000E+00 0.  1.
         11    1    3    3    0    0 -0.22871560905E+02 -0.10869549511E+02 -0.84457744532E+00  0.25337101573E+02  0.51100000000E-03 0. -1.
        -11    1    3    3    0    0 -0.12971802717E+01  0.68356761232E+01  0.65146311297E+01  0.95315037499E+01  0.51100000000E-03 0.  1.
         12    1    3    3    0    0 -0.14050539705E+02 -0.41703900832E+01  0.55166659248E+01  0.15660249755E+02  0.00000000000E+00 0. -1.
</event>
<event>
 7    1  0.1023000E-012  0.5052885E+02  0.7816164E-02  0.1300439E+00
        -11   -1    0    0    0    0  0.00000000000E+00  0.00000000000E+00  0.45593999997E+02  0.45594000000E+02  0.51100000000E-03 0.  1.
         11   -1    0    0    0    0 -0.00000000000E+00 -0.00000000000E+00 -0.45593999997E+02  0.45594000000E+02  0.51100000000E-03 0. -1.
    9900012    2    1    2    0    0 -0.26887962354E+02 -0.15717235365E+02 -0.26137574569E+02  0.50528845909E+02  0.29999957626E+02 0.  0.
        -12    1    1    2    0    0  0.26887962354E+02  0.15717235365E+02  0.26137574569E+02  0.40659154091E+02  0.00000000000E+00 0.  1.
         11    1    3    3    0    0 -0.14554992899E+02 -0.14291301751E+02 -0.26510522603E+02  0.33449916785E+02  0.51100000000E-03 0. -1.
        -11    1    3    3    0    0 -0.11485602175E+02 -0.31044890327E+01 -0.38098979350E+01  0.12492887257E+02  0.51100000000E-03 0.  1.
         12    1    3    3    0    0 -0.84736728013E+00  0.16785554189E+01  0.41828459692E+01  0.45860418668E+01  0.00000000000E+00 0. -1.
</event>
<event>
 7    1  0.1023000E-012  0.5052886E+02  0.7816164E-02  0.1300439E+00
        -11   -1    0    0    0    0  0.00000000000E+00  0.00000000000E+00  0.45593999997E+02  0.45594000000E+02  0.51100000000E-03 0.  1.
         11   -1    0    0    0    0 -0.00000000000E+00 -0.00000000000E+00 -0.45593999997E+02  0.45594000000E+02  0.51100000000E-03 0. -1.
    9900012    2    1    2    0    0 -0.18145974255E+02  0.25859870949E+01 -0.36293276313E+02  0.50528860604E+02  0.30000002291E+02 0.  0.
        -12    1    1    2    0    0  0.18145974255E+02 -0.25859870949E+01  0.36293276313E+02  0.40659139396E+02  0.00000000000E+00 0.  1.
         11    1    3    3    0    0 -0.24274862176E+02 -0.48905677411E+01 -0.27637634794E+02  0.37108293463E+02  0.51100000000E-03 0. -1.
        -11    1    3    3    0    0  0.31704508018E+01  0.44541780089E+01 -0.26513500984E+01  0.60762749796E+01  0.51100000000E-03 0.  1.
         12    1    3    3    0    0  0.29584371197E+01  0.30223768270E+01 -0.60042914208E+01  0.73442921607E+01  0.00000000000E+00 0. -1.
</event>
<event>
 7    1  0.1023000E-012  0.5052886E+02  0.7816164E-02  0.1300439E+00
        -11   -1    0    0    0    0  0.00000000000E+00  0.00000000000E+00  0.45593999997E+02  0.45594000000E+02  0.51100000000E-03 0.  1.
         11   -1    0    0    0    0 -0.00000000000E+00 -0.00000000000E+00 -0.45593999997E+02  0.45594000000E+02  0.51100000000E-03 0. -1.
    9900012    2    1    2    0    0 -0.82136802744E+01 -0.29010324927E+02 -0.27278239340E+02  0.50528857885E+02  0.29999994027E+02 0.  0.
        -12    1    1    2    0    0  0.82136802744E+01  0.29010324927E+02  0.27278239340E+02  0.40659142115E+02  0.00000000000E+00 0.  1.
         11    1    3    3    0    0 -0.74063809949E+01 -0.24185141463E+02 -0.20949174620E+02  0.32842707935E+02  0.51100000000E-03 0. -1.
        -11    1    3    3    0    0  0.31671031752E+01  0.49892658153E+01 -0.26500677886E+01  0.64765867124E+01  0.51100000000E-03 0.  1.
        -12    1    3    3    0    0 -0.39744024547E+01 -0.98144492798E+01 -0.36789969320E+01  0.11209563237E+02  0.00000000000E+00 0.  1.
</event>
<event>
 7    1  0.1023000E-012  0.5052886E+02  0.7816164E-02  0.1300439E+00
        -11   -1    0    0    0    0  0.00000000000E+00  0.00000000000E+00  0.45593999997E+02  0.45594000000E+02  0.51100000000E-03 0.  1.
         11   -1    0    0    0    0 -0.00000000000E+00 -0.00000000000E+00 -0.45593999997E+02  0.45594000000E+02  0.51100000000E-03 0. -1.
    9900012    2    1    2    0    0 -0.21063096777E+01 -0.77053264427E+01 -0.39866741019E+02  0.50528860369E+02  0.30000001578E+02 0.  0.
        -12    1    1    2    0    0  0.21063096777E+01  0.77053264427E+01  0.39866741019E+02  0.40659139631E+02  0.00000000000E+00 0.  1.
         11    1    3    3    0    0 -0.46473275995E+01  0.63526774187E+01 -0.71761209682E+00  0.79037416194E+01  0.51100000000E-03 0. -1.
        -11    1    3    3    0    0 -0.43950938204E+00 -0.12537501068E+02 -0.23675562936E+02  0.26793924351E+02  0.51100000000E-03 0.  1.
         12    1    3    3    0    0  0.29805273038E+01 -0.15205027930E+01 -0.15473565987E+02  0.15831194399E+02  0.00000000000E+00 0. -1.
</event>
<event>
 7    1  0.1023000E-012  0.5052887E+02  0.7816164E-02  0.1300439E+00
        -11   -1    0    0    0    0  0.00000000000E+00  0.00000000000E+00  0.45593999997E+02  0.45594000000E+02  0.51100000000E-03 0. -1.
         11   -1    0    0    0    0 -0.00000000000E+00 -0.00000000000E+00 -0.45593999997E+02  0.45594000000E+02  0.51100000000E-03 0.  1.
    9900012    2    1    2    0    0  0.34553111986E+02  0.17692244934E+02  0.12092649063E+02  0.50528865232E+02  0.30000016359E+02 0.  0.
        -12    1    1    2    0    0 -0.34553111986E+02 -0.17692244934E+02 -0.12092649063E+02  0.40659134768E+02  0.00000000000E+00 0.  1.
         11    1    3    3    0    0 -0.11083549886E+01  0.16448603498E+01  0.88356879038E+00  0.21713383936E+01  0.51100000000E-03 0. -1.
        -11    1    3    3    0    0  0.32810086634E+02  0.21561570872E+02  0.13821345794E+02  0.41622502606E+02  0.51100000000E-03 0.  1.
        -12    1    3    3    0    0  0.28513803412E+01 -0.55141862874E+01 -0.26122655211E+01  0.67350242327E+01  0.00000000000E+00 0.  1.
</event>
<event>
 7    1  0.1671053E-012  0.5052886E+02  0.7816164E-02  0.1300439E+00
        -11   -1    0    0    0    0  0.00000000000E+00  0.00000000000E+00  0.45593999997E+02  0.45594000000E+02  0.51100000000E-03 0.  1.
         11   -1    0    0    0    0 -0.00000000000E+00 -0.00000000000E+00 -0.45593999997E+02  0.45594000000E+02  0.51100000000E-03 0. -1.
    9900012    2    1    2    0    0 -0.34277914213E+02 -0.11277598539E+02  0.18735163943E+02  0.50528855892E+02  0.29999987969E+02 0.  0.
        -12    1    1    2    0    0  0.34277914213E+02  0.11277598539E+02 -0.18735163943E+02  0.40659144108E+02  0.00000000000E+00 0.  1.
         11    1    3    3    0    0 -0.27095893501E+02 -0.34842164667E+00  0.49817103169E+01  0.27552246373E+02  0.51100000000E-03 0. -1.
        -11    1    3    3    0    0 -0.67756665905E+01 -0.75753434445E+01  0.15974480958E+02  0.18933555614E+02  0.51100000000E-03 0.  1.
        -12    1    3    3    0    0 -0.40635412226E+00 -0.33538334481E+01 -0.22210273319E+01  0.40430539051E+01  0.00000000000E+00 0.  1.
</event>
<event>
 7    1  0.1023000E-012  0.5052886E+02  0.7816164E-02  0.1300439E+00
        -11   -1    0    0    0    0  0.00000000000E+00  0.00000000000E+00  0.45593999997E+02  0.45594000000E+02  0.51100000000E-03 0. -1.
         11   -1    0    0    0    0 -0.00000000000E+00 -0.00000000000E+00 -0.45593999997E+02  0.45594000000E+02  0.51100000000E-03 0.  1.
    9900012    2    1    2    0    0 -0.21519721980E+02  0.32492510712E+02  0.11588946562E+02  0.50528863648E+02  0.30000011544E+02 0.  0.
        -12    1    1    2    0    0  0.21519721980E+02 -0.32492510712E+02 -0.11588946562E+02  0.40659136352E+02  0.00000000000E+00 0.  1.
         11    1    3    3    0    0 -0.17964517710E+02  0.85983625422E+01  0.13634029196E+02  0.24135916957E+02  0.51100000000E-03 0. -1.
        -11    1    3    3    0    0 -0.27575130315E+01  0.12251727282E+02 -0.62004116809E+01  0.14005491951E+02  0.51100000000E-03 0.  1.
         12    1    3    3    0    0 -0.79769123856E+00  0.11642420888E+02  0.41553290467E+01  0.12387454740E+02  0.00000000000E+00 0. -1.
</event>
<event>
 7    1  0.1023000E-012  0.5052886E+02  0.7816164E-02  0.1300439E+00
        -11   -1    0    0    0    0  0.00000000000E+00  0.00000000000E+00  0.45593999997E+02  0.45594000000E+02  0.51100000000E-03 0. -1.
         11   -1    0    0    0    0 -0.00000000000E+00 -0.00000000000E+00 -0.45593999997E+02  0.45594000000E+02  0.51100000000E-03 0.  1.
    9900012    2    1    2    0    0  0.23411354078E+02  0.21100064928E+02  0.25687770712E+02  0.50528858299E+02  0.29999995286E+02 0.  0.
        -12    1    1    2    0    0 -0.23411354078E+02 -0.21100064928E+02 -0.25687770712E+02  0.40659141701E+02  0.00000000000E+00 0.  1.
         11    1    3    3    0    0  0.58242897508E+01 -0.44930609429E+01  0.37195979921E+01  0.82428973803E+01  0.51100000000E-03 0. -1.
        -11    1    3    3    0    0  0.13528041754E+02  0.21317319819E+02  0.25107607476E+02  0.35606572307E+02  0.51100000000E-03 0.  1.
        -12    1    3    3    0    0  0.40590225726E+01  0.42758060519E+01 -0.31394347569E+01  0.66793886121E+01  0.00000000000E+00 0.  1.
</event>
<event>
 7    1  0.1023000E-012  0.5052885E+02  0.7816164E-02  0.1300439E+00
        -11   -1    0    0    0    0  0.00000000000E+00  0.00000000000E+00  0.45593999997E+02  0.45594000000E+02  0.51100000000E-03 0. -1.
         11   -1    0    0    0    0 -0.00000000000E+00 -0.00000000000E+00 -0.45593999997E+02  0.45594000000E+02  0.51100000000E-03 0.  1.
    9900012    2    1    2    0    0 -0.20763982762E+02 -0.17427311456E+02  0.30303670698E+02  0.50528848232E+02  0.29999964686E+02 0.  0.
        -12    1    1    2    0    0  0.20763982762E+02  0.17427311456E+02 -0.30303670698E+02  0.40659151768E+02  0.00000000000E+00 0.  1.
         11    1    3    3    0    0 -0.27035993597E+02 -0.92314083098E+01  0.16853540491E+02  0.33169348449E+02  0.51100000000E-03 0. -1.
        -11    1    3    3    0    0  0.92335161492E+00 -0.28997032547E+01  0.62096546578E+01  0.69152489760E+01  0.51100000000E-03 0.  1.
         12    1    3    3    0    0  0.53486592202E+01 -0.52961998915E+01  0.72404755492E+01  0.10444250807E+02  0.00000000000E+00 0. -1.
</event>
<event>
 7    1  0.1023000E-012  0.5052886E+02  0.7816164E-02  0.1300439E+00
        -11   -1    0    0    0    0  0.00000000000E+00  0.00000000000E+00  0.45593999997E+02  0.45594000000E+02  0.51100000000E-03 0.  1.
         11   -1    0    0    0    0 -0.00000000000E+00 -0.00000000000E+00 -0.45593999997E+02  0.45594000000E+02  0.51100000000E-03 0. -1.
    9900012    2    1    2    0    0  0.23661467884E+02 -0.20989924038E+02 -0.25548456400E+02  0.50528860831E+02  0.30000002983E+02 0.  0.
        -12    1    1    2    0    0 -0.23661467884E+02  0.20989924038E+02  0.25548456400E+02  0.40659139169E+02  0.00000000000E+00 0.  1.
         11    1    3    3    0    0  0.86300375284E+01 -0.13161678679E+02 -0.28107924139E+02  0.32214324967E+02  0.51100000000E-03 0. -1.
        -11    1    3    3    0    0  0.86393826378E+01 -0.76016836201E+01  0.23748221231E+00  0.11510035807E+02  0.51100000000E-03 0.  1.
         12    1    3    3    0    0  0.63920477176E+01 -0.22656173848E+00  0.23219855271E+01  0.68045000576E+01  0.00000000000E+00 0. -1.
</event>
<event>
 7    1  0.1023000E-012  0.5052886E+02  0.7816164E-02  0.1300439E+00
        -11   -1    0    0    0    0  0.00000000000E+00  0.00000000000E+00  0.45593999997E+02  0.45594000000E+02  0.51100000000E-03 0. -1.
         11   -1    0    0    0    0 -0.00000000000E+00 -0.00000000000E+00 -0.45593999997E+02  0.45594000000E+02  0.51100000000E-03 0.  1.
    9900012    2    1    2    0    0 -0.33518689059E+02  0.86018971777E+01  0.21346449260E+02  0.50528855305E+02  0.29999986186E+02 0.  0.
        -12    1    1    2    0    0  0.33518689059E+02 -0.86018971777E+01 -0.21346449260E+02  0.40659144695E+02  0.00000000000E+00 0.  1.
         11    1    3    3    0    0 -0.23590715285E+01  0.20756730782E+01  0.16232138065E+01  0.35367302027E+01  0.51100000000E-03 0. -1.
        -11    1    3    3    0    0 -0.31526013971E+02  0.96581019697E+01  0.67693160178E+01  0.33659948458E+02  0.51100000000E-03 0.  1.
        -12    1    3    3    0    0  0.36639644067E+00 -0.31318778703E+01  0.12953919436E+02  0.13332176645E+02  0.00000000000E+00 0.  1.
</event>
<event>
 7    1  0.1023000E-012  0.5052886E+02  0.7816164E-02  0.1300439E+00
        -11   -1    0    0    0    0  0.00000000000E+00  0.00000000000E+00  0.45593999997E+02  0.45594000000E+02  0.51100000000E-03 0.  1.
         11   -1    0    0    0    0 -0.00000000000E+00 -0.00000000000E+00 -0.45593999997E+02  0.45594000000E+02  0.51100000000E-03 0. -1.
    9900012    2    1    2    0    0 -0.34420340056E+02  0.87849937641E+01 -0.19779529996E+02  0.50528859184E+02  0.29999997976E+02 0.  0.
        -12    1    1    2    0    0  0.34420340056E+02 -0.87849937641E+01  0.19779529996E+02  0.40659140816E+02  0.00000000000E+00 0.  1.
         11    1    3    3    0    0 -0.15109878757E+02  0.14732331523E+02 -0.10752469180E+02  0.23684712831E+02  0.51100000000E-03 0. -1.
        -11    1    3    3    0    0 -0.21044728400E+02 -0.52925964383E+01 -0.10835056440E+02  0.24254703025E+02  0.51100000000E-03 0.  1.
        -12    1    3    3    0    0  0.17342671010E+01 -0.65474132060E+00  0.18079956239E+01  0.25894433283E+01  0.00000000000E+00 0.  1.
</event>
<event>
 7    1  0.1023000E-012  0.5052887E+02  0.7816164E-02  0.1300439E+00
        -11   -1    0    0    0    0  0.00000000000E+00  0.00000000000E+00  0.45593999997E+02  0.45594000000E+02  0.51100000000E-03 0. -1.
         11   -1    0    0    0    0 -0.00000000000E+00 -0.00000000000E+00 -0.45593999997E+02  0.45594000000E+02  0.51100000000E-03 0.  1.
    9900012    2    1    2    0    0  0.28929096770E+02  0.13202076040E+02  0.25337273945E+02  0.50528869381E+02  0.30000028970E+02 0.  0.
        -12    1    1    2    0    0 -0.28929096770E+02 -0.13202076040E+02 -0.25337273945E+02  0.40659130619E+02  0.00000000000E+00 0.  1.
         11    1    3    3    0    0  0.52302072894E+01  0.66903405870E+01 -0.33844457710E+01  0.91416737471E+01  0.51100000000E-03 0. -1.
        -11    1    3    3    0    0  0.23069580700E+01 -0.18530442200E+01  0.13527267294E+02  0.13847122052E+02  0.51100000000E-03 0.  1.
         12    1    3    3    0    0  0.21391931411E+02  0.83647796734E+01  0.15194452422E+02  0.27540073581E+02  0.00000000000E+00 0. -1.
</event>
<event>
 7    1  0.1023000E-012  0.5052887E+02  0.7816164E-02  0.1300439E+00
        -11   -1    0    0    0    0  0.00000000000E+00  0.00000000000E+00  0.45593999997E+02  0.45594000000E+02  0.51100000000E-03 0. -1.
         11   -1    0    0    0    0 -0.00000000000E+00 -0.00000000000E+00 -0.45593999997E+02  0.45594000000E+02  0.51100000000E-03 0.  1.
    9900012    2    1    2    0    0 -0.33685932948E+02  0.25247960757E+01  0.22628475498E+02  0.50528873384E+02  0.30000041139E+02 0.  0.
        -12    1    1    2    0    0  0.33685932948E+02 -0.25247960757E+01 -0.22628475498E+02  0.40659126616E+02  0.00000000000E+00 0.  1.
         11    1    3    3    0    0 -0.20023310193E+02 -0.22890606042E+00  0.11620646917E+02  0.23152209054E+02  0.51100000000E-03 0. -1.
        -11    1    3    3    0    0  0.40806984049E+01  0.56736219030E+01  0.20269024023E+01  0.72767038266E+01  0.51100000000E-03 0.  1.
        -12    1    3    3    0    0 -0.17743321160E+02 -0.29199197669E+01  0.89809261788E+01  0.20099960504E+02  0.00000000000E+00 0.  1.
</event>
<event>
 7    1  0.1023000E-012  0.5052895E+02  0.7816164E-02  0.1300438E+00
        -11   -1    0    0    0    0  0.00000000000E+00  0.00000000000E+00  0.45593999997E+02  0.45594000000E+02  0.51100000000E-03 0. -1.
         11   -1    0    0    0    0 -0.00000000000E+00 -0.00000000000E+00 -0.45593999997E+02  0.45594000000E+02  0.51100000000E-03 0.  1.
    9900012    2    1    2    0    0 -0.40772508360E+01  0.38619634243E+02  0.12044006260E+02  0.50528951681E+02  0.30000279128E+02 0.  0.
        -12    1    1    2    0    0  0.40772508360E+01 -0.38619634243E+02 -0.12044006260E+02  0.40659048319E+02  0.00000000000E+00 0.  1.
         11    1    3    3    0    0 -0.11766627848E+02  0.14826340466E+02  0.75992674257E+01  0.20396636198E+02  0.51100000000E-03 0. -1.
        -11    1    3    3    0    0  0.12427508581E+02  0.14118064844E+02  0.45806999845E+01  0.19358345412E+02  0.51100000000E-03 0.  1.
        -12    1    3    3    0    0 -0.47381315693E+01  0.96752289328E+01 -0.13596115051E+00  0.10773970072E+02  0.00000000000E+00 0.  1.
</event>
<event>
 7    1  0.1023000E-012  0.5052889E+02  0.7816164E-02  0.1300439E+00
        -11   -1    0    0    0    0  0.00000000000E+00  0.00000000000E+00  0.45593999997E+02  0.45594000000E+02  0.51100000000E-03 0.  1.
         11   -1    0    0    0    0 -0.00000000000E+00 -0.00000000000E+00 -0.45593999997E+02  0.45594000000E+02  0.51100000000E-03 0. -1.
    9900012    2    1    2    0    0 -0.31690838097E+02 -0.22875755353E+02 -0.11205088679E+02  0.50528887681E+02  0.30000084596E+02 0.  0.
        -12    1    1    2    0    0  0.31690838097E+02  0.22875755353E+02  0.11205088679E+02  0.40659112319E+02  0.00000000000E+00 0.  1.
         11    1    3    3    0    0 -0.21376206470E+02 -0.55588339261E+00 -0.10750265627E+02  0.23933646205E+02  0.51100000000E-03 0. -1.
        -11    1    3    3    0    0 -0.11389261334E+02 -0.21601392453E+02 -0.20917911681E+01  0.24509406769E+02  0.51100000000E-03 0.  1.
         12    1    3    3    0    0  0.10746297076E+01 -0.71847950773E+00  0.16369681155E+01  0.20858347064E+01  0.00000000000E+00 0. -1.
</event>
<event>
 7    1  0.1023000E-012  0.5052886E+02  0.7816164E-02  0.1300439E+00
        -11   -1    0    0    0    0  0.00000000000E+00  0.00000000000E+00  0.45593999997E+02  0.45594000000E+02  0.51100000000E-03 0. -1.
         11   -1    0    0    0    0 -0.00000000000E+00 -0.00000000000E+00 -0.45593999997E+02  0.45594000000E+02  0.51100000000E-03 0.  1.
    9900012    2    1    2    0    0 -0.20169675598E+02 -0.34749181669E+02 -0.62325123858E+01  0.50528860179E+02  0.30000001000E+02 0.  0.
        -12    1    1    2    0    0  0.20169675598E+02  0.34749181669E+02  0.62325123858E+01  0.40659139821E+02  0.00000000000E+00 0.  1.
         11    1    3    3    0    0 -0.94203150408E+01 -0.11975972167E+02 -0.13196375184E+02  0.20157146700E+02  0.51100000000E-03 0.  1.
        -11    1    3    3    0    0 -0.61943416004E+00 -0.56217792169E+01  0.86998699313E+01  0.10376696841E+02  0.51100000000E-03 0. -1.
        -12    1    3    3    0    0 -0.10129926397E+02 -0.17151430284E+02 -0.17360071334E+01  0.19995016638E+02  0.00000000000E+00 0.  1.
</event>
<event>
 7    1  0.1023000E-012  0.5052888E+02  0.7816164E-02  0.1300439E+00
        -11   -1    0    0    0    0  0.00000000000E+00  0.00000000000E+00  0.45593999997E+02  0.45594000000E+02  0.51100000000E-03 0.  1.
         11   -1    0    0    0    0 -0.00000000000E+00 -0.00000000000E+00 -0.45593999997E+02  0.45594000000E+02  0.51100000000E-03 0. -1.
    9900012    2    1    2    0    0  0.36477142856E+01 -0.40238280333E+02 -0.45540404666E+01  0.50528876691E+02  0.30000051189E+02 0.  0.
        -12    1    1    2    0    0 -0.36477142856E+01  0.40238280333E+02  0.45540404666E+01  0.40659123309E+02  0.00000000000E+00 0.  1.
         11    1    3    3    0    0  0.54857665172E+01 -0.34167223813E+02  0.86175095814E+01  0.35661664137E+02  0.51100000000E-03 0. -1.
        -11    1    3    3    0    0  0.80578243429E-01 -0.36640784205E+01 -0.86813998017E+01  0.94233044259E+01  0.51100000000E-03 0.  1.
         12    1    3    3    0    0 -0.19186304751E+01 -0.24069781001E+01 -0.44901502463E+01  0.54439081282E+01  0.00000000000E+00 0. -1.
</event>
<event>
 7    1  0.1023000E-012  0.5052886E+02  0.7816164E-02  0.1300439E+00
        -11   -1    0    0    0    0  0.00000000000E+00  0.00000000000E+00  0.45593999997E+02  0.45594000000E+02  0.51100000000E-03 0.  1.
         11   -1    0    0    0    0 -0.00000000000E+00 -0.00000000000E+00 -0.45593999997E+02  0.45594000000E+02  0.51100000000E-03 0. -1.
    9900012    2    1    2    0    0  0.99520934524E+01  0.49970666007E+01 -0.39104358476E+02  0.50528859692E+02  0.29999999521E+02 0.  0.
        -12    1    1    2    0    0 -0.99520934524E+01 -0.49970666007E+01  0.39104358476E+02  0.40659140308E+02  0.00000000000E+00 0.  1.
         11    1    3    3    0    0  0.64196785802E+01  0.77363349042E+00 -0.27304976625E+02  0.28060159133E+02  0.51100000000E-03 0. -1.
        -11    1    3    3    0    0  0.95184003135E+00 -0.32325079475E+01  0.37442216015E+01  0.50372912104E+01  0.51100000000E-03 0.  1.
        -12    1    3    3    0    0  0.25805748409E+01  0.74559410578E+01 -0.15543603453E+02  0.17431409349E+02  0.00000000000E+00 0.  1.
</event>
<event>
 7    1  0.1023000E-012  0.5052887E+02  0.7816164E-02  0.1300439E+00
        -11   -1    0    0    0    0  0.00000000000E+00  0.00000000000E+00  0.45593999997E+02  0.45594000000E+02  0.51100000000E-03 0. -1.
         11   -1    0    0    0    0 -0.00000000000E+00 -0.00000000000E+00 -0.45593999997E+02  0.45594000000E+02  0.51100000000E-03 0.  1.
    9900012    2    1    2    0    0  0.21210040810E+02 -0.23453421610E+02  0.25558487026E+02  0.50528867256E+02  0.30000022512E+02 0.  0.
        -12    1    1    2    0    0 -0.21210040810E+02  0.23453421610E+02 -0.25558487026E+02  0.40659132744E+02  0.00000000000E+00 0.  1.
         11    1    3    3    0    0  0.75052326233E+01 -0.23543471839E+02  0.21789056177E+02  0.32945205300E+02  0.51100000000E-03 0. -1.
        -11    1    3    3    0    0  0.21442584180E+01 -0.24327833316E+00 -0.33629922227E+01  0.39958410206E+01  0.51100000000E-03 0.  1.
         12    1    3    3    0    0  0.11560549769E+02  0.33332856188E+00  0.71324230723E+01  0.13587820935E+02  0.00000000000E+00 0. -1.
</event>
<event>
 7    1  0.1023000E-012  0.5052886E+02  0.7816164E-02  0.1300439E+00
        -11   -1    0    0    0    0  0.00000000000E+00  0.00000000000E+00  0.45593999997E+02  0.45594000000E+02  0.51100000000E-03 0.  1.
         11   -1    0    0    0    0 -0.00000000000E+00 -0.00000000000E+00 -0.45593999997E+02  0.45594000000E+02  0.51100000000E-03 0. -1.
    9900012    2    1    2    0    0 -0.91041297400E+00  0.15483963330E+02 -0.37584352814E+02  0.50528861438E+02  0.30000004826E+02 0.  0.
        -12    1    1    2    0    0  0.91041297400E+00 -0.15483963330E+02  0.37584352814E+02  0.40659138562E+02  0.00000000000E+00 0.  1.
         11    1    3    3    0    0  0.11766789017E+02  0.23880470325E+01 -0.99975669538E+01  0.15624065977E+02  0.51100000000E-03 0.  1.
        -11    1    3    3    0    0 -0.60432234941E+01  0.36142125091E+01 -0.19647208739E+02  0.20870934185E+02  0.51100000000E-03 0. -1.
        -12    1    3    3    0    0 -0.66339784972E+01  0.94817037882E+01 -0.79395771209E+01  0.14033861275E+02  0.00000000000E+00 0.  1.
</event>
<event>
 7    1  0.1023000E-012  0.5052886E+02  0.7816164E-02  0.1300439E+00
        -11   -1    0    0    0    0  0.00000000000E+00  0.00000000000E+00  0.45593999997E+02  0.45594000000E+02  0.51100000000E-03 0.  1.
         11   -1    0    0    0    0 -0.00000000000E+00 -0.00000000000E+00 -0.45593999997E+02  0.45594000000E+02  0.51100000000E-03 0. -1.
    9900012    2    1    2    0    0  0.26886326104E+02 -0.30477925750E+02  0.11778690938E+01  0.50528857547E+02  0.29999993001E+02 0.  0.
        -12    1    1    2    0    0 -0.26886326104E+02  0.30477925750E+02 -0.11778690938E+01  0.40659142453E+02  0.00000000000E+00 0.  1.
         11    1    3    3    0    0  0.20400113299E+02 -0.15529985008E+02 -0.11851552977E+02  0.28245430872E+02  0.51100000000E-03 0. -1.
        -11    1    3    3    0    0  0.80364460834E+01 -0.14286376167E+02  0.11835479731E+02  0.20217902719E+02  0.51100000000E-03 0.  1.
         12    1    3    3    0    0 -0.15502332776E+01 -0.66156457492E+00  0.11939423403E+01  0.20655239562E+01  0.00000000000E+00 0. -1.
</event>
<event>
 7    1  0.1023000E-012  0.5052886E+02  0.7816164E-02  0.1300439E+00
        -11   -1    0    0    0    0  0.00000000000E+00  0.00000000000E+00  0.45593999997E+02  0.45594000000E+02  0.51100000000E-03 0.  1.
         11   -1    0    0    0    0 -0.00000000000E+00 -0.00000000000E+00 -0.45593999997E+02  0.45594000000E+02  0.51100000000E-03 0. -1.
    9900012    2    1    2    0    0 -0.13957274700E+01 -0.15553237164E+02 -0.37540838542E+02  0.50528858348E+02  0.29999995433E+02 0.  0.
        -12    1    1    2    0    0  0.13957274700E+01  0.15553237164E+02  0.37540838542E+02  0.40659141652E+02  0.00000000000E+00 0.  1.
         11    1    3    3    0    0  0.97725143472E+01 -0.54574722179E+01 -0.21662062513E+02  0.24383006219E+02  0.51100000000E-03 0. -1.
        -11    1    3    3    0    0 -0.53752423664E+01  0.30646648630E+01 -0.65244010104E+01  0.89918413034E+01  0.51100000000E-03 0.  1.
         12    1    3    3    0    0 -0.57929994509E+01 -0.13160429810E+02 -0.93543750186E+01  0.17154010825E+02  0.00000000000E+00 0. -1.
</event>
<event>
 7    1  0.1023000E-012  0.5052881E+02  0.7816164E-02  0.1300439E+00
        -11   -1    0    0    0    0  0.00000000000E+00  0.00000000000E+00  0.45593999997E+02  0.45594000000E+02  0.51100000000E-03 0. -1.
         11   -1    0    0    0    0 -0.00000000000E+00 -0.00000000000E+00 -0.45593999997E+02  0.45594000000E+02  0.51100000000E-03 0.  1.
    9900012    2    1    2    0    0 -0.83800027242E+00  0.31515399140E+01  0.40528201794E+02  0.50528811753E+02  0.29999853803E+02 0.  0.
        -12    1    1    2    0    0  0.83800027242E+00 -0.31515399140E+01 -0.40528201794E+02  0.40659188247E+02  0.00000000000E+00 0.  1.
         11    1    3    3    0    0 -0.11431463990E+01  0.30353668334E+01  0.12104762259E+02  0.12531779806E+02  0.51100000000E-03 0. -1.
        -11    1    3    3    0    0 -0.49960968451E+01 -0.11280536642E+02  0.17052202387E+02  0.21047306173E+02  0.51100000000E-03 0.  1.
        -12    1    3    3    0    0  0.53012429717E+01  0.11396709722E+02  0.11371237148E+02  0.16949725774E+02  0.00000000000E+00 0.  1.
</event>
<event>
 7    1  0.1023000E-012  0.5052886E+02  0.7816164E-02  0.1300439E+00
        -11   -1    0    0    0    0  0.00000000000E+00  0.00000000000E+00  0.45593999997E+02  0.45594000000E+02  0.51100000000E-03 0.  1.
         11   -1    0    0    0    0 -0.00000000000E+00 -0.00000000000E+00 -0.45593999997E+02  0.45594000000E+02  0.51100000000E-03 0. -1.
    9900012    2    1    2    0    0  0.28766366148E+02  0.28136499397E+02 -0.58308531801E+01  0.50528864883E+02  0.30000015298E+02 0.  0.
        -12    1    1    2    0    0 -0.28766366148E+02 -0.28136499397E+02  0.58308531801E+01  0.40659135117E+02  0.00000000000E+00 0.  1.
         11    1    3    3    0    0  0.21885001125E+02  0.75313542618E+01 -0.34727103757E+00  0.23147249700E+02  0.51100000000E-03 0. -1.
        -11    1    3    3    0    0 -0.48265656751E+01  0.52065262944E+01 -0.35600548041E+01  0.79421434601E+01  0.51100000000E-03 0.  1.
        -12    1    3    3    0    0  0.11707930698E+02  0.15398618841E+02 -0.19235273385E+01  0.19439471723E+02  0.00000000000E+00 0.  1.
</event>
<event>
 7    1  0.1023000E-012  0.5052886E+02  0.7816164E-02  0.1300439E+00
        -11   -1    0    0    0    0  0.00000000000E+00  0.00000000000E+00  0.45593999997E+02  0.45594000000E+02  0.51100000000E-03 0. -1.
         11   -1    0    0    0    0 -0.00000000000E+00 -0.00000000000E+00 -0.45593999997E+02  0.45594000000E+02  0.51100000000E-03 0.  1.
    9900012    2    1    2    0    0 -0.21869348866E+02 -0.34263891891E+02 -0.93960043372E+00  0.50528861343E+02  0.30000004538E+02 0.  0.
        -12    1    1    2    0    0  0.21869348866E+02  0.34263891891E+02  0.93960043372E+00  0.40659138657E+02  0.00000000000E+00 0.  1.
         11    1    3    3    0    0 -0.19383789203E+01 -0.10032536780E+02 -0.33959057183E+01  0.10767603400E+02  0.51100000000E-03 0. -1.
        -11    1    3    3    0    0 -0.19725834921E+02 -0.86512147262E+01 -0.55501131656E+01  0.22243107606E+02  0.51100000000E-03 0.  1.
        -12    1    3    3    0    0 -0.20513502437E+00 -0.15580140386E+02  0.80064184503E+01  0.17518150337E+02  0.00000000000E+00 0.  1.
</event>
<event>
 7    1  0.1023000E-012  0.5052886E+02  0.7816164E-02  0.1300439E+00
        -11   -1    0    0    0    0  0.00000000000E+00  0.00000000000E+00  0.45593999997E+02  0.45594000000E+02  0.51100000000E-03 0.  1.
         11   -1    0    0    0    0 -0.00000000000E+00 -0.00000000000E+00 -0.45593999997E+02  0.45594000000E+02  0.51100000000E-03 0. -1.
    9900012    2    1    2    0    0 -0.98815456070E+00  0.75338188152E+01 -0.39942844896E+02  0.50528859161E+02  0.29999997907E+02 0.  0.
        -12    1    1    2    0    0  0.98815456070E+00 -0.75338188152E+01  0.39942844896E+02  0.40659140839E+02  0.00000000000E+00 0.  1.
         11    1    3    3    0    0  0.56348125567E-01  0.27912306396E+01 -0.16131756851E+02  0.16371552246E+02  0.51100000000E-03 0. -1.
        -11    1    3    3    0    0 -0.87575169204E+01 -0.64554370097E+01 -0.11136510814E+02  0.15568835633E+02  0.51100000000E-03 0.  1.
        -12    1    3    3    0    0  0.77130142341E+01  0.11198025185E+02 -0.12674577231E+02  0.18588471282E+02  0.00000000000E+00 0.  1.
</event>
<event>
 7    1  0.1023000E-012  0.5052886E+02  0.7816164E-02  0.1300439E+00
        -11   -1    0    0    0    0  0.00000000000E+00  0.00000000000E+00  0.45593999997E+02  0.45594000000E+02  0.51100000000E-03 0.  1.
         11   -1    0    0    0    0 -0.00000000000E+00 -0.00000000000E+00 -0.45593999997E+02  0.45594000000E+02  0.51100000000E-03 0. -1.
    9900012    2    1    2    0    0  0.36278423737E+02 -0.10440213908E+02  0.15101118568E+02  0.50528857396E+02  0.29999992540E+02 0.  0.
        -12    1    1    2    0    0 -0.36278423737E+02  0.10440213908E+02 -0.15101118568E+02  0.40659142604E+02  0.00000000000E+00 0.  1.
         11    1    3    3    0    0  0.35389313283E+02 -0.10299934970E+02  0.21257337203E+02  0.42548402323E+02  0.51100000000E-03 0. -1.
        -11    1    3    3    0    0 -0.18872661710E+01  0.23890114855E+00 -0.40515761992E+01  0.44759487618E+01  0.51100000000E-03 0.  1.
         12    1    3    3    0    0  0.27763766250E+01 -0.37918008696E+00 -0.21046424354E+01  0.35045063109E+01  0.00000000000E+00 0. -1.
</event>
<event>
 7    1  0.1023000E-012  0.5052886E+02  0.7816164E-02  0.1300439E+00
        -11   -1    0    0    0    0  0.00000000000E+00  0.00000000000E+00  0.45593999997E+02  0.45594000000E+02  0.51100000000E-03 0. -1.
         11   -1    0    0    0    0 -0.00000000000E+00 -0.00000000000E+00 -0.45593999997E+02  0.45594000000E+02  0.51100000000E-03 0.  1.
    9900012    2    1    2    0    0  0.19598818831E+02  0.24401399110E+02 -0.25954268342E+02  0.50528855601E+02  0.29999987085E+02 0.  0.
        -12    1    1    2    0    0 -0.19598818831E+02 -0.24401399110E+02  0.25954268342E+02  0.40659144399E+02  0.00000000000E+00 0.  1.
         11    1    3    3    0    0  0.65620934351E+01 -0.31508013003E+01  0.57302261653E+00  0.73018473187E+01  0.51100000000E-03 0.  1.
        -11    1    3    3    0    0  0.27042245857E+01  0.34835667648E+01 -0.13040426558E+02  0.13765928704E+02  0.51100000000E-03 0. -1.
         12    1    3    3    0    0  0.10332500810E+02  0.24068633646E+02 -0.13486864400E+02  0.29461079578E+02  0.00000000000E+00 0. -1.
</event>
<event>
 7    1  0.1023000E-012  0.5052886E+02  0.7816164E-02  0.1300439E+00
        -11   -1    0    0    0    0  0.00000000000E+00  0.00000000000E+00  0.45593999997E+02  0.45594000000E+02  0.51100000000E-03 0. -1.
         11   -1    0    0    0    0 -0.00000000000E+00 -0.00000000000E+00 -0.45593999997E+02  0.45594000000E+02  0.51100000000E-03 0.  1.
    9900012    2    1    2    0    0  0.36987348064E+02  0.18248479332E+01  0.16786046765E+02  0.50528863846E+02  0.30000012146E+02 0.  0.
        -12    1    1    2    0    0 -0.36987348064E+02 -0.18248479332E+01 -0.16786046765E+02  0.40659136154E+02  0.00000000000E+00 0.  1.
         11    1    3    3    0    0  0.24090787901E+02 -0.11139238467E+02  0.47763760435E+01  0.26967804206E+02  0.51100000000E-03 0. -1.
        -11    1    3    3    0    0  0.10314236912E+02  0.71596687912E+01  0.11760414775E+02  0.17203246677E+02  0.51100000000E-03 0.  1.
         12    1    3    3    0    0  0.25823232504E+01  0.58044176086E+01  0.24925594610E+00  0.63578129629E+01  0.00000000000E+00 0. -1.
</event>
<event>
 7    1  0.1023000E-012  0.5052892E+02  0.7816164E-02  0.1300439E+00
        -11   -1    0    0    0    0  0.00000000000E+00  0.00000000000E+00  0.45593999997E+02  0.45594000000E+02  0.51100000000E-03 0. -1.
         11   -1    0    0    0    0 -0.00000000000E+00 -0.00000000000E+00 -0.45593999997E+02  0.45594000000E+02  0.51100000000E-03 0.  1.
    9900012    2    1    2    0    0  0.40696774654E+01 -0.40430719829E+02  0.13983626913E+01  0.50528919848E+02  0.30000182370E+02 0.  0.
        -12    1    1    2    0    0 -0.40696774654E+01  0.40430719829E+02 -0.13983626913E+01  0.40659080152E+02  0.00000000000E+00 0.  1.
         11    1    3    3    0    0  0.11516413999E+02 -0.26905450344E+02 -0.18632823374E+01  0.29325805547E+02  0.51100000000E-03 0. -1.
        -11    1    3    3    0    0 -0.48715348923E+00  0.25077769822E+01 -0.16580247619E+01  0.30455394082E+01  0.51100000000E-03 0.  1.
         12    1    3    3    0    0 -0.69595830446E+01 -0.16033046467E+02  0.49196697906E+01  0.18157574894E+02  0.00000000000E+00 0. -1.
</event>
<event>
 7    1  0.1023000E-012  0.5052886E+02  0.7816164E-02  0.1300439E+00
        -11   -1    0    0    0    0  0.00000000000E+00  0.00000000000E+00  0.45593999997E+02  0.45594000000E+02  0.51100000000E-03 0.  1.
         11   -1    0    0    0    0 -0.00000000000E+00 -0.00000000000E+00 -0.45593999997E+02  0.45594000000E+02  0.51100000000E-03 0. -1.
    9900012    2    1    2    0    0 -0.26810124879E+01 -0.36236808394E+02 -0.18244761811E+02  0.50528862724E+02  0.30000008735E+02 0.  0.
        -12    1    1    2    0    0  0.26810124879E+01  0.36236808394E+02  0.18244761811E+02  0.40659137276E+02  0.00000000000E+00 0.  1.
         11    1    3    3    0    0  0.11382176211E+02 -0.25801271321E+02 -0.16613908044E+02  0.32730436567E+02  0.51100000000E-03 0. -1.
        -11    1    3    3    0    0 -0.12232093721E+02 -0.95572343360E+01 -0.22268025993E+01  0.15681948062E+02  0.51100000000E-03 0.  1.
         12    1    3    3    0    0 -0.18310949776E+01 -0.87830273655E+00  0.59594883214E+00  0.21164780945E+01  0.00000000000E+00 0. -1.
</event>
<event>
 7    1  0.1023000E-012  0.5052885E+02  0.7816164E-02  0.1300439E+00
        -11   -1    0    0    0    0  0.00000000000E+00  0.00000000000E+00  0.45593999997E+02  0.45594000000E+02  0.51100000000E-03 0. -1.
         11   -1    0    0    0    0 -0.00000000000E+00 -0.00000000000E+00 -0.45593999997E+02  0.45594000000E+02  0.51100000000E-03 0.  1.
    9900012    2    1    2    0    0  0.23278506048E+02  0.84296819758E+01  0.32252406369E+02  0.50528854674E+02  0.29999984267E+02 0.  0.
        -12    1    1    2    0    0 -0.23278506048E+02 -0.84296819758E+01 -0.32252406369E+02  0.40659145326E+02  0.00000000000E+00 0.  1.
         11    1    3    3    0    0  0.27962786179E+02  0.57463219366E+00  0.20381664119E+02  0.34607222448E+02  0.51100000000E-03 0. -1.
        -11    1    3    3    0    0 -0.13073238347E+01  0.80770012765E+00 -0.19213315851E+00  0.15486737928E+01  0.51100000000E-03 0.  1.
         12    1    3    3    0    0 -0.33769562965E+01  0.70473496545E+01  0.12062875409E+02  0.14372958433E+02  0.00000000000E+00 0. -1.
</event>
<event>
 7    1  0.1023000E-012  0.5052885E+02  0.7816164E-02  0.1300439E+00
        -11   -1    0    0    0    0  0.00000000000E+00  0.00000000000E+00  0.45593999997E+02  0.45594000000E+02  0.51100000000E-03 0.  1.
         11   -1    0    0    0    0 -0.00000000000E+00 -0.00000000000E+00 -0.45593999997E+02  0.45594000000E+02  0.51100000000E-03 0. -1.
    9900012    2    1    2    0    0  0.28021378998E+02 -0.29461021179E+02 -0.13104925907E+00  0.50528848216E+02  0.29999964638E+02 0.  0.
        -12    1    1    2    0    0 -0.28021378998E+02  0.29461021179E+02  0.13104925907E+00  0.40659151784E+02  0.00000000000E+00 0.  1.
         11    1    3    3    0    0  0.23256235481E+02 -0.89638723997E+01  0.61502026432E+01  0.25671550206E+02  0.51100000000E-03 0. -1.
        -11    1    3    3    0    0 -0.22497880322E+01 -0.75741235084E-01  0.33014363784E+00  0.22751435135E+01  0.51100000000E-03 0.  1.
         12    1    3    3    0    0  0.70149315485E+01 -0.20421407544E+02 -0.66113955401E+01  0.22582154497E+02  0.00000000000E+00 0. -1.
</event>
<event>
 7    1  0.1023000E-012  0.5052886E+02  0.7816164E-02  0.1300439E+00
        -11   -1    0    0    0    0  0.00000000000E+00  0.00000000000E+00  0.45593999997E+02  0.45594000000E+02  0.51100000000E-03 0.  1.
         11   -1    0    0    0    0 -0.00000000000E+00 -0.00000000000E+00 -0.45593999997E+02  0.45594000000E+02  0.51100000000E-03 0. -1.
    9900012    2    1    2    0    0 -0.76029651579E+01 -0.39891018529E+02 -0.20167384051E+01  0.50528859917E+02  0.30000000205E+02 0.  0.
        -12    1    1    2    0    0  0.76029651579E+01  0.39891018529E+02  0.20167384051E+01  0.40659140083E+02  0.00000000000E+00 0.  1.
         11    1    3    3    0    0  0.30842849212E+01 -0.26997155839E+02 -0.12911775140E+02  0.30084434088E+02  0.51100000000E-03 0. -1.
        -11    1    3    3    0    0 -0.79303377100E+01 -0.10617602335E+02  0.10377454730E+02  0.16831972626E+02  0.51100000000E-03 0.  1.
        -12    1    3    3    0    0 -0.27569123692E+01 -0.22762603551E+01  0.51758200464E+00  0.36124532035E+01  0.00000000000E+00 0.  1.
</event>
<event>
 7    1  0.1023000E-012  0.5052885E+02  0.7816164E-02  0.1300439E+00
        -11   -1    0    0    0    0  0.00000000000E+00  0.00000000000E+00  0.45593999997E+02  0.45594000000E+02  0.51100000000E-03 0.  1.
         11   -1    0    0    0    0 -0.00000000000E+00 -0.00000000000E+00 -0.45593999997E+02  0.45594000000E+02  0.51100000000E-03 0. -1.
    9900012    2    1    2    0    0 -0.11749587649E+02 -0.25575597402E+02 -0.29342842554E+02  0.50528850949E+02  0.29999972944E+02 0.  0.
        -12    1    1    2    0    0  0.11749587649E+02  0.25575597402E+02  0.29342842554E+02  0.40659149051E+02  0.00000000000E+00 0.  1.
         11    1    3    3    0    0  0.92624098818E+00 -0.24076722748E+02 -0.22712407456E+02  0.33111930681E+02  0.51100000000E-03 0. -1.
        -11    1    3    3    0    0 -0.12706514408E+01  0.18346834395E+01  0.17838193705E+01  0.28570317140E+01  0.51100000000E-03 0.  1.
         12    1    3    3    0    0 -0.11405177197E+02 -0.33335580933E+01 -0.84142544685E+01  0.14559888554E+02  0.00000000000E+00 0. -1.
</event>
<event>
 7    1  0.1023000E-012  0.5052886E+02  0.7816164E-02  0.1300439E+00
        -11   -1    0    0    0    0  0.00000000000E+00  0.00000000000E+00  0.45593999997E+02  0.45594000000E+02  0.51100000000E-03 0.  1.
         11   -1    0    0    0    0 -0.00000000000E+00 -0.00000000000E+00 -0.45593999997E+02  0.45594000000E+02  0.51100000000E-03 0. -1.
    9900012    2    1    2    0    0 -0.19629428600E+02 -0.20675772620E+02 -0.28989020194E+02  0.50528864096E+02  0.30000012907E+02 0.  0.
        -12    1    1    2    0    0  0.19629428600E+02  0.20675772620E+02  0.28989020194E+02  0.40659135904E+02  0.00000000000E+00 0.  1.
         11    1    3    3    0    0 -0.11988287948E+02 -0.62852440749E+01 -0.16472213334E+02  0.21320345995E+02  0.51100000000E-03 0. -1.
        -11    1    3    3    0    0 -0.40193421692E+01 -0.19586264595E+02 -0.86291396894E+01  0.21777027444E+02  0.51100000000E-03 0.  1.
        -12    1    3    3    0    0 -0.36217984836E+01  0.51957360494E+01 -0.38876671711E+01  0.74314906569E+01  0.00000000000E+00 0.  1.
</event>
<event>
 7    1  0.1023000E-012  0.5052883E+02  0.7816164E-02  0.1300439E+00
        -11   -1    0    0    0    0  0.00000000000E+00  0.00000000000E+00  0.45593999997E+02  0.45594000000E+02  0.51100000000E-03 0. -1.
         11   -1    0    0    0    0 -0.00000000000E+00 -0.00000000000E+00 -0.45593999997E+02  0.45594000000E+02  0.51100000000E-03 0.  1.
    9900012    2    1    2    0    0 -0.18593502757E+01  0.30877787602E+01  0.40499097731E+02  0.50528825412E+02  0.29999895323E+02 0.  0.
        -12    1    1    2    0    0  0.18593502757E+01 -0.30877787602E+01 -0.40499097731E+02  0.40659174588E+02  0.00000000000E+00 0.  1.
         11    1    3    3    0    0  0.50720185318E+01  0.43460152525E+01  0.39404518839E+02  0.39966602630E+02  0.51100000000E-03 0. -1.
        -11    1    3    3    0    0  0.11914443802E+01 -0.53831920672E+00 -0.15141143429E+01  0.20004673914E+01  0.51100000000E-03 0.  1.
         12    1    3    3    0    0 -0.81228131876E+01 -0.71991728553E+00  0.26086932347E+01  0.85617553908E+01  0.00000000000E+00 0. -1.
</event>
<event>
 7    1  0.1023000E-012  0.5052886E+02  0.7816164E-02  0.1300439E+00
        -11   -1    0    0    0    0  0.00000000000E+00  0.00000000000E+00  0.45593999997E+02  0.45594000000E+02  0.51100000000E-03 0.  1.
         11   -1    0    0    0    0 -0.00000000000E+00 -0.00000000000E+00 -0.45593999997E+02  0.45594000000E+02  0.51100000000E-03 0. -1.
    9900012    2    1    2    0    0 -0.10780181160E+02 -0.79541172812E+00 -0.39195928001E+02  0.50528858869E+02  0.29999997017E+02 0.  0.
        -12    1    1    2    0    0  0.10780181160E+02  0.79541172812E+00  0.39195928001E+02  0.40659141131E+02  0.00000000000E+00 0.  1.
         11    1    3    3    0    0  0.86189703551E+00 -0.82258565317E+01 -0.10237235401E+02  0.13160872733E+02  0.51100000000E-03 0. -1.
        -11    1    3    3    0    0 -0.11304518359E+02  0.77509400116E+01 -0.69746979597E+01  0.15379064285E+02  0.51100000000E-03 0.  1.
        -12    1    3    3    0    0 -0.33755983748E+00 -0.32049520804E+00 -0.21983994640E+02  0.21988921851E+02  0.00000000000E+00 0.  1.
</event>
<event>
 7    1  0.1023000E-012  0.5052886E+02  0.7816164E-02  0.1300439E+00
        -11   -1    0    0    0    0  0.00000000000E+00  0.00000000000E+00  0.45593999997E+02  0.45594000000E+02  0.51100000000E-03 0. -1.
         11   -1    0    0    0    0 -0.00000000000E+00 -0.00000000000E+00 -0.45593999997E+02  0.45594000000E+02  0.51100000000E-03 0.  1.
    9900012    2    1    2    0    0  0.79428653833E+01 -0.33479594892E+02  0.21660869694E+02  0.50528860061E+02  0.30000000643E+02 0.  0.
        -12    1    1    2    0    0 -0.79428653833E+01  0.33479594892E+02 -0.21660869694E+02  0.40659139939E+02  0.00000000000E+00 0.  1.
         11    1    3    3    0    0  0.37128566047E+01 -0.87547599056E+01  0.12679992297E+02  0.15849710726E+02  0.51100000000E-03 0. -1.
        -11    1    3    3    0    0 -0.21488875032E+01 -0.20915926940E+02 -0.23212400859E+01  0.21153767349E+02  0.51100000000E-03 0.  1.
        -12    1    3    3    0    0  0.63788962818E+01 -0.38089080460E+01  0.11302117483E+02  0.13525381986E+02  0.00000000000E+00 0.  1.
</event>
<event>
 7    1  0.1023000E-012  0.5052884E+02  0.7816164E-02  0.1300439E+00
        -11   -1    0    0    0    0  0.00000000000E+00  0.00000000000E+00  0.45593999997E+02  0.45594000000E+02  0.51100000000E-03 0. -1.
         11   -1    0    0    0    0 -0.00000000000E+00 -0.00000000000E+00 -0.45593999997E+02  0.45594000000E+02  0.51100000000E-03 0.  1.
    9900012    2    1    2    0    0  0.11562762455E+02  0.38905351486E+02 -0.24173619680E+01  0.50528837579E+02  0.29999932306E+02 0.  0.
        -12    1    1    2    0    0 -0.11562762455E+02 -0.38905351486E+02  0.24173619680E+01  0.40659162421E+02  0.00000000000E+00 0.  1.
         11    1    3    3    0    0  0.47880787661E+01  0.16608351573E+02 -0.56706951984E+01  0.18191201844E+02  0.51100000000E-03 0. -1.
        -11    1    3    3    0    0 -0.44168388793E+01 -0.63541290821E+00  0.50717631341E+01  0.67553679988E+01  0.51100000000E-03 0.  1.
         12    1    3    3    0    0  0.11191522569E+02  0.22932412822E+02 -0.18184299036E+01  0.25582267736E+02  0.00000000000E+00 0. -1.
</event>
<event>
 7    1  0.1023000E-012  0.5052886E+02  0.7816164E-02  0.1300439E+00
        -11   -1    0    0    0    0  0.00000000000E+00  0.00000000000E+00  0.45593999997E+02  0.45594000000E+02  0.51100000000E-03 0. -1.
         11   -1    0    0    0    0 -0.00000000000E+00 -0.00000000000E+00 -0.45593999997E+02  0.45594000000E+02  0.51100000000E-03 0.  1.
    9900012    2    1    2    0    0  0.40036473328E+02 -0.64032462931E+01 -0.30405234068E+01  0.50528861517E+02  0.30000005067E+02 0.  0.
        -12    1    1    2    0    0 -0.40036473328E+02  0.64032462931E+01  0.30405234068E+01  0.40659138483E+02  0.00000000000E+00 0.  1.
         11    1    3    3    0    0  0.33397902759E+02  0.13209251081E+01  0.64848033279E+00  0.33430304798E+02  0.51100000000E-03 0. -1.
        -11    1    3    3    0    0 -0.15477941580E+01 -0.82925775198E+00 -0.59118095993E+01  0.61670761447E+01  0.51100000000E-03 0.  1.
         12    1    3    3    0    0  0.81863647261E+01 -0.68949136492E+01  0.22228058597E+01  0.10931480574E+02  0.00000000000E+00 0. -1.
</event>
<event>
 7    1  0.1023000E-012  0.5052885E+02  0.7816164E-02  0.1300439E+00
        -11   -1    0    0    0    0  0.00000000000E+00  0.00000000000E+00  0.45593999997E+02  0.45594000000E+02  0.51100000000E-03 0.  1.
         11   -1    0    0    0    0 -0.00000000000E+00 -0.00000000000E+00 -0.45593999997E+02  0.45594000000E+02  0.51100000000E-03 0. -1.
    9900012    2    1    2    0    0  0.12179771917E+01 -0.36370032930E+02 -0.18135698835E+02  0.50528851755E+02  0.29999975394E+02 0.  0.
        -12    1    1    2    0    0 -0.12179771917E+01  0.36370032930E+02  0.18135698835E+02  0.40659148245E+02  0.00000000000E+00 0.  1.
         11    1    3    3    0    0  0.10582316412E+02 -0.12027148290E+02 -0.15853544168E+02  0.22538247039E+02  0.51100000000E-03 0. -1.
        -11    1    3    3    0    0 -0.45167344946E+01 -0.21291625008E+02 -0.37294352651E+01  0.22082637380E+02  0.51100000000E-03 0.  1.
        -12    1    3    3    0    0 -0.48476047259E+01 -0.30512596317E+01  0.14472805975E+01  0.59079673363E+01  0.00000000000E+00 0.  1.
</event>
<event>
 7    1  0.1023000E-012  0.5052881E+02  0.7816164E-02  0.1300439E+00
        -11   -1    0    0    0    0  0.00000000000E+00  0.00000000000E+00  0.45593999997E+02  0.45594000000E+02  0.51100000000E-03 0.  1.
         11   -1    0    0    0    0 -0.00000000000E+00 -0.00000000000E+00 -0.45593999997E+02  0.45594000000E+02  0.51100000000E-03 0. -1.
    9900012    2    1    2    0    0 -0.96973662943E+01 -0.10848289352E+02 -0.37966367750E+02  0.50528814383E+02  0.29999861798E+02 0.  0.
        -12    1    1    2    0    0  0.96973662943E+01  0.10848289352E+02  0.37966367750E+02  0.40659185617E+02  0.00000000000E+00 0.  1.
         11    1    3    3    0    0 -0.78019501650E+01 -0.33315477180E+01 -0.35986893672E+02  0.36973316771E+02  0.51100000000E-03 0. -1.
        -11    1    3    3    0    0 -0.52468147100E+01 -0.54693920925E+01  0.21284337346E+01  0.78723277934E+01  0.51100000000E-03 0.  1.
         12    1    3    3    0    0  0.33513985808E+01 -0.20473495412E+01 -0.41079078125E+01  0.56831698186E+01  0.00000000000E+00 0. -1.
</event>
<event>
 7    1  0.1023000E-012  0.5052886E+02  0.7816164E-02  0.1300439E+00
        -11   -1    0    0    0    0  0.00000000000E+00  0.00000000000E+00  0.45593999997E+02  0.45594000000E+02  0.51100000000E-03 0. -1.
         11   -1    0    0    0    0 -0.00000000000E+00 -0.00000000000E+00 -0.45593999997E+02  0.45594000000E+02  0.51100000000E-03 0.  1.
    9900012    2    1    2    0    0  0.30076716657E+01 -0.32081860533E+02  0.24796647345E+02  0.50528861006E+02  0.30000003515E+02 0.  0.
        -12    1    1    2    0    0 -0.30076716657E+01  0.32081860533E+02 -0.24796647345E+02  0.40659138994E+02  0.00000000000E+00 0.  1.
         11    1    3    3    0    0 -0.65704706587E+01 -0.14480628688E+02  0.20673648162E+02  0.26081783307E+02  0.51100000000E-03 0. -1.
        -11    1    3    3    0    0 -0.20928771366E+01 -0.52897706423E+01 -0.25286331667E+01  0.62254151757E+01  0.51100000000E-03 0.  1.
         12    1    3    3    0    0  0.11671019461E+02 -0.12311461203E+02  0.66516323500E+01  0.18221662524E+02  0.00000000000E+00 0. -1.
</event>
<event>
 7    1  0.1023000E-012  0.5052886E+02  0.7816164E-02  0.1300439E+00
        -11   -1    0    0    0    0  0.00000000000E+00  0.00000000000E+00  0.45593999997E+02  0.45594000000E+02  0.51100000000E-03 0.  1.
         11   -1    0    0    0    0 -0.00000000000E+00 -0.00000000000E+00 -0.45593999997E+02  0.45594000000E+02  0.51100000000E-03 0. -1.
    9900012    2    1    2    0    0  0.35931658037E+02 -0.18968326626E+02 -0.15113127317E+01  0.50528861661E+02  0.30000005504E+02 0.  0.
        -12    1    1    2    0    0 -0.35931658037E+02  0.18968326626E+02  0.15113127317E+01  0.40659138339E+02  0.00000000000E+00 0.  1.
         11    1    3    3    0    0  0.25940915348E+02 -0.14368308917E+02  0.10586156522E+01  0.29673221220E+02  0.51100000000E-03 0. -1.
        -11    1    3    3    0    0  0.57104178469E+00  0.83117989141E+00  0.65725906472E+01  0.66495035009E+01  0.51100000000E-03 0.  1.
         12    1    3    3    0    0  0.94197009045E+01 -0.54311976009E+01 -0.91425190311E+01  0.14206136940E+02  0.00000000000E+00 0. -1.
</event>
<event>
 7    1  0.1023000E-012  0.5052888E+02  0.7816164E-02  0.1300439E+00
        -11   -1    0    0    0    0  0.00000000000E+00  0.00000000000E+00  0.45593999997E+02  0.45594000000E+02  0.51100000000E-03 0. -1.
         11   -1    0    0    0    0 -0.00000000000E+00 -0.00000000000E+00 -0.45593999997E+02  0.45594000000E+02  0.51100000000E-03 0.  1.
    9900012    2    1    2    0    0 -0.73072489086E+00  0.24189013753E+02  0.32672954008E+02  0.50528877175E+02  0.30000052662E+02 0.  0.
        -12    1    1    2    0    0  0.73072489086E+00 -0.24189013753E+02 -0.32672954008E+02  0.40659122825E+02  0.00000000000E+00 0.  1.
         11    1    3    3    0    0  0.11230038414E+02  0.22723668454E+02  0.19402635101E+02  0.31920857130E+02  0.51100000000E-03 0. -1.
        -11    1    3    3    0    0 -0.56809573757E+01 -0.16107247586E+01  0.47009240929E+01  0.75476087962E+01  0.51100000000E-03 0.  1.
         12    1    3    3    0    0 -0.62798059293E+01  0.30760700576E+01  0.85693948147E+01  0.11060411249E+02  0.00000000000E+00 0. -1.
</event>
<event>
 7    1  0.1023000E-012  0.5052890E+02  0.7816164E-02  0.1300439E+00
        -11   -1    0    0    0    0  0.00000000000E+00  0.00000000000E+00  0.45593999997E+02  0.45594000000E+02  0.51100000000E-03 0. -1.
         11   -1    0    0    0    0 -0.00000000000E+00 -0.00000000000E+00 -0.45593999997E+02  0.45594000000E+02  0.51100000000E-03 0.  1.
    9900012    2    1    2    0    0 -0.24035648212E+02  0.28820481766E+02 -0.15647051139E+02  0.50528895687E+02  0.30000108929E+02 0.  0.
        -12    1    1    2    0    0  0.24035648212E+02 -0.28820481766E+02  0.15647051139E+02  0.40659104313E+02  0.00000000000E+00 0.  1.
         11    1    3    3    0    0 -0.87778134778E+01  0.20584741818E+02 -0.12955644422E+02  0.25857887150E+02  0.51100000000E-03 0. -1.
        -11    1    3    3    0    0 -0.38267560455E+01 -0.54059753661E+01 -0.17379806532E+01  0.68475695325E+01  0.51100000000E-03 0.  1.
         12    1    3    3    0    0 -0.11431078689E+02  0.13641715314E+02 -0.95342606385E+00  0.17823439005E+02  0.00000000000E+00 0. -1.
</event>
<event>
 7    1  0.1023000E-012  0.5052884E+02  0.7816164E-02  0.1300439E+00
        -11   -1    0    0    0    0  0.00000000000E+00  0.00000000000E+00  0.45593999997E+02  0.45594000000E+02  0.51100000000E-03 0.  1.
         11   -1    0    0    0    0 -0.00000000000E+00 -0.00000000000E+00 -0.45593999997E+02  0.45594000000E+02  0.51100000000E-03 0. -1.
    9900012    2    1    2    0    0  0.33598925647E+01  0.33112821384E+01 -0.40384572132E+02  0.50528841945E+02  0.29999945577E+02 0.  0.
        -12    1    1    2    0    0 -0.33598925647E+01 -0.33112821384E+01  0.40384572132E+02  0.40659158055E+02  0.00000000000E+00 0.  1.
         11    1    3    3    0    0  0.83545268774E+01 -0.31901626308E+01 -0.26671072176E+02  0.28130434555E+02  0.51100000000E-03 0. -1.
        -11    1    3    3    0    0 -0.65849760895E+01  0.42320910155E+01 -0.16627052569E+02  0.18377469408E+02  0.51100000000E-03 0.  1.
        -12    1    3    3    0    0  0.15903417768E+01  0.22693537537E+01  0.29135526134E+01  0.40209379823E+01  0.00000000000E+00 0.  1.
</event>
<event>
 7    1  0.1023000E-012  0.5052886E+02  0.7816164E-02  0.1300439E+00
        -11   -1    0    0    0    0  0.00000000000E+00  0.00000000000E+00  0.45593999997E+02  0.45594000000E+02  0.51100000000E-03 0.  1.
         11   -1    0    0    0    0 -0.00000000000E+00 -0.00000000000E+00 -0.45593999997E+02  0.45594000000E+02  0.51100000000E-03 0. -1.
    9900012    2    1    2    0    0  0.71275793185E+01  0.30868996731E+02 -0.25484664647E+02  0.50528862303E+02  0.30000007457E+02 0.  0.
        -12    1    1    2    0    0 -0.71275793185E+01 -0.30868996731E+02  0.25484664647E+02  0.40659137697E+02  0.00000000000E+00 0.  1.
         11    1    3    3    0    0 -0.45927765084E+01  0.12740536621E+02 -0.19776198946E+02  0.23968999029E+02  0.51100000000E-03 0. -1.
        -11    1    3    3    0    0  0.10634002138E+02  0.37669888193E+01 -0.43587736925E+01  0.12094259572E+02  0.51100000000E-03 0.  1.
         12    1    3    3    0    0  0.10863536887E+01  0.14361471290E+02 -0.13496920085E+01  0.14465603702E+02  0.00000000000E+00 0. -1.
</event>
<event>
 7    1  0.1023000E-012  0.5052886E+02  0.7816164E-02  0.1300439E+00
        -11   -1    0    0    0    0  0.00000000000E+00  0.00000000000E+00  0.45593999997E+02  0.45594000000E+02  0.51100000000E-03 0.  1.
         11   -1    0    0    0    0 -0.00000000000E+00 -0.00000000000E+00 -0.45593999997E+02  0.45594000000E+02  0.51100000000E-03 0. -1.
    9900012    2    1    2    0    0  0.11506616582E+02  0.16484927868E+02 -0.35341338742E+02  0.50528864544E+02  0.30000014267E+02 0.  0.
        -12    1    1    2    0    0 -0.11506616582E+02 -0.16484927868E+02  0.35341338742E+02  0.40659135456E+02  0.00000000000E+00 0.  1.
         11    1    3    3    0    0  0.14578835761E+02  0.85622630768E+01 -0.29951539603E+02  0.34394033291E+02  0.51100000000E-03 0.  1.
        -11    1    3    3    0    0 -0.34509260195E+01 -0.25254074035E+01 -0.34656754779E+01  0.55043146462E+01  0.51100000000E-03 0. -1.
         12    1    3    3    0    0  0.37870684004E+00  0.10448072195E+02 -0.19241236609E+01  0.10630516606E+02  0.00000000000E+00 0. -1.
</event>
<event>
 7    1  0.1023000E-012  0.5052886E+02  0.7816164E-02  0.1300439E+00
        -11   -1    0    0    0    0  0.00000000000E+00  0.00000000000E+00  0.45593999997E+02  0.45594000000E+02  0.51100000000E-03 0.  1.
         11   -1    0    0    0    0 -0.00000000000E+00 -0.00000000000E+00 -0.45593999997E+02  0.45594000000E+02  0.51100000000E-03 0. -1.
    9900012    2    1    2    0    0  0.35053360399E+02 -0.12656565852E+02 -0.16255426421E+02  0.50528860528E+02  0.30000002062E+02 0.  0.
        -12    1    1    2    0    0 -0.35053360399E+02  0.12656565852E+02  0.16255426421E+02  0.40659139472E+02  0.00000000000E+00 0.  1.
         11    1    3    3    0    0  0.13215105046E+02 -0.31720013133E+01 -0.15467561576E+02  0.20589950342E+02  0.51100000000E-03 0. -1.
        -11    1    3    3    0    0  0.31320385158E+01 -0.83286293125E+01  0.51473975029E+01  0.10279661123E+02  0.51100000000E-03 0.  1.
        -12    1    3    3    0    0  0.18706216837E+02 -0.11559352262E+01 -0.59352623481E+01  0.19659249064E+02  0.00000000000E+00 0.  1.
</event>
<event>
 7    1  0.1023000E-012  0.5052886E+02  0.7816164E-02  0.1300439E+00
        -11   -1    0    0    0    0  0.00000000000E+00  0.00000000000E+00  0.45593999997E+02  0.45594000000E+02  0.51100000000E-03 0.  1.
         11   -1    0    0    0    0 -0.00000000000E+00 -0.00000000000E+00 -0.45593999997E+02  0.45594000000E+02  0.51100000000E-03 0. -1.
    9900012    2    1    2    0    0  0.10858577797E+02  0.65943070838E+01 -0.38623466285E+02  0.50528859016E+02  0.29999997464E+02 0.  0.
        -12    1    1    2    0    0 -0.10858577797E+02 -0.65943070838E+01  0.38623466285E+02  0.40659140984E+02  0.00000000000E+00 0.  1.
         11    1    3    3    0    0  0.12131482353E+02  0.34854135719E-01 -0.33419822217E+02  0.35553601732E+02  0.51100000000E-03 0. -1.
        -11    1    3    3    0    0 -0.41351207974E+00  0.97899114370E+01 -0.60643129125E+01  0.11523421781E+02  0.51100000000E-03 0.  1.
         12    1    3    3    0    0 -0.85939247637E+00 -0.32304584890E+01  0.86066884367E+00  0.34518355024E+01  0.00000000000E+00 0. -1.
</event>
<event>
 7    1  0.1023000E-012  0.5052885E+02  0.7816164E-02  0.1300439E+00
        -11   -1    0    0    0    0  0.00000000000E+00  0.00000000000E+00  0.45593999997E+02  0.45594000000E+02  0.51100000000E-03 0.  1.
         11   -1    0    0    0    0 -0.00000000000E+00 -0.00000000000E+00 -0.45593999997E+02  0.45594000000E+02  0.51100000000E-03 0. -1.
    9900012    2    1    2    0    0 -0.29093807879E+01  0.36516959958E+02 -0.17641241933E+02  0.50528852467E+02  0.29999977559E+02 0.  0.
        -12    1    1    2    0    0  0.29093807879E+01 -0.36516959958E+02  0.17641241933E+02  0.40659147533E+02  0.00000000000E+00 0.  1.
         11    1    3    3    0    0  0.31424206511E+00  0.27145185925E+02 -0.59299424971E+01  0.27787120853E+02  0.51100000000E-03 0. -1.
        -11    1    3    3    0    0 -0.26281844584E+01 -0.21502614104E+01  0.26590744089E+01  0.43129635581E+01  0.51100000000E-03 0.  1.
        -12    1    3    3    0    0 -0.59543839463E+00  0.11522035443E+02 -0.14370373845E+02  0.18428768056E+02  0.00000000000E+00 0.  1.
</event>
<event>
 7    1  0.1023000E-012  0.5052886E+02  0.7816164E-02  0.1300439E+00
        -11   -1    0    0    0    0  0.00000000000E+00  0.00000000000E+00  0.45593999997E+02  0.45594000000E+02  0.51100000000E-03 0.  1.
         11   -1    0    0    0    0 -0.00000000000E+00 -0.00000000000E+00 -0.45593999997E+02  0.45594000000E+02  0.51100000000E-03 0. -1.
    9900012    2    1    2    0    0 -0.48614075136E+01 -0.37555085981E+02 -0.14803637700E+02  0.50528862587E+02  0.30000008318E+02 0.  0.
        -12    1    1    2    0    0  0.48614075136E+01  0.37555085981E+02  0.14803637700E+02  0.40659137413E+02  0.00000000000E+00 0.  1.
         11    1    3    3    0    0  0.10555463264E+02 -0.11903702220E+02  0.45939693456E+00  0.15916248838E+02  0.51100000000E-03 0. -1.
        -11    1    3    3    0    0 -0.11909426664E+02 -0.16860827058E+02 -0.14272759054E+02  0.25096485488E+02  0.51100000000E-03 0.  1.
         12    1    3    3    0    0 -0.35074441141E+01 -0.87905567022E+01 -0.99027558025E+00  0.95161282606E+01  0.00000000000E+00 0. -1.
</event>
<event>
 7    1  0.1023000E-012  0.5052886E+02  0.7816164E-02  0.1300439E+00
        -11   -1    0    0    0    0  0.00000000000E+00  0.00000000000E+00  0.45593999997E+02  0.45594000000E+02  0.51100000000E-03 0. -1.
         11   -1    0    0    0    0 -0.00000000000E+00 -0.00000000000E+00 -0.45593999997E+02  0.45594000000E+02  0.51100000000E-03 0.  1.
    9900012    2    1    2    0    0 -0.16739088159E+02 -0.15834999632E+02  0.33499571825E+02  0.50528860828E+02  0.30000002974E+02 0.  0.
        -12    1    1    2    0    0  0.16739088159E+02  0.15834999632E+02 -0.33499571825E+02  0.40659139172E+02  0.00000000000E+00 0.  1.
         11    1    3    3    0    0 -0.12366107074E+02 -0.16571061858E+02  0.35834303244E+02  0.41371705120E+02  0.51100000000E-03 0. -1.
        -11    1    3    3    0    0 -0.28992076010E+01  0.41909806107E+01 -0.14481546864E+01  0.52978179895E+01  0.51100000000E-03 0.  1.
        -12    1    3    3    0    0 -0.14737734845E+01 -0.34549183841E+01 -0.88657673295E+00  0.38593377188E+01  0.00000000000E+00 0.  1.
</event>
<event>
 7    1  0.1023000E-012  0.5052885E+02  0.7816164E-02  0.1300439E+00
        -11   -1    0    0    0    0  0.00000000000E+00  0.00000000000E+00  0.45593999997E+02  0.45594000000E+02  0.51100000000E-03 0. -1.
         11   -1    0    0    0    0 -0.00000000000E+00 -0.00000000000E+00 -0.45593999997E+02  0.45594000000E+02  0.51100000000E-03 0.  1.
    9900012    2    1    2    0    0  0.21494936836E+02 -0.21193822467E+02  0.27238863833E+02  0.50528854372E+02  0.29999983348E+02 0.  0.
        -12    1    1    2    0    0 -0.21494936836E+02  0.21193822467E+02 -0.27238863833E+02  0.40659145628E+02  0.00000000000E+00 0.  1.
         11    1    3    3    0    0  0.15825880630E+02  0.40063704800E+01  0.11332426008E+02  0.19872930877E+02  0.51100000000E-03 0. -1.
        -11    1    3    3    0    0  0.53768969778E+01 -0.17175033262E+02  0.12610504714E+02  0.21975386641E+02  0.51100000000E-03 0.  1.
         12    1    3    3    0    0  0.29215922765E+00 -0.80251596852E+01  0.32959331117E+01  0.86805368534E+01  0.00000000000E+00 0. -1.
</event>
<event>
 7    1  0.1023000E-012  0.5052887E+02  0.7816164E-02  0.1300439E+00
        -11   -1    0    0    0    0  0.00000000000E+00  0.00000000000E+00  0.45593999997E+02  0.45594000000E+02  0.51100000000E-03 0.  1.
         11   -1    0    0    0    0 -0.00000000000E+00 -0.00000000000E+00 -0.45593999997E+02  0.45594000000E+02  0.51100000000E-03 0. -1.
    9900012    2    1    2    0    0 -0.31063001069E+02 -0.21671354690E+02 -0.14785373093E+02  0.50528869328E+02  0.30000028810E+02 0.  0.
        -12    1    1    2    0    0  0.31063001069E+02  0.21671354690E+02  0.14785373093E+02  0.40659130672E+02  0.00000000000E+00 0.  1.
         11    1    3    3    0    0 -0.25540840675E+02 -0.11665790237E+02 -0.14108471935E+02  0.31424101974E+02  0.51100000000E-03 0. -1.
        -11    1    3    3    0    0 -0.17815140723E+01  0.13025906485E+01  0.53272030007E+01  0.57662489418E+01  0.51100000000E-03 0.  1.
        -12    1    3    3    0    0 -0.37406463214E+01 -0.11308155102E+02 -0.60041041579E+01  0.13338518413E+02  0.00000000000E+00 0.  1.
</event>
<event>
 7    1  0.1023000E-012  0.5052886E+02  0.7816164E-02  0.1300439E+00
        -11   -1    0    0    0    0  0.00000000000E+00  0.00000000000E+00  0.45593999997E+02  0.45594000000E+02  0.51100000000E-03 0. -1.
         11   -1    0    0    0    0 -0.00000000000E+00 -0.00000000000E+00 -0.45593999997E+02  0.45594000000E+02  0.51100000000E-03 0.  1.
    9900012    2    1    2    0    0  0.26272512162E+02 -0.95279921986E+01  0.29531985019E+02  0.50528859948E+02  0.30000000298E+02 0.  0.
        -12    1    1    2    0    0 -0.26272512162E+02  0.95279921986E+01 -0.29531985019E+02  0.40659140052E+02  0.00000000000E+00 0.  1.
         11    1    3    3    0    0  0.19072049405E+02  0.10973004617E+01  0.56814928401E+01  0.19930541838E+02  0.51100000000E-03 0. -1.
        -11    1    3    3    0    0 -0.41974484810E+01 -0.41272621987E+01  0.92965153970E+01  0.11003547873E+02  0.51100000000E-03 0.  1.
        -12    1    3    3    0    0  0.11397911238E+02 -0.64980304615E+01  0.14553976782E+02  0.19594770237E+02  0.00000000000E+00 0.  1.
</event>
<event>
 7    1  0.1023000E-012  0.5052886E+02  0.7816164E-02  0.1300439E+00
        -11   -1    0    0    0    0  0.00000000000E+00  0.00000000000E+00  0.45593999997E+02  0.45594000000E+02  0.51100000000E-03 0. -1.
         11   -1    0    0    0    0 -0.00000000000E+00 -0.00000000000E+00 -0.45593999997E+02  0.45594000000E+02  0.51100000000E-03 0.  1.
    9900012    2    1    2    0    0  0.37808756045E+02  0.14852955392E+02  0.17473870067E+01  0.50528859836E+02  0.29999999957E+02 0.  0.
        -12    1    1    2    0    0 -0.37808756045E+02 -0.14852955392E+02 -0.17473870067E+01  0.40659140164E+02  0.00000000000E+00 0.  1.
         11    1    3    3    0    0  0.17052835321E+02  0.14701522535E+02  0.77073457682E+01  0.23797838901E+02  0.51100000000E-03 0. -1.
        -11    1    3    3    0    0  0.34651238036E+01 -0.77356777911E+00 -0.85173006140E+01  0.92276703503E+01  0.51100000000E-03 0.  1.
        -12    1    3    3    0    0  0.17290796920E+02  0.92500063638E+00  0.25573418525E+01  0.17503350584E+02  0.00000000000E+00 0.  1.
</event>
<event>
 7    1  0.1023000E-012  0.5052886E+02  0.7816164E-02  0.1300439E+00
        -11   -1    0    0    0    0  0.00000000000E+00  0.00000000000E+00  0.45593999997E+02  0.45594000000E+02  0.51100000000E-03 0. -1.
         11   -1    0    0    0    0 -0.00000000000E+00 -0.00000000000E+00 -0.45593999997E+02  0.45594000000E+02  0.51100000000E-03 0.  1.
    9900012    2    1    2    0    0  0.23454784496E+02  0.26105089112E+02  0.20532007273E+02  0.50528856921E+02  0.29999991097E+02 0.  0.
        -12    1    1    2    0    0 -0.23454784496E+02 -0.26105089112E+02 -0.20532007273E+02  0.40659143079E+02  0.00000000000E+00 0.  1.
         11    1    3    3    0    0  0.61683049801E+00  0.17092115308E+02  0.14606843218E+02  0.22491793051E+02  0.51100000000E-03 0. -1.
        -11    1    3    3    0    0  0.15902792113E+02  0.10949911470E+02  0.10405141010E+01  0.19336029273E+02  0.51100000000E-03 0.  1.
         12    1    3    3    0    0  0.69351618847E+01 -0.19369376667E+01  0.48846499532E+01  0.87010345969E+01  0.00000000000E+00 0. -1.
</event>
<event>
 7    1  0.1023000E-012  0.5052886E+02  0.7816164E-02  0.1300439E+00
        -11   -1    0    0    0    0  0.00000000000E+00  0.00000000000E+00  0.45593999997E+02  0.45594000000E+02  0.51100000000E-03 0. -1.
         11   -1    0    0    0    0 -0.00000000000E+00 -0.00000000000E+00 -0.45593999997E+02  0.45594000000E+02  0.51100000000E-03 0.  1.
    9900012    2    1    2    0    0 -0.10210812883E+02 -0.20818513538E+02  0.33399020139E+02  0.50528858937E+02  0.29999997226E+02 0.  0.
        -12    1    1    2    0    0  0.10210812883E+02  0.20818513538E+02 -0.33399020139E+02  0.40659141063E+02  0.00000000000E+00 0.  1.
         11    1    3    3    0    0 -0.81017367578E+01 -0.39393128575E+01  0.16007076201E+02  0.18367983369E+02  0.51100000000E-03 0. -1.
        -11    1    3    3    0    0  0.17378882509E+01 -0.19134594077E+02  0.63223935312E+01  0.20226853593E+02  0.51100000000E-03 0.  1.
        -12    1    3    3    0    0 -0.38469643761E+01  0.22553933961E+01  0.11069550408E+02  0.11934021975E+02  0.00000000000E+00 0.  1.
</event>
<event>
 7    1  0.1023000E-012  0.5052886E+02  0.7816164E-02  0.1300439E+00
        -11   -1    0    0    0    0  0.00000000000E+00  0.00000000000E+00  0.45593999997E+02  0.45594000000E+02  0.51100000000E-03 0. -1.
         11   -1    0    0    0    0 -0.00000000000E+00 -0.00000000000E+00 -0.45593999997E+02  0.45594000000E+02  0.51100000000E-03 0.  1.
    9900012    2    1    2    0    0  0.20522586632E+02  0.15490542689E+02  0.31496547009E+02  0.50528856522E+02  0.29999989885E+02 0.  0.
        -12    1    1    2    0    0 -0.20522586632E+02 -0.15490542689E+02 -0.31496547009E+02  0.40659143478E+02  0.00000000000E+00 0.  1.
         11    1    3    3    0    0  0.31367734482E+00  0.15442972090E+02  0.16578915657E+02  0.22659307692E+02  0.51100000000E-03 0. -1.
        -11    1    3    3    0    0  0.85236815165E+01 -0.46190775949E+01  0.21230439482E+01  0.99245322454E+01  0.51100000000E-03 0.  1.
         12    1    3    3    0    0  0.11685227771E+02  0.46666481941E+01  0.12794587404E+02  0.17945016585E+02  0.00000000000E+00 0. -1.
</event>
<event>
 7    1  0.1023000E-012  0.5052886E+02  0.7816164E-02  0.1300439E+00
        -11   -1    0    0    0    0  0.00000000000E+00  0.00000000000E+00  0.45593999997E+02  0.45594000000E+02  0.51100000000E-03 0. -1.
         11   -1    0    0    0    0 -0.00000000000E+00 -0.00000000000E+00 -0.45593999997E+02  0.45594000000E+02  0.51100000000E-03 0.  1.
    9900012    2    1    2    0    0 -0.35327916315E+02  0.81982055588E+01  0.18381867502E+02  0.50528864515E+02  0.30000014181E+02 0.  0.
        -12    1    1    2    0    0  0.35327916315E+02 -0.81982055588E+01 -0.18381867502E+02  0.40659135485E+02  0.00000000000E+00 0.  1.
         11    1    3    3    0    0 -0.10527731333E+02  0.64324398956E+00  0.19559681724E+02  0.22222241995E+02  0.51100000000E-03 0. -1.
        -11    1    3    3    0    0 -0.13020666536E+02  0.47745845143E+00 -0.51369117691E+01  0.14005484154E+02  0.51100000000E-03 0.  1.
        -12    1    3    3    0    0 -0.11779518446E+02  0.70775031178E+01  0.39590975464E+01  0.14301138367E+02  0.00000000000E+00 0.  1.
</event>
<event>
 7    1  0.1023000E-012  0.5052886E+02  0.7816164E-02  0.1300439E+00
        -11   -1    0    0    0    0  0.00000000000E+00  0.00000000000E+00  0.45593999997E+02  0.45594000000E+02  0.51100000000E-03 0.  1.
         11   -1    0    0    0    0 -0.00000000000E+00 -0.00000000000E+00 -0.45593999997E+02  0.45594000000E+02  0.51100000000E-03 0. -1.
    9900012    2    1    2    0    0 -0.27039399417E+02 -0.25077970678E+02 -0.17121102612E+02  0.50528857255E+02  0.29999992112E+02 0.  0.
        -12    1    1    2    0    0  0.27039399417E+02  0.25077970678E+02  0.17121102612E+02  0.40659142745E+02  0.00000000000E+00 0.  1.
         11    1    3    3    0    0 -0.26744996788E+02 -0.59107699119E+01 -0.13418985759E+02  0.30500839877E+02  0.51100000000E-03 0. -1.
        -11    1    3    3    0    0  0.14016660683E+01 -0.91972450556E+01 -0.13579494160E+00  0.93044303913E+01  0.51100000000E-03 0.  1.
         12    1    3    3    0    0 -0.16960686969E+01 -0.99699557102E+01 -0.35663219116E+01  0.10723586987E+02  0.00000000000E+00 0. -1.
</event>
<event>
 7    1  0.1023000E-012  0.5052886E+02  0.7816164E-02  0.1300439E+00
        -11   -1    0    0    0    0  0.00000000000E+00  0.00000000000E+00  0.45593999997E+02  0.45594000000E+02  0.51100000000E-03 0.  1.
         11   -1    0    0    0    0 -0.00000000000E+00 -0.00000000000E+00 -0.45593999997E+02  0.45594000000E+02  0.51100000000E-03 0. -1.
    9900012    2    1    2    0    0 -0.32802882202E+02  0.21150354029E+02 -0.11392939383E+02  0.50528860510E+02  0.30000002006E+02 0.  0.
        -12    1    1    2    0    0  0.32802882202E+02 -0.21150354029E+02  0.11392939383E+02  0.40659139490E+02  0.00000000000E+00 0.  1.
         11    1    3    3    0    0 -0.22827187942E+02  0.14338456315E+02 -0.21670520520E+02  0.34587328586E+02  0.51100000000E-03 0. -1.
        -11    1    3    3    0    0 -0.72022473669E+01  0.54873413929E+01  0.83269965292E+01  0.12301307010E+02  0.51100000000E-03 0.  1.
         12    1    3    3    0    0 -0.27734468928E+01  0.13245563208E+01  0.19505846072E+01  0.36402249139E+01  0.00000000000E+00 0. -1.
</event>
<event>
 7    1  0.1023000E-012  0.5052885E+02  0.7816164E-02  0.1300439E+00
        -11   -1    0    0    0    0  0.00000000000E+00  0.00000000000E+00  0.45593999997E+02  0.45594000000E+02  0.51100000000E-03 0.  1.
         11   -1    0    0    0    0 -0.00000000000E+00 -0.00000000000E+00 -0.45593999997E+02  0.45594000000E+02  0.51100000000E-03 0. -1.
    9900012    2    1    2    0    0  0.20101149340E+02 -0.34843661337E+02 -0.59185485363E+01  0.50528853957E+02  0.29999982089E+02 0.  0.
        -12    1    1    2    0    0 -0.20101149340E+02  0.34843661337E+02  0.59185485363E+01  0.40659146043E+02  0.00000000000E+00 0.  1.
         11    1    3    3    0    0  0.87859962200E+01 -0.12627872019E+02 -0.31106207614E+01  0.15694994205E+02  0.51100000000E-03 0. -1.
        -11    1    3    3    0    0  0.90391157120E+01 -0.39385773505E+01  0.86718286695E+01  0.13130826978E+02  0.51100000000E-03 0.  1.
        -12    1    3    3    0    0  0.22760374085E+01 -0.18277211967E+02 -0.11479756444E+02  0.21703032774E+02  0.00000000000E+00 0.  1.
</event>
<event>
 7    1  0.1023000E-012  0.5052885E+02  0.7816164E-02  0.1300439E+00
        -11   -1    0    0    0    0  0.00000000000E+00  0.00000000000E+00  0.45593999997E+02  0.45594000000E+02  0.51100000000E-03 0.  1.
         11   -1    0    0    0    0 -0.00000000000E+00 -0.00000000000E+00 -0.45593999997E+02  0.45594000000E+02  0.51100000000E-03 0. -1.
    9900012    2    1    2    0    0 -0.27096869767E+02  0.24844941004E+02 -0.17368210309E+02  0.50528853747E+02  0.29999981450E+02 0.  0.
        -12    1    1    2    0    0  0.27096869767E+02 -0.24844941004E+02  0.17368210309E+02  0.40659146253E+02  0.00000000000E+00 0.  1.
         11    1    3    3    0    0 -0.16216324015E+02  0.23125070641E+02 -0.15427993336E+02  0.32183241529E+02  0.51100000000E-03 0. -1.
        -11    1    3    3    0    0  0.27257397903E+01  0.18907130666E+01 -0.32892132074E+01  0.46715497524E+01  0.51100000000E-03 0.  1.
         12    1    3    3    0    0 -0.13606285542E+02 -0.17084270315E+00  0.13489962336E+01  0.13674062466E+02  0.00000000000E+00 0. -1.
</event>
<event>
 7    1  0.1023000E-012  0.5052885E+02  0.7816164E-02  0.1300439E+00
        -11   -1    0    0    0    0  0.00000000000E+00  0.00000000000E+00  0.45593999997E+02  0.45594000000E+02  0.51100000000E-03 0. -1.
         11   -1    0    0    0    0 -0.00000000000E+00 -0.00000000000E+00 -0.45593999997E+02  0.45594000000E+02  0.51100000000E-03 0.  1.
    9900012    2    1    2    0    0  0.34475079190E+02  0.95807775215E+00  0.21534105874E+02  0.50528847108E+02  0.29999961268E+02 0.  0.
        -12    1    1    2    0    0 -0.34475079190E+02 -0.95807775215E+00 -0.21534105874E+02  0.40659152892E+02  0.00000000000E+00 0.  1.
         11    1    3    3    0    0  0.97673861064E+01 -0.80633218428E+01  0.61384005352E+01  0.14074762942E+02  0.51100000000E-03 0. -1.
        -11    1    3    3    0    0  0.14363075920E+02  0.15187476600E+02  0.84110750760E+01  0.22532278615E+02  0.51100000000E-03 0.  1.
        -12    1    3    3    0    0  0.10344617163E+02 -0.61660770051E+01  0.69846302629E+01  0.13921805551E+02  0.00000000000E+00 0.  1.
</event>
<event>
 7    1  0.1023000E-012  0.5052887E+02  0.7816164E-02  0.1300439E+00
        -11   -1    0    0    0    0  0.00000000000E+00  0.00000000000E+00  0.45593999997E+02  0.45594000000E+02  0.51100000000E-03 0.  1.
         11   -1    0    0    0    0 -0.00000000000E+00 -0.00000000000E+00 -0.45593999997E+02  0.45594000000E+02  0.51100000000E-03 0. -1.
    9900012    2    1    2    0    0  0.11976887041E+02  0.47596525516E+01 -0.38562482840E+02  0.50528865745E+02  0.30000017918E+02 0.  0.
        -12    1    1    2    0    0 -0.11976887041E+02 -0.47596525516E+01  0.38562482840E+02  0.40659134255E+02  0.00000000000E+00 0.  1.
         11    1    3    3    0    0  0.47921974169E+01  0.12931395432E+02 -0.81301338439E+01  0.16008910659E+02  0.51100000000E-03 0.  1.
        -11    1    3    3    0    0  0.10023865883E+02 -0.44746221440E+01 -0.16409748970E+02  0.19742846605E+02  0.51100000000E-03 0. -1.
         12    1    3    3    0    0 -0.28391762587E+01 -0.36971207360E+01 -0.14022600026E+02  0.14777108481E+02  0.00000000000E+00 0. -1.
</event>
<event>
 7    1  0.1023000E-012  0.5052886E+02  0.7816164E-02  0.1300439E+00
        -11   -1    0    0    0    0  0.00000000000E+00  0.00000000000E+00  0.45593999997E+02  0.45594000000E+02  0.51100000000E-03 0.  1.
         11   -1    0    0    0    0 -0.00000000000E+00 -0.00000000000E+00 -0.45593999997E+02  0.45594000000E+02  0.51100000000E-03 0. -1.
    9900012    2    1    2    0    0  0.14328190918E+02  0.30001791884E+02 -0.23404304036E+02  0.50528855657E+02  0.29999987256E+02 0.  0.
        -12    1    1    2    0    0 -0.14328190918E+02 -0.30001791884E+02  0.23404304036E+02  0.40659144343E+02  0.00000000000E+00 0.  1.
         11    1    3    3    0    0  0.53039637419E+01  0.20043144754E+02 -0.15970452346E+02  0.26170881364E+02  0.51100000000E-03 0. -1.
        -11    1    3    3    0    0  0.11728477878E+02  0.27198918693E+01 -0.10567294796E+02  0.16019448327E+02  0.51100000000E-03 0.  1.
         12    1    3    3    0    0 -0.27042507022E+01  0.72387552611E+01  0.31334431057E+01  0.83385259661E+01  0.00000000000E+00 0. -1.
</event>
<event>
 7    1  0.1023000E-012  0.5052886E+02  0.7816164E-02  0.1300439E+00
        -11   -1    0    0    0    0  0.00000000000E+00  0.00000000000E+00  0.45593999997E+02  0.45594000000E+02  0.51100000000E-03 0.  1.
         11   -1    0    0    0    0 -0.00000000000E+00 -0.00000000000E+00 -0.45593999997E+02  0.45594000000E+02  0.51100000000E-03 0. -1.
    9900012    2    1    2    0    0 -0.26682818144E+02 -0.30564932663E+02 -0.26415477636E+01  0.50528859977E+02  0.30000000386E+02 0.  0.
        -12    1    1    2    0    0  0.26682818144E+02  0.30564932663E+02  0.26415477636E+01  0.40659140023E+02  0.00000000000E+00 0.  1.
         11    1    3    3    0    0 -0.29607369623E+02 -0.27374935924E+02 -0.74769247241E+01  0.41010826088E+02  0.51100000000E-03 0. -1.
        -11    1    3    3    0    0  0.25290208359E+01 -0.48098238558E+01  0.12679261615E+01  0.55801423749E+01  0.51100000000E-03 0.  1.
         12    1    3    3    0    0  0.39553064311E+00  0.16198271161E+01  0.35674507990E+01  0.39378915143E+01  0.00000000000E+00 0. -1.
</event>
<event>
 7    1  0.1023000E-012  0.5052885E+02  0.7816164E-02  0.1300439E+00
        -11   -1    0    0    0    0  0.00000000000E+00  0.00000000000E+00  0.45593999997E+02  0.45594000000E+02  0.51100000000E-03 0.  1.
         11   -1    0    0    0    0 -0.00000000000E+00 -0.00000000000E+00 -0.45593999997E+02  0.45594000000E+02  0.51100000000E-03 0. -1.
    9900012    2    1    2    0    0  0.20446508908E+02  0.10142314526E+02 -0.33648772641E+02  0.50528853788E+02  0.29999981573E+02 0.  0.
        -12    1    1    2    0    0 -0.20446508908E+02 -0.10142314526E+02  0.33648772641E+02  0.40659146212E+02  0.00000000000E+00 0.  1.
         11    1    3    3    0    0  0.23149328887E+02  0.21059322551E+01 -0.22158646114E+02  0.32114357793E+02  0.51100000000E-03 0. -1.
        -11    1    3    3    0    0 -0.49014302026E+01 -0.14643115004E+00 -0.77081949240E+01  0.91357391250E+01  0.51100000000E-03 0.  1.
         12    1    3    3    0    0  0.21986102236E+01  0.81828134207E+01 -0.37819316028E+01  0.92787568694E+01  0.00000000000E+00 0. -1.
</event>
<event>
 7    1  0.1023000E-012  0.5052886E+02  0.7816164E-02  0.1300439E+00
        -11   -1    0    0    0    0  0.00000000000E+00  0.00000000000E+00  0.45593999997E+02  0.45594000000E+02  0.51100000000E-03 0.  1.
         11   -1    0    0    0    0 -0.00000000000E+00 -0.00000000000E+00 -0.45593999997E+02  0.45594000000E+02  0.51100000000E-03 0. -1.
    9900012    2    1    2    0    0 -0.35249330175E+01  0.18399158547E+02 -0.36086165778E+02  0.50528861439E+02  0.30000004828E+02 0.  0.
        -12    1    1    2    0    0  0.35249330175E+01 -0.18399158547E+02  0.36086165778E+02  0.40659138561E+02  0.00000000000E+00 0.  1.
         11    1    3    3    0    0 -0.98935881803E+00  0.63966014772E+01 -0.11406589779E+02  0.13115091764E+02  0.51100000000E-03 0. -1.
        -11    1    3    3    0    0 -0.92457213692E+00  0.14460069617E+02 -0.20966929862E+01  0.14640511218E+02  0.51100000000E-03 0.  1.
        -12    1    3    3    0    0 -0.16110020625E+01 -0.24575125480E+01 -0.22582883013E+02  0.22773258457E+02  0.00000000000E+00 0.  1.
</event>
<event>
 7    1  0.1023000E-012  0.5052889E+02  0.7816164E-02  0.1300439E+00
        -11   -1    0    0    0    0  0.00000000000E+00  0.00000000000E+00  0.45593999997E+02  0.45594000000E+02  0.51100000000E-03 0. -1.
         11   -1    0    0    0    0 -0.00000000000E+00 -0.00000000000E+00 -0.45593999997E+02  0.45594000000E+02  0.51100000000E-03 0.  1.
    9900012    2    1    2    0    0 -0.28997081458E+01 -0.22441550040E+02  0.33780644154E+02  0.50528887922E+02  0.30000085327E+02 0.  0.
        -12    1    1    2    0    0  0.28997081458E+01  0.22441550040E+02 -0.33780644154E+02  0.40659112078E+02  0.00000000000E+00 0.  1.
         11    1    3    3    0    0 -0.50133811966E+01 -0.24791896269E+02  0.36388281680E+02  0.44315676183E+02  0.51100000000E-03 0. -1.
        -11    1    3    3    0    0 -0.10241556327E+01  0.12374816387E+01 -0.23862446778E+01  0.28765290699E+01  0.51100000000E-03 0.  1.
         12    1    3    3    0    0  0.31378286835E+01  0.11128645901E+01 -0.22139284838E+00  0.33366826694E+01  0.00000000000E+00 0. -1.
</event>
<event>
 7    1  0.1023000E-012  0.5052883E+02  0.7816164E-02  0.1300439E+00
        -11   -1    0    0    0    0  0.00000000000E+00  0.00000000000E+00  0.45593999997E+02  0.45594000000E+02  0.51100000000E-03 0. -1.
         11   -1    0    0    0    0 -0.00000000000E+00 -0.00000000000E+00 -0.45593999997E+02  0.45594000000E+02  0.51100000000E-03 0.  1.
    9900012    2    1    2    0    0 -0.34998342166E+01 -0.40034671255E+02 -0.61761315902E+01  0.50528827069E+02  0.29999900359E+02 0.  0.
        -12    1    1    2    0    0  0.34998342166E+01  0.40034671255E+02  0.61761315902E+01  0.40659172931E+02  0.00000000000E+00 0.  1.
         11    1    3    3    0    0 -0.15738715483E+01 -0.10260566407E+02  0.74019571319E+01  0.12749324071E+02  0.51100000000E-03 0. -1.
        -11    1    3    3    0    0  0.52178573497E+01 -0.17700386120E+02 -0.14859146937E+02  0.23692276212E+02  0.51100000000E-03 0.  1.
        -12    1    3    3    0    0 -0.71438200180E+01 -0.12073718728E+02  0.12810582153E+01  0.14087226786E+02  0.00000000000E+00 0.  1.
</event>
<event>
 7    1  0.1023000E-012  0.5052886E+02  0.7816164E-02  0.1300439E+00
        -11   -1    0    0    0    0  0.00000000000E+00  0.00000000000E+00  0.45593999997E+02  0.45594000000E+02  0.51100000000E-03 0.  1.
         11   -1    0    0    0    0 -0.00000000000E+00 -0.00000000000E+00 -0.45593999997E+02  0.45594000000E+02  0.51100000000E-03 0. -1.
    9900012    2    1    2    0    0 -0.36585684461E+02 -0.17494304206E+02 -0.29329846701E+01  0.50528863435E+02  0.30000010897E+02 0.  0.
        -12    1    1    2    0    0  0.36585684461E+02  0.17494304206E+02  0.29329846701E+01  0.40659136565E+02  0.00000000000E+00 0.  1.
         11    1    3    3    0    0 -0.21887172895E+02 -0.17999859032E+02  0.74823366027E+01  0.29309190091E+02  0.51100000000E-03 0. -1.
        -11    1    3    3    0    0 -0.98654832491E+01  0.53224102631E+01 -0.41412363170E+01  0.11950131767E+02  0.51100000000E-03 0.  1.
         12    1    3    3    0    0 -0.48330283175E+01 -0.48168554373E+01 -0.62740849557E+01  0.92695415773E+01  0.00000000000E+00 0. -1.
</event>
<event>
 7    1  0.1023000E-012  0.5052886E+02  0.7816164E-02  0.1300439E+00
        -11   -1    0    0    0    0  0.00000000000E+00  0.00000000000E+00  0.45593999997E+02  0.45594000000E+02  0.51100000000E-03 0.  1.
         11   -1    0    0    0    0 -0.00000000000E+00 -0.00000000000E+00 -0.45593999997E+02  0.45594000000E+02  0.51100000000E-03 0. -1.
    9900012    2    1    2    0    0 -0.12481196429E+02  0.77908337011E+01 -0.37903666324E+02  0.50528864805E+02  0.30000015061E+02 0.  0.
        -12    1    1    2    0    0  0.12481196429E+02 -0.77908337011E+01  0.37903666324E+02  0.40659135195E+02  0.00000000000E+00 0.  1.
         11    1    3    3    0    0 -0.20392050146E+02  0.33117572322E+01 -0.31796342267E+02  0.37918476063E+02  0.51100000000E-03 0. -1.
        -11    1    3    3    0    0  0.63026767438E+01  0.74233914508E+00 -0.56853776235E+01  0.85204648069E+01  0.51100000000E-03 0.  1.
        -12    1    3    3    0    0  0.16081769731E+01  0.37367373238E+01 -0.42194643332E+00  0.40899239353E+01  0.00000000000E+00 0.  1.
</event>
<event>
 7    1  0.1023000E-012  0.5052886E+02  0.7816164E-02  0.1300439E+00
        -11   -1    0    0    0    0  0.00000000000E+00  0.00000000000E+00  0.45593999997E+02  0.45594000000E+02  0.51100000000E-03 0. -1.
         11   -1    0    0    0    0 -0.00000000000E+00 -0.00000000000E+00 -0.45593999997E+02  0.45594000000E+02  0.51100000000E-03 0.  1.
    9900012    2    1    2    0    0  0.31906456827E+02  0.18905559136E+02  0.16665042580E+02  0.50528858375E+02  0.29999995516E+02 0.  0.
        -12    1    1    2    0    0 -0.31906456827E+02 -0.18905559136E+02 -0.16665042580E+02  0.40659141625E+02  0.00000000000E+00 0.  1.
         11    1    3    3    0    0  0.55947180416E+01  0.51509065620E+01  0.54760062395E+01  0.93711980542E+01  0.51100000000E-03 0. -1.
        -11    1    3    3    0    0  0.80213220433E+01 -0.67516528376E+01 -0.20073325687E+01  0.10675008556E+02  0.51100000000E-03 0.  1.
        -12    1    3    3    0    0  0.18290416742E+02  0.20506305412E+02  0.13196368909E+02  0.30482651765E+02  0.00000000000E+00 0.  1.
</event>
<event>
 7    1  0.1023000E-012  0.5052885E+02  0.7816164E-02  0.1300439E+00
        -11   -1    0    0    0    0  0.00000000000E+00  0.00000000000E+00  0.45593999997E+02  0.45594000000E+02  0.51100000000E-03 0.  1.
         11   -1    0    0    0    0 -0.00000000000E+00 -0.00000000000E+00 -0.45593999997E+02  0.45594000000E+02  0.51100000000E-03 0. -1.
    9900012    2    1    2    0    0  0.27666993609E+02 -0.11183246872E+02 -0.27615911970E+02  0.50528854167E+02  0.29999982725E+02 0.  0.
        -12    1    1    2    0    0 -0.27666993609E+02  0.11183246872E+02  0.27615911970E+02  0.40659145833E+02  0.00000000000E+00 0.  1.
         11    1    3    3    0    0  0.91948814122E+01 -0.35772806127E+01 -0.70386080935E+01  0.12119603332E+02  0.51100000000E-03 0. -1.
        -11    1    3    3    0    0 -0.14265305980E+01 -0.11430395074E+02 -0.38857164590E+01  0.12156797019E+02  0.51100000000E-03 0.  1.
        -12    1    3    3    0    0  0.19898642795E+02  0.38244288154E+01 -0.16691587417E+02  0.26252453816E+02  0.00000000000E+00 0.  1.
</event>
<event>
 7    1  0.1023000E-012  0.5052886E+02  0.7816164E-02  0.1300439E+00
        -11   -1    0    0    0    0  0.00000000000E+00  0.00000000000E+00  0.45593999997E+02  0.45594000000E+02  0.51100000000E-03 0.  1.
         11   -1    0    0    0    0 -0.00000000000E+00 -0.00000000000E+00 -0.45593999997E+02  0.45594000000E+02  0.51100000000E-03 0. -1.
    9900012    2    1    2    0    0  0.10329386805E+02  0.30844689991E+02 -0.24394151480E+02  0.50528858853E+02  0.29999996968E+02 0.  0.
        -12    1    1    2    0    0 -0.10329386805E+02 -0.30844689991E+02  0.24394151480E+02  0.40659141147E+02  0.00000000000E+00 0.  1.
         11    1    3    3    0    0 -0.14932468146E+01 -0.28143494057E+01 -0.19816415235E+01  0.37519664198E+01  0.51100000000E-03 0. -1.
        -11    1    3    3    0    0  0.63513557041E+01  0.34610555511E+02 -0.21237231714E+02  0.41100490060E+02  0.51100000000E-03 0.  1.
        -12    1    3    3    0    0  0.54712779158E+01 -0.95151611391E+00 -0.11752782420E+01  0.56764023724E+01  0.00000000000E+00 0.  1.
</event>
<event>
 7    1  0.1023000E-012  0.5052886E+02  0.7816164E-02  0.1300439E+00
        -11   -1    0    0    0    0  0.00000000000E+00  0.00000000000E+00  0.45593999997E+02  0.45594000000E+02  0.51100000000E-03 0.  1.
         11   -1    0    0    0    0 -0.00000000000E+00 -0.00000000000E+00 -0.45593999997E+02  0.45594000000E+02  0.51100000000E-03 0. -1.
    9900012    2    1    2    0    0  0.27711688243E+02  0.27183677397E+02 -0.12094432259E+02  0.50528864818E+02  0.30000015101E+02 0.  0.
        -12    1    1    2    0    0 -0.27711688243E+02 -0.27183677397E+02  0.12094432259E+02  0.40659135182E+02  0.00000000000E+00 0.  1.
         11    1    3    3    0    0  0.12514685517E+02  0.14967968296E+02 -0.23652120584E+01  0.19653286159E+02  0.51100000000E-03 0.  1.
        -11    1    3    3    0    0  0.12527051017E+02  0.60161026440E+01 -0.16324382023E+02  0.21438422211E+02  0.51100000000E-03 0. -1.
        -12    1    3    3    0    0  0.26699517090E+01  0.61996064563E+01  0.65951618232E+01  0.94371564475E+01  0.00000000000E+00 0.  1.
</event>
<event>
 7    1  0.1023000E-012  0.5052885E+02  0.7816164E-02  0.1300439E+00
        -11   -1    0    0    0    0  0.00000000000E+00  0.00000000000E+00  0.45593999997E+02  0.45594000000E+02  0.51100000000E-03 0.  1.
         11   -1    0    0    0    0 -0.00000000000E+00 -0.00000000000E+00 -0.45593999997E+02  0.45594000000E+02  0.51100000000E-03 0. -1.
    9900012    2    1    2    0    0 -0.26964885576E+02 -0.85310473102E+01 -0.29211003856E+02  0.50528848894E+02  0.29999966699E+02 0.  0.
        -12    1    1    2    0    0  0.26964885576E+02  0.85310473102E+01  0.29211003856E+02  0.40659151106E+02  0.00000000000E+00 0.  1.
         11    1    3    3    0    0 -0.47859747340E+01 -0.16571185789E+02 -0.11341915547E+02  0.20643371845E+02  0.51100000000E-03 0. -1.
        -11    1    3    3    0    0 -0.21555770308E+02  0.70873796043E+01 -0.17597591841E+02  0.28715107906E+02  0.51100000000E-03 0.  1.
         12    1    3    3    0    0 -0.62314053434E+00  0.95275887417E+00 -0.27149646800E+00  0.11703691426E+01  0.00000000000E+00 0. -1.
</event>
<event>
 7    1  0.1023000E-012  0.5052887E+02  0.7816164E-02  0.1300439E+00
        -11   -1    0    0    0    0  0.00000000000E+00  0.00000000000E+00  0.45593999997E+02  0.45594000000E+02  0.51100000000E-03 0.  1.
         11   -1    0    0    0    0 -0.00000000000E+00 -0.00000000000E+00 -0.45593999997E+02  0.45594000000E+02  0.51100000000E-03 0. -1.
    9900012    2    1    2    0    0 -0.15128260703E+02 -0.32839274832E+02 -0.18597928927E+02  0.50528865678E+02  0.30000017715E+02 0.  0.
        -12    1    1    2    0    0  0.15128260703E+02  0.32839274832E+02  0.18597928927E+02  0.40659134322E+02  0.00000000000E+00 0.  1.
         11    1    3    3    0    0  0.17130821419E+01 -0.21952181316E+02 -0.10392615955E+02  0.24348293197E+02  0.51100000000E-03 0. -1.
        -11    1    3    3    0    0 -0.15287527663E+02 -0.16792178305E+01 -0.37292051194E+01  0.15825145992E+02  0.51100000000E-03 0.  1.
        -12    1    3    3    0    0 -0.15538151818E+01 -0.92078756859E+01 -0.44761078531E+01  0.10355426489E+02  0.00000000000E+00 0.  1.
</event>
<event>
 7    1  0.1023000E-012  0.5052889E+02  0.7816164E-02  0.1300439E+00
        -11   -1    0    0    0    0  0.00000000000E+00  0.00000000000E+00  0.45593999997E+02  0.45594000000E+02  0.51100000000E-03 0. -1.
         11   -1    0    0    0    0 -0.00000000000E+00 -0.00000000000E+00 -0.45593999997E+02  0.45594000000E+02  0.51100000000E-03 0.  1.
    9900012    2    1    2    0    0  0.31140657250E+02  0.20973108954E+02  0.15606128550E+02  0.50528891777E+02  0.30000097046E+02 0.  0.
        -12    1    1    2    0    0 -0.31140657250E+02 -0.20973108954E+02 -0.15606128550E+02  0.40659108223E+02  0.00000000000E+00 0.  1.
         11    1    3    3    0    0  0.33698355208E+01  0.16103779102E+01  0.51165200892E+01  0.63346575705E+01  0.51100000000E-03 0. -1.
        -11    1    3    3    0    0  0.27550371335E+02  0.76398226930E+01  0.19420137281E+00  0.28590690197E+02  0.51100000000E-03 0.  1.
        -12    1    3    3    0    0  0.22045039399E+00  0.11722908351E+02  0.10295407088E+02  0.15603544010E+02  0.00000000000E+00 0.  1.
</event>
<event>
 7    1  0.1023000E-012  0.5052885E+02  0.7816164E-02  0.1300439E+00
        -11   -1    0    0    0    0  0.00000000000E+00  0.00000000000E+00  0.45593999997E+02  0.45594000000E+02  0.51100000000E-03 0.  1.
         11   -1    0    0    0    0 -0.00000000000E+00 -0.00000000000E+00 -0.45593999997E+02  0.45594000000E+02  0.51100000000E-03 0. -1.
    9900012    2    1    2    0    0  0.36951214371E+02  0.12002188043E+02 -0.11988401647E+02  0.50528849304E+02  0.29999967944E+02 0.  0.
        -12    1    1    2    0    0 -0.36951214371E+02 -0.12002188043E+02  0.11988401647E+02  0.40659150696E+02  0.00000000000E+00 0.  1.
         11    1    3    3    0    0  0.13784866269E+02  0.18399136084E+01 -0.13356353971E+02  0.19282116373E+02  0.51100000000E-03 0. -1.
        -11    1    3    3    0    0  0.13516735521E+02  0.11549176127E+02  0.79589649571E+01  0.19478981796E+02  0.51100000000E-03 0.  1.
        -12    1    3    3    0    0  0.96496125801E+01 -0.13869016923E+01 -0.65910126324E+01  0.11767751135E+02  0.00000000000E+00 0.  1.
</event>
<event>
 7    1  0.1023000E-012  0.5052885E+02  0.7816164E-02  0.1300439E+00
        -11   -1    0    0    0    0  0.00000000000E+00  0.00000000000E+00  0.45593999997E+02  0.45594000000E+02  0.51100000000E-03 0.  1.
         11   -1    0    0    0    0 -0.00000000000E+00 -0.00000000000E+00 -0.45593999997E+02  0.45594000000E+02  0.51100000000E-03 0. -1.
    9900012    2    1    2    0    0 -0.21945203587E+02  0.33024774139E+02  0.89966075610E+01  0.50528848324E+02  0.29999964966E+02 0.  0.
        -12    1    1    2    0    0  0.21945203587E+02 -0.33024774139E+02 -0.89966075610E+01  0.40659151676E+02  0.00000000000E+00 0.  1.
         11    1    3    3    0    0 -0.26906293032E+02  0.31792357604E+02  0.65125744488E+01  0.42155856449E+02  0.51100000000E-03 0. -1.
        -11    1    3    3    0    0  0.51192858261E+01  0.32739120157E+00  0.40645562958E+01  0.65448369354E+01  0.51100000000E-03 0.  1.
         12    1    3    3    0    0 -0.15819638148E+00  0.90502533280E+00 -0.15805231835E+01  0.18281549392E+01  0.00000000000E+00 0. -1.
</event>
<event>
 7    1  0.1023000E-012  0.5052885E+02  0.7816164E-02  0.1300439E+00
        -11   -1    0    0    0    0  0.00000000000E+00  0.00000000000E+00  0.45593999997E+02  0.45594000000E+02  0.51100000000E-03 0.  1.
         11   -1    0    0    0    0 -0.00000000000E+00 -0.00000000000E+00 -0.45593999997E+02  0.45594000000E+02  0.51100000000E-03 0. -1.
    9900012    2    1    2    0    0 -0.64510680489E+01  0.49226240694E+01 -0.39841154942E+02  0.50528854241E+02  0.29999982952E+02 0.  0.
        -12    1    1    2    0    0  0.64510680489E+01 -0.49226240694E+01  0.39841154942E+02  0.40659145759E+02  0.00000000000E+00 0.  1.
         11    1    3    3    0    0 -0.67367955560E+01 -0.95925561076E+01 -0.58386941801E+01  0.13095491477E+02  0.51100000000E-03 0. -1.
        -11    1    3    3    0    0  0.27123714432E+01  0.70160233126E+01 -0.13277702450E+02  0.15260371050E+02  0.51100000000E-03 0.  1.
         12    1    3    3    0    0 -0.24266439362E+01  0.74991568645E+01 -0.20724758312E+02  0.22172991715E+02  0.00000000000E+00 0. -1.
</event>
<event>
 7    1  0.1023000E-012  0.5052884E+02  0.7816164E-02  0.1300439E+00
        -11   -1    0    0    0    0  0.00000000000E+00  0.00000000000E+00  0.45593999997E+02  0.45594000000E+02  0.51100000000E-03 0. -1.
         11   -1    0    0    0    0 -0.00000000000E+00 -0.00000000000E+00 -0.45593999997E+02  0.45594000000E+02  0.51100000000E-03 0.  1.
    9900012    2    1    2    0    0  0.29239887039E+01  0.17806934368E+02  0.36435294105E+02  0.50528840170E+02  0.29999940181E+02 0.  0.
        -12    1    1    2    0    0 -0.29239887039E+01 -0.17806934368E+02 -0.36435294105E+02  0.40659159830E+02  0.00000000000E+00 0.  1.
         11    1    3    3    0    0  0.12176319248E+02 -0.82693609517E+00  0.20499905805E+02  0.23857759995E+02  0.51100000000E-03 0. -1.
        -11    1    3    3    0    0 -0.47419656478E+01  0.14145312588E+02  0.12348729405E+02  0.19366652385E+02  0.51100000000E-03 0.  1.
         12    1    3    3    0    0 -0.45103648967E+01  0.44885578752E+01  0.35866588959E+01  0.73044277898E+01  0.00000000000E+00 0. -1.
</event>
<event>
 7    1  0.1023000E-012  0.5052887E+02  0.7816164E-02  0.1300439E+00
        -11   -1    0    0    0    0  0.00000000000E+00  0.00000000000E+00  0.45593999997E+02  0.45594000000E+02  0.51100000000E-03 0.  1.
         11   -1    0    0    0    0 -0.00000000000E+00 -0.00000000000E+00 -0.45593999997E+02  0.45594000000E+02  0.51100000000E-03 0. -1.
    9900012    2    1    2    0    0 -0.18180014001E+02  0.19588248290E+01 -0.36315489608E+02  0.50528872005E+02  0.30000036948E+02 0.  0.
        -12    1    1    2    0    0  0.18180014001E+02 -0.19588248290E+01  0.36315489608E+02  0.40659127995E+02  0.00000000000E+00 0.  1.
         11    1    3    3    0    0 -0.19469010966E+02  0.74774184566E+00 -0.18300381418E+02  0.26730235057E+02  0.51100000000E-03 0. -1.
        -11    1    3    3    0    0  0.87954853954E+00  0.48537157898E+01 -0.19295377678E+02  0.19915917317E+02  0.51100000000E-03 0.  1.
         12    1    3    3    0    0  0.40944842635E+00 -0.36426328066E+01  0.12802694871E+01  0.38827196315E+01  0.00000000000E+00 0. -1.
</event>
<event>
 7    1  0.1023000E-012  0.5052888E+02  0.7816164E-02  0.1300439E+00
        -11   -1    0    0    0    0  0.00000000000E+00  0.00000000000E+00  0.45593999997E+02  0.45594000000E+02  0.51100000000E-03 0.  1.
         11   -1    0    0    0    0 -0.00000000000E+00 -0.00000000000E+00 -0.45593999997E+02  0.45594000000E+02  0.51100000000E-03 0. -1.
    9900012    2    1    2    0    0  0.29805749759E+02  0.27033748250E+02  0.58273563521E+01  0.50528876237E+02  0.30000049811E+02 0.  0.
        -12    1    1    2    0    0 -0.29805749759E+02 -0.27033748250E+02 -0.58273563521E+01  0.40659123763E+02  0.00000000000E+00 0.  1.
         11    1    3    3    0    0  0.25845248243E+02  0.59674592970E+01  0.94122504123E+01  0.28145654820E+02  0.51100000000E-03 0. -1.
        -11    1    3    3    0    0  0.40060239408E+01  0.11964743414E+02 -0.45693280406E-01  0.12617662260E+02  0.51100000000E-03 0.  1.
         12    1    3    3    0    0 -0.45522424688E-01  0.91015455390E+01 -0.35392007798E+01  0.97655591571E+01  0.00000000000E+00 0. -1.
</event>
<event>
 7    1  0.1023000E-012  0.5052886E+02  0.7816164E-02  0.1300439E+00
        -11   -1    0    0    0    0  0.00000000000E+00  0.00000000000E+00  0.45593999997E+02  0.45594000000E+02  0.51100000000E-03 0. -1.
         11   -1    0    0    0    0 -0.00000000000E+00 -0.00000000000E+00 -0.45593999997E+02  0.45594000000E+02  0.51100000000E-03 0.  1.
    9900012    2    1    2    0    0 -0.36270781768E+02  0.17402325455E+02  0.58953731978E+01  0.50528856299E+02  0.29999989207E+02 0.  0.
        -12    1    1    2    0    0  0.36270781768E+02 -0.17402325455E+02 -0.58953731978E+01  0.40659143701E+02  0.00000000000E+00 0.  1.
         11    1    3    3    0    0 -0.23509984215E+02  0.46929083659E+01  0.14804171161E+01  0.24019458400E+02  0.51100000000E-03 0. -1.
        -11    1    3    3    0    0  0.39863176403E+01 -0.89589119935E+00  0.26290806009E+01  0.48585403608E+01  0.51100000000E-03 0.  1.
        -12    1    3    3    0    0 -0.16747115194E+02  0.13605308288E+02  0.17858754808E+01  0.21650857539E+02  0.00000000000E+00 0.  1.
</event>
<event>
 7    1  0.1023000E-012  0.5052885E+02  0.7816164E-02  0.1300439E+00
        -11   -1    0    0    0    0  0.00000000000E+00  0.00000000000E+00  0.45593999997E+02  0.45594000000E+02  0.51100000000E-03 0. -1.
         11   -1    0    0    0    0 -0.00000000000E+00 -0.00000000000E+00 -0.45593999997E+02  0.45594000000E+02  0.51100000000E-03 0.  1.
    9900012    2    1    2    0    0 -0.31596571343E+02 -0.25066853140E+02  0.51454482821E+01  0.50528854841E+02  0.29999984776E+02 0.  0.
        -12    1    1    2    0    0  0.31596571343E+02  0.25066853140E+02 -0.51454482821E+01  0.40659145159E+02  0.00000000000E+00 0.  1.
         11    1    3    3    0    0 -0.18227590632E+02 -0.12388527082E+02 -0.64384515543E+01  0.22960277049E+02  0.51100000000E-03 0. -1.
        -11    1    3    3    0    0 -0.12454604613E+01  0.26379168298E+01  0.68851709585E+01  0.74776571431E+01  0.51100000000E-03 0.  1.
         12    1    3    3    0    0 -0.12123520250E+02 -0.15316242888E+02  0.46987288779E+01  0.20090920649E+02  0.00000000000E+00 0. -1.
</event>
<event>
 7    1  0.1023000E-012  0.5052886E+02  0.7816164E-02  0.1300439E+00
        -11   -1    0    0    0    0  0.00000000000E+00  0.00000000000E+00  0.45593999997E+02  0.45594000000E+02  0.51100000000E-03 0. -1.
         11   -1    0    0    0    0 -0.00000000000E+00 -0.00000000000E+00 -0.45593999997E+02  0.45594000000E+02  0.51100000000E-03 0.  1.
    9900012    2    1    2    0    0 -0.34010519799E+02  0.39424244050E+01  0.21929600564E+02  0.50528861444E+02  0.30000004847E+02 0.  0.
        -12    1    1    2    0    0  0.34010519799E+02 -0.39424244050E+01 -0.21929600564E+02  0.40659138556E+02  0.00000000000E+00 0.  1.
         11    1    3    3    0    0 -0.21791697089E+02 -0.56288356215E+01  0.44371357793E+01  0.22940140075E+02  0.51100000000E-03 0. -1.
        -11    1    3    3    0    0 -0.15012983836E+02  0.10571984642E+02  0.14859852156E+02  0.23621425640E+02  0.51100000000E-03 0.  1.
         12    1    3    3    0    0  0.27941611257E+01 -0.10007246153E+01  0.26326126282E+01  0.39672957291E+01  0.00000000000E+00 0. -1.
</event>
<event>
 7    1  0.1023000E-012  0.5052886E+02  0.7816164E-02  0.1300439E+00
        -11   -1    0    0    0    0  0.00000000000E+00  0.00000000000E+00  0.45593999997E+02  0.45594000000E+02  0.51100000000E-03 0.  1.
         11   -1    0    0    0    0 -0.00000000000E+00 -0.00000000000E+00 -0.45593999997E+02  0.45594000000E+02  0.51100000000E-03 0. -1.
    9900012    2    1    2    0    0 -0.22337268086E+02  0.33156600458E+02  0.74062280417E+01  0.50528856953E+02  0.29999991196E+02 0.  0.
        -12    1    1    2    0    0  0.22337268086E+02 -0.33156600458E+02 -0.74062280417E+01  0.40659143047E+02  0.00000000000E+00 0.  1.
         11    1    3    3    0    0 -0.32544420330E+01 -0.79207271494E+00 -0.31353372469E+01  0.45879311291E+01  0.51100000000E-03 0. -1.
        -11    1    3    3    0    0 -0.22041188420E+02  0.29008668614E+02  0.14218928171E+02  0.39108755546E+02  0.51100000000E-03 0.  1.
        -12    1    3    3    0    0  0.29583623677E+01  0.49400045593E+01 -0.36773628828E+01  0.68321702787E+01  0.00000000000E+00 0.  1.
</event>
<event>
 7    1  0.1023000E-012  0.5052888E+02  0.7816164E-02  0.1300439E+00
        -11   -1    0    0    0    0  0.00000000000E+00  0.00000000000E+00  0.45593999997E+02  0.45594000000E+02  0.51100000000E-03 0.  1.
         11   -1    0    0    0    0 -0.00000000000E+00 -0.00000000000E+00 -0.45593999997E+02  0.45594000000E+02  0.51100000000E-03 0. -1.
    9900012    2    1    2    0    0 -0.27682825500E+02  0.12121532040E+02 -0.27200983566E+02  0.50528882036E+02  0.30000067436E+02 0.  0.
        -12    1    1    2    0    0  0.27682825500E+02 -0.12121532040E+02  0.27200983566E+02  0.40659117964E+02  0.00000000000E+00 0.  1.
         11    1    3    3    0    0 -0.34153963717E+01  0.38039970105E+01  0.34122228290E+01  0.61464290875E+01  0.51100000000E-03 0. -1.
        -11    1    3    3    0    0 -0.16800374664E+02 -0.42359674821E+01 -0.14118336396E+02  0.22350020855E+02  0.51100000000E-03 0.  1.
         12    1    3    3    0    0 -0.74670544643E+01  0.12553502511E+02 -0.16494869999E+02  0.22032432094E+02  0.00000000000E+00 0. -1.
</event>
<event>
 7    1  0.1023000E-012  0.5052887E+02  0.7816164E-02  0.1300439E+00
        -11   -1    0    0    0    0  0.00000000000E+00  0.00000000000E+00  0.45593999997E+02  0.45594000000E+02  0.51100000000E-03 0.  1.
         11   -1    0    0    0    0 -0.00000000000E+00 -0.00000000000E+00 -0.45593999997E+02  0.45594000000E+02  0.51100000000E-03 0. -1.
    9900012    2    1    2    0    0  0.31506031681E+02  0.92114218243E+01 -0.23993427874E+02  0.50528869347E+02  0.30000028867E+02 0.  0.
        -12    1    1    2    0    0 -0.31506031681E+02 -0.92114218243E+01  0.23993427874E+02  0.40659130653E+02  0.00000000000E+00 0.  1.
         11    1    3    3    0    0  0.16565435546E+02  0.13055895089E+02  0.27050981839E+00  0.21093677423E+02  0.51100000000E-03 0. -1.
        -11    1    3    3    0    0  0.38034932696E+01 -0.39799843188E+01 -0.73411978788E+01  0.91760570392E+01  0.51100000000E-03 0.  1.
         12    1    3    3    0    0  0.11137102865E+02  0.13551105388E+00 -0.16922739814E+02  0.20259134885E+02  0.00000000000E+00 0. -1.
</event>
<event>
 7    1  0.1023000E-012  0.5052886E+02  0.7816164E-02  0.1300439E+00
        -11   -1    0    0    0    0  0.00000000000E+00  0.00000000000E+00  0.45593999997E+02  0.45594000000E+02  0.51100000000E-03 0.  1.
         11   -1    0    0    0    0 -0.00000000000E+00 -0.00000000000E+00 -0.45593999997E+02  0.45594000000E+02  0.51100000000E-03 0. -1.
    9900012    2    1    2    0    0  0.28637759697E+02 -0.22378217195E+02 -0.18227984765E+02  0.50528864324E+02  0.30000013599E+02 0.  0.
        -12    1    1    2    0    0 -0.28637759697E+02  0.22378217195E+02  0.18227984765E+02  0.40659135676E+02  0.00000000000E+00 0.  1.
         11    1    3    3    0    0  0.21423054296E+02 -0.92615602660E+01 -0.21583233971E+02  0.31789302334E+02  0.51100000000E-03 0. -1.
        -11    1    3    3    0    0  0.70291435352E-01 -0.85395211087E+01  0.52784933059E+01  0.10039464801E+02  0.51100000000E-03 0.  1.
        -12    1    3    3    0    0  0.71444139655E+01 -0.45771358206E+01 -0.19232440999E+01  0.87000971890E+01  0.00000000000E+00 0.  1.
</event>
<event>
 7    1  0.1023000E-012  0.5052886E+02  0.7816164E-02  0.1300439E+00
        -11   -1    0    0    0    0  0.00000000000E+00  0.00000000000E+00  0.45593999997E+02  0.45594000000E+02  0.51100000000E-03 0. -1.
         11   -1    0    0    0    0 -0.00000000000E+00 -0.00000000000E+00 -0.45593999997E+02  0.45594000000E+02  0.51100000000E-03 0.  1.
    9900012    2    1    2    0    0 -0.20686432856E+02 -0.34546934182E+02  0.56343714273E+01  0.50528864408E+02  0.30000013855E+02 0.  0.
        -12    1    1    2    0    0  0.20686432856E+02  0.34546934182E+02 -0.56343714273E+01  0.40659135592E+02  0.00000000000E+00 0.  1.
         11    1    3    3    0    0 -0.14174919658E+02 -0.68647399795E+01 -0.12784664577E+01  0.15801502430E+02  0.51100000000E-03 0. -1.
        -11    1    3    3    0    0 -0.96017142241E+01 -0.26007788881E+02  0.10555941109E+02  0.29665230346E+02  0.51100000000E-03 0.  1.
        -12    1    3    3    0    0  0.30902010262E+01 -0.16744053222E+01 -0.36431032239E+01  0.50621316326E+01  0.00000000000E+00 0.  1.
</event>
<event>
 7    1  0.1023000E-012  0.5052897E+02  0.7816164E-02  0.1300438E+00
        -11   -1    0    0    0    0  0.00000000000E+00  0.00000000000E+00  0.45593999997E+02  0.45594000000E+02  0.51100000000E-03 0.  1.
         11   -1    0    0    0    0 -0.00000000000E+00 -0.00000000000E+00 -0.45593999997E+02  0.45594000000E+02  0.51100000000E-03 0. -1.
    9900012    2    1    2    0    0 -0.92595818440E+01 -0.15155154402E+02 -0.36575101816E+02  0.50528971068E+02  0.30000338055E+02 0.  0.
        -12    1    1    2    0    0  0.92595818440E+01  0.15155154402E+02  0.36575101816E+02  0.40659028932E+02  0.00000000000E+00 0.  1.
         11    1    3    3    0    0 -0.23438693269E+01  0.56058853635E+01 -0.16806456083E+02  0.17871111898E+02  0.51100000000E-03 0. -1.
        -11    1    3    3    0    0 -0.16614261355E+01 -0.64627854390E+01  0.11594106142E+01  0.67728993546E+01  0.51100000000E-03 0.  1.
         12    1    3    3    0    0 -0.52542863816E+01 -0.14298254326E+02 -0.20928056347E+02  0.25884959815E+02  0.00000000000E+00 0. -1.
</event>
<event>
 7    1  0.1023000E-012  0.5052886E+02  0.7816164E-02  0.1300439E+00
        -11   -1    0    0    0    0  0.00000000000E+00  0.00000000000E+00  0.45593999997E+02  0.45594000000E+02  0.51100000000E-03 0.  1.
         11   -1    0    0    0    0 -0.00000000000E+00 -0.00000000000E+00 -0.45593999997E+02  0.45594000000E+02  0.51100000000E-03 0. -1.
    9900012    2    1    2    0    0 -0.71080009011E+01 -0.21532195509E+02 -0.33749166020E+02  0.50528864159E+02  0.30000013099E+02 0.  0.
        -12    1    1    2    0    0  0.71080009011E+01  0.21532195509E+02  0.33749166020E+02  0.40659135841E+02  0.00000000000E+00 0.  1.
         11    1    3    3    0    0 -0.83135862335E+01 -0.77889553066E+01 -0.13428281335E+02  0.17609721199E+02  0.51100000000E-03 0. -1.
        -11    1    3    3    0    0  0.89374486230E+01 -0.76941049849E+01 -0.17623270321E+01  0.11924052844E+02  0.51100000000E-03 0.  1.
        -12    1    3    3    0    0 -0.77318632906E+01 -0.60491352178E+01 -0.18558557653E+02  0.20995090116E+02  0.00000000000E+00 0.  1.
</event>
<event>
 7    1  0.1023000E-012  0.5052885E+02  0.7816164E-02  0.1300439E+00
        -11   -1    0    0    0    0  0.00000000000E+00  0.00000000000E+00  0.45593999997E+02  0.45594000000E+02  0.51100000000E-03 0. -1.
         11   -1    0    0    0    0 -0.00000000000E+00 -0.00000000000E+00 -0.45593999997E+02  0.45594000000E+02  0.51100000000E-03 0.  1.
    9900012    2    1    2    0    0 -0.33916314550E+01 -0.40481838256E+02  0.16981519084E+01  0.50528854505E+02  0.29999983753E+02 0.  0.
        -12    1    1    2    0    0  0.33916314550E+01  0.40481838256E+02 -0.16981519084E+01  0.40659145495E+02  0.00000000000E+00 0.  1.
         11    1    3    3    0    0  0.41961710335E+00 -0.30262062190E+02  0.12756069688E+02  0.32843352457E+02  0.51100000000E-03 0. -1.
        -11    1    3    3    0    0  0.17245884651E+01  0.44853997776E+00 -0.15033997165E+01  0.23314382801E+01  0.51100000000E-03 0.  1.
         12    1    3    3    0    0 -0.55358370234E+01 -0.10668316044E+02 -0.95545180627E+01  0.15354063767E+02  0.00000000000E+00 0. -1.
</event>
<event>
 7    1  0.1023000E-012  0.5052886E+02  0.7816164E-02  0.1300439E+00
        -11   -1    0    0    0    0  0.00000000000E+00  0.00000000000E+00  0.45593999997E+02  0.45594000000E+02  0.51100000000E-03 0.  1.
         11   -1    0    0    0    0 -0.00000000000E+00 -0.00000000000E+00 -0.45593999997E+02  0.45594000000E+02  0.51100000000E-03 0. -1.
    9900012    2    1    2    0    0  0.23022352448E+02 -0.13078002633E+02 -0.30856156925E+02  0.50528864676E+02  0.30000014668E+02 0.  0.
        -12    1    1    2    0    0 -0.23022352448E+02  0.13078002633E+02  0.30856156925E+02  0.40659135324E+02  0.00000000000E+00 0.  1.
         11    1    3    3    0    0  0.18865604587E+02 -0.10162740272E+02 -0.26808782766E+02  0.34320593817E+02  0.51100000000E-03 0. -1.
        -11    1    3    3    0    0 -0.26021204142E+01  0.41647471568E+01  0.12653533850E+01  0.50712196738E+01  0.51100000000E-03 0.  1.
        -12    1    3    3    0    0  0.67588682752E+01 -0.70800095181E+01 -0.53127275443E+01  0.11137051185E+02  0.00000000000E+00 0.  1.
</event>
<event>
 7    1  0.1023000E-012  0.5052885E+02  0.7816164E-02  0.1300439E+00
        -11   -1    0    0    0    0  0.00000000000E+00  0.00000000000E+00  0.45593999997E+02  0.45594000000E+02  0.51100000000E-03 0. -1.
         11   -1    0    0    0    0 -0.00000000000E+00 -0.00000000000E+00 -0.45593999997E+02  0.45594000000E+02  0.51100000000E-03 0.  1.
    9900012    2    1    2    0    0 -0.28537424684E+02 -0.74191885842E+01  0.27995311335E+02  0.50528850678E+02  0.29999972122E+02 0.  0.
        -12    1    1    2    0    0  0.28537424684E+02  0.74191885842E+01 -0.27995311335E+02  0.40659149322E+02  0.00000000000E+00 0.  1.
         11    1    3    3    0    0 -0.16159498610E+02 -0.10129720265E+02  0.31177523260E+02  0.36548304815E+02  0.51100000000E-03 0. -1.
        -11    1    3    3    0    0 -0.46987609302E+01 -0.11452558838E+00 -0.33907281016E+01  0.57955593095E+01  0.51100000000E-03 0.  1.
         12    1    3    3    0    0 -0.76791651441E+01  0.28250572694E+01  0.20851617613E+00  0.81849865535E+01  0.00000000000E+00 0. -1.
</event>
<event>
 7    1  0.1023000E-012  0.5052887E+02  0.7816164E-02  0.1300439E+00
        -11   -1    0    0    0    0  0.00000000000E+00  0.00000000000E+00  0.45593999997E+02  0.45594000000E+02  0.51100000000E-03 0.  1.
         11   -1    0    0    0    0 -0.00000000000E+00 -0.00000000000E+00 -0.45593999997E+02  0.45594000000E+02  0.51100000000E-03 0. -1.
    9900012    2    1    2    0    0  0.19219718162E+02  0.12518336353E+02 -0.33571687185E+02  0.50528874435E+02  0.30000044331E+02 0.  0.
        -12    1    1    2    0    0 -0.19219718162E+02 -0.12518336353E+02  0.33571687185E+02  0.40659125565E+02  0.00000000000E+00 0.  1.
         11    1    3    3    0    0 -0.20817379679E+01  0.71688014246E+01 -0.22385681741E+02  0.23597544239E+02  0.51100000000E-03 0. -1.
        -11    1    3    3    0    0  0.36778923953E+01 -0.23606869042E+01  0.53874813039E+00  0.44034060612E+01  0.51100000000E-03 0.  1.
         12    1    3    3    0    0  0.17623563735E+02  0.77102218326E+01 -0.11724753574E+02  0.22527924134E+02  0.00000000000E+00 0. -1.
</event>
<event>
 7    1  0.1023000E-012  0.5052886E+02  0.7816164E-02  0.1300439E+00
        -11   -1    0    0    0    0  0.00000000000E+00  0.00000000000E+00  0.45593999997E+02  0.45594000000E+02  0.51100000000E-03 0.  1.
         11   -1    0    0    0    0 -0.00000000000E+00 -0.00000000000E+00 -0.45593999997E+02  0.45594000000E+02  0.51100000000E-03 0. -1.
    9900012    2    1    2    0    0 -0.69091202699E+01  0.24429345203E+02 -0.31759037829E+02  0.50528864079E+02  0.30000012856E+02 0.  0.
        -12    1    1    2    0    0  0.69091202699E+01 -0.24429345203E+02  0.31759037829E+02  0.40659135921E+02  0.00000000000E+00 0.  1.
         11    1    3    3    0    0 -0.11604711586E+02  0.19077255713E+02 -0.30538814206E+02  0.37831603057E+02  0.51100000000E-03 0. -1.
        -11    1    3    3    0    0 -0.13154062095E+01 -0.10823180445E+01  0.25923889680E+01  0.31019649689E+01  0.51100000000E-03 0.  1.
         12    1    3    3    0    0  0.60109975252E+01  0.64344075349E+01 -0.38126125913E+01  0.95952960530E+01  0.00000000000E+00 0. -1.
</event>
<event>
 7    1  0.1023000E-012  0.5052886E+02  0.7816164E-02  0.1300439E+00
        -11   -1    0    0    0    0  0.00000000000E+00  0.00000000000E+00  0.45593999997E+02  0.45594000000E+02  0.51100000000E-03 0.  1.
         11   -1    0    0    0    0 -0.00000000000E+00 -0.00000000000E+00 -0.45593999997E+02  0.45594000000E+02  0.51100000000E-03 0. -1.
    9900012    2    1    2    0    0 -0.68088568820E+01 -0.20483379234E+02 -0.34456293585E+02  0.50528861735E+02  0.30000005730E+02 0.  0.
        -12    1    1    2    0    0  0.68088568820E+01  0.20483379234E+02  0.34456293585E+02  0.40659138265E+02  0.00000000000E+00 0.  1.
         11    1    3    3    0    0  0.33730984115E+00  0.23058489854E+01 -0.21606169997E+02  0.21731481764E+02  0.51100000000E-03 0. -1.
        -11    1    3    3    0    0 -0.93687712625E+01 -0.20470268216E+02 -0.11803606048E+02  0.25419104465E+02  0.51100000000E-03 0.  1.
         12    1    3    3    0    0  0.22226045394E+01 -0.23189600028E+01 -0.10465175404E+01  0.33782755061E+01  0.00000000000E+00 0. -1.
</event>
<event>
 7    1  0.1023000E-012  0.5052884E+02  0.7816164E-02  0.1300439E+00
        -11   -1    0    0    0    0  0.00000000000E+00  0.00000000000E+00  0.45593999997E+02  0.45594000000E+02  0.51100000000E-03 0.  1.
         11   -1    0    0    0    0 -0.00000000000E+00 -0.00000000000E+00 -0.45593999997E+02  0.45594000000E+02  0.51100000000E-03 0. -1.
    9900012    2    1    2    0    0  0.33844517044E+02 -0.15484344710E+02 -0.16369213612E+02  0.50528838433E+02  0.29999934901E+02 0.  0.
        -12    1    1    2    0    0 -0.33844517044E+02  0.15484344710E+02  0.16369213612E+02  0.40659161567E+02  0.00000000000E+00 0.  1.
         11    1    3    3    0    0  0.27644789413E+02 -0.16041756039E+02 -0.82760402523E+01  0.33016134859E+02  0.51100000000E-03 0. -1.
        -11    1    3    3    0    0 -0.35451935347E+01 -0.32848685180E+01 -0.12221101532E+01  0.49852093102E+01  0.51100000000E-03 0.  1.
         12    1    3    3    0    0  0.97449211657E+01  0.38422798471E+01 -0.68710632062E+01  0.12527494264E+02  0.00000000000E+00 0. -1.
</event>
<event>
 7    1  0.1023000E-012  0.5052884E+02  0.7816164E-02  0.1300439E+00
        -11   -1    0    0    0    0  0.00000000000E+00  0.00000000000E+00  0.45593999997E+02  0.45594000000E+02  0.51100000000E-03 0.  1.
         11   -1    0    0    0    0 -0.00000000000E+00 -0.00000000000E+00 -0.45593999997E+02  0.45594000000E+02  0.51100000000E-03 0. -1.
    9900012    2    1    2    0    0  0.33763921465E+02 -0.13265605429E+02 -0.18362696116E+02  0.50528840039E+02  0.29999939782E+02 0.  0.
        -12    1    1    2    0    0 -0.33763921465E+02  0.13265605429E+02  0.18362696116E+02  0.40659159961E+02  0.00000000000E+00 0.  1.
         11    1    3    3    0    0  0.17789103085E+02  0.37322544804E+01 -0.20293896052E+01  0.18289350303E+02  0.51100000000E-03 0. -1.
        -11    1    3    3    0    0  0.12613832175E+02 -0.19030299087E+02 -0.10315581230E+02  0.25053388231E+02  0.51100000000E-03 0.  1.
         12    1    3    3    0    0  0.33609862041E+01  0.20324391773E+01 -0.60177252813E+01  0.71861015046E+01  0.00000000000E+00 0. -1.
</event>
<event>
 7    1  0.1090604E-012  0.5052888E+02  0.7816164E-02  0.1300439E+00
        -11   -1    0    0    0    0  0.00000000000E+00  0.00000000000E+00  0.45593999997E+02  0.45594000000E+02  0.51100000000E-03 0.  1.
         11   -1    0    0    0    0 -0.00000000000E+00 -0.00000000000E+00 -0.45593999997E+02  0.45594000000E+02  0.51100000000E-03 0. -1.
    9900012    2    1    2    0    0  0.25052741613E+02 -0.13939749944E+02 -0.28830675173E+02  0.50528876525E+02  0.30000050684E+02 0.  0.
        -12    1    1    2    0    0 -0.25052741613E+02  0.13939749944E+02  0.28830675173E+02  0.40659123475E+02  0.00000000000E+00 0.  1.
         11    1    3    3    0    0  0.19666701704E+02 -0.10327667836E+02 -0.10250746440E+02  0.24464621021E+02  0.51100000000E-03 0. -1.
        -11    1    3    3    0    0 -0.43987624903E+01  0.15443161616E+01 -0.26593398866E+00  0.46695551180E+01  0.51100000000E-03 0.  1.
         12    1    3    3    0    0  0.97848023995E+01 -0.51563982690E+01 -0.18313994744E+02  0.21394700386E+02  0.00000000000E+00 0. -1.
</event>
<event>
 7    1  0.1023000E-012  0.5052885E+02  0.7816164E-02  0.1300439E+00
        -11   -1    0    0    0    0  0.00000000000E+00  0.00000000000E+00  0.45593999997E+02  0.45594000000E+02  0.51100000000E-03 0. -1.
         11   -1    0    0    0    0 -0.00000000000E+00 -0.00000000000E+00 -0.45593999997E+02  0.45594000000E+02  0.51100000000E-03 0.  1.
    9900012    2    1    2    0    0 -0.31121954434E+02  0.21707072439E+02  0.14608000357E+02  0.50528847081E+02  0.29999961187E+02 0.  0.
        -12    1    1    2    0    0  0.31121954434E+02 -0.21707072439E+02 -0.14608000357E+02  0.40659152919E+02  0.00000000000E+00 0.  1.
         11    1    3    3    0    0 -0.19537543342E+02  0.21148824788E+02  0.18450140713E+02  0.34196433766E+02  0.51100000000E-03 0. -1.
        -11    1    3    3    0    0 -0.18856124645E+01 -0.45366907577E+01 -0.99112694754E+00  0.50119287988E+01  0.51100000000E-03 0.  1.
         12    1    3    3    0    0 -0.96987986276E+01  0.50949384090E+01 -0.28510134087E+01  0.11320484516E+02  0.00000000000E+00 0. -1.
</event>
<event>
 7    1  0.1023000E-012  0.5052885E+02  0.7816164E-02  0.1300439E+00
        -11   -1    0    0    0    0  0.00000000000E+00  0.00000000000E+00  0.45593999997E+02  0.45594000000E+02  0.51100000000E-03 0. -1.
         11   -1    0    0    0    0 -0.00000000000E+00 -0.00000000000E+00 -0.45593999997E+02  0.45594000000E+02  0.51100000000E-03 0.  1.
    9900012    2    1    2    0    0 -0.39529865668E+02 -0.68648572099E+01 -0.65901485785E+01  0.50528848478E+02  0.29999965433E+02 0.  0.
        -12    1    1    2    0    0  0.39529865668E+02  0.68648572099E+01  0.65901485785E+01  0.40659151522E+02  0.00000000000E+00 0.  1.
         11    1    3    3    0    0 -0.48863007506E+01 -0.19886465826E+01  0.37481257012E+01  0.64714060906E+01  0.51100000000E-03 0. -1.
        -11    1    3    3    0    0 -0.26842435854E+02 -0.86621914848E+01 -0.17167953366E+02  0.33019517667E+02  0.51100000000E-03 0.  1.
        -12    1    3    3    0    0 -0.78011290628E+01  0.37859808575E+01  0.68296790862E+01  0.11037924720E+02  0.00000000000E+00 0.  1.
</event>
<event>
 7    1  0.1023000E-012  0.5052886E+02  0.7816164E-02  0.1300439E+00
        -11   -1    0    0    0    0  0.00000000000E+00  0.00000000000E+00  0.45593999997E+02  0.45594000000E+02  0.51100000000E-03 0. -1.
         11   -1    0    0    0    0 -0.00000000000E+00 -0.00000000000E+00 -0.45593999997E+02  0.45594000000E+02  0.51100000000E-03 0.  1.
    9900012    2    1    2    0    0  0.18203947775E+02 -0.26035922699E+02  0.25375441116E+02  0.50528855921E+02  0.29999988058E+02 0.  0.
        -12    1    1    2    0    0 -0.18203947775E+02  0.26035922699E+02 -0.25375441116E+02  0.40659144079E+02  0.00000000000E+00 0.  1.
         11    1    3    3    0    0  0.16985712338E+02 -0.15356523290E+02  0.53335183048E+00  0.22904621709E+02  0.51100000000E-03 0. -1.
        -11    1    3    3    0    0 -0.16255918638E+01 -0.60138218869E+01  0.97170825410E+01  0.11542542873E+02  0.51100000000E-03 0.  1.
         12    1    3    3    0    0  0.28438273009E+01 -0.46655775223E+01  0.15125006744E+02  0.16081691340E+02  0.00000000000E+00 0. -1.
</event>
<event>
 7    1  0.1023000E-012  0.5052885E+02  0.7816164E-02  0.1300439E+00
        -11   -1    0    0    0    0  0.00000000000E+00  0.00000000000E+00  0.45593999997E+02  0.45594000000E+02  0.51100000000E-03 0.  1.
         11   -1    0    0    0    0 -0.00000000000E+00 -0.00000000000E+00 -0.45593999997E+02  0.45594000000E+02  0.51100000000E-03 0. -1.
    9900012    2    1    2    0    0  0.17638711896E+02  0.35678233401E+02  0.83130088396E+01  0.50528848362E+02  0.29999965082E+02 0.  0.
        -12    1    1    2    0    0 -0.17638711896E+02 -0.35678233401E+02 -0.83130088396E+01  0.40659151638E+02  0.00000000000E+00 0.  1.
         11    1    3    3    0    0  0.11796834632E+02  0.33123277309E+02  0.94443410667E+01  0.36407586922E+02  0.51100000000E-03 0. -1.
        -11    1    3    3    0    0 -0.29427859380E+01 -0.23434264179E+01  0.88153257035E+00  0.38637723001E+01  0.51100000000E-03 0.  1.
         12    1    3    3    0    0  0.87846632012E+01  0.48983825091E+01 -0.20128647975E+01  0.10257489140E+02  0.00000000000E+00 0. -1.
</event>
<event>
 7    1  0.1023000E-012  0.5052888E+02  0.7816164E-02  0.1300439E+00
        -11   -1    0    0    0    0  0.00000000000E+00  0.00000000000E+00  0.45593999997E+02  0.45594000000E+02  0.51100000000E-03 0.  1.
         11   -1    0    0    0    0 -0.00000000000E+00 -0.00000000000E+00 -0.45593999997E+02  0.45594000000E+02  0.51100000000E-03 0. -1.
    9900012    2    1    2    0    0 -0.36042173913E+02  0.20321427059E+01 -0.18708177564E+02  0.50528882792E+02  0.30000069734E+02 0.  0.
        -12    1    1    2    0    0  0.36042173913E+02 -0.20321427059E+01  0.18708177564E+02  0.40659117208E+02  0.00000000000E+00 0.  1.
         11    1    3    3    0    0 -0.26175370848E+02  0.75304501862E+01 -0.11662298003E+02  0.29628818978E+02  0.51100000000E-03 0. -1.
        -11    1    3    3    0    0 -0.35460661976E+01 -0.60849437885E+01  0.40444649181E+01  0.81215037476E+01  0.51100000000E-03 0.  1.
        -12    1    3    3    0    0 -0.63207368677E+01  0.58663630824E+00 -0.11090344479E+02  0.12778560067E+02  0.00000000000E+00 0.  1.
</event>
<event>
 7    1  0.1023000E-012  0.5052887E+02  0.7816164E-02  0.1300439E+00
        -11   -1    0    0    0    0  0.00000000000E+00  0.00000000000E+00  0.45593999997E+02  0.45594000000E+02  0.51100000000E-03 0.  1.
         11   -1    0    0    0    0 -0.00000000000E+00 -0.00000000000E+00 -0.45593999997E+02  0.45594000000E+02  0.51100000000E-03 0. -1.
    9900012    2    1    2    0    0  0.24526504814E+02 -0.46071889542E+01 -0.32099682661E+02  0.50528865044E+02  0.30000015787E+02 0.  0.
        -12    1    1    2    0    0 -0.24526504814E+02  0.46071889542E+01  0.32099682661E+02  0.40659134956E+02  0.00000000000E+00 0.  1.
         11    1    3    3    0    0  0.81244675827E+00 -0.95900820045E+01 -0.30320209070E+01  0.10090733057E+02  0.51100000000E-03 0. -1.
        -11    1    3    3    0    0  0.13751399547E+02  0.94443954025E+01 -0.13692639540E+02  0.21582075245E+02  0.51100000000E-03 0.  1.
        -12    1    3    3    0    0  0.99626585089E+01 -0.44615023522E+01 -0.15375022213E+02  0.18856056742E+02  0.00000000000E+00 0.  1.
</event>
<event>
 7    1  0.1023000E-012  0.5052888E+02  0.7816164E-02  0.1300439E+00
        -11   -1    0    0    0    0  0.00000000000E+00  0.00000000000E+00  0.45593999997E+02  0.45594000000E+02  0.51100000000E-03 0. -1.
         11   -1    0    0    0    0 -0.00000000000E+00 -0.00000000000E+00 -0.45593999997E+02  0.45594000000E+02  0.51100000000E-03 0.  1.
    9900012    2    1    2    0    0  0.31608042662E+02 -0.25338936530E+02 -0.34689544666E+01  0.50528884042E+02  0.30000073534E+02 0.  0.
        -12    1    1    2    0    0 -0.31608042662E+02  0.25338936530E+02  0.34689544666E+01  0.40659115958E+02  0.00000000000E+00 0.  1.
         11    1    3    3    0    0  0.14995006921E+02 -0.14359641043E+02 -0.44849216900E+01  0.21240622549E+02  0.51100000000E-03 0. -1.
        -11    1    3    3    0    0  0.58773037307E+01  0.64942744181E+01  0.51593693883E+00  0.87740806098E+01  0.51100000000E-03 0.  1.
        -12    1    3    3    0    0  0.10735732010E+02 -0.17473569905E+02  0.50003028454E+00  0.20514180883E+02  0.00000000000E+00 0.  1.
</event>
<event>
 7    1  0.1023000E-012  0.5052886E+02  0.7816164E-02  0.1300439E+00
        -11   -1    0    0    0    0  0.00000000000E+00  0.00000000000E+00  0.45593999997E+02  0.45594000000E+02  0.51100000000E-03 0. -1.
         11   -1    0    0    0    0 -0.00000000000E+00 -0.00000000000E+00 -0.45593999997E+02  0.45594000000E+02  0.51100000000E-03 0.  1.
    9900012    2    1    2    0    0  0.19539101176E+02  0.89925113643E+01  0.34503973183E+02  0.50528857107E+02  0.29999991663E+02 0.  0.
        -12    1    1    2    0    0 -0.19539101176E+02 -0.89925113643E+01 -0.34503973183E+02  0.40659142893E+02  0.00000000000E+00 0.  1.
         11    1    3    3    0    0  0.54219634744E+01  0.16120437821E+02  0.28005454914E+02  0.32765404143E+02  0.51100000000E-03 0. -1.
        -11    1    3    3    0    0  0.59699722957E+01 -0.23854789107E+01  0.21158653389E+00  0.64324060792E+01  0.51100000000E-03 0.  1.
         12    1    3    3    0    0  0.81471654055E+01 -0.47424475460E+01  0.62869317342E+01  0.11331046885E+02  0.00000000000E+00 0. -1.
</event>
<event>
 7    1  0.1023000E-012  0.5052886E+02  0.7816164E-02  0.1300439E+00
        -11   -1    0    0    0    0  0.00000000000E+00  0.00000000000E+00  0.45593999997E+02  0.45594000000E+02  0.51100000000E-03 0. -1.
         11   -1    0    0    0    0 -0.00000000000E+00 -0.00000000000E+00 -0.45593999997E+02  0.45594000000E+02  0.51100000000E-03 0.  1.
    9900012    2    1    2    0    0 -0.31502397226E+02  0.12964818221E+02  0.22196348306E+02  0.50528863012E+02  0.30000009610E+02 0.  0.
        -12    1    1    2    0    0  0.31502397226E+02 -0.12964818221E+02 -0.22196348306E+02  0.40659136988E+02  0.00000000000E+00 0.  1.
         11    1    3    3    0    0 -0.18649844819E+02  0.53576086394E+01  0.22087689973E+01  0.19529448094E+02  0.51100000000E-03 0. -1.
        -11    1    3    3    0    0  0.11756998671E+01  0.90727582732E+01  0.10856196844E+02  0.14196979364E+02  0.51100000000E-03 0.  1.
         12    1    3    3    0    0 -0.14028252274E+02 -0.14655486912E+01  0.91313824642E+01  0.16802435554E+02  0.00000000000E+00 0. -1.
</event>
<event>
 7    1  0.1023000E-012  0.5052886E+02  0.7816164E-02  0.1300439E+00
        -11   -1    0    0    0    0  0.00000000000E+00  0.00000000000E+00  0.45593999997E+02  0.45594000000E+02  0.51100000000E-03 0. -1.
         11   -1    0    0    0    0 -0.00000000000E+00 -0.00000000000E+00 -0.45593999997E+02  0.45594000000E+02  0.51100000000E-03 0.  1.
    9900012    2    1    2    0    0  0.41983633731E+01  0.37900148154E+02 -0.14110917077E+02  0.50528862455E+02  0.30000007919E+02 0.  0.
        -12    1    1    2    0    0 -0.41983633731E+01 -0.37900148154E+02  0.14110917077E+02  0.40659137545E+02  0.00000000000E+00 0.  1.
         11    1    3    3    0    0  0.93370607716E+01  0.24646602473E+02 -0.30311147645E+01  0.26529669698E+02  0.51100000000E-03 0. -1.
        -11    1    3    3    0    0  0.58852405187E+00  0.54566742907E+01 -0.13022478358E+02  0.14131758479E+02  0.51100000000E-03 0.  1.
         12    1    3    3    0    0 -0.57272214504E+01  0.77968713902E+01  0.19426760450E+01  0.98674342781E+01  0.00000000000E+00 0. -1.
</event>
<event>
 7    1  0.1023000E-012  0.5052886E+02  0.7816164E-02  0.1300439E+00
        -11   -1    0    0    0    0  0.00000000000E+00  0.00000000000E+00  0.45593999997E+02  0.45594000000E+02  0.51100000000E-03 0. -1.
         11   -1    0    0    0    0 -0.00000000000E+00 -0.00000000000E+00 -0.45593999997E+02  0.45594000000E+02  0.51100000000E-03 0.  1.
    9900012    2    1    2    0    0  0.31124644457E+02  0.16258434370E+01  0.26110891030E+02  0.50528862160E+02  0.30000007022E+02 0.  0.
        -12    1    1    2    0    0 -0.31124644457E+02 -0.16258434370E+01 -0.26110891030E+02  0.40659137840E+02  0.00000000000E+00 0.  1.
         11    1    3    3    0    0  0.32697570200E+02 -0.40521187490E+01  0.19094898021E+02  0.38081043763E+02  0.51100000000E-03 0. -1.
        -11    1    3    3    0    0 -0.32312562092E+01 -0.57146778449E+00  0.59390210775E+00  0.33347131950E+01  0.51100000000E-03 0.  1.
         12    1    3    3    0    0  0.16583304664E+01  0.62494299705E+01  0.64220909009E+01  0.91131052025E+01  0.00000000000E+00 0. -1.
</event>
<event>
 7    1  0.1023000E-012  0.5052891E+02  0.7816164E-02  0.1300439E+00
        -11   -1    0    0    0    0  0.00000000000E+00  0.00000000000E+00  0.45593999997E+02  0.45594000000E+02  0.51100000000E-03 0.  1.
         11   -1    0    0    0    0 -0.00000000000E+00 -0.00000000000E+00 -0.45593999997E+02  0.45594000000E+02  0.51100000000E-03 0. -1.
    9900012    2    1    2    0    0  0.25025083370E+02  0.27678602384E+02 -0.16149352736E+02  0.50528912192E+02  0.30000159099E+02 0.  0.
        -12    1    1    2    0    0 -0.25025083370E+02 -0.27678602384E+02  0.16149352736E+02  0.40659087808E+02  0.00000000000E+00 0.  1.
         11    1    3    3    0    0  0.13194250792E+01  0.15650192130E+02 -0.16308524405E+02  0.22641496522E+02  0.51100000000E-03 0. -1.
        -11    1    3    3    0    0  0.14973900888E+02  0.35361473118E+01  0.21835194959E+01  0.15539942190E+02  0.51100000000E-03 0.  1.
         12    1    3    3    0    0  0.87317574026E+01  0.84922629421E+01 -0.20243478271E+01  0.12347473480E+02  0.00000000000E+00 0. -1.
</event>
<event>
 7    1  0.1023000E-012  0.5052891E+02  0.7816164E-02  0.1300439E+00
        -11   -1    0    0    0    0  0.00000000000E+00  0.00000000000E+00  0.45593999997E+02  0.45594000000E+02  0.51100000000E-03 0.  1.
         11   -1    0    0    0    0 -0.00000000000E+00 -0.00000000000E+00 -0.45593999997E+02  0.45594000000E+02  0.51100000000E-03 0. -1.
    9900012    2    1    2    0    0 -0.55357434455E+01  0.28414279056E+02 -0.28550761764E+02  0.50528908679E+02  0.30000148421E+02 0.  0.
        -12    1    1    2    0    0  0.55357434455E+01 -0.28414279056E+02  0.28550761764E+02  0.40659091321E+02  0.00000000000E+00 0.  1.
         11    1    3    3    0    0 -0.52670779305E+00  0.67337507090E+01 -0.14465306994E+02  0.15964520863E+02  0.51100000000E-03 0. -1.
        -11    1    3    3    0    0 -0.65546185637E+00  0.49726496671E+01  0.61682577259E+01  0.79501118602E+01  0.51100000000E-03 0.  1.
        -12    1    3    3    0    0 -0.43535737961E+01  0.16707878679E+02 -0.20253712496E+02  0.26614275956E+02  0.00000000000E+00 0.  1.
</event>
<event>
 7    1  0.1023000E-012  0.5052887E+02  0.7816164E-02  0.1300439E+00
        -11   -1    0    0    0    0  0.00000000000E+00  0.00000000000E+00  0.45593999997E+02  0.45594000000E+02  0.51100000000E-03 0.  1.
         11   -1    0    0    0    0 -0.00000000000E+00 -0.00000000000E+00 -0.45593999997E+02  0.45594000000E+02  0.51100000000E-03 0. -1.
    9900012    2    1    2    0    0 -0.50463731368E+01 -0.34523037947E+02 -0.20877234065E+02  0.50528869006E+02  0.30000027832E+02 0.  0.
        -12    1    1    2    0    0  0.50463731368E+01  0.34523037947E+02  0.20877234065E+02  0.40659130994E+02  0.00000000000E+00 0.  1.
         11    1    3    3    0    0  0.12800436831E+01 -0.33512625241E+01 -0.20128373103E+01  0.41135126881E+01  0.51100000000E-03 0. -1.
        -11    1    3    3    0    0  0.10202007534E+02 -0.17695721650E+02 -0.51664226921E+01  0.21069206111E+02  0.51100000000E-03 0.  1.
        -12    1    3    3    0    0 -0.16528424354E+02 -0.13476053773E+02 -0.13697974063E+02  0.25346150208E+02  0.00000000000E+00 0.  1.
</event>
<event>
 7    1  0.1023000E-012  0.5052886E+02  0.7816164E-02  0.1300439E+00
        -11   -1    0    0    0    0  0.00000000000E+00  0.00000000000E+00  0.45593999997E+02  0.45594000000E+02  0.51100000000E-03 0.  1.
         11   -1    0    0    0    0 -0.00000000000E+00 -0.00000000000E+00 -0.45593999997E+02  0.45594000000E+02  0.51100000000E-03 0. -1.
    9900012    2    1    2    0    0  0.89582347898E+01  0.49620407423E+01 -0.39348364645E+02  0.50528860571E+02  0.30000002192E+02 0.  0.
        -12    1    1    2    0    0 -0.89582347898E+01 -0.49620407423E+01  0.39348364645E+02  0.40659139429E+02  0.00000000000E+00 0.  1.
         11    1    3    3    0    0  0.88004604597E+01  0.67992539692E+01 -0.38279238042E+02  0.39861987208E+02  0.51100000000E-03 0. -1.
        -11    1    3    3    0    0  0.44302443275E+01  0.14876911745E+01  0.11551019467E+01  0.48139952846E+01  0.51100000000E-03 0.  1.
         12    1    3    3    0    0 -0.42724699974E+01 -0.33249044014E+01 -0.22242285494E+01  0.58528780781E+01  0.00000000000E+00 0. -1.
</event>
<event>
 7    1  0.1023000E-012  0.5052886E+02  0.7816164E-02  0.1300439E+00
        -11   -1    0    0    0    0  0.00000000000E+00  0.00000000000E+00  0.45593999997E+02  0.45594000000E+02  0.51100000000E-03 0.  1.
         11   -1    0    0    0    0 -0.00000000000E+00 -0.00000000000E+00 -0.45593999997E+02  0.45594000000E+02  0.51100000000E-03 0. -1.
    9900012    2    1    2    0    0  0.13167345416E+02 -0.19672310348E+02 -0.33057325055E+02  0.50528861795E+02  0.30000005913E+02 0.  0.
        -12    1    1    2    0    0 -0.13167345416E+02  0.19672310348E+02  0.33057325055E+02  0.40659138205E+02  0.00000000000E+00 0.  1.
         11    1    3    3    0    0  0.20385384736E+02 -0.17254182822E+02 -0.25521804166E+02  0.36940942379E+02  0.51100000000E-03 0. -1.
        -11    1    3    3    0    0 -0.72129711218E+01 -0.18790496695E+01 -0.15943225506E+01  0.76223122949E+01  0.51100000000E-03 0.  1.
         12    1    3    3    0    0 -0.50681985498E-02 -0.53907785647E+00 -0.59411983388E+01  0.59656071210E+01  0.00000000000E+00 0. -1.
</event>
<event>
 7    1  0.1023000E-012  0.5052886E+02  0.7816164E-02  0.1300439E+00
        -11   -1    0    0    0    0  0.00000000000E+00  0.00000000000E+00  0.45593999997E+02  0.45594000000E+02  0.51100000000E-03 0.  1.
         11   -1    0    0    0    0 -0.00000000000E+00 -0.00000000000E+00 -0.45593999997E+02  0.45594000000E+02  0.51100000000E-03 0. -1.
    9900012    2    1    2    0    0 -0.39476628446E+02  0.20741244144E+01  0.95110089950E+01  0.50528862310E+02  0.30000007478E+02 0.  0.
        -12    1    1    2    0    0  0.39476628446E+02 -0.20741244144E+01 -0.95110089950E+01  0.40659137690E+02  0.00000000000E+00 0.  1.
         11    1    3    3    0    0 -0.17016614123E+02 -0.88153145610E+01  0.67536872219E+01  0.20319626433E+02  0.51100000000E-03 0. -1.
        -11    1    3    3    0    0 -0.22441368508E+02  0.11520840354E+02 -0.20980253594E+01  0.25312970858E+02  0.51100000000E-03 0.  1.
        -12    1    3    3    0    0 -0.18645815210E-01 -0.63140137816E+00  0.48553471324E+01  0.48962650197E+01  0.00000000000E+00 0.  1.
</event>
<event>
 7    1  0.1023000E-012  0.5052888E+02  0.7816164E-02  0.1300439E+00
        -11   -1    0    0    0    0  0.00000000000E+00  0.00000000000E+00  0.45593999997E+02  0.45594000000E+02  0.51100000000E-03 0.  1.
         11   -1    0    0    0    0 -0.00000000000E+00 -0.00000000000E+00 -0.45593999997E+02  0.45594000000E+02  0.51100000000E-03 0. -1.
    9900012    2    1    2    0    0  0.31087051311E+02 -0.80672918833E+01 -0.24933474097E+02  0.50528879398E+02  0.30000059418E+02 0.  0.
        -12    1    1    2    0    0 -0.31087051311E+02  0.80672918833E+01  0.24933474097E+02  0.40659120602E+02  0.00000000000E+00 0.  1.
         11    1    3    3    0    0  0.19334569757E+02  0.52299780805E+01 -0.10069139402E+02  0.22417979993E+02  0.51100000000E-03 0. -1.
        -11    1    3    3    0    0  0.15582304772E+02 -0.11514261393E+02 -0.10501284921E+02  0.22037772634E+02  0.51100000000E-03 0.  1.
        -12    1    3    3    0    0 -0.38298232174E+01 -0.17830085707E+01 -0.43630497740E+01  0.60731267705E+01  0.00000000000E+00 0.  1.
</event>
<event>
 7    1  0.1023000E-012  0.5052877E+02  0.7816164E-02  0.1300439E+00
        -11   -1    0    0    0    0  0.00000000000E+00  0.00000000000E+00  0.45593999997E+02  0.45594000000E+02  0.51100000000E-03 0. -1.
         11   -1    0    0    0    0 -0.00000000000E+00 -0.00000000000E+00 -0.45593999997E+02  0.45594000000E+02  0.51100000000E-03 0.  1.
    9900012    2    1    2    0    0 -0.18624054421E+02 -0.16059115910E+01  0.36107322340E+02  0.50528768802E+02  0.29999723249E+02 0.  0.
        -12    1    1    2    0    0  0.18624054421E+02  0.16059115910E+01 -0.36107322340E+02  0.40659231198E+02  0.00000000000E+00 0.  1.
         11    1    3    3    0    0 -0.69747604290E+01 -0.21191637970E+01  0.11964991286E+02  0.14010680033E+02  0.51100000000E-03 0. -1.
        -11    1    3    3    0    0  0.25353263638E+00  0.32944481063E+01 -0.43802028509E+01  0.54866970391E+01  0.51100000000E-03 0.  1.
        -12    1    3    3    0    0 -0.11902826628E+02 -0.27811959003E+01  0.28522533904E+02  0.31031391730E+02  0.00000000000E+00 0.  1.
</event>
<event>
 7    1  0.1023000E-012  0.5052886E+02  0.7816164E-02  0.1300439E+00
        -11   -1    0    0    0    0  0.00000000000E+00  0.00000000000E+00  0.45593999997E+02  0.45594000000E+02  0.51100000000E-03 0.  1.
         11   -1    0    0    0    0 -0.00000000000E+00 -0.00000000000E+00 -0.45593999997E+02  0.45594000000E+02  0.51100000000E-03 0. -1.
    9900012    2    1    2    0    0 -0.37424762029E+01 -0.74043917303E+01 -0.39803697966E+02  0.50528861829E+02  0.30000006017E+02 0.  0.
        -12    1    1    2    0    0  0.37424762029E+01  0.74043917303E+01  0.39803697966E+02  0.40659138171E+02  0.00000000000E+00 0.  1.
         11    1    3    3    0    0 -0.89347954972E+01 -0.35984432457E+01 -0.32136661647E+02  0.33549133915E+02  0.51100000000E-03 0. -1.
        -11    1    3    3    0    0  0.64917442593E+01 -0.31922400778E+01 -0.11105026318E+02  0.13253480676E+02  0.51100000000E-03 0.  1.
         12    1    3    3    0    0 -0.12994249650E+01 -0.61370840671E+00  0.34379899991E+01  0.37262472385E+01  0.00000000000E+00 0. -1.
</event>
<event>
 7    1  0.1023000E-012  0.5052886E+02  0.7816164E-02  0.1300439E+00
        -11   -1    0    0    0    0  0.00000000000E+00  0.00000000000E+00  0.45593999997E+02  0.45594000000E+02  0.51100000000E-03 0.  1.
         11   -1    0    0    0    0 -0.00000000000E+00 -0.00000000000E+00 -0.45593999997E+02  0.45594000000E+02  0.51100000000E-03 0. -1.
    9900012    2    1    2    0    0  0.68570962458E+00 -0.22501118799E+02 -0.33858455054E+02  0.50528861747E+02  0.30000005766E+02 0.  0.
        -12    1    1    2    0    0 -0.68570962458E+00  0.22501118799E+02  0.33858455054E+02  0.40659138253E+02  0.00000000000E+00 0.  1.
         11    1    3    3    0    0 -0.15837799531E+00 -0.26876640288E+02 -0.30369913305E+02  0.40555030652E+02  0.51100000000E-03 0. -1.
        -11    1    3    3    0    0 -0.94723928177E+00  0.64614443333E+01 -0.19132440447E+01  0.68050002325E+01  0.51100000000E-03 0.  1.
         12    1    3    3    0    0  0.17913269017E+01 -0.20859228441E+01 -0.15752977041E+01  0.31688308628E+01  0.00000000000E+00 0. -1.
</event>
<event>
 7    1  0.1023000E-012  0.5052886E+02  0.7816164E-02  0.1300439E+00
        -11   -1    0    0    0    0  0.00000000000E+00  0.00000000000E+00  0.45593999997E+02  0.45594000000E+02  0.51100000000E-03 0. -1.
         11   -1    0    0    0    0 -0.00000000000E+00 -0.00000000000E+00 -0.45593999997E+02  0.45594000000E+02  0.51100000000E-03 0.  1.
    9900012    2    1    2    0    0  0.33349127396E+02 -0.34783334149E+01  0.22997887863E+02  0.50528856531E+02  0.29999989912E+02 0.  0.
        -12    1    1    2    0    0 -0.33349127396E+02  0.34783334149E+01 -0.22997887863E+02  0.40659143469E+02  0.00000000000E+00 0.  1.
         11    1    3    3    0    0  0.38897557386E+01 -0.45722987921E+01  0.67208945883E+01  0.90114671546E+01  0.51100000000E-03 0. -1.
        -11    1    3    3    0    0  0.32841833673E+02  0.22761379045E+01  0.18023289309E+02  0.37531397530E+02  0.51100000000E-03 0.  1.
        -12    1    3    3    0    0 -0.33824620148E+01 -0.11821725273E+01 -0.17462960339E+01  0.39859918470E+01  0.00000000000E+00 0.  1.
</event>
<event>
 7    1  0.1023000E-012  0.5052886E+02  0.7816164E-02  0.1300439E+00
        -11   -1    0    0    0    0  0.00000000000E+00  0.00000000000E+00  0.45593999997E+02  0.45594000000E+02  0.51100000000E-03 0.  1.
         11   -1    0    0    0    0 -0.00000000000E+00 -0.00000000000E+00 -0.45593999997E+02  0.45594000000E+02  0.51100000000E-03 0. -1.
    9900012    2    1    2    0    0  0.86835804187E+01 -0.14132803786E+02 -0.37121756272E+02  0.50528862030E+02  0.30000006627E+02 0.  0.
        -12    1    1    2    0    0 -0.86835804187E+01  0.14132803786E+02  0.37121756272E+02  0.40659137970E+02  0.00000000000E+00 0.  1.
         11    1    3    3    0    0 -0.29501580849E+01 -0.79676185309E+01 -0.21071476624E+02  0.22719892278E+02  0.51100000000E-03 0. -1.
        -11    1    3    3    0    0  0.12670697281E+02  0.33754114157E+01 -0.93330243063E+01  0.16094884740E+02  0.51100000000E-03 0.  1.
        -12    1    3    3    0    0 -0.10369587778E+01 -0.95405966703E+01 -0.67172553422E+01  0.11714085012E+02  0.00000000000E+00 0.  1.
</event>
<event>
 7    1  0.1023000E-012  0.5052886E+02  0.7816164E-02  0.1300439E+00
        -11   -1    0    0    0    0  0.00000000000E+00  0.00000000000E+00  0.45593999997E+02  0.45594000000E+02  0.51100000000E-03 0.  1.
         11   -1    0    0    0    0 -0.00000000000E+00 -0.00000000000E+00 -0.45593999997E+02  0.45594000000E+02  0.51100000000E-03 0. -1.
    9900012    2    1    2    0    0 -0.11925513753E+02 -0.21750789033E+02 -0.32215690991E+02  0.50528862678E+02  0.30000008595E+02 0.  0.
        -12    1    1    2    0    0  0.11925513753E+02  0.21750789033E+02  0.32215690991E+02  0.40659137322E+02  0.00000000000E+00 0.  1.
         11    1    3    3    0    0 -0.96714063667E+01  0.32581462585E+01 -0.88276255022E+01  0.13493650004E+02  0.51100000000E-03 0. -1.
        -11    1    3    3    0    0  0.15263827764E+01 -0.93269044698E+01 -0.10895879640E+01  0.95135794295E+01  0.51100000000E-03 0.  1.
         12    1    3    3    0    0 -0.37804901624E+01 -0.15682030821E+02 -0.22298477524E+02  0.27521633245E+02  0.00000000000E+00 0. -1.
</event>
<event>
 7    1  0.1023000E-012  0.5052887E+02  0.7816164E-02  0.1300439E+00
        -11   -1    0    0    0    0  0.00000000000E+00  0.00000000000E+00  0.45593999997E+02  0.45594000000E+02  0.51100000000E-03 0.  1.
         11   -1    0    0    0    0 -0.00000000000E+00 -0.00000000000E+00 -0.45593999997E+02  0.45594000000E+02  0.51100000000E-03 0. -1.
    9900012    2    1    2    0    0 -0.85806482098E+01  0.36681944773E+02 -0.15296158695E+02  0.50528867363E+02  0.30000022836E+02 0.  0.
        -12    1    1    2    0    0  0.85806482098E+01 -0.36681944773E+02  0.15296158695E+02  0.40659132637E+02  0.00000000000E+00 0.  1.
         11    1    3    3    0    0 -0.10377177320E+02  0.36169548267E+02 -0.16497129143E+02  0.41086217898E+02  0.51100000000E-03 0. -1.
        -11    1    3    3    0    0  0.52030548627E+01  0.20820374560E+01  0.49451704720E+00  0.56259405652E+01  0.51100000000E-03 0.  1.
         12    1    3    3    0    0 -0.34065257528E+01 -0.15696409499E+01  0.70645340111E+00  0.38167088996E+01  0.00000000000E+00 0. -1.
</event>
<event>
 7    1  0.1023000E-012  0.5052886E+02  0.7816164E-02  0.1300439E+00
        -11   -1    0    0    0    0  0.00000000000E+00  0.00000000000E+00  0.45593999997E+02  0.45594000000E+02  0.51100000000E-03 0.  1.
         11   -1    0    0    0    0 -0.00000000000E+00 -0.00000000000E+00 -0.45593999997E+02  0.45594000000E+02  0.51100000000E-03 0. -1.
    9900012    2    1    2    0    0 -0.67091133276E+01 -0.38972216000E+02 -0.94509086774E+01  0.50528862080E+02  0.30000006777E+02 0.  0.
        -12    1    1    2    0    0  0.67091133276E+01  0.38972216000E+02  0.94509086774E+01  0.40659137920E+02  0.00000000000E+00 0.  1.
         11    1    3    3    0    0  0.61644195138E+00 -0.24904762292E+02 -0.14376834728E+02  0.28763180676E+02  0.51100000000E-03 0. -1.
        -11    1    3    3    0    0 -0.84537462286E+01 -0.41082087479E+01  0.67583175606E+01  0.11576616990E+02  0.51100000000E-03 0.  1.
        -12    1    3    3    0    0  0.11281909497E+01 -0.99592449601E+01 -0.18323915095E+01  0.10189064414E+02  0.00000000000E+00 0.  1.
</event>
<event>
 7    1  0.1023000E-012  0.5052886E+02  0.7816164E-02  0.1300439E+00
        -11   -1    0    0    0    0  0.00000000000E+00  0.00000000000E+00  0.45593999997E+02  0.45594000000E+02  0.51100000000E-03 0.  1.
         11   -1    0    0    0    0 -0.00000000000E+00 -0.00000000000E+00 -0.45593999997E+02  0.45594000000E+02  0.51100000000E-03 0. -1.
    9900012    2    1    2    0    0 -0.23372686318E+02 -0.69042968100E+01 -0.32545561390E+02  0.50528863926E+02  0.30000012388E+02 0.  0.
        -12    1    1    2    0    0  0.23372686318E+02  0.69042968100E+01  0.32545561390E+02  0.40659136074E+02  0.00000000000E+00 0.  1.
         11    1    3    3    0    0 -0.34884501501E+01  0.10342685751E+01 -0.25044895383E+02  0.25307820549E+02  0.51100000000E-03 0. -1.
        -11    1    3    3    0    0 -0.16906619771E+02 -0.30837635136E+01 -0.89043921775E+01  0.19355402083E+02  0.51100000000E-03 0.  1.
        -12    1    3    3    0    0 -0.29776163965E+01 -0.48548018715E+01  0.14037261711E+01  0.58656412931E+01  0.00000000000E+00 0.  1.
</event>
<event>
 7    1  0.1023000E-012  0.5052886E+02  0.7816164E-02  0.1300439E+00
        -11   -1    0    0    0    0  0.00000000000E+00  0.00000000000E+00  0.45593999997E+02  0.45594000000E+02  0.51100000000E-03 0.  1.
         11   -1    0    0    0    0 -0.00000000000E+00 -0.00000000000E+00 -0.45593999997E+02  0.45594000000E+02  0.51100000000E-03 0. -1.
    9900012    2    1    2    0    0 -0.12604614452E+02  0.17340385725E+02 -0.34548518695E+02  0.50528862938E+02  0.30000009387E+02 0.  0.
        -12    1    1    2    0    0  0.12604614452E+02 -0.17340385725E+02  0.34548518695E+02  0.40659137062E+02  0.00000000000E+00 0.  1.
         11    1    3    3    0    0 -0.14203684466E+02  0.19561113297E+02 -0.27506806248E+02  0.36619751448E+02  0.51100000000E-03 0. -1.
        -11    1    3    3    0    0  0.39444101181E+01 -0.36521415168E+00  0.19628531838E+01  0.44209213337E+01  0.51100000000E-03 0.  1.
        -12    1    3    3    0    0 -0.23453401040E+01 -0.18555134202E+01 -0.90045656306E+01  0.94881901569E+01  0.00000000000E+00 0.  1.
</event>
<event>
 7    1  0.1023000E-012  0.5052886E+02  0.7816164E-02  0.1300439E+00
        -11   -1    0    0    0    0  0.00000000000E+00  0.00000000000E+00  0.45593999997E+02  0.45594000000E+02  0.51100000000E-03 0. -1.
         11   -1    0    0    0    0 -0.00000000000E+00 -0.00000000000E+00 -0.45593999997E+02  0.45594000000E+02  0.51100000000E-03 0.  1.
    9900012    2    1    2    0    0  0.31330809004E+02  0.22909810032E+02  0.12111441595E+02  0.50528855813E+02  0.29999987728E+02 0.  0.
        -12    1    1    2    0    0 -0.31330809004E+02 -0.22909810032E+02 -0.12111441595E+02  0.40659144187E+02  0.00000000000E+00 0.  1.
         11    1    3    3    0    0  0.29310547132E+02  0.26009974560E+02  0.10448170463E+02  0.40556025645E+02  0.51100000000E-03 0. -1.
        -11    1    3    3    0    0  0.51970448763E+01 -0.23633743881E+01  0.29988027889E+01  0.64488473677E+01  0.51100000000E-03 0.  1.
         12    1    3    3    0    0 -0.31767830044E+01 -0.73679014075E+00 -0.13355316569E+01  0.35239828001E+01  0.00000000000E+00 0. -1.
</event>
<event>
 7    1  0.1023000E-012  0.5052886E+02  0.7816164E-02  0.1300439E+00
        -11   -1    0    0    0    0  0.00000000000E+00  0.00000000000E+00  0.45593999997E+02  0.45594000000E+02  0.51100000000E-03 0. -1.
         11   -1    0    0    0    0 -0.00000000000E+00 -0.00000000000E+00 -0.45593999997E+02  0.45594000000E+02  0.51100000000E-03 0.  1.
    9900012    2    1    2    0    0 -0.29934931594E+02  0.21559187416E+02  0.17095807247E+02  0.50528864286E+02  0.30000013484E+02 0.  0.
        -12    1    1    2    0    0  0.29934931594E+02 -0.21559187416E+02 -0.17095807247E+02  0.40659135714E+02  0.00000000000E+00 0.  1.
         11    1    3    3    0    0  0.48876817180E+00  0.56786297692E-01  0.87253962777E+00  0.10017208556E+01  0.51100000000E-03 0. -1.
        -11    1    3    3    0    0  0.80871733771E+00  0.10506375527E+02  0.12280364680E+02  0.16181634880E+02  0.51100000000E-03 0.  1.
        -12    1    3    3    0    0 -0.31232417104E+02  0.10996025591E+02  0.39429029392E+01  0.33345508551E+02  0.00000000000E+00 0.  1.
</event>
<event>
 7    1  0.1023000E-012  0.5052883E+02  0.7816164E-02  0.1300439E+00
        -11   -1    0    0    0    0  0.00000000000E+00  0.00000000000E+00  0.45593999997E+02  0.45594000000E+02  0.51100000000E-03 0. -1.
         11   -1    0    0    0    0 -0.00000000000E+00 -0.00000000000E+00 -0.45593999997E+02  0.45594000000E+02  0.51100000000E-03 0.  1.
    9900012    2    1    2    0    0  0.32323330794E+02  0.12899769679E+02  0.21022988041E+02  0.50528833782E+02  0.29999920765E+02 0.  0.
        -12    1    1    2    0    0 -0.32323330794E+02 -0.12899769679E+02 -0.21022988041E+02  0.40659166218E+02  0.00000000000E+00 0.  1.
         11    1    3    3    0    0  0.43456164477E+01 -0.47196965290E+00  0.10215287248E+02  0.11111220972E+02  0.51100000000E-03 0. -1.
        -11    1    3    3    0    0  0.30407872099E+02  0.80847717487E+01  0.63770368288E+01  0.32104031192E+02  0.51100000000E-03 0.  1.
        -12    1    3    3    0    0 -0.24301577531E+01  0.52869675828E+01  0.44306639642E+01  0.73135816185E+01  0.00000000000E+00 0.  1.
</event>
<event>
 7    1  0.1023000E-012  0.5052886E+02  0.7816164E-02  0.1300439E+00
        -11   -1    0    0    0    0  0.00000000000E+00  0.00000000000E+00  0.45593999997E+02  0.45594000000E+02  0.51100000000E-03 0.  1.
         11   -1    0    0    0    0 -0.00000000000E+00 -0.00000000000E+00 -0.45593999997E+02  0.45594000000E+02  0.51100000000E-03 0. -1.
    9900012    2    1    2    0    0 -0.68607940633E+01 -0.26694586065E+02 -0.29891373648E+02  0.50528860328E+02  0.30000001452E+02 0.  0.
        -12    1    1    2    0    0  0.68607940633E+01  0.26694586065E+02  0.29891373648E+02  0.40659139672E+02  0.00000000000E+00 0.  1.
         11    1    3    3    0    0  0.65366649409E+01 -0.14834489738E+02 -0.43871517703E+01  0.16793962464E+02  0.51100000000E-03 0. -1.
        -11    1    3    3    0    0 -0.73983925773E+01  0.13951372627E+01 -0.84428655813E+01  0.11312143926E+02  0.51100000000E-03 0.  1.
         12    1    3    3    0    0 -0.59990664270E+01 -0.13255233590E+02 -0.17061356296E+02  0.22422753938E+02  0.00000000000E+00 0. -1.
</event>
<event>
 7    1  0.1023000E-012  0.5052886E+02  0.7816164E-02  0.1300439E+00
        -11   -1    0    0    0    0  0.00000000000E+00  0.00000000000E+00  0.45593999997E+02  0.45594000000E+02  0.51100000000E-03 0. -1.
         11   -1    0    0    0    0 -0.00000000000E+00 -0.00000000000E+00 -0.45593999997E+02  0.45594000000E+02  0.51100000000E-03 0.  1.
    9900012    2    1    2    0    0  0.48356908234E+01  0.39987430232E+02  0.55486346244E+01  0.50528857996E+02  0.29999994365E+02 0.  0.
        -12    1    1    2    0    0 -0.48356908234E+01 -0.39987430232E+02 -0.55486346244E+01  0.40659142004E+02  0.00000000000E+00 0.  1.
         11    1    3    3    0    0 -0.86596991364E+00  0.32355995616E+01  0.20224430963E+01  0.39127081099E+01  0.51100000000E-03 0. -1.
        -11    1    3    3    0    0 -0.60619202376E+01  0.32895946824E+02  0.60222514044E+01  0.33987611076E+02  0.51100000000E-03 0.  1.
        -12    1    3    3    0    0  0.11763580975E+02  0.38558838469E+01 -0.24960598763E+01  0.12628538811E+02  0.00000000000E+00 0.  1.
</event>
<event>
 7    1  0.1023000E-012  0.5052886E+02  0.7816164E-02  0.1300439E+00
        -11   -1    0    0    0    0  0.00000000000E+00  0.00000000000E+00  0.45593999997E+02  0.45594000000E+02  0.51100000000E-03 0.  1.
         11   -1    0    0    0    0 -0.00000000000E+00 -0.00000000000E+00 -0.45593999997E+02  0.45594000000E+02  0.51100000000E-03 0. -1.
    9900012    2    1    2    0    0 -0.39353633734E+02 -0.33520645242E+00 -0.10214942533E+02  0.50528857087E+02  0.29999991602E+02 0.  0.
        -12    1    1    2    0    0  0.39353633734E+02  0.33520645242E+00  0.10214942533E+02  0.40659142913E+02  0.00000000000E+00 0.  1.
         11    1    3    3    0    0 -0.27038795679E+02  0.10542506537E+02 -0.13388374624E+02  0.31960749227E+02  0.51100000000E-03 0. -1.
        -11    1    3    3    0    0 -0.11616087145E+02 -0.63319107540E+01  0.48041239416E+00  0.13238480679E+02  0.51100000000E-03 0.  1.
         12    1    3    3    0    0 -0.69875091075E+00 -0.45458022359E+01  0.26930196968E+01  0.53296271812E+01  0.00000000000E+00 0. -1.
</event>
<event>
 7    1  0.1023000E-012  0.5052886E+02  0.7816164E-02  0.1300439E+00
        -11   -1    0    0    0    0  0.00000000000E+00  0.00000000000E+00  0.45593999997E+02  0.45594000000E+02  0.51100000000E-03 0. -1.
         11   -1    0    0    0    0 -0.00000000000E+00 -0.00000000000E+00 -0.45593999997E+02  0.45594000000E+02  0.51100000000E-03 0.  1.
    9900012    2    1    2    0    0 -0.13739647406E+02 -0.26869074174E+02  0.27247768902E+02  0.50528856281E+02  0.29999989152E+02 0.  0.
        -12    1    1    2    0    0  0.13739647406E+02  0.26869074174E+02 -0.27247768902E+02  0.40659143719E+02  0.00000000000E+00 0.  1.
         11    1    3    3    0    0 -0.10246945492E+01 -0.16550834402E+02  0.27134817458E+02  0.31800604351E+02  0.51100000000E-03 0. -1.
        -11    1    3    3    0    0 -0.32564838529E+01 -0.64670043461E+01 -0.33046256810E+01  0.79591069504E+01  0.51100000000E-03 0.  1.
         12    1    3    3    0    0 -0.94584690037E+01 -0.38512354258E+01  0.34175771251E+01  0.10769144980E+02  0.00000000000E+00 0. -1.
</event>
<event>
 7    1  0.1023000E-012  0.5052892E+02  0.7816164E-02  0.1300439E+00
        -11   -1    0    0    0    0  0.00000000000E+00  0.00000000000E+00  0.45593999997E+02  0.45594000000E+02  0.51100000000E-03 0. -1.
         11   -1    0    0    0    0 -0.00000000000E+00 -0.00000000000E+00 -0.45593999997E+02  0.45594000000E+02  0.51100000000E-03 0.  1.
    9900012    2    1    2    0    0  0.66652605661E+01  0.35652995181E+02  0.18373873255E+02  0.50528917593E+02  0.30000175516E+02 0.  0.
        -12    1    1    2    0    0 -0.66652605661E+01 -0.35652995181E+02 -0.18373873255E+02  0.40659082407E+02  0.00000000000E+00 0.  1.
         11    1    3    3    0    0  0.61272177412E+01 -0.37945169628E+01  0.30159175709E+01  0.78126125774E+01  0.51100000000E-03 0. -1.
        -11    1    3    3    0    0 -0.43354349031E+00  0.13673619325E+02  0.25387679348E+01  0.13914063688E+02  0.51100000000E-03 0.  1.
         12    1    3    3    0    0  0.97158631512E+00  0.25773892818E+02  0.12819187750E+02  0.28802241328E+02  0.00000000000E+00 0. -1.
</event>
<event>
 7    1  0.1023000E-012  0.5052886E+02  0.7816164E-02  0.1300439E+00
        -11   -1    0    0    0    0  0.00000000000E+00  0.00000000000E+00  0.45593999997E+02  0.45594000000E+02  0.51100000000E-03 0.  1.
         11   -1    0    0    0    0 -0.00000000000E+00 -0.00000000000E+00 -0.45593999997E+02  0.45594000000E+02  0.51100000000E-03 0. -1.
    9900012    2    1    2    0    0 -0.14111034801E+02 -0.33401113470E+02 -0.18395926811E+02  0.50528858256E+02  0.29999995154E+02 0.  0.
        -12    1    1    2    0    0  0.14111034801E+02  0.33401113470E+02  0.18395926811E+02  0.40659141744E+02  0.00000000000E+00 0.  1.
         11    1    3    3    0    0  0.34802218654E+01 -0.14686033630E+02 -0.16018652587E+02  0.22008833657E+02  0.51100000000E-03 0. -1.
        -11    1    3    3    0    0 -0.57157624636E+01 -0.14674497123E+02 -0.26670948070E+01  0.15972607844E+02  0.51100000000E-03 0.  1.
         12    1    3    3    0    0 -0.11875494203E+02 -0.40405827168E+01  0.28982058307E+00  0.12547416755E+02  0.00000000000E+00 0. -1.
</event>
<event>
 7    1  0.1023000E-012  0.5052885E+02  0.7816164E-02  0.1300439E+00
        -11   -1    0    0    0    0  0.00000000000E+00  0.00000000000E+00  0.45593999997E+02  0.45594000000E+02  0.51100000000E-03 0. -1.
         11   -1    0    0    0    0 -0.00000000000E+00 -0.00000000000E+00 -0.45593999997E+02  0.45594000000E+02  0.51100000000E-03 0.  1.
    9900012    2    1    2    0    0  0.22296654945E+02 -0.29534238618E+02  0.16845011350E+02  0.50528849986E+02  0.29999970017E+02 0.  0.
        -12    1    1    2    0    0 -0.22296654945E+02  0.29534238618E+02 -0.16845011350E+02  0.40659150014E+02  0.00000000000E+00 0.  1.
         11    1    3    3    0    0 -0.96216886108E+00  0.13154912112E+01 -0.47595847312E+01  0.50308978441E+01  0.51100000000E-03 0. -1.
        -11    1    3    3    0    0 -0.98043683061E+00 -0.25816187467E+01  0.97947120168E+00  0.29300811982E+01  0.51100000000E-03 0.  1.
         12    1    3    3    0    0  0.24239260636E+02 -0.28268111082E+02  0.20625124880E+02  0.42567870944E+02  0.00000000000E+00 0. -1.
</event>
<event>
 7    1  0.1023000E-012  0.5052887E+02  0.7816164E-02  0.1300439E+00
        -11   -1    0    0    0    0  0.00000000000E+00  0.00000000000E+00  0.45593999997E+02  0.45594000000E+02  0.51100000000E-03 0. -1.
         11   -1    0    0    0    0 -0.00000000000E+00 -0.00000000000E+00 -0.45593999997E+02  0.45594000000E+02  0.51100000000E-03 0.  1.
    9900012    2    1    2    0    0  0.95537631815E+01  0.39007550835E+02 -0.63483539363E+01  0.50528868051E+02  0.30000024929E+02 0.  0.
        -12    1    1    2    0    0 -0.95537631815E+01 -0.39007550835E+02  0.63483539363E+01  0.40659131949E+02  0.00000000000E+00 0.  1.
         11    1    3    3    0    0  0.45407760002E+01  0.29945089638E+02 -0.13709346753E+02  0.33245649773E+02  0.51100000000E-03 0. -1.
        -11    1    3    3    0    0  0.22040629942E+01  0.11626085687E+02  0.54777129023E+01  0.13039520734E+02  0.51100000000E-03 0.  1.
         12    1    3    3    0    0  0.28089241871E+01 -0.25636244896E+01  0.18832799149E+01  0.42436975446E+01  0.00000000000E+00 0. -1.
</event>
<event>
 7    1  0.1023000E-012  0.5052886E+02  0.7816164E-02  0.1300439E+00
        -11   -1    0    0    0    0  0.00000000000E+00  0.00000000000E+00  0.45593999997E+02  0.45594000000E+02  0.51100000000E-03 0.  1.
         11   -1    0    0    0    0 -0.00000000000E+00 -0.00000000000E+00 -0.45593999997E+02  0.45594000000E+02  0.51100000000E-03 0. -1.
    9900012    2    1    2    0    0 -0.95965245001E+01  0.32841185004E+02 -0.21966549803E+02  0.50528855577E+02  0.29999987011E+02 0.  0.
        -12    1    1    2    0    0  0.95965245001E+01 -0.32841185004E+02  0.21966549803E+02  0.40659144423E+02  0.00000000000E+00 0.  1.
         11    1    3    3    0    0 -0.31365606469E+01 -0.21362766272E+01 -0.11826409282E+02  0.12420372269E+02  0.51100000000E-03 0. -1.
        -11    1    3    3    0    0 -0.74471786171E+01  0.16517522456E+02 -0.66184484300E+01  0.19289709104E+02  0.51100000000E-03 0.  1.
         12    1    3    3    0    0  0.98721476395E+00  0.18459939176E+02 -0.35216920909E+01  0.18818774204E+02  0.00000000000E+00 0. -1.
</event>
<event>
 7    1  0.1023000E-012  0.5052886E+02  0.7816164E-02  0.1300439E+00
        -11   -1    0    0    0    0  0.00000000000E+00  0.00000000000E+00  0.45593999997E+02  0.45594000000E+02  0.51100000000E-03 0. -1.
         11   -1    0    0    0    0 -0.00000000000E+00 -0.00000000000E+00 -0.45593999997E+02  0.45594000000E+02  0.51100000000E-03 0.  1.
    9900012    2    1    2    0    0  0.31464272163E+02 -0.20815275440E+02 -0.15162105352E+02  0.50528861383E+02  0.30000004658E+02 0.  0.
        -12    1    1    2    0    0 -0.31464272163E+02  0.20815275440E+02  0.15162105352E+02  0.40659138617E+02  0.00000000000E+00 0.  1.
         11    1    3    3    0    0 -0.43751737942E+01 -0.68194809136E+01  0.45343217069E-01  0.81024392580E+01  0.51100000000E-03 0. -1.
        -11    1    3    3    0    0  0.14797538306E+02 -0.10798027555E+02 -0.73816298632E+01  0.19749759459E+02  0.51100000000E-03 0.  1.
         12    1    3    3    0    0  0.21041907652E+02 -0.31977669711E+01 -0.78258187062E+01  0.22676662665E+02  0.00000000000E+00 0. -1.
</event>
<event>
 7    1  0.1023000E-012  0.5052887E+02  0.7816164E-02  0.1300439E+00
        -11   -1    0    0    0    0  0.00000000000E+00  0.00000000000E+00  0.45593999997E+02  0.45594000000E+02  0.51100000000E-03 0.  1.
         11   -1    0    0    0    0 -0.00000000000E+00 -0.00000000000E+00 -0.45593999997E+02  0.45594000000E+02  0.51100000000E-03 0. -1.
    9900012    2    1    2    0    0 -0.17978405572E+02  0.17249503439E+02 -0.32130930747E+02  0.50528866383E+02  0.30000019858E+02 0.  0.
        -12    1    1    2    0    0  0.17978405572E+02 -0.17249503439E+02  0.32130930747E+02  0.40659133617E+02  0.00000000000E+00 0.  1.
         11    1    3    3    0    0 -0.34943305682E+01  0.88270679145E+01 -0.23959189037E+02  0.25771500027E+02  0.51100000000E-03 0. -1.
        -11    1    3    3    0    0 -0.31474895304E+01  0.70866014476E+01  0.34323607584E+01  0.84798414524E+01  0.51100000000E-03 0.  1.
        -12    1    3    3    0    0 -0.11336585473E+02  0.13358340770E+01 -0.11604102469E+02  0.16277524903E+02  0.00000000000E+00 0.  1.
</event>
<event>
 7    1  0.1023000E-012  0.5052883E+02  0.7816164E-02  0.1300439E+00
        -11   -1    0    0    0    0  0.00000000000E+00  0.00000000000E+00  0.45593999997E+02  0.45594000000E+02  0.51100000000E-03 0.  1.
         11   -1    0    0    0    0 -0.00000000000E+00 -0.00000000000E+00 -0.45593999997E+02  0.45594000000E+02  0.51100000000E-03 0. -1.
    9900012    2    1    2    0    0 -0.23633904864E+01  0.30482894289E+02 -0.26802534708E+02  0.50528827288E+02  0.29999901024E+02 0.  0.
        -12    1    1    2    0    0  0.23633904864E+01 -0.30482894289E+02  0.26802534708E+02  0.40659172712E+02  0.00000000000E+00 0.  1.
         11    1    3    3    0    0  0.32333113655E+01  0.14480732877E+02 -0.84828266711E+01  0.17091058354E+02  0.51100000000E-03 0. -1.
        -11    1    3    3    0    0 -0.14227181701E+02  0.10351177168E+02 -0.12616051634E+02  0.21650042194E+02  0.51100000000E-03 0.  1.
         12    1    3    3    0    0  0.86304798486E+01  0.56509842442E+01 -0.57036564030E+01  0.11787726740E+02  0.00000000000E+00 0. -1.
</event>
<event>
 7    1  0.1023000E-012  0.5052886E+02  0.7816164E-02  0.1300439E+00
        -11   -1    0    0    0    0  0.00000000000E+00  0.00000000000E+00  0.45593999997E+02  0.45594000000E+02  0.51100000000E-03 0. -1.
         11   -1    0    0    0    0 -0.00000000000E+00 -0.00000000000E+00 -0.45593999997E+02  0.45594000000E+02  0.51100000000E-03 0.  1.
    9900012    2    1    2    0    0  0.25361517412E+02  0.31543804727E+02  0.38662487041E+01  0.50528855136E+02  0.29999985671E+02 0.  0.
        -12    1    1    2    0    0 -0.25361517412E+02 -0.31543804727E+02 -0.38662487041E+01  0.40659144864E+02  0.00000000000E+00 0.  1.
         11    1    3    3    0    0  0.12049182797E+02  0.31847274105E+01  0.10729594107E+02  0.16445348422E+02  0.51100000000E-03 0. -1.
        -11    1    3    3    0    0  0.28004326378E+01  0.19050545449E+02 -0.27374177592E+01  0.19448885857E+02  0.51100000000E-03 0.  1.
        -12    1    3    3    0    0  0.10511901977E+02  0.93085318675E+01 -0.41259276434E+01  0.14634620857E+02  0.00000000000E+00 0.  1.
</event>
<event>
 7    1  0.1023000E-012  0.5052886E+02  0.7816164E-02  0.1300439E+00
        -11   -1    0    0    0    0  0.00000000000E+00  0.00000000000E+00  0.45593999997E+02  0.45594000000E+02  0.51100000000E-03 0.  1.
         11   -1    0    0    0    0 -0.00000000000E+00 -0.00000000000E+00 -0.45593999997E+02  0.45594000000E+02  0.51100000000E-03 0. -1.
    9900012    2    1    2    0    0  0.11438089185E+02  0.28810249294E+02 -0.26311695385E+02  0.50528860036E+02  0.30000000566E+02 0.  0.
        -12    1    1    2    0    0 -0.11438089185E+02 -0.28810249294E+02  0.26311695385E+02  0.40659139964E+02  0.00000000000E+00 0.  1.
         11    1    3    3    0    0  0.10405654843E+02  0.20232858903E+01  0.15781138067E+01  0.10717358907E+02  0.51100000000E-03 0. -1.
        -11    1    3    3    0    0 -0.87655358127E+00  0.17117088624E+02 -0.11347953066E+02  0.20555756085E+02  0.51100000000E-03 0.  1.
         12    1    3    3    0    0  0.19089879229E+01  0.96698747790E+01 -0.16541856126E+02  0.19255745044E+02  0.00000000000E+00 0. -1.
</event>
<event>
 7    1  0.1023000E-012  0.5052886E+02  0.7816164E-02  0.1300439E+00
        -11   -1    0    0    0    0  0.00000000000E+00  0.00000000000E+00  0.45593999997E+02  0.45594000000E+02  0.51100000000E-03 0.  1.
         11   -1    0    0    0    0 -0.00000000000E+00 -0.00000000000E+00 -0.45593999997E+02  0.45594000000E+02  0.51100000000E-03 0. -1.
    9900012    2    1    2    0    0  0.28388298325E+02  0.10786663977E+01 -0.29087914126E+02  0.50528858947E+02  0.29999997255E+02 0.  0.
        -12    1    1    2    0    0 -0.28388298325E+02 -0.10786663977E+01  0.29087914126E+02  0.40659141053E+02  0.00000000000E+00 0.  1.
         11    1    3    3    0    0  0.20814637654E+02 -0.10445682209E+02 -0.16307504828E+02  0.28430549264E+02  0.51100000000E-03 0. -1.
        -11    1    3    3    0    0  0.92615301396E+01  0.12366890644E+02 -0.13009346985E+02  0.20197995791E+02  0.51100000000E-03 0.  1.
         12    1    3    3    0    0 -0.16878694682E+01 -0.84254203729E+00  0.22893768677E+00  0.19003138927E+01  0.00000000000E+00 0. -1.
</event>
<event>
 7    1  0.1023000E-012  0.5052886E+02  0.7816164E-02  0.1300439E+00
        -11   -1    0    0    0    0  0.00000000000E+00  0.00000000000E+00  0.45593999997E+02  0.45594000000E+02  0.51100000000E-03 0.  1.
         11   -1    0    0    0    0 -0.00000000000E+00 -0.00000000000E+00 -0.45593999997E+02  0.45594000000E+02  0.51100000000E-03 0. -1.
    9900012    2    1    2    0    0  0.35503909919E+02 -0.92590571410E+01 -0.17518777402E+02  0.50528864245E+02  0.30000013359E+02 0.  0.
        -12    1    1    2    0    0 -0.35503909919E+02  0.92590571410E+01  0.17518777402E+02  0.40659135755E+02  0.00000000000E+00 0.  1.
         11    1    3    3    0    0  0.13681999142E+02  0.10478910007E+02 -0.40911736251E+01  0.17712773847E+02  0.51100000000E-03 0. -1.
        -11    1    3    3    0    0  0.94491702701E+01 -0.79969883483E+01 -0.86536371610E+01  0.15103776939E+02  0.51100000000E-03 0.  1.
         12    1    3    3    0    0  0.12372740507E+02 -0.11740978800E+02 -0.47739666158E+01  0.17712313459E+02  0.00000000000E+00 0. -1.
</event>
<event>
 7    1  0.1023000E-012  0.5052887E+02  0.7816164E-02  0.1300439E+00
        -11   -1    0    0    0    0  0.00000000000E+00  0.00000000000E+00  0.45593999997E+02  0.45594000000E+02  0.51100000000E-03 0.  1.
         11   -1    0    0    0    0 -0.00000000000E+00 -0.00000000000E+00 -0.45593999997E+02  0.45594000000E+02  0.51100000000E-03 0. -1.
    9900012    2    1    2    0    0  0.19379924778E+02  0.19914641101E+02 -0.29681489145E+02  0.50528865572E+02  0.30000017393E+02 0.  0.
        -12    1    1    2    0    0 -0.19379924778E+02 -0.19914641101E+02  0.29681489145E+02  0.40659134428E+02  0.00000000000E+00 0.  1.
         11    1    3    3    0    0  0.29719356242E+01  0.89417419019E+01 -0.82804386956E+01  0.12544035031E+02  0.51100000000E-03 0. -1.
        -11    1    3    3    0    0 -0.91169232011E+00 -0.95061686278E+00 -0.16292957545E+02  0.16346110276E+02  0.51100000000E-03 0.  1.
        -12    1    3    3    0    0  0.17319681474E+02  0.11923516062E+02 -0.51080929038E+01  0.21638720266E+02  0.00000000000E+00 0.  1.
</event>
<event>
 7    1  0.1023000E-012  0.5052886E+02  0.7816164E-02  0.1300439E+00
        -11   -1    0    0    0    0  0.00000000000E+00  0.00000000000E+00  0.45593999997E+02  0.45594000000E+02  0.51100000000E-03 0.  1.
         11   -1    0    0    0    0 -0.00000000000E+00 -0.00000000000E+00 -0.45593999997E+02  0.45594000000E+02  0.51100000000E-03 0. -1.
    9900012    2    1    2    0    0  0.24358840339E+02  0.13430975859E+02 -0.29655037762E+02  0.50528862283E+02  0.30000007396E+02 0.  0.
        -12    1    1    2    0    0 -0.24358840339E+02 -0.13430975859E+02  0.29655037762E+02  0.40659137717E+02  0.00000000000E+00 0.  1.
         11    1    3    3    0    0  0.47628115539E+01  0.57360073032E+01 -0.11962760369E+02  0.14095878461E+02  0.51100000000E-03 0. -1.
        -11    1    3    3    0    0  0.98719249210E+01 -0.36532295333E+00  0.45333767798E+01  0.10869216522E+02  0.51100000000E-03 0.  1.
        -12    1    3    3    0    0  0.97241038642E+01  0.80602915091E+01 -0.22225654173E+02  0.25563767301E+02  0.00000000000E+00 0.  1.
</event>
<event>
 7    1  0.1023000E-012  0.5052885E+02  0.7816164E-02  0.1300439E+00
        -11   -1    0    0    0    0  0.00000000000E+00  0.00000000000E+00  0.45593999997E+02  0.45594000000E+02  0.51100000000E-03 0.  1.
         11   -1    0    0    0    0 -0.00000000000E+00 -0.00000000000E+00 -0.45593999997E+02  0.45594000000E+02  0.51100000000E-03 0. -1.
    9900012    2    1    2    0    0  0.10310077922E+02  0.25591009340E+02 -0.29865844429E+02  0.50528854298E+02  0.29999983124E+02 0.  0.
        -12    1    1    2    0    0 -0.10310077922E+02 -0.25591009340E+02  0.29865844429E+02  0.40659145702E+02  0.00000000000E+00 0.  1.
         11    1    3    3    0    0  0.12101275167E+01  0.22650951662E+02 -0.95696189093E+01  0.24619253159E+02  0.51100000000E-03 0. -1.
        -11    1    3    3    0    0  0.81340162968E+01  0.40042750151E+01 -0.21932066823E+02  0.23732087875E+02  0.51100000000E-03 0.  1.
        -12    1    3    3    0    0  0.96593410892E+00 -0.10642173373E+01  0.16358413034E+01  0.21775132638E+01  0.00000000000E+00 0.  1.
</event>
<event>
 7    1  0.1023000E-012  0.5052886E+02  0.7816164E-02  0.1300439E+00
        -11   -1    0    0    0    0  0.00000000000E+00  0.00000000000E+00  0.45593999997E+02  0.45594000000E+02  0.51100000000E-03 0.  1.
         11   -1    0    0    0    0 -0.00000000000E+00 -0.00000000000E+00 -0.45593999997E+02  0.45594000000E+02  0.51100000000E-03 0. -1.
    9900012    2    1    2    0    0  0.13836880150E+02 -0.15856839535E+02 -0.34788895933E+02  0.50528857208E+02  0.29999991970E+02 0.  0.
        -12    1    1    2    0    0 -0.13836880150E+02  0.15856839535E+02  0.34788895933E+02  0.40659142792E+02  0.00000000000E+00 0.  1.
         11    1    3    3    0    0 -0.16514974078E+01  0.45616334296E+01  0.10801604728E+01  0.49701800916E+01  0.51100000000E-03 0. -1.
        -11    1    3    3    0    0 -0.17167499990E+01 -0.13763363806E+01 -0.14908250035E+01  0.26578359324E+01  0.51100000000E-03 0.  1.
         12    1    3    3    0    0  0.17205127557E+02 -0.19042136584E+02 -0.34378231403E+02  0.42900841184E+02  0.00000000000E+00 0. -1.
</event>
<event>
 7    1  0.1023000E-012  0.5052886E+02  0.7816164E-02  0.1300439E+00
        -11   -1    0    0    0    0  0.00000000000E+00  0.00000000000E+00  0.45593999997E+02  0.45594000000E+02  0.51100000000E-03 0.  1.
         11   -1    0    0    0    0 -0.00000000000E+00 -0.00000000000E+00 -0.45593999997E+02  0.45594000000E+02  0.51100000000E-03 0. -1.
    9900012    2    1    2    0    0 -0.21041584170E+02  0.82193142981E+01 -0.33806217646E+02  0.50528859042E+02  0.29999997545E+02 0.  0.
        -12    1    1    2    0    0  0.21041584170E+02 -0.82193142981E+01  0.33806217646E+02  0.40659140958E+02  0.00000000000E+00 0.  1.
         11    1    3    3    0    0 -0.83417314238E+01 -0.44626368170E+01 -0.12628870729E+02  0.15779353176E+02  0.51100000000E-03 0. -1.
        -11    1    3    3    0    0  0.44796282434E+01  0.83882996384E+01 -0.49030762291E+01  0.10699102616E+02  0.51100000000E-03 0.  1.
        -12    1    3    3    0    0 -0.17179480990E+02  0.42936514767E+01 -0.16274270688E+02  0.24050403250E+02  0.00000000000E+00 0.  1.
</event>
<event>
 7    1  0.1023000E-012  0.5052886E+02  0.7816164E-02  0.1300439E+00
        -11   -1    0    0    0    0  0.00000000000E+00  0.00000000000E+00  0.45593999997E+02  0.45594000000E+02  0.51100000000E-03 0.  1.
         11   -1    0    0    0    0 -0.00000000000E+00 -0.00000000000E+00 -0.45593999997E+02  0.45594000000E+02  0.51100000000E-03 0. -1.
    9900012    2    1    2    0    0 -0.13810194938E+02 -0.36320651524E+02 -0.11968887007E+02  0.50528862435E+02  0.30000007857E+02 0.  0.
        -12    1    1    2    0    0  0.13810194938E+02  0.36320651524E+02  0.11968887007E+02  0.40659137565E+02  0.00000000000E+00 0.  1.
         11    1    3    3    0    0  0.46613749875E+01 -0.14570434392E+02 -0.96910093773E+01  0.18109158958E+02  0.51100000000E-03 0. -1.
        -11    1    3    3    0    0 -0.11366358119E+02 -0.15364331111E+02  0.57321289699E+01  0.19952796049E+02  0.51100000000E-03 0.  1.
        -12    1    3    3    0    0 -0.71052118070E+01 -0.63858860212E+01 -0.80100065999E+01  0.12466907428E+02  0.00000000000E+00 0.  1.
</event>
<event>
 7    1  0.1023000E-012  0.5052886E+02  0.7816164E-02  0.1300439E+00
        -11   -1    0    0    0    0  0.00000000000E+00  0.00000000000E+00  0.45593999997E+02  0.45594000000E+02  0.51100000000E-03 0.  1.
         11   -1    0    0    0    0 -0.00000000000E+00 -0.00000000000E+00 -0.45593999997E+02  0.45594000000E+02  0.51100000000E-03 0. -1.
    9900012    2    1    2    0    0  0.11910687835E+01  0.40258858181E+02 -0.55651980593E+01  0.50528859129E+02  0.29999997809E+02 0.  0.
        -12    1    1    2    0    0 -0.11910687835E+01 -0.40258858181E+02  0.55651980593E+01  0.40659140871E+02  0.00000000000E+00 0.  1.
         11    1    3    3    0    0  0.25121108191E+01  0.20313947730E+02  0.37301652673E+01  0.20805799824E+02  0.51100000000E-03 0. -1.
        -11    1    3    3    0    0  0.49480046821E+01 -0.52417499938E+00 -0.64212310056E+01  0.81234055453E+01  0.51100000000E-03 0.  1.
        -12    1    3    3    0    0 -0.62690467176E+01  0.20469085451E+02 -0.28741323209E+01  0.21599653760E+02  0.00000000000E+00 0.  1.
</event>
<event>
 7    1  0.1023000E-012  0.5052880E+02  0.7816164E-02  0.1300439E+00
        -11   -1    0    0    0    0  0.00000000000E+00  0.00000000000E+00  0.45593999997E+02  0.45594000000E+02  0.51100000000E-03 0. -1.
         11   -1    0    0    0    0 -0.00000000000E+00 -0.00000000000E+00 -0.45593999997E+02  0.45594000000E+02  0.51100000000E-03 0.  1.
    9900012    2    1    2    0    0  0.66504724101E-01  0.39320735249E+02  0.10346300209E+02  0.50528799670E+02  0.29999817077E+02 0.  0.
        -12    1    1    2    0    0 -0.66504724101E-01 -0.39320735249E+02 -0.10346300209E+02  0.40659200330E+02  0.00000000000E+00 0.  1.
         11    1    3    3    0    0 -0.35014910889E+01  0.41412626697E+02  0.57551469973E+01  0.41956975666E+02  0.51100000000E-03 0. -1.
        -11    1    3    3    0    0 -0.77400560645E+00 -0.45433415803E-01  0.35843814281E+01  0.36672795581E+01  0.51100000000E-03 0.  1.
         12    1    3    3    0    0  0.43420014195E+01 -0.20464580318E+01  0.10067717838E+01  0.49045444464E+01  0.00000000000E+00 0. -1.
</event>
<event>
 7    1  0.1023000E-012  0.5052887E+02  0.7816164E-02  0.1300439E+00
        -11   -1    0    0    0    0  0.00000000000E+00  0.00000000000E+00  0.45593999997E+02  0.45594000000E+02  0.51100000000E-03 0. -1.
         11   -1    0    0    0    0 -0.00000000000E+00 -0.00000000000E+00 -0.45593999997E+02  0.45594000000E+02  0.51100000000E-03 0.  1.
    9900012    2    1    2    0    0 -0.15868498025E+02  0.21919259127E+02  0.30346356463E+02  0.50528874323E+02  0.30000043993E+02 0.  0.
        -12    1    1    2    0    0  0.15868498025E+02 -0.21919259127E+02 -0.30346356463E+02  0.40659125677E+02  0.00000000000E+00 0.  1.
         11    1    3    3    0    0 -0.71459843170E+01  0.42500681209E+01  0.36377890096E+01  0.90753336044E+01  0.51100000000E-03 0. -1.
        -11    1    3    3    0    0  0.45112148535E+01 -0.36076845993E+01  0.16285745241E+01  0.60015583696E+01  0.51100000000E-03 0.  1.
        -12    1    3    3    0    0 -0.13233728561E+02  0.21276875606E+02  0.25079992929E+02  0.35451982349E+02  0.00000000000E+00 0.  1.
</event>
<event>
 7    1  0.1023000E-012  0.5052886E+02  0.7816164E-02  0.1300439E+00
        -11   -1    0    0    0    0  0.00000000000E+00  0.00000000000E+00  0.45593999997E+02  0.45594000000E+02  0.51100000000E-03 0.  1.
         11   -1    0    0    0    0 -0.00000000000E+00 -0.00000000000E+00 -0.45593999997E+02  0.45594000000E+02  0.51100000000E-03 0. -1.
    9900012    2    1    2    0    0  0.38734661121E+02 -0.80493434884E+01 -0.93808379373E+01  0.50528855602E+02  0.29999987088E+02 0.  0.
        -12    1    1    2    0    0 -0.38734661121E+02  0.80493434884E+01  0.93808379373E+01  0.40659144398E+02  0.00000000000E+00 0.  1.
         11    1    3    3    0    0  0.39567378313E+01  0.53682247566E+01  0.47563552668E+01  0.81912469739E+01  0.51100000000E-03 0. -1.
        -11    1    3    3    0    0  0.18923528293E+02 -0.14601468761E+02 -0.69642069207E+01  0.24895842852E+02  0.51100000000E-03 0.  1.
         12    1    3    3    0    0  0.15854394997E+02  0.11839005157E+01 -0.71729862834E+01  0.17441765776E+02  0.00000000000E+00 0. -1.
</event>
<event>
 7    1  0.1023000E-012  0.5052888E+02  0.7816164E-02  0.1300439E+00
        -11   -1    0    0    0    0  0.00000000000E+00  0.00000000000E+00  0.45593999997E+02  0.45594000000E+02  0.51100000000E-03 0. -1.
         11   -1    0    0    0    0 -0.00000000000E+00 -0.00000000000E+00 -0.45593999997E+02  0.45594000000E+02  0.51100000000E-03 0.  1.
    9900012    2    1    2    0    0 -0.39327165696E+02 -0.61061700583E+01  0.83218120545E+01  0.50528882568E+02  0.30000069054E+02 0.  0.
        -12    1    1    2    0    0  0.39327165696E+02  0.61061700583E+01 -0.83218120545E+01  0.40659117432E+02  0.00000000000E+00 0.  1.
         11    1    3    3    0    0 -0.37073933275E+02  0.12928668718E+01  0.43808190788E+01  0.37354244863E+02  0.51100000000E-03 0. -1.
        -11    1    3    3    0    0  0.10531122533E+01  0.21381385144E+01  0.13613197917E+00  0.23873026414E+01  0.51100000000E-03 0.  1.
         12    1    3    3    0    0 -0.33063446742E+01 -0.95371754445E+01  0.38048609966E+01  0.10787335063E+02  0.00000000000E+00 0. -1.
</event>
<event>
 7    1  0.1023000E-012  0.5052885E+02  0.7816164E-02  0.1300439E+00
        -11   -1    0    0    0    0  0.00000000000E+00  0.00000000000E+00  0.45593999997E+02  0.45594000000E+02  0.51100000000E-03 0.  1.
         11   -1    0    0    0    0 -0.00000000000E+00 -0.00000000000E+00 -0.45593999997E+02  0.45594000000E+02  0.51100000000E-03 0. -1.
    9900012    2    1    2    0    0 -0.64108120331E+01  0.23590456874E+02 -0.32489353321E+02  0.50528852866E+02  0.29999978772E+02 0.  0.
        -12    1    1    2    0    0  0.64108120331E+01 -0.23590456874E+02  0.32489353321E+02  0.40659147134E+02  0.00000000000E+00 0.  1.
         11    1    3    3    0    0 -0.31387465320E+01  0.49974228868E+01 -0.18643744847E+02  0.19555438821E+02  0.51100000000E-03 0. -1.
        -11    1    3    3    0    0 -0.67935996701E+01  0.85466888238E+01  0.27481342821E+01  0.11258380373E+02  0.51100000000E-03 0.  1.
        -12    1    3    3    0    0  0.35215341690E+01  0.10046345163E+02 -0.16593742756E+02  0.19715033672E+02  0.00000000000E+00 0.  1.
</event>
<event>
 7    1  0.1023000E-012  0.5052886E+02  0.7816164E-02  0.1300439E+00
        -11   -1    0    0    0    0  0.00000000000E+00  0.00000000000E+00  0.45593999997E+02  0.45594000000E+02  0.51100000000E-03 0. -1.
         11   -1    0    0    0    0 -0.00000000000E+00 -0.00000000000E+00 -0.45593999997E+02  0.45594000000E+02  0.51100000000E-03 0.  1.
    9900012    2    1    2    0    0  0.25505028645E+02  0.17614036950E+02  0.26313582104E+02  0.50528863426E+02  0.30000010869E+02 0.  0.
        -12    1    1    2    0    0 -0.25505028645E+02 -0.17614036950E+02 -0.26313582104E+02  0.40659136574E+02  0.00000000000E+00 0.  1.
         11    1    3    3    0    0  0.18744398951E+02  0.12723258625E+02  0.18857139084E+02  0.29475845989E+02  0.51100000000E-03 0. -1.
        -11    1    3    3    0    0 -0.41799689253E+01  0.66257612939E+01  0.60262673875E+01  0.98837620281E+01  0.51100000000E-03 0.  1.
         12    1    3    3    0    0  0.10940598619E+02 -0.17349829693E+01  0.14301756327E+01  0.11169255409E+02  0.00000000000E+00 0. -1.
</event>
<event>
 7    1  0.1023000E-012  0.5052885E+02  0.7816164E-02  0.1300439E+00
        -11   -1    0    0    0    0  0.00000000000E+00  0.00000000000E+00  0.45593999997E+02  0.45594000000E+02  0.51100000000E-03 0.  1.
         11   -1    0    0    0    0 -0.00000000000E+00 -0.00000000000E+00 -0.45593999997E+02  0.45594000000E+02  0.51100000000E-03 0. -1.
    9900012    2    1    2    0    0 -0.65658502421E+01  0.15118479108E+02 -0.37168364907E+02  0.50528854045E+02  0.29999982356E+02 0.  0.
        -12    1    1    2    0    0  0.65658502421E+01 -0.15118479108E+02  0.37168364907E+02  0.40659145955E+02  0.00000000000E+00 0.  1.
         11    1    3    3    0    0 -0.88129371126E+01  0.10049713872E+02 -0.35603239173E+02  0.38029662756E+02  0.51100000000E-03 0. -1.
        -11    1    3    3    0    0 -0.31586357522E+01  0.60066053328E+01  0.26451974081E-01  0.67865298501E+01  0.51100000000E-03 0.  1.
         12    1    3    3    0    0  0.54057226227E+01 -0.93784009675E+00 -0.15915777082E+01  0.57126614395E+01  0.00000000000E+00 0. -1.
</event>
<event>
 7    1  0.1023000E-012  0.5052886E+02  0.7816164E-02  0.1300439E+00
        -11   -1    0    0    0    0  0.00000000000E+00  0.00000000000E+00  0.45593999997E+02  0.45594000000E+02  0.51100000000E-03 0.  1.
         11   -1    0    0    0    0 -0.00000000000E+00 -0.00000000000E+00 -0.45593999997E+02  0.45594000000E+02  0.51100000000E-03 0. -1.
    9900012    2    1    2    0    0 -0.38491584313E+01 -0.40016119391E+02 -0.60877103345E+01  0.50528855286E+02  0.29999986129E+02 0.  0.
        -12    1    1    2    0    0  0.38491584313E+01  0.40016119391E+02  0.60877103345E+01  0.40659144714E+02  0.00000000000E+00 0.  1.
         11    1    3    3    0    0 -0.14999700869E+01  0.16575337741E+01 -0.71246368645E+01  0.74671131762E+01  0.51100000000E-03 0. -1.
        -11    1    3    3    0    0 -0.28885073244E+01 -0.40686554605E+02 -0.92589331190E+00  0.40799466649E+02  0.51100000000E-03 0.  1.
         12    1    3    3    0    0  0.53931898000E+00 -0.98709856012E+00  0.19628198420E+01  0.22622754610E+01  0.00000000000E+00 0. -1.
</event>
<event>
 7    1  0.1023000E-012  0.5052886E+02  0.7816164E-02  0.1300439E+00
        -11   -1    0    0    0    0  0.00000000000E+00  0.00000000000E+00  0.45593999997E+02  0.45594000000E+02  0.51100000000E-03 0. -1.
         11   -1    0    0    0    0 -0.00000000000E+00 -0.00000000000E+00 -0.45593999997E+02  0.45594000000E+02  0.51100000000E-03 0.  1.
    9900012    2    1    2    0    0 -0.99465619599E+01  0.22041313931E+02  0.32686573084E+02  0.50528859889E+02  0.30000000119E+02 0.  0.
        -12    1    1    2    0    0  0.99465619599E+01 -0.22041313931E+02 -0.32686573084E+02  0.40659140111E+02  0.00000000000E+00 0.  1.
         11    1    3    3    0    0 -0.53088431343E+01  0.15989512439E+02  0.35685300222E+02  0.39462500879E+02  0.51100000000E-03 0. -1.
        -11    1    3    3    0    0 -0.60564410000E+01  0.21662682100E+01 -0.24958858108E+01  0.68994667755E+01  0.51100000000E-03 0.  1.
         12    1    3    3    0    0  0.14187221745E+01  0.38855332815E+01 -0.50284132771E+00  0.41668922342E+01  0.00000000000E+00 0. -1.
</event>
<event>
 7    1  0.1023000E-012  0.5052887E+02  0.7816164E-02  0.1300439E+00
        -11   -1    0    0    0    0  0.00000000000E+00  0.00000000000E+00  0.45593999997E+02  0.45594000000E+02  0.51100000000E-03 0. -1.
         11   -1    0    0    0    0 -0.00000000000E+00 -0.00000000000E+00 -0.45593999997E+02  0.45594000000E+02  0.51100000000E-03 0.  1.
    9900012    2    1    2    0    0 -0.96151474652E+01 -0.38750982305E+01  0.39315363256E+02  0.50528865294E+02  0.30000016549E+02 0.  0.
        -12    1    1    2    0    0  0.96151474652E+01  0.38750982305E+01 -0.39315363256E+02  0.40659134706E+02  0.00000000000E+00 0.  1.
         11    1    3    3    0    0 -0.17199376572E+02  0.22475446150E+01  0.20921190045E+02  0.27176574553E+02  0.51100000000E-03 0.  1.
        -11    1    3    3    0    0  0.74488555030E+01 -0.22603306081E+00  0.14445113360E+02  0.16254163758E+02  0.51100000000E-03 0. -1.
        -12    1    3    3    0    0  0.13537360345E+00 -0.58966097846E+01  0.39490598507E+01  0.70981269832E+01  0.00000000000E+00 0.  1.
</event>
<event>
 7    1  0.1023000E-012  0.5052884E+02  0.7816164E-02  0.1300439E+00
        -11   -1    0    0    0    0  0.00000000000E+00  0.00000000000E+00  0.45593999997E+02  0.45594000000E+02  0.51100000000E-03 0.  1.
         11   -1    0    0    0    0 -0.00000000000E+00 -0.00000000000E+00 -0.45593999997E+02  0.45594000000E+02  0.51100000000E-03 0. -1.
    9900012    2    1    2    0    0  0.34627277619E+02 -0.14630730460E+02 -0.15493895552E+02  0.50528838321E+02  0.29999934561E+02 0.  0.
        -12    1    1    2    0    0 -0.34627277619E+02  0.14630730460E+02  0.15493895552E+02  0.40659161679E+02  0.00000000000E+00 0.  1.
         11    1    3    3    0    0 -0.14889603242E+01 -0.29100822513E+00 -0.39555841669E+01  0.42365475327E+01  0.51100000000E-03 0. -1.
        -11    1    3    3    0    0  0.32311940098E+02 -0.12183622612E+02 -0.17646533475E+02  0.38780178917E+02  0.51100000000E-03 0.  1.
        -12    1    3    3    0    0  0.38042978444E+01 -0.21560996226E+01  0.61082220901E+01  0.75121118717E+01  0.00000000000E+00 0.  1.
</event>
<event>
 7    1  0.1023000E-012  0.5052887E+02  0.7816164E-02  0.1300439E+00
        -11   -1    0    0    0    0  0.00000000000E+00  0.00000000000E+00  0.45593999997E+02  0.45594000000E+02  0.51100000000E-03 0.  1.
         11   -1    0    0    0    0 -0.00000000000E+00 -0.00000000000E+00 -0.45593999997E+02  0.45594000000E+02  0.51100000000E-03 0. -1.
    9900012    2    1    2    0    0  0.16996687665E+02  0.35962482690E+02 -0.84248248554E+01  0.50528865397E+02  0.30000016861E+02 0.  0.
        -12    1    1    2    0    0 -0.16996687665E+02 -0.35962482690E+02  0.84248248554E+01  0.40659134603E+02  0.00000000000E+00 0.  1.
         11    1    3    3    0    0  0.12113685326E+02  0.16722558417E+02 -0.10020095150E+02  0.22951854811E+02  0.51100000000E-03 0. -1.
        -11    1    3    3    0    0  0.83946617947E-01  0.16411843463E+02  0.86788986443E+01  0.18565530826E+02  0.51100000000E-03 0.  1.
        -12    1    3    3    0    0  0.47990557207E+01  0.28280808099E+01 -0.70836283493E+01  0.90114797602E+01  0.00000000000E+00 0.  1.
</event>
<event>
 7    1  0.1023000E-012  0.5052884E+02  0.7816164E-02  0.1300439E+00
        -11   -1    0    0    0    0  0.00000000000E+00  0.00000000000E+00  0.45593999997E+02  0.45594000000E+02  0.51100000000E-03 0. -1.
         11   -1    0    0    0    0 -0.00000000000E+00 -0.00000000000E+00 -0.45593999997E+02  0.45594000000E+02  0.51100000000E-03 0.  1.
    9900012    2    1    2    0    0 -0.86694411457E+01  0.28223811902E+02  0.27953965899E+02  0.50528843866E+02  0.29999951415E+02 0.  0.
        -12    1    1    2    0    0  0.86694411457E+01 -0.28223811902E+02 -0.27953965899E+02  0.40659156134E+02  0.00000000000E+00 0.  1.
         11    1    3    3    0    0  0.24646484323E+01  0.14507506497E+02  0.26463575195E+02  0.30279746515E+02  0.51100000000E-03 0. -1.
        -11    1    3    3    0    0 -0.29009764107E+01  0.10787594212E+02 -0.84841471376E+00  0.11203020165E+02  0.51100000000E-03 0.  1.
        -12    1    3    3    0    0 -0.82331131674E+01  0.29287111925E+01  0.23388054177E+01  0.90460771861E+01  0.00000000000E+00 0.  1.
</event>
<event>
 7    1  0.1023000E-012  0.5052885E+02  0.7816164E-02  0.1300439E+00
        -11   -1    0    0    0    0  0.00000000000E+00  0.00000000000E+00  0.45593999997E+02  0.45594000000E+02  0.51100000000E-03 0.  1.
         11   -1    0    0    0    0 -0.00000000000E+00 -0.00000000000E+00 -0.45593999997E+02  0.45594000000E+02  0.51100000000E-03 0. -1.
    9900012    2    1    2    0    0 -0.38724526354E+02 -0.61596299614E+01 -0.10753431331E+02  0.50528852591E+02  0.29999977936E+02 0.  0.
        -12    1    1    2    0    0  0.38724526354E+02  0.61596299614E+01  0.10753431331E+02  0.40659147409E+02  0.00000000000E+00 0.  1.
         11    1    3    3    0    0 -0.29947195699E+02 -0.16047524962E+02 -0.43658785189E+01  0.34255196440E+02  0.51100000000E-03 0. -1.
        -11    1    3    3    0    0 -0.93751863509E+01  0.99734202307E+01 -0.46857691566E+01  0.14467883849E+02  0.51100000000E-03 0.  1.
         12    1    3    3    0    0  0.59785569575E+00 -0.85525230460E-01 -0.17017836558E+01  0.18057723027E+01  0.00000000000E+00 0. -1.
</event>
<event>
 7    1  0.1023000E-012  0.5052886E+02  0.7816164E-02  0.1300439E+00
        -11   -1    0    0    0    0  0.00000000000E+00  0.00000000000E+00  0.45593999997E+02  0.45594000000E+02  0.51100000000E-03 0.  1.
         11   -1    0    0    0    0 -0.00000000000E+00 -0.00000000000E+00 -0.45593999997E+02  0.45594000000E+02  0.51100000000E-03 0. -1.
    9900012    2    1    2    0    0 -0.56305156288E+01  0.17216481984E+02 -0.36401312624E+02  0.50528861803E+02  0.30000005936E+02 0.  0.
        -12    1    1    2    0    0  0.56305156288E+01 -0.17216481984E+02  0.36401312624E+02  0.40659138197E+02  0.00000000000E+00 0.  1.
         11    1    3    3    0    0 -0.34049451300E+01 -0.74629617056E+00  0.28747456565E+01  0.45182709263E+01  0.51100000000E-03 0.  1.
        -11    1    3    3    0    0 -0.15225818704E+01  0.34558249951E+01 -0.26190095393E+02  0.26460953855E+02  0.51100000000E-03 0. -1.
        -12    1    3    3    0    0 -0.70298862844E+00  0.14506953160E+02 -0.13085962887E+02  0.19549637022E+02  0.00000000000E+00 0.  1.
</event>
<event>
 7    1  0.1023000E-012  0.5052886E+02  0.7816164E-02  0.1300439E+00
        -11   -1    0    0    0    0  0.00000000000E+00  0.00000000000E+00  0.45593999997E+02  0.45594000000E+02  0.51100000000E-03 0.  1.
         11   -1    0    0    0    0 -0.00000000000E+00 -0.00000000000E+00 -0.45593999997E+02  0.45594000000E+02  0.51100000000E-03 0. -1.
    9900012    2    1    2    0    0 -0.29274316664E+02  0.21898903831E+02 -0.17793753279E+02  0.50528864976E+02  0.30000015582E+02 0.  0.
        -12    1    1    2    0    0  0.29274316664E+02 -0.21898903831E+02  0.17793753279E+02  0.40659135024E+02  0.00000000000E+00 0.  1.
         11    1    3    3    0    0 -0.31178672282E+02  0.15142477709E+02 -0.80338471403E+01  0.35580148068E+02  0.51100000000E-03 0. -1.
        -11    1    3    3    0    0  0.51984166686E+01  0.25966809292E+01 -0.65113052126E+01  0.87271635450E+01  0.51100000000E-03 0.  1.
         12    1    3    3    0    0 -0.32940610509E+01  0.41597451927E+01 -0.32486009256E+01  0.62215533631E+01  0.00000000000E+00 0. -1.
</event>
<event>
 7    1  0.1023000E-012  0.5052887E+02  0.7816164E-02  0.1300439E+00
        -11   -1    0    0    0    0  0.00000000000E+00  0.00000000000E+00  0.45593999997E+02  0.45594000000E+02  0.51100000000E-03 0.  1.
         11   -1    0    0    0    0 -0.00000000000E+00 -0.00000000000E+00 -0.45593999997E+02  0.45594000000E+02  0.51100000000E-03 0. -1.
    9900012    2    1    2    0    0  0.18049962132E+01  0.62264398155E+01 -0.40138984720E+02  0.50528872384E+02  0.30000038099E+02 0.  0.
        -12    1    1    2    0    0 -0.18049962132E+01 -0.62264398155E+01  0.40138984720E+02  0.40659127616E+02  0.00000000000E+00 0.  1.
         11    1    3    3    0    0 -0.95655524052E+00  0.19952462878E+00 -0.19511481833E+02  0.19535934367E+02  0.51100000000E-03 0. -1.
        -11    1    3    3    0    0  0.17460319321E+01  0.17574123386E+01 -0.24808290179E+02  0.24931674382E+02  0.51100000000E-03 0.  1.
        -12    1    3    3    0    0  0.10155195216E+01  0.42695028482E+01  0.41807872919E+01  0.60612636347E+01  0.00000000000E+00 0.  1.
</event>
<event>
 7    1  0.1023000E-012  0.5052886E+02  0.7816164E-02  0.1300439E+00
        -11   -1    0    0    0    0  0.00000000000E+00  0.00000000000E+00  0.45593999997E+02  0.45594000000E+02  0.51100000000E-03 0.  1.
         11   -1    0    0    0    0 -0.00000000000E+00 -0.00000000000E+00 -0.45593999997E+02  0.45594000000E+02  0.51100000000E-03 0. -1.
    9900012    2    1    2    0    0  0.26310648218E+02  0.20604243264E+02 -0.23159896692E+02  0.50528857548E+02  0.29999993003E+02 0.  0.
        -12    1    1    2    0    0 -0.26310648218E+02 -0.20604243264E+02  0.23159896692E+02  0.40659142452E+02  0.00000000000E+00 0.  1.
         11    1    3    3    0    0  0.20851190411E+02  0.13559911669E+02 -0.13769631570E+02  0.28429669359E+02  0.51100000000E-03 0. -1.
        -11    1    3    3    0    0 -0.28461821925E+00 -0.52765958873E+01  0.47070492671E+00  0.53051894478E+01  0.51100000000E-03 0.  1.
         12    1    3    3    0    0  0.57440760269E+01  0.12320927482E+02 -0.98609700484E+01  0.16793998741E+02  0.00000000000E+00 0. -1.
</event>
<event>
 7    1  0.1023000E-012  0.5052887E+02  0.7816164E-02  0.1300439E+00
        -11   -1    0    0    0    0  0.00000000000E+00  0.00000000000E+00  0.45593999997E+02  0.45594000000E+02  0.51100000000E-03 0. -1.
         11   -1    0    0    0    0 -0.00000000000E+00 -0.00000000000E+00 -0.45593999997E+02  0.45594000000E+02  0.51100000000E-03 0.  1.
    9900012    2    1    2    0    0 -0.52642587329E+01  0.40044413633E+02  0.46794678298E+01  0.50528869385E+02  0.30000028983E+02 0.  0.
        -12    1    1    2    0    0  0.52642587329E+01 -0.40044413633E+02 -0.46794678298E+01  0.40659130615E+02  0.00000000000E+00 0.  1.
         11    1    3    3    0    0 -0.57401966251E+01  0.11817770051E+02  0.11826811807E+02  0.17677189371E+02  0.51100000000E-03 0. -1.
        -11    1    3    3    0    0  0.69341469348E+01  0.21190642506E+02 -0.67385109375E+01  0.23292343236E+02  0.51100000000E-03 0.  1.
        -12    1    3    3    0    0 -0.64582090426E+01  0.70360010761E+01 -0.40883303973E+00  0.95593367780E+01  0.00000000000E+00 0.  1.
</event>
<event>
 7    1  0.1023000E-012  0.5052887E+02  0.7816164E-02  0.1300439E+00
        -11   -1    0    0    0    0  0.00000000000E+00  0.00000000000E+00  0.45593999997E+02  0.45594000000E+02  0.51100000000E-03 0.  1.
         11   -1    0    0    0    0 -0.00000000000E+00 -0.00000000000E+00 -0.45593999997E+02  0.45594000000E+02  0.51100000000E-03 0. -1.
    9900012    2    1    2    0    0 -0.20724274594E+01 -0.38452669917E+02 -0.13048452094E+02  0.50528869643E+02  0.30000029768E+02 0.  0.
        -12    1    1    2    0    0  0.20724274594E+01  0.38452669917E+02  0.13048452094E+02  0.40659130357E+02  0.00000000000E+00 0.  1.
         11    1    3    3    0    0  0.17112679963E+01 -0.33362310923E+02 -0.18633596325E+02  0.38251576968E+02  0.51100000000E-03 0. -1.
        -11    1    3    3    0    0 -0.41989398437E+01 -0.72822511593E+01  0.54985845785E+01  0.10044735456E+02  0.51100000000E-03 0.  1.
         12    1    3    3    0    0  0.41524438803E+00  0.21918921650E+01  0.86559652607E-01  0.22325572195E+01  0.00000000000E+00 0. -1.
</event>
<event>
 7    1  0.1023000E-012  0.5052884E+02  0.7816164E-02  0.1300439E+00
        -11   -1    0    0    0    0  0.00000000000E+00  0.00000000000E+00  0.45593999997E+02  0.45594000000E+02  0.51100000000E-03 0. -1.
         11   -1    0    0    0    0 -0.00000000000E+00 -0.00000000000E+00 -0.45593999997E+02  0.45594000000E+02  0.51100000000E-03 0.  1.
    9900012    2    1    2    0    0 -0.31908901412E+02  0.16825242706E+02  0.18759009725E+02  0.50528840794E+02  0.29999942077E+02 0.  0.
        -12    1    1    2    0    0  0.31908901412E+02 -0.16825242706E+02 -0.18759009725E+02  0.40659159206E+02  0.00000000000E+00 0.  1.
         11    1    3    3    0    0 -0.30489363033E+01  0.27694229118E+01  0.30774890139E+01  0.51416587535E+01  0.51100000000E-03 0. -1.
        -11    1    3    3    0    0 -0.27449473941E+02  0.20043774782E+02  0.18413542328E+02  0.38655983605E+02  0.51100000000E-03 0.  1.
        -12    1    3    3    0    0 -0.14104911683E+01 -0.59879549877E+01 -0.27320216159E+01  0.67311984357E+01  0.00000000000E+00 0.  1.
</event>
<event>
 7    1  0.1023000E-012  0.5052886E+02  0.7816164E-02  0.1300439E+00
        -11   -1    0    0    0    0  0.00000000000E+00  0.00000000000E+00  0.45593999997E+02  0.45594000000E+02  0.51100000000E-03 0. -1.
         11   -1    0    0    0    0 -0.00000000000E+00 -0.00000000000E+00 -0.45593999997E+02  0.45594000000E+02  0.51100000000E-03 0.  1.
    9900012    2    1    2    0    0 -0.27771810455E+02  0.29644982302E+02 -0.17513647690E+01  0.50528859451E+02  0.29999998786E+02 0.  0.
        -12    1    1    2    0    0  0.27771810455E+02 -0.29644982302E+02  0.17513647690E+01  0.40659140549E+02  0.00000000000E+00 0.  1.
         11    1    3    3    0    0 -0.82568580587E+00  0.23813577174E+01  0.50547403103E+01  0.56482759754E+01  0.51100000000E-03 0. -1.
        -11    1    3    3    0    0 -0.26930615053E+02  0.14775130214E+02 -0.12598937343E+00  0.30717720839E+02  0.51100000000E-03 0.  1.
        -12    1    3    3    0    0 -0.15509595994E-01  0.12488494371E+02 -0.66801157059E+01  0.14162862636E+02  0.00000000000E+00 0.  1.
</event>
<event>
 7    1  0.1023000E-012  0.5052879E+02  0.7816164E-02  0.1300439E+00
        -11   -1    0    0    0    0  0.00000000000E+00  0.00000000000E+00  0.45593999997E+02  0.45594000000E+02  0.51100000000E-03 0.  1.
         11   -1    0    0    0    0 -0.00000000000E+00 -0.00000000000E+00 -0.45593999997E+02  0.45594000000E+02  0.51100000000E-03 0. -1.
    9900012    2    1    2    0    0 -0.22241583185E+02 -0.96921425470E+01 -0.32627372957E+02  0.50528792977E+02  0.29999796731E+02 0.  0.
        -12    1    1    2    0    0  0.22241583185E+02  0.96921425470E+01  0.32627372957E+02  0.40659207023E+02  0.00000000000E+00 0.  1.
         11    1    3    3    0    0 -0.11055460619E+02  0.40057335439E+01 -0.10672139976E+02  0.15879662548E+02  0.51100000000E-03 0. -1.
        -11    1    3    3    0    0 -0.82007340532E+01 -0.18949064188E+02 -0.15575220546E+02  0.25863228103E+02  0.51100000000E-03 0.  1.
        -12    1    3    3    0    0 -0.29853885125E+01  0.52511880967E+01 -0.63800124349E+01  0.87859023251E+01  0.00000000000E+00 0.  1.
</event>
<event>
 7    1  0.1023000E-012  0.5052885E+02  0.7816164E-02  0.1300439E+00
        -11   -1    0    0    0    0  0.00000000000E+00  0.00000000000E+00  0.45593999997E+02  0.45594000000E+02  0.51100000000E-03 0. -1.
         11   -1    0    0    0    0 -0.00000000000E+00 -0.00000000000E+00 -0.45593999997E+02  0.45594000000E+02  0.51100000000E-03 0.  1.
    9900012    2    1    2    0    0  0.14827501911E+02  0.20443075569E+02  0.31865218070E+02  0.50528852514E+02  0.29999977702E+02 0.  0.
        -12    1    1    2    0    0 -0.14827501911E+02 -0.20443075569E+02 -0.31865218070E+02  0.40659147486E+02  0.00000000000E+00 0.  1.
         11    1    3    3    0    0  0.16294066446E+02  0.17810471534E+02  0.15572337217E+02  0.28726419622E+02  0.51100000000E-03 0. -1.
        -11    1    3    3    0    0  0.21618089414E+01 -0.51899495929E+01  0.84293765268E+01  0.10132294092E+02  0.51100000000E-03 0.  1.
         12    1    3    3    0    0 -0.36283734762E+01  0.78225536278E+01  0.78635043257E+01  0.11670138800E+02  0.00000000000E+00 0. -1.
</event>
<event>
 7    1  0.1023000E-012  0.5052886E+02  0.7816164E-02  0.1300439E+00
        -11   -1    0    0    0    0  0.00000000000E+00  0.00000000000E+00  0.45593999997E+02  0.45594000000E+02  0.51100000000E-03 0. -1.
         11   -1    0    0    0    0 -0.00000000000E+00 -0.00000000000E+00 -0.45593999997E+02  0.45594000000E+02  0.51100000000E-03 0.  1.
    9900012    2    1    2    0    0 -0.73356412716E+01 -0.33646640916E+02  0.21616137113E+02  0.50528862509E+02  0.30000008082E+02 0.  0.
        -12    1    1    2    0    0  0.73356412716E+01  0.33646640916E+02 -0.21616137113E+02  0.40659137491E+02  0.00000000000E+00 0.  1.
         11    1    3    3    0    0  0.37677316050E+01 -0.19277956154E+02  0.10163727252E+02  0.22116436125E+02  0.51100000000E-03 0. -1.
        -11    1    3    3    0    0 -0.18577012387E+01  0.39582974333E+01 -0.88758375866E+00  0.44617236190E+01  0.51100000000E-03 0.  1.
         12    1    3    3    0    0 -0.92456716379E+01 -0.18326982195E+02  0.12339993620E+02  0.23950702765E+02  0.00000000000E+00 0. -1.
</event>
<event>
 7    1  0.1023000E-012  0.5052887E+02  0.7816164E-02  0.1300439E+00
        -11   -1    0    0    0    0  0.00000000000E+00  0.00000000000E+00  0.45593999997E+02  0.45594000000E+02  0.51100000000E-03 0.  1.
         11   -1    0    0    0    0 -0.00000000000E+00 -0.00000000000E+00 -0.45593999997E+02  0.45594000000E+02  0.51100000000E-03 0. -1.
    9900012    2    1    2    0    0  0.15893711677E+01  0.40387719552E+02  0.44125943642E+01  0.50528868426E+02  0.30000026068E+02 0.  0.
        -12    1    1    2    0    0 -0.15893711677E+01 -0.40387719552E+02 -0.44125943642E+01  0.40659131574E+02  0.00000000000E+00 0.  1.
         11    1    3    3    0    0 -0.89141308425E+01  0.30770943801E+02 -0.41228467157E+01  0.32300318518E+02  0.51100000000E-03 0. -1.
        -11    1    3    3    0    0  0.10453010381E+02  0.94871645508E+01  0.96537296626E+01  0.17101643602E+02  0.51100000000E-03 0.  1.
        -12    1    3    3    0    0  0.50491629174E-01  0.12961120019E+00 -0.11182885826E+01  0.11269063057E+01  0.00000000000E+00 0.  1.
</event>
<event>
 7    1  0.1023000E-012  0.5052886E+02  0.7816164E-02  0.1300439E+00
        -11   -1    0    0    0    0  0.00000000000E+00  0.00000000000E+00  0.45593999997E+02  0.45594000000E+02  0.51100000000E-03 0. -1.
         11   -1    0    0    0    0 -0.00000000000E+00 -0.00000000000E+00 -0.45593999997E+02  0.45594000000E+02  0.51100000000E-03 0.  1.
    9900012    2    1    2    0    0  0.35694899874E+02  0.18821703379E+01 -0.19377746491E+02  0.50528862020E+02  0.30000006597E+02 0.  0.
        -12    1    1    2    0    0 -0.35694899874E+02 -0.18821703379E+01  0.19377746491E+02  0.40659137980E+02  0.00000000000E+00 0.  1.
         11    1    3    3    0    0  0.78174027998E+01  0.62185359435E+01  0.10339830280E+01  0.10042464686E+02  0.51100000000E-03 0. -1.
        -11    1    3    3    0    0  0.62712152936E+01 -0.35313859177E+01 -0.17177817035E+02  0.18624613449E+02  0.51100000000E-03 0.  1.
         12    1    3    3    0    0  0.21606281780E+02 -0.80497968794E+00 -0.32339124837E+01  0.21861783885E+02  0.00000000000E+00 0. -1.
</event>
<event>
 7    1  0.1023000E-012  0.5052885E+02  0.7816164E-02  0.1300439E+00
        -11   -1    0    0    0    0  0.00000000000E+00  0.00000000000E+00  0.45593999997E+02  0.45594000000E+02  0.51100000000E-03 0.  1.
         11   -1    0    0    0    0 -0.00000000000E+00 -0.00000000000E+00 -0.45593999997E+02  0.45594000000E+02  0.51100000000E-03 0. -1.
    9900012    2    1    2    0    0  0.15120824382E+01 -0.37782640580E+02  0.14944966199E+02  0.50528851741E+02  0.29999975351E+02 0.  0.
        -12    1    1    2    0    0 -0.15120824382E+01  0.37782640580E+02 -0.14944966199E+02  0.40659148259E+02  0.00000000000E+00 0.  1.
         11    1    3    3    0    0  0.10316654761E+02 -0.38536353960E+01 -0.16421115905E+01  0.11134648713E+02  0.51100000000E-03 0. -1.
        -11    1    3    3    0    0 -0.31498800513E+01 -0.17379063782E+02  0.11868804438E+02  0.21279617509E+02  0.51100000000E-03 0.  1.
         12    1    3    3    0    0 -0.56546922715E+01 -0.16549941402E+02  0.47182733512E+01  0.18114585519E+02  0.00000000000E+00 0. -1.
</event>
<event>
 7    1  0.1023000E-012  0.5052885E+02  0.7816164E-02  0.1300439E+00
        -11   -1    0    0    0    0  0.00000000000E+00  0.00000000000E+00  0.45593999997E+02  0.45594000000E+02  0.51100000000E-03 0. -1.
         11   -1    0    0    0    0 -0.00000000000E+00 -0.00000000000E+00 -0.45593999997E+02  0.45594000000E+02  0.51100000000E-03 0.  1.
    9900012    2    1    2    0    0 -0.24241728191E+02  0.31084093853E+02 -0.99641298004E+01  0.50528853931E+02  0.29999982010E+02 0.  0.
        -12    1    1    2    0    0  0.24241728191E+02 -0.31084093853E+02  0.99641298004E+01  0.40659146069E+02  0.00000000000E+00 0.  1.
         11    1    3    3    0    0 -0.77927222130E+01  0.18700158097E+01 -0.53045500310E+01  0.96105010228E+01  0.51100000000E-03 0. -1.
        -11    1    3    3    0    0 -0.12875197817E+02  0.24804636498E+02  0.62347751189E+01  0.28634125300E+02  0.51100000000E-03 0.  1.
        -12    1    3    3    0    0 -0.35738081616E+01  0.44094415444E+01 -0.10894354888E+02  0.12284227609E+02  0.00000000000E+00 0.  1.
</event>
<event>
 7    1  0.1023000E-012  0.5052885E+02  0.7816164E-02  0.1300439E+00
        -11   -1    0    0    0    0  0.00000000000E+00  0.00000000000E+00  0.45593999997E+02  0.45594000000E+02  0.51100000000E-03 0.  1.
         11   -1    0    0    0    0 -0.00000000000E+00 -0.00000000000E+00 -0.45593999997E+02  0.45594000000E+02  0.51100000000E-03 0. -1.
    9900012    2    1    2    0    0  0.22641019807E+02 -0.22968159933E+02 -0.24759122668E+02  0.50528852150E+02  0.29999976596E+02 0.  0.
        -12    1    1    2    0    0 -0.22641019807E+02  0.22968159933E+02  0.24759122668E+02  0.40659147850E+02  0.00000000000E+00 0.  1.
         11    1    3    3    0    0  0.39581135566E+01  0.22682557514E+01  0.45046702892E+01  0.64112168702E+01  0.51100000000E-03 0. -1.
        -11    1    3    3    0    0  0.61225448316E+01 -0.12270974107E+02 -0.68223617446E+01  0.15316885479E+02  0.51100000000E-03 0.  1.
         12    1    3    3    0    0  0.12560361418E+02 -0.12965441578E+02 -0.22441431212E+02  0.28800749801E+02  0.00000000000E+00 0. -1.
</event>
<event>
 7    1  0.1023000E-012  0.5052886E+02  0.7816164E-02  0.1300439E+00
        -11   -1    0    0    0    0  0.00000000000E+00  0.00000000000E+00  0.45593999997E+02  0.45594000000E+02  0.51100000000E-03 0. -1.
         11   -1    0    0    0    0 -0.00000000000E+00 -0.00000000000E+00 -0.45593999997E+02  0.45594000000E+02  0.51100000000E-03 0.  1.
    9900012    2    1    2    0    0 -0.22238387292E+02  0.34018588463E+02  0.11643451109E+01  0.50528856749E+02  0.29999990573E+02 0.  0.
        -12    1    1    2    0    0  0.22238387292E+02 -0.34018588463E+02 -0.11643451109E+01  0.40659143251E+02  0.00000000000E+00 0.  1.
         11    1    3    3    0    0 -0.13388935644E+01  0.12771024301E+02 -0.44740177951E+01  0.13598107705E+02  0.51100000000E-03 0. -1.
        -11    1    3    3    0    0 -0.18388131039E+02  0.40312615864E+01  0.67000244178E+00  0.18836754939E+02  0.51100000000E-03 0.  1.
        -12    1    3    3    0    0 -0.25113626886E+01  0.17216302576E+02  0.49683604642E+01  0.18093994104E+02  0.00000000000E+00 0.  1.
</event>
<event>
 7    1  0.1023000E-012  0.5052889E+02  0.7816164E-02  0.1300439E+00
        -11   -1    0    0    0    0  0.00000000000E+00  0.00000000000E+00  0.45593999997E+02  0.45594000000E+02  0.51100000000E-03 0. -1.
         11   -1    0    0    0    0 -0.00000000000E+00 -0.00000000000E+00 -0.45593999997E+02  0.45594000000E+02  0.51100000000E-03 0.  1.
    9900012    2    1    2    0    0  0.14722689377E+02 -0.29963388426E+02  0.23207787500E+02  0.50528885043E+02  0.30000076576E+02 0.  0.
        -12    1    1    2    0    0 -0.14722689377E+02  0.29963388426E+02 -0.23207787500E+02  0.40659114957E+02  0.00000000000E+00 0.  1.
         11    1    3    3    0    0  0.90650183885E+01 -0.64748787464E+01  0.87186790077E+01  0.14146164748E+02  0.51100000000E-03 0. -1.
        -11    1    3    3    0    0 -0.38979022338E+01  0.23885258602E+01 -0.10938746730E+01  0.47005595061E+01  0.51100000000E-03 0.  1.
        -12    1    3    3    0    0  0.95555732221E+01 -0.25877035540E+02  0.15582983165E+02  0.31682160789E+02  0.00000000000E+00 0.  1.
</event>
<event>
 7    1  0.1023000E-012  0.5052886E+02  0.7816164E-02  0.1300439E+00
        -11   -1    0    0    0    0  0.00000000000E+00  0.00000000000E+00  0.45593999997E+02  0.45594000000E+02  0.51100000000E-03 0.  1.
         11   -1    0    0    0    0 -0.00000000000E+00 -0.00000000000E+00 -0.45593999997E+02  0.45594000000E+02  0.51100000000E-03 0. -1.
    9900012    2    1    2    0    0 -0.52061494309E+01 -0.38783346672E+02 -0.11041441393E+02  0.50528863278E+02  0.30000010420E+02 0.  0.
        -12    1    1    2    0    0  0.52061494309E+01  0.38783346672E+02  0.11041441393E+02  0.40659136722E+02  0.00000000000E+00 0.  1.
         11    1    3    3    0    0  0.10321599639E+02 -0.20784107975E+02 -0.41974637043E+01  0.23582477928E+02  0.51100000000E-03 0. -1.
        -11    1    3    3    0    0 -0.10119784808E+02 -0.40501785671E+01 -0.12396844734E+01  0.10970451625E+02  0.51100000000E-03 0.  1.
         12    1    3    3    0    0 -0.54079642614E+01 -0.13949060130E+02 -0.56042932154E+01  0.15975933726E+02  0.00000000000E+00 0. -1.
</event>
<event>
 7    1  0.1023000E-012  0.5052881E+02  0.7816164E-02  0.1300439E+00
        -11   -1    0    0    0    0  0.00000000000E+00  0.00000000000E+00  0.45593999997E+02  0.45594000000E+02  0.51100000000E-03 0.  1.
         11   -1    0    0    0    0 -0.00000000000E+00 -0.00000000000E+00 -0.45593999997E+02  0.45594000000E+02  0.51100000000E-03 0. -1.
    9900012    2    1    2    0    0 -0.10934887014E+02  0.18929199556E+01 -0.39115401990E+02  0.50528811951E+02  0.29999854406E+02 0.  0.
        -12    1    1    2    0    0  0.10934887014E+02 -0.18929199556E+01  0.39115401990E+02  0.40659188049E+02  0.00000000000E+00 0.  1.
         11    1    3    3    0    0 -0.12966340171E+02  0.25207767683E+01 -0.11170197392E+02  0.17298948031E+02  0.51100000000E-03 0. -1.
        -11    1    3    3    0    0  0.44587346739E+00 -0.27187236457E+01 -0.29856603156E+02  0.29983445661E+02  0.51100000000E-03 0.  1.
         12    1    3    3    0    0  0.15855796892E+01  0.20908668330E+01  0.19113985587E+01  0.32464182593E+01  0.00000000000E+00 0. -1.
</event>
<event>
 7    1  0.1023000E-012  0.5052887E+02  0.7816164E-02  0.1300439E+00
        -11   -1    0    0    0    0  0.00000000000E+00  0.00000000000E+00  0.45593999997E+02  0.45594000000E+02  0.51100000000E-03 0.  1.
         11   -1    0    0    0    0 -0.00000000000E+00 -0.00000000000E+00 -0.45593999997E+02  0.45594000000E+02  0.51100000000E-03 0. -1.
    9900012    2    1    2    0    0 -0.50075673284E+01  0.97875697911E+01 -0.39144506911E+02  0.50528872190E+02  0.30000037508E+02 0.  0.
        -12    1    1    2    0    0  0.50075673284E+01 -0.97875697911E+01  0.39144506911E+02  0.40659127810E+02  0.00000000000E+00 0.  1.
         11    1    3    3    0    0  0.42792200023E+01 -0.12188504910E+01 -0.11538089704E+02  0.12366278123E+02  0.51100000000E-03 0. -1.
        -11    1    3    3    0    0 -0.13099114125E+02  0.10726080806E+02 -0.29410665766E+02  0.33935569266E+02  0.51100000000E-03 0.  1.
        -12    1    3    3    0    0  0.38123267945E+01  0.28033947564E+00  0.18042485579E+01  0.42270248010E+01  0.00000000000E+00 0.  1.
</event>
<event>
 7    1  0.1023000E-012  0.5052888E+02  0.7816164E-02  0.1300439E+00
        -11   -1    0    0    0    0  0.00000000000E+00  0.00000000000E+00  0.45593999997E+02  0.45594000000E+02  0.51100000000E-03 0.  1.
         11   -1    0    0    0    0 -0.00000000000E+00 -0.00000000000E+00 -0.45593999997E+02  0.45594000000E+02  0.51100000000E-03 0. -1.
    9900012    2    1    2    0    0  0.57972882572E+01  0.19064796596E+02 -0.35441350308E+02  0.50528876398E+02  0.30000050300E+02 0.  0.
        -12    1    1    2    0    0 -0.57972882572E+01 -0.19064796596E+02  0.35441350308E+02  0.40659123602E+02  0.00000000000E+00 0.  1.
         11    1    3    3    0    0  0.15261135698E+02  0.17174947895E+02 -0.29894255084E+02  0.37703416096E+02  0.51100000000E-03 0. -1.
        -11    1    3    3    0    0 -0.30680234661E+01 -0.23013062939E+01 -0.25851618147E+01  0.46251314053E+01  0.51100000000E-03 0.  1.
         12    1    3    3    0    0 -0.63958239745E+01  0.41911549945E+01 -0.29619334097E+01  0.82003288973E+01  0.00000000000E+00 0. -1.
</event>
<event>
 7    1  0.1023000E-012  0.5052885E+02  0.7816164E-02  0.1300439E+00
        -11   -1    0    0    0    0  0.00000000000E+00  0.00000000000E+00  0.45593999997E+02  0.45594000000E+02  0.51100000000E-03 0.  1.
         11   -1    0    0    0    0 -0.00000000000E+00 -0.00000000000E+00 -0.45593999997E+02  0.45594000000E+02  0.51100000000E-03 0. -1.
    9900012    2    1    2    0    0  0.40364287174E+02 -0.48198688459E+01  0.81208721907E+00  0.50528852193E+02  0.29999976725E+02 0.  0.
        -12    1    1    2    0    0 -0.40364287174E+02  0.48198688459E+01 -0.81208721907E+00  0.40659147807E+02  0.00000000000E+00 0.  1.
         11    1    3    3    0    0  0.19645835763E+02  0.85312676766E+01  0.10536224360E+02  0.23869508060E+02  0.51100000000E-03 0. -1.
        -11    1    3    3    0    0  0.19968466318E+02 -0.12874098546E+02 -0.86959667368E+01  0.25300235141E+02  0.51100000000E-03 0.  1.
         12    1    3    3    0    0  0.74998509337E+00 -0.47703797642E+00 -0.10281704042E+01  0.13591089917E+01  0.00000000000E+00 0. -1.
</event>
<event>
 7    1  0.1023000E-012  0.5052886E+02  0.7816164E-02  0.1300439E+00
        -11   -1    0    0    0    0  0.00000000000E+00  0.00000000000E+00  0.45593999997E+02  0.45594000000E+02  0.51100000000E-03 0.  1.
         11   -1    0    0    0    0 -0.00000000000E+00 -0.00000000000E+00 -0.45593999997E+02  0.45594000000E+02  0.51100000000E-03 0. -1.
    9900012    2    1    2    0    0 -0.22591780967E+02  0.79946909863E+01 -0.32846039902E+02  0.50528856029E+02  0.29999988385E+02 0.  0.
        -12    1    1    2    0    0  0.22591780967E+02 -0.79946909863E+01  0.32846039902E+02  0.40659143971E+02  0.00000000000E+00 0.  1.
         11    1    3    3    0    0 -0.77255760038E+01  0.80413405680E+01 -0.27765525040E+02  0.29921097301E+02  0.51100000000E-03 0. -1.
        -11    1    3    3    0    0 -0.10095685166E+02  0.63751500406E+01 -0.36101812390E+01  0.12473925038E+02  0.51100000000E-03 0.  1.
         12    1    3    3    0    0 -0.47705197976E+01 -0.64217996224E+01 -0.14703336230E+01  0.81338336898E+01  0.00000000000E+00 0. -1.
</event>
<event>
 7    1  0.1023000E-012  0.5052886E+02  0.7816164E-02  0.1300439E+00
        -11   -1    0    0    0    0  0.00000000000E+00  0.00000000000E+00  0.45593999997E+02  0.45594000000E+02  0.51100000000E-03 0.  1.
         11   -1    0    0    0    0 -0.00000000000E+00 -0.00000000000E+00 -0.45593999997E+02  0.45594000000E+02  0.51100000000E-03 0. -1.
    9900012    2    1    2    0    0 -0.22704001711E+02 -0.32715211846E+02 -0.82102970988E+01  0.50528858859E+02  0.29999996989E+02 0.  0.
        -12    1    1    2    0    0  0.22704001711E+02  0.32715211846E+02  0.82102970988E+01  0.40659141141E+02  0.00000000000E+00 0.  1.
         11    1    3    3    0    0 -0.18157535172E+02 -0.12287648347E+02  0.21234259030E+01  0.22027058888E+02  0.51100000000E-03 0.  1.
        -11    1    3    3    0    0 -0.69406026806E+00 -0.44729901890E+01 -0.11185443860E+02  0.12066628174E+02  0.51100000000E-03 0. -1.
        -12    1    3    3    0    0 -0.38524062714E+01 -0.15954573310E+02  0.85172085838E+00  0.16435171797E+02  0.00000000000E+00 0.  1.
</event>
<event>
 7    1  0.1023000E-012  0.5052887E+02  0.7816164E-02  0.1300439E+00
        -11   -1    0    0    0    0  0.00000000000E+00  0.00000000000E+00  0.45593999997E+02  0.45594000000E+02  0.51100000000E-03 0.  1.
         11   -1    0    0    0    0 -0.00000000000E+00 -0.00000000000E+00 -0.45593999997E+02  0.45594000000E+02  0.51100000000E-03 0. -1.
    9900012    2    1    2    0    0 -0.14813768908E+02  0.23765194125E+02 -0.29477659145E+02  0.50528873230E+02  0.30000040669E+02 0.  0.
        -12    1    1    2    0    0  0.14813768908E+02 -0.23765194125E+02  0.29477659145E+02  0.40659126770E+02  0.00000000000E+00 0.  1.
         11    1    3    3    0    0 -0.12607288839E+02  0.20732651428E+02 -0.26894224470E+02  0.36222725977E+02  0.51100000000E-03 0. -1.
        -11    1    3    3    0    0 -0.45721079341E+01 -0.13898175658E+01  0.38585784088E+01  0.61420185139E+01  0.51100000000E-03 0.  1.
        -12    1    3    3    0    0  0.23656278651E+01  0.44223602633E+01 -0.64420130839E+01  0.81641287390E+01  0.00000000000E+00 0.  1.
</event>
<event>
 7    1  0.1023000E-012  0.5052887E+02  0.7816164E-02  0.1300439E+00
        -11   -1    0    0    0    0  0.00000000000E+00  0.00000000000E+00  0.45593999997E+02  0.45594000000E+02  0.51100000000E-03 0.  1.
         11   -1    0    0    0    0 -0.00000000000E+00 -0.00000000000E+00 -0.45593999997E+02  0.45594000000E+02  0.51100000000E-03 0. -1.
    9900012    2    1    2    0    0  0.20148243455E+02  0.12664751456E+02 -0.32966913502E+02  0.50528867820E+02  0.30000024225E+02 0.  0.
        -12    1    1    2    0    0 -0.20148243455E+02 -0.12664751456E+02  0.32966913502E+02  0.40659132180E+02  0.00000000000E+00 0.  1.
         11    1    3    3    0    0 -0.20498474496E+01 -0.40641581537E+01 -0.81958992628E+01  0.93750744559E+01  0.51100000000E-03 0. -1.
        -11    1    3    3    0    0  0.19653767326E+02  0.10216405436E+02 -0.90125159682E+01  0.23913823502E+02  0.51100000000E-03 0.  1.
         12    1    3    3    0    0  0.25443235789E+01  0.65125041736E+01 -0.15758498271E+02  0.17239969862E+02  0.00000000000E+00 0. -1.
</event>
<event>
 7    1  0.1023000E-012  0.5052890E+02  0.7816164E-02  0.1300439E+00
        -11   -1    0    0    0    0  0.00000000000E+00  0.00000000000E+00  0.45593999997E+02  0.45594000000E+02  0.51100000000E-03 0.  1.
         11   -1    0    0    0    0 -0.00000000000E+00 -0.00000000000E+00 -0.45593999997E+02  0.45594000000E+02  0.51100000000E-03 0. -1.
    9900012    2    1    2    0    0 -0.12887213037E+02  0.24930323665E+02 -0.29420422743E+02  0.50528898039E+02  0.30000116080E+02 0.  0.
        -12    1    1    2    0    0  0.12887213037E+02 -0.24930323665E+02  0.29420422743E+02  0.40659101961E+02  0.00000000000E+00 0.  1.
         11    1    3    3    0    0 -0.82321706085E+00  0.57616987717E+01  0.48696756168E+01  0.75887153023E+01  0.51100000000E-03 0.  1.
        -11    1    3    3    0    0 -0.11039717283E+02  0.20281441310E+02 -0.34391340836E+02  0.41424347238E+02  0.51100000000E-03 0. -1.
         12    1    3    3    0    0 -0.10242786934E+01 -0.11128164174E+01  0.10124247674E+00  0.15158354989E+01  0.00000000000E+00 0. -1.
</event>
<event>
 7    1  0.1023000E-012  0.5052884E+02  0.7816164E-02  0.1300439E+00
        -11   -1    0    0    0    0  0.00000000000E+00  0.00000000000E+00  0.45593999997E+02  0.45594000000E+02  0.51100000000E-03 0.  1.
         11   -1    0    0    0    0 -0.00000000000E+00 -0.00000000000E+00 -0.45593999997E+02  0.45594000000E+02  0.51100000000E-03 0. -1.
    9900012    2    1    2    0    0  0.23994179286E+02 -0.31476802984E+02 -0.93089818500E+01  0.50528844711E+02  0.29999953984E+02 0.  0.
        -12    1    1    2    0    0 -0.23994179286E+02  0.31476802984E+02  0.93089818500E+01  0.40659155289E+02  0.00000000000E+00 0.  1.
         11    1    3    3    0    0  0.32161563870E+01 -0.23618713649E+02  0.40963302217E+01  0.24186095549E+02  0.51100000000E-03 0. -1.
        -11    1    3    3    0    0  0.14819903328E+02 -0.51907946477E+01 -0.69833219386E+01  0.17185478442E+02  0.51100000000E-03 0.  1.
         12    1    3    3    0    0  0.59581195713E+01 -0.26672946873E+01 -0.64219901331E+01  0.91572707203E+01  0.00000000000E+00 0. -1.
</event>
<event>
 7    1  0.1023000E-012  0.5052887E+02  0.7816164E-02  0.1300439E+00
        -11   -1    0    0    0    0  0.00000000000E+00  0.00000000000E+00  0.45593999997E+02  0.45594000000E+02  0.51100000000E-03 0.  1.
         11   -1    0    0    0    0 -0.00000000000E+00 -0.00000000000E+00 -0.45593999997E+02  0.45594000000E+02  0.51100000000E-03 0. -1.
    9900012    2    1    2    0    0  0.35741284588E+02  0.48596949096E+01 -0.18764571456E+02  0.50528865718E+02  0.30000017838E+02 0.  0.
        -12    1    1    2    0    0 -0.35741284588E+02 -0.48596949096E+01  0.18764571456E+02  0.40659134282E+02  0.00000000000E+00 0.  1.
         11    1    3    3    0    0  0.78878770416E+01 -0.24274555123E+01 -0.93338971427E+01  0.12459244785E+02  0.51100000000E-03 0. -1.
        -11    1    3    3    0    0  0.16759380530E+02  0.15626597195E+02 -0.45807186995E+01  0.23367720465E+02  0.51100000000E-03 0.  1.
        -12    1    3    3    0    0  0.11094027016E+02 -0.83394467735E+01 -0.48499556137E+01  0.14701900468E+02  0.00000000000E+00 0.  1.
</event>
<event>
 7    1  0.1023000E-012  0.5052886E+02  0.7816164E-02  0.1300439E+00
        -11   -1    0    0    0    0  0.00000000000E+00  0.00000000000E+00  0.45593999997E+02  0.45594000000E+02  0.51100000000E-03 0.  1.
         11   -1    0    0    0    0 -0.00000000000E+00 -0.00000000000E+00 -0.45593999997E+02  0.45594000000E+02  0.51100000000E-03 0. -1.
    9900012    2    1    2    0    0  0.28808438135E+02 -0.28203898611E+02  0.52706650113E+01  0.50528856941E+02  0.29999991157E+02 0.  0.
        -12    1    1    2    0    0 -0.28808438135E+02  0.28203898611E+02 -0.52706650113E+01  0.40659143059E+02  0.00000000000E+00 0.  1.
         11    1    3    3    0    0  0.26861449192E+02 -0.18397630995E+02  0.15034928184E+02  0.35861669575E+02  0.51100000000E-03 0. -1.
        -11    1    3    3    0    0  0.44470217479E+00 -0.43252820644E+01 -0.14251906598E+01  0.45756959732E+01  0.51100000000E-03 0.  1.
         12    1    3    3    0    0  0.15022867683E+01 -0.54809855518E+01 -0.83390725131E+01  0.10091491393E+02  0.00000000000E+00 0. -1.
</event>
<event>
 7    1  0.1023000E-012  0.5052885E+02  0.7816164E-02  0.1300439E+00
        -11   -1    0    0    0    0  0.00000000000E+00  0.00000000000E+00  0.45593999997E+02  0.45594000000E+02  0.51100000000E-03 0.  1.
         11   -1    0    0    0    0 -0.00000000000E+00 -0.00000000000E+00 -0.45593999997E+02  0.45594000000E+02  0.51100000000E-03 0. -1.
    9900012    2    1    2    0    0 -0.16323316334E+02  0.34135179534E+02 -0.14883051480E+02  0.50528851468E+02  0.29999974523E+02 0.  0.
        -12    1    1    2    0    0  0.16323316334E+02 -0.34135179534E+02  0.14883051480E+02  0.40659148532E+02  0.00000000000E+00 0.  1.
         11    1    3    3    0    0 -0.43285240267E+01  0.31717587259E+02 -0.75295828244E+01  0.32885195446E+02  0.51100000000E-03 0. -1.
        -11    1    3    3    0    0 -0.15171094378E+01 -0.10709740460E+01  0.23138054813E+01  0.29668674591E+01  0.51100000000E-03 0.  1.
         12    1    3    3    0    0 -0.10477682869E+02  0.34885663214E+01 -0.96672741373E+01  0.14676788563E+02  0.00000000000E+00 0. -1.
</event>
<event>
 7    1  0.1023000E-012  0.5052885E+02  0.7816164E-02  0.1300439E+00
        -11   -1    0    0    0    0  0.00000000000E+00  0.00000000000E+00  0.45593999997E+02  0.45594000000E+02  0.51100000000E-03 0. -1.
         11   -1    0    0    0    0 -0.00000000000E+00 -0.00000000000E+00 -0.45593999997E+02  0.45594000000E+02  0.51100000000E-03 0.  1.
    9900012    2    1    2    0    0 -0.10167978364E+02  0.29614692482E+02  0.25937401196E+02  0.50528848809E+02  0.29999966439E+02 0.  0.
        -12    1    1    2    0    0  0.10167978364E+02 -0.29614692482E+02 -0.25937401196E+02  0.40659151191E+02  0.00000000000E+00 0.  1.
         11    1    3    3    0    0 -0.11134578334E+02  0.32621916889E+02  0.12611568210E+02  0.36704494945E+02  0.51100000000E-03 0. -1.
        -11    1    3    3    0    0 -0.25760035182E+00 -0.17912070440E+01  0.87227620646E+01  0.89084992514E+01  0.51100000000E-03 0.  1.
         12    1    3    3    0    0  0.12242003221E+01 -0.12160173636E+01  0.46030709217E+01  0.49158546121E+01  0.00000000000E+00 0. -1.
</event>
<event>
 7    1  0.1640660E-012  0.5052886E+02  0.7816164E-02  0.1300439E+00
        -11   -1    0    0    0    0  0.00000000000E+00  0.00000000000E+00  0.45593999997E+02  0.45594000000E+02  0.51100000000E-03 0. -1.
         11   -1    0    0    0    0 -0.00000000000E+00 -0.00000000000E+00 -0.45593999997E+02  0.45594000000E+02  0.51100000000E-03 0.  1.
    9900012    2    1    2    0    0  0.14004766072E+02 -0.10523812966E+02  0.36691707327E+02  0.50528862052E+02  0.30000006694E+02 0.  0.
        -12    1    1    2    0    0 -0.14004766072E+02  0.10523812966E+02 -0.36691707327E+02  0.40659137948E+02  0.00000000000E+00 0.  1.
         11    1    3    3    0    0  0.37558628402E+01  0.43289966541E+01  0.17482821948E+02  0.18398254842E+02  0.51100000000E-03 0. -1.
        -11    1    3    3    0    0  0.28583046054E+01 -0.58200505802E+01 -0.29210960235E+01  0.71116591744E+01  0.51100000000E-03 0.  1.
         12    1    3    3    0    0  0.73905986262E+01 -0.90327590400E+01  0.22129981403E+02  0.25018948036E+02  0.00000000000E+00 0. -1.
</event>
<event>
 7    1  0.1023000E-012  0.5052886E+02  0.7816164E-02  0.1300439E+00
        -11   -1    0    0    0    0  0.00000000000E+00  0.00000000000E+00  0.45593999997E+02  0.45594000000E+02  0.51100000000E-03 0.  1.
         11   -1    0    0    0    0 -0.00000000000E+00 -0.00000000000E+00 -0.45593999997E+02  0.45594000000E+02  0.51100000000E-03 0. -1.
    9900012    2    1    2    0    0  0.34710438707E+02 -0.13279206587E+02 -0.16492835469E+02  0.50528861979E+02  0.30000006472E+02 0.  0.
        -12    1    1    2    0    0 -0.34710438707E+02  0.13279206587E+02  0.16492835469E+02  0.40659138021E+02  0.00000000000E+00 0.  1.
         11    1    3    3    0    0  0.12609198515E+02 -0.49549410477E+01 -0.17295170873E+02  0.21969666901E+02  0.51100000000E-03 0. -1.
        -11    1    3    3    0    0  0.82526166142E+01  0.15761159524E+01  0.64836670860E+01  0.10612622749E+02  0.51100000000E-03 0.  1.
        -12    1    3    3    0    0  0.13848623577E+02 -0.99003814918E+01 -0.56813316821E+01  0.17946572329E+02  0.00000000000E+00 0.  1.
</event>
<event>
 7    1  0.1023000E-012  0.5052886E+02  0.7816164E-02  0.1300439E+00
        -11   -1    0    0    0    0  0.00000000000E+00  0.00000000000E+00  0.45593999997E+02  0.45594000000E+02  0.51100000000E-03 0.  1.
         11   -1    0    0    0    0 -0.00000000000E+00 -0.00000000000E+00 -0.45593999997E+02  0.45594000000E+02  0.51100000000E-03 0. -1.
    9900012    2    1    2    0    0  0.17371033296E+02  0.19478793609E+02 -0.31176748904E+02  0.50528857480E+02  0.29999992796E+02 0.  0.
        -12    1    1    2    0    0 -0.17371033296E+02 -0.19478793609E+02  0.31176748904E+02  0.40659142520E+02  0.00000000000E+00 0.  1.
         11    1    3    3    0    0 -0.22813829536E+01  0.17249407040E+02 -0.19874369119E+02  0.26414717480E+02  0.51100000000E-03 0. -1.
        -11    1    3    3    0    0  0.77113444202E+01 -0.54547546562E+00 -0.45363142941E+00  0.77439110265E+01  0.51100000000E-03 0.  1.
         12    1    3    3    0    0  0.11941071830E+02  0.27748620346E+01 -0.10848748356E+02  0.16370228974E+02  0.00000000000E+00 0. -1.
</event>
<event>
 7    1  0.1023000E-012  0.5052885E+02  0.7816164E-02  0.1300439E+00
        -11   -1    0    0    0    0  0.00000000000E+00  0.00000000000E+00  0.45593999997E+02  0.45594000000E+02  0.51100000000E-03 0. -1.
         11   -1    0    0    0    0 -0.00000000000E+00 -0.00000000000E+00 -0.45593999997E+02  0.45594000000E+02  0.51100000000E-03 0.  1.
    9900012    2    1    2    0    0  0.25804050123E+02 -0.25002450570E+02  0.19031423231E+02  0.50528848416E+02  0.29999965247E+02 0.  0.
        -12    1    1    2    0    0 -0.25804050123E+02  0.25002450570E+02 -0.19031423231E+02  0.40659151584E+02  0.00000000000E+00 0.  1.
         11    1    3    3    0    0  0.27585230520E+02 -0.21082109430E+02  0.20198859813E+02  0.40167078794E+02  0.51100000000E-03 0. -1.
        -11    1    3    3    0    0  0.25861194892E+01 -0.51194740564E+01 -0.10526087946E+01  0.58313818399E+01  0.51100000000E-03 0.  1.
         12    1    3    3    0    0 -0.43672998856E+01  0.11991329157E+01 -0.11482778732E+00  0.45303877826E+01  0.00000000000E+00 0. -1.
</event>
<event>
 7    1  0.1023000E-012  0.5052885E+02  0.7816164E-02  0.1300439E+00
        -11   -1    0    0    0    0  0.00000000000E+00  0.00000000000E+00  0.45593999997E+02  0.45594000000E+02  0.51100000000E-03 0. -1.
         11   -1    0    0    0    0 -0.00000000000E+00 -0.00000000000E+00 -0.45593999997E+02  0.45594000000E+02  0.51100000000E-03 0.  1.
    9900012    2    1    2    0    0  0.31551841287E+02 -0.21928562738E+02  0.13296094051E+02  0.50528847656E+02  0.29999962934E+02 0.  0.
        -12    1    1    2    0    0 -0.31551841287E+02  0.21928562738E+02 -0.13296094051E+02  0.40659152344E+02  0.00000000000E+00 0.  1.
         11    1    3    3    0    0  0.14711520866E+02 -0.14330813560E+02 -0.54871132372E+01  0.21258162560E+02  0.51100000000E-03 0. -1.
        -11    1    3    3    0    0  0.23396727252E+01 -0.75198391589E+01  0.55029907648E+01  0.96075468802E+01  0.51100000000E-03 0.  1.
         12    1    3    3    0    0  0.14500647697E+02 -0.77910018855E-01  0.13280216523E+02  0.19663138216E+02  0.00000000000E+00 0. -1.
</event>
<event>
 7    1  0.1023000E-012  0.5052886E+02  0.7816164E-02  0.1300439E+00
        -11   -1    0    0    0    0  0.00000000000E+00  0.00000000000E+00  0.45593999997E+02  0.45594000000E+02  0.51100000000E-03 0. -1.
         11   -1    0    0    0    0 -0.00000000000E+00 -0.00000000000E+00 -0.45593999997E+02  0.45594000000E+02  0.51100000000E-03 0.  1.
    9900012    2    1    2    0    0 -0.33447586153E+02  0.21762286113E+02 -0.77992045801E+01  0.50528859473E+02  0.29999998854E+02 0.  0.
        -12    1    1    2    0    0  0.33447586153E+02 -0.21762286113E+02  0.77992045801E+01  0.40659140527E+02  0.00000000000E+00 0.  1.
         11    1    3    3    0    0 -0.15783098545E+02  0.18380844326E+02  0.59350954907E+01  0.24943676485E+02  0.51100000000E-03 0. -1.
        -11    1    3    3    0    0 -0.25623490945E+01  0.10158726878E+00 -0.90950842494E+01  0.94496830963E+01  0.51100000000E-03 0.  1.
        -12    1    3    3    0    0 -0.15102138513E+02  0.32798545177E+01 -0.46392158213E+01  0.16135499892E+02  0.00000000000E+00 0.  1.
</event>
<event>
 7    1  0.1023000E-012  0.5052886E+02  0.7816164E-02  0.1300439E+00
        -11   -1    0    0    0    0  0.00000000000E+00  0.00000000000E+00  0.45593999997E+02  0.45594000000E+02  0.51100000000E-03 0. -1.
         11   -1    0    0    0    0 -0.00000000000E+00 -0.00000000000E+00 -0.45593999997E+02  0.45594000000E+02  0.51100000000E-03 0.  1.
    9900012    2    1    2    0    0  0.79909401581E+01 -0.34271834944E+02  0.20365448815E+02  0.50528864489E+02  0.30000014102E+02 0.  0.
        -12    1    1    2    0    0 -0.79909401581E+01  0.34271834944E+02 -0.20365448815E+02  0.40659135511E+02  0.00000000000E+00 0.  1.
         11    1    3    3    0    0 -0.39711337627E+01  0.15649551746E+01  0.52912073908E+00  0.43010413945E+01  0.51100000000E-03 0.  1.
        -11    1    3    3    0    0  0.95621048984E+01 -0.31560144709E+02  0.23165662254E+02  0.40300427939E+02  0.51100000000E-03 0. -1.
        -12    1    3    3    0    0  0.23999690224E+01 -0.42766454094E+01 -0.33293341780E+01  0.59273951560E+01  0.00000000000E+00 0.  1.
</event>
<event>
 7    1  0.1023000E-012  0.5052886E+02  0.7816164E-02  0.1300439E+00
        -11   -1    0    0    0    0  0.00000000000E+00  0.00000000000E+00  0.45593999997E+02  0.45594000000E+02  0.51100000000E-03 0.  1.
         11   -1    0    0    0    0 -0.00000000000E+00 -0.00000000000E+00 -0.45593999997E+02  0.45594000000E+02  0.51100000000E-03 0. -1.
    9900012    2    1    2    0    0  0.74940848167E+01 -0.17878637788E+01 -0.39922522917E+02  0.50528860803E+02  0.30000002897E+02 0.  0.
        -12    1    1    2    0    0 -0.74940848167E+01  0.17878637788E+01  0.39922522917E+02  0.40659139197E+02  0.00000000000E+00 0.  1.
         11    1    3    3    0    0  0.74401283688E+01 -0.67932606924E+01 -0.41134009927E+02  0.42349860376E+02  0.51100000000E-03 0. -1.
        -11    1    3    3    0    0 -0.49336956520E+00  0.27059063152E+01  0.37887839480E+01  0.46819041618E+01  0.51100000000E-03 0.  1.
         12    1    3    3    0    0  0.54732601312E+00  0.22994905984E+01 -0.25772969386E+01  0.34970962650E+01  0.00000000000E+00 0. -1.
</event>
<event>
 7    1  0.1023000E-012  0.5052886E+02  0.7816164E-02  0.1300439E+00
        -11   -1    0    0    0    0  0.00000000000E+00  0.00000000000E+00  0.45593999997E+02  0.45594000000E+02  0.51100000000E-03 0.  1.
         11   -1    0    0    0    0 -0.00000000000E+00 -0.00000000000E+00 -0.45593999997E+02  0.45594000000E+02  0.51100000000E-03 0. -1.
    9900012    2    1    2    0    0 -0.18867943397E+02  0.28015920158E+02 -0.22633492431E+02  0.50528855273E+02  0.29999986087E+02 0.  0.
        -12    1    1    2    0    0  0.18867943397E+02 -0.28015920158E+02  0.22633492431E+02  0.40659144727E+02  0.00000000000E+00 0.  1.
         11    1    3    3    0    0  0.47919613436E+01  0.92483639329E+01 -0.14605392249E+02  0.17939136322E+02  0.51100000000E-03 0. -1.
        -11    1    3    3    0    0 -0.35668569444E+01 -0.64810544454E+00 -0.12882047150E+01  0.38473342431E+01  0.51100000000E-03 0.  1.
         12    1    3    3    0    0 -0.20093047796E+02  0.19415661670E+02 -0.67398954666E+01  0.28742384708E+02  0.00000000000E+00 0. -1.
</event>
<event>
 7    1  0.1023000E-012  0.5052887E+02  0.7816164E-02  0.1300439E+00
        -11   -1    0    0    0    0  0.00000000000E+00  0.00000000000E+00  0.45593999997E+02  0.45594000000E+02  0.51100000000E-03 0.  1.
         11   -1    0    0    0    0 -0.00000000000E+00 -0.00000000000E+00 -0.45593999997E+02  0.45594000000E+02  0.51100000000E-03 0. -1.
    9900012    2    1    2    0    0 -0.12119616586E+02  0.43296220476E+01 -0.38568564836E+02  0.50528869085E+02  0.30000028070E+02 0.  0.
        -12    1    1    2    0    0  0.12119616586E+02 -0.43296220476E+01  0.38568564836E+02  0.40659130915E+02  0.00000000000E+00 0.  1.
         11    1    3    3    0    0 -0.80796423851E+01  0.27917650220E+01 -0.33907993529E+02  0.34968937623E+02  0.51100000000E-03 0. -1.
        -11    1    3    3    0    0  0.32176577617E+01  0.52872125870E+01 -0.70410477131E-01  0.61897412149E+01  0.51100000000E-03 0.  1.
        -12    1    3    3    0    0 -0.72576319621E+01 -0.37493555613E+01 -0.45901608298E+01  0.93701902470E+01  0.00000000000E+00 0.  1.
</event>
<event>
 7    1  0.1023000E-012  0.5052886E+02  0.7816164E-02  0.1300439E+00
        -11   -1    0    0    0    0  0.00000000000E+00  0.00000000000E+00  0.45593999997E+02  0.45594000000E+02  0.51100000000E-03 0.  1.
         11   -1    0    0    0    0 -0.00000000000E+00 -0.00000000000E+00 -0.45593999997E+02  0.45594000000E+02  0.51100000000E-03 0. -1.
    9900012    2    1    2    0    0 -0.39982796428E+02  0.73676848049E+01 -0.50868822779E+00  0.50528861380E+02  0.30000004652E+02 0.  0.
        -12    1    1    2    0    0  0.39982796428E+02 -0.73676848049E+01  0.50868822779E+00  0.40659138620E+02  0.00000000000E+00 0.  1.
         11    1    3    3    0    0 -0.10646797876E+02 -0.82332701508E+01  0.72663070364E+00  0.13478465596E+02  0.51100000000E-03 0. -1.
        -11    1    3    3    0    0 -0.29651154593E+02  0.12900639287E+02 -0.46683668471E+01  0.32671258194E+02  0.51100000000E-03 0.  1.
        -12    1    3    3    0    0  0.31515604100E+00  0.27003156689E+01  0.34330479156E+01  0.43791375901E+01  0.00000000000E+00 0.  1.
</event>
<event>
 7    1  0.1023000E-012  0.5052886E+02  0.7816164E-02  0.1300439E+00
        -11   -1    0    0    0    0  0.00000000000E+00  0.00000000000E+00  0.45593999997E+02  0.45594000000E+02  0.51100000000E-03 0. -1.
         11   -1    0    0    0    0 -0.00000000000E+00 -0.00000000000E+00 -0.45593999997E+02  0.45594000000E+02  0.51100000000E-03 0.  1.
    9900012    2    1    2    0    0 -0.35311804343E+02  0.10999402532E+02  0.16889498054E+02  0.50528861709E+02  0.30000005652E+02 0.  0.
        -12    1    1    2    0    0  0.35311804343E+02 -0.10999402532E+02 -0.16889498054E+02  0.40659138291E+02  0.00000000000E+00 0.  1.
         11    1    3    3    0    0  0.10234483567E+01  0.30292612202E+01  0.73367074874E+01  0.80031960551E+01  0.51100000000E-03 0. -1.
        -11    1    3    3    0    0 -0.25139490694E+02  0.28447952343E+01 -0.23386803454E+01  0.25407799556E+02  0.51100000000E-03 0.  1.
        -12    1    3    3    0    0 -0.11195762006E+02  0.51253460771E+01  0.11891470912E+02  0.17117866098E+02  0.00000000000E+00 0.  1.
</event>
<event>
 7    1  0.1023000E-012  0.5052884E+02  0.7816164E-02  0.1300439E+00
        -11   -1    0    0    0    0  0.00000000000E+00  0.00000000000E+00  0.45593999997E+02  0.45594000000E+02  0.51100000000E-03 0.  1.
         11   -1    0    0    0    0 -0.00000000000E+00 -0.00000000000E+00 -0.45593999997E+02  0.45594000000E+02  0.51100000000E-03 0. -1.
    9900012    2    1    2    0    0 -0.19888094001E+02  0.29163046672E+02 -0.20177901227E+02  0.50528840243E+02  0.29999940403E+02 0.  0.
        -12    1    1    2    0    0  0.19888094001E+02 -0.29163046672E+02  0.20177901227E+02  0.40659159757E+02  0.00000000000E+00 0.  1.
         11    1    3    3    0    0 -0.16131172531E+02  0.13447081673E+02 -0.14607407643E+02  0.25581538090E+02  0.51100000000E-03 0. -1.
        -11    1    3    3    0    0 -0.32806471985E+01  0.59718425075E+01  0.65071475984E+01  0.94217046814E+01  0.51100000000E-03 0.  1.
        -12    1    3    3    0    0 -0.47627427166E+00  0.97441224911E+01 -0.12077641183E+02  0.15525597471E+02  0.00000000000E+00 0.  1.
</event>
<event>
 7    1  0.1023000E-012  0.5052886E+02  0.7816164E-02  0.1300439E+00
        -11   -1    0    0    0    0  0.00000000000E+00  0.00000000000E+00  0.45593999997E+02  0.45594000000E+02  0.51100000000E-03 0. -1.
         11   -1    0    0    0    0 -0.00000000000E+00 -0.00000000000E+00 -0.45593999997E+02  0.45594000000E+02  0.51100000000E-03 0.  1.
    9900012    2    1    2    0    0  0.29691129942E+02 -0.17739107246E+02  0.21375847449E+02  0.50528856166E+02  0.29999988803E+02 0.  0.
        -12    1    1    2    0    0 -0.29691129942E+02  0.17739107246E+02 -0.21375847449E+02  0.40659143834E+02  0.00000000000E+00 0.  1.
         11    1    3    3    0    0 -0.52342413198E+01 -0.14922464930E+00  0.58239333638E+00  0.52686556587E+01  0.51100000000E-03 0. -1.
        -11    1    3    3    0    0  0.74138621007E+01 -0.94495386556E+00  0.11013447106E+01  0.75545515743E+01  0.51100000000E-03 0.  1.
         12    1    3    3    0    0  0.27511509161E+02 -0.16644928731E+02  0.19692109402E+02  0.37705648933E+02  0.00000000000E+00 0. -1.
</event>
<event>
 7    1  0.1023000E-012  0.5052885E+02  0.7816164E-02  0.1300439E+00
        -11   -1    0    0    0    0  0.00000000000E+00  0.00000000000E+00  0.45593999997E+02  0.45594000000E+02  0.51100000000E-03 0.  1.
         11   -1    0    0    0    0 -0.00000000000E+00 -0.00000000000E+00 -0.45593999997E+02  0.45594000000E+02  0.51100000000E-03 0. -1.
    9900012    2    1    2    0    0 -0.58891975590E+01  0.49113001578E+01 -0.39929474058E+02  0.50528850775E+02  0.29999972417E+02 0.  0.
        -12    1    1    2    0    0  0.58891975590E+01 -0.49113001578E+01  0.39929474058E+02  0.40659149225E+02  0.00000000000E+00 0.  1.
         11    1    3    3    0    0  0.69557816679E+01 -0.76962610008E+01 -0.20627870851E+02  0.23089486528E+02  0.51100000000E-03 0.  1.
        -11    1    3    3    0    0 -0.72398943319E+01  0.11322836621E+02 -0.11144927653E+02  0.17459441908E+02  0.51100000000E-03 0. -1.
         12    1    3    3    0    0 -0.56050848950E+01  0.12847245380E+01 -0.81566755538E+01  0.99799223398E+01  0.00000000000E+00 0. -1.
</event>
<event>
 7    1  0.1023000E-012  0.5052886E+02  0.7816164E-02  0.1300439E+00
        -11   -1    0    0    0    0  0.00000000000E+00  0.00000000000E+00  0.45593999997E+02  0.45594000000E+02  0.51100000000E-03 0.  1.
         11   -1    0    0    0    0 -0.00000000000E+00 -0.00000000000E+00 -0.45593999997E+02  0.45594000000E+02  0.51100000000E-03 0. -1.
    9900012    2    1    2    0    0 -0.26878185752E+02 -0.28452877464E+02 -0.11007393734E+02  0.50528858075E+02  0.29999994603E+02 0.  0.
        -12    1    1    2    0    0  0.26878185752E+02  0.28452877464E+02  0.11007393734E+02  0.40659141925E+02  0.00000000000E+00 0.  1.
         11    1    3    3    0    0 -0.28486394136E+01 -0.69516528523E+01 -0.77592976563E+01  0.10800320563E+02  0.51100000000E-03 0. -1.
        -11    1    3    3    0    0 -0.23829878683E+02 -0.21145697824E+02  0.43189295967E+01  0.32150533551E+02  0.51100000000E-03 0.  1.
        -12    1    3    3    0    0 -0.19966765579E+00 -0.35552678795E+00 -0.75670256743E+01  0.75780039605E+01  0.00000000000E+00 0.  1.
</event>
<event>
 7    1  0.1023000E-012  0.5052886E+02  0.7816164E-02  0.1300439E+00
        -11   -1    0    0    0    0  0.00000000000E+00  0.00000000000E+00  0.45593999997E+02  0.45594000000E+02  0.51100000000E-03 0. -1.
         11   -1    0    0    0    0 -0.00000000000E+00 -0.00000000000E+00 -0.45593999997E+02  0.45594000000E+02  0.51100000000E-03 0.  1.
    9900012    2    1    2    0    0 -0.61312960443E+01  0.98132930533E+01  0.38977838073E+02  0.50528863603E+02  0.30000011407E+02 0.  0.
        -12    1    1    2    0    0  0.61312960443E+01 -0.98132930533E+01 -0.38977838073E+02  0.40659136397E+02  0.00000000000E+00 0.  1.
         11    1    3    3    0    0 -0.13296095515E+02  0.89947916173E+01  0.96673740963E+01  0.18739011563E+02  0.51100000000E-03 0. -1.
        -11    1    3    3    0    0  0.32430757131E+01  0.87521502014E+00  0.14567877995E+01  0.36613894038E+01  0.51100000000E-03 0.  1.
         12    1    3    3    0    0  0.39217237578E+01 -0.56713584114E-01  0.27853676177E+02  0.28128462636E+02  0.00000000000E+00 0. -1.
</event>
<event>
 7    1  0.1023000E-012  0.5052884E+02  0.7816164E-02  0.1300439E+00
        -11   -1    0    0    0    0  0.00000000000E+00  0.00000000000E+00  0.45593999997E+02  0.45594000000E+02  0.51100000000E-03 0. -1.
         11   -1    0    0    0    0 -0.00000000000E+00 -0.00000000000E+00 -0.45593999997E+02  0.45594000000E+02  0.51100000000E-03 0.  1.
    9900012    2    1    2    0    0 -0.27184787673E+02  0.21317969889E+02  0.21440584707E+02  0.50528841209E+02  0.29999943340E+02 0.  0.
        -12    1    1    2    0    0  0.27184787673E+02 -0.21317969889E+02 -0.21440584707E+02  0.40659158791E+02  0.00000000000E+00 0.  1.
         11    1    3    3    0    0 -0.26430269437E+01  0.10800535525E+02 -0.55754564984E+01  0.12438764990E+02  0.51100000000E-03 0. -1.
        -11    1    3    3    0    0 -0.14051286804E+02  0.60136629701E+01  0.17437041755E+02  0.23187350616E+02  0.51100000000E-03 0.  1.
         12    1    3    3    0    0 -0.10490473925E+02  0.45037713939E+01  0.95789994501E+01  0.14902725603E+02  0.00000000000E+00 0. -1.
</event>
<event>
 7    1  0.1023000E-012  0.5052886E+02  0.7816164E-02  0.1300439E+00
        -11   -1    0    0    0    0  0.00000000000E+00  0.00000000000E+00  0.45593999997E+02  0.45594000000E+02  0.51100000000E-03 0. -1.
         11   -1    0    0    0    0 -0.00000000000E+00 -0.00000000000E+00 -0.45593999997E+02  0.45594000000E+02  0.51100000000E-03 0.  1.
    9900012    2    1    2    0    0  0.12338905213E+02 -0.25297030289E+02  0.29342417343E+02  0.50528858607E+02  0.29999996222E+02 0.  0.
        -12    1    1    2    0    0 -0.12338905213E+02  0.25297030289E+02 -0.29342417343E+02  0.40659141393E+02  0.00000000000E+00 0.  1.
         11    1    3    3    0    0  0.39575771395E+01  0.25143501846E+01 -0.34686778620E+01  0.58323322982E+01  0.51100000000E-03 0. -1.
        -11    1    3    3    0    0 -0.15571741884E+01 -0.73161080441E+01  0.96772858960E+01  0.12231111599E+02  0.51100000000E-03 0.  1.
         12    1    3    3    0    0  0.99385022617E+01 -0.20495272429E+02  0.23133809309E+02  0.32465414710E+02  0.00000000000E+00 0. -1.
</event>
<event>
 7    1  0.1023000E-012  0.5052886E+02  0.7816164E-02  0.1300439E+00
        -11   -1    0    0    0    0  0.00000000000E+00  0.00000000000E+00  0.45593999997E+02  0.45594000000E+02  0.51100000000E-03 0.  1.
         11   -1    0    0    0    0 -0.00000000000E+00 -0.00000000000E+00 -0.45593999997E+02  0.45594000000E+02  0.51100000000E-03 0. -1.
    9900012    2    1    2    0    0 -0.84090457652E+01 -0.35581920247E+02 -0.17787088107E+02  0.50528860776E+02  0.30000002813E+02 0.  0.
        -12    1    1    2    0    0  0.84090457652E+01  0.35581920247E+02  0.17787088107E+02  0.40659139224E+02  0.00000000000E+00 0.  1.
         11    1    3    3    0    0 -0.51771510209E+01 -0.26961257741E+02 -0.25398935213E+02  0.37400778359E+02  0.51100000000E-03 0. -1.
        -11    1    3    3    0    0 -0.40465369971E+01 -0.36901821138E+01  0.53027661788E+01  0.76230725505E+01  0.51100000000E-03 0.  1.
         12    1    3    3    0    0  0.81464225285E+00 -0.49304803925E+01  0.23090809266E+01  0.55050098661E+01  0.00000000000E+00 0. -1.
</event>
<event>
 7    1  0.1023000E-012  0.5052886E+02  0.7816164E-02  0.1300439E+00
        -11   -1    0    0    0    0  0.00000000000E+00  0.00000000000E+00  0.45593999997E+02  0.45594000000E+02  0.51100000000E-03 0.  1.
         11   -1    0    0    0    0 -0.00000000000E+00 -0.00000000000E+00 -0.45593999997E+02  0.45594000000E+02  0.51100000000E-03 0. -1.
    9900012    2    1    2    0    0 -0.35724997281E+02 -0.18501001058E+02 -0.58824199096E+01  0.50528864066E+02  0.30000012816E+02 0.  0.
        -12    1    1    2    0    0  0.35724997281E+02  0.18501001058E+02  0.58824199096E+01  0.40659135934E+02  0.00000000000E+00 0.  1.
         11    1    3    3    0    0 -0.10567276604E+02 -0.15164146688E+02 -0.12184511765E+02  0.22137773303E+02  0.51100000000E-03 0. -1.
        -11    1    3    3    0    0 -0.23285864476E+02 -0.62538741206E+01  0.63180762519E+01  0.24925098068E+02  0.51100000000E-03 0.  1.
        -12    1    3    3    0    0 -0.18718562020E+01  0.29170197507E+01 -0.15984396304E-01  0.34659926958E+01  0.00000000000E+00 0.  1.
</event>
<event>
 7    1  0.1023000E-012  0.5052885E+02  0.7816164E-02  0.1300439E+00
        -11   -1    0    0    0    0  0.00000000000E+00  0.00000000000E+00  0.45593999997E+02  0.45594000000E+02  0.51100000000E-03 0.  1.
         11   -1    0    0    0    0 -0.00000000000E+00 -0.00000000000E+00 -0.45593999997E+02  0.45594000000E+02  0.51100000000E-03 0. -1.
    9900012    2    1    2    0    0  0.89107590492E+01 -0.16147702898E+02 -0.36235571341E+02  0.50528848925E+02  0.29999966792E+02 0.  0.
        -12    1    1    2    0    0 -0.89107590492E+01  0.16147702898E+02  0.36235571341E+02  0.40659151075E+02  0.00000000000E+00 0.  1.
         11    1    3    3    0    0  0.13762043749E+02 -0.18040336228E+01 -0.25761245825E+02  0.29262436197E+02  0.51100000000E-03 0. -1.
        -11    1    3    3    0    0  0.20138482677E+00 -0.35599173720E+01  0.19437211206E+01  0.40609875154E+01  0.51100000000E-03 0.  1.
         12    1    3    3    0    0 -0.50526695271E+01 -0.10783751903E+02 -0.12418046637E+02  0.17205425212E+02  0.00000000000E+00 0. -1.
</event>
<event>
 7    1  0.1023000E-012  0.5052886E+02  0.7816164E-02  0.1300439E+00
        -11   -1    0    0    0    0  0.00000000000E+00  0.00000000000E+00  0.45593999997E+02  0.45594000000E+02  0.51100000000E-03 0.  1.
         11   -1    0    0    0    0 -0.00000000000E+00 -0.00000000000E+00 -0.45593999997E+02  0.45594000000E+02  0.51100000000E-03 0. -1.
    9900012    2    1    2    0    0 -0.16491905541E+02 -0.36967978460E+02 -0.38146250979E+01  0.50528859030E+02  0.29999997508E+02 0.  0.
        -12    1    1    2    0    0  0.16491905541E+02  0.36967978460E+02  0.38146250979E+01  0.40659140970E+02  0.00000000000E+00 0.  1.
         11    1    3    3    0    0  0.37629310791E+01 -0.24728133022E+02 -0.42168200340E+01  0.25365760082E+02  0.51100000000E-03 0. -1.
        -11    1    3    3    0    0 -0.13216036029E+02 -0.90483058711E+01  0.41907568108E+01  0.16555901980E+02  0.51100000000E-03 0.  1.
        -12    1    3    3    0    0 -0.70388005911E+01 -0.31915395661E+01 -0.37885618747E+01  0.86071969678E+01  0.00000000000E+00 0.  1.
</event>
<event>
 7    1  0.1023000E-012  0.5052886E+02  0.7816164E-02  0.1300439E+00
        -11   -1    0    0    0    0  0.00000000000E+00  0.00000000000E+00  0.45593999997E+02  0.45594000000E+02  0.51100000000E-03 0.  1.
         11   -1    0    0    0    0 -0.00000000000E+00 -0.00000000000E+00 -0.45593999997E+02  0.45594000000E+02  0.51100000000E-03 0. -1.
    9900012    2    1    2    0    0  0.15286880976E+01 -0.11730919530E+02 -0.38900051217E+02  0.50528863942E+02  0.30000012437E+02 0.  0.
        -12    1    1    2    0    0 -0.15286880976E+01  0.11730919530E+02  0.38900051217E+02  0.40659136058E+02  0.00000000000E+00 0.  1.
         11    1    3    3    0    0  0.14309005080E+01 -0.12071466015E+02 -0.26371312139E+02  0.29038145124E+02  0.51100000000E-03 0. -1.
        -11    1    3    3    0    0  0.12304208885E+01  0.83868730127E+01 -0.30567767793E+01  0.90109632689E+01  0.51100000000E-03 0.  1.
        -12    1    3    3    0    0 -0.11326332990E+01 -0.80463265276E+01 -0.94719622986E+01  0.12479755549E+02  0.00000000000E+00 0.  1.
</event>
<event>
 7    1  0.1023000E-012  0.5052886E+02  0.7816164E-02  0.1300439E+00
        -11   -1    0    0    0    0  0.00000000000E+00  0.00000000000E+00  0.45593999997E+02  0.45594000000E+02  0.51100000000E-03 0.  1.
         11   -1    0    0    0    0 -0.00000000000E+00 -0.00000000000E+00 -0.45593999997E+02  0.45594000000E+02  0.51100000000E-03 0. -1.
    9900012    2    1    2    0    0  0.24833521365E+02 -0.24176082227E+02 -0.21259794056E+02  0.50528861069E+02  0.30000003707E+02 0.  0.
        -12    1    1    2    0    0 -0.24833521365E+02  0.24176082227E+02  0.21259794056E+02  0.40659138931E+02  0.00000000000E+00 0.  1.
         11    1    3    3    0    0  0.18784140254E+02 -0.54554970998E+01 -0.42651093823E+01  0.20019928371E+02  0.51100000000E-03 0. -1.
        -11    1    3    3    0    0 -0.27132483299E+01  0.16312222789E+01 -0.18038338289E+01  0.36436821165E+01  0.51100000000E-03 0.  1.
         12    1    3    3    0    0  0.87626294415E+01 -0.20351807406E+02 -0.15190850845E+02  0.26865250582E+02  0.00000000000E+00 0. -1.
</event>
<event>
 7    1  0.1023000E-012  0.5052886E+02  0.7816164E-02  0.1300439E+00
        -11   -1    0    0    0    0  0.00000000000E+00  0.00000000000E+00  0.45593999997E+02  0.45594000000E+02  0.51100000000E-03 0. -1.
         11   -1    0    0    0    0 -0.00000000000E+00 -0.00000000000E+00 -0.45593999997E+02  0.45594000000E+02  0.51100000000E-03 0.  1.
    9900012    2    1    2    0    0  0.10240784338E+01  0.39514252949E+02  0.95258022634E+01  0.50528857959E+02  0.29999994253E+02 0.  0.
        -12    1    1    2    0    0 -0.10240784338E+01 -0.39514252949E+02 -0.95258022634E+01  0.40659142041E+02  0.00000000000E+00 0.  1.
         11    1    3    3    0    0 -0.44790827513E+01  0.33452484148E+02  0.71428195266E+01  0.34498561550E+02  0.51100000000E-03 0. -1.
        -11    1    3    3    0    0 -0.39001955041E+01  0.53499838854E+00 -0.18253874311E+01  0.43393303378E+01  0.51100000000E-03 0.  1.
         12    1    3    3    0    0  0.94033566893E+01  0.55267704121E+01  0.42083701679E+01  0.11690966071E+02  0.00000000000E+00 0. -1.
</event>
<event>
 7    1  0.1023000E-012  0.5052886E+02  0.7816164E-02  0.1300439E+00
        -11   -1    0    0    0    0  0.00000000000E+00  0.00000000000E+00  0.45593999997E+02  0.45594000000E+02  0.51100000000E-03 0.  1.
         11   -1    0    0    0    0 -0.00000000000E+00 -0.00000000000E+00 -0.45593999997E+02  0.45594000000E+02  0.51100000000E-03 0. -1.
    9900012    2    1    2    0    0  0.28059125720E+02 -0.17856351051E+02 -0.23388074120E+02  0.50528858099E+02  0.29999994679E+02 0.  0.
        -12    1    1    2    0    0 -0.28059125720E+02  0.17856351051E+02  0.23388074120E+02  0.40659141901E+02  0.00000000000E+00 0.  1.
         11    1    3    3    0    0  0.12155428749E+02 -0.39636992194E+01 -0.66466605227E+01  0.14409838859E+02  0.51100000000E-03 0. -1.
        -11    1    3    3    0    0  0.22278025264E+01 -0.14653794876E+02 -0.44216737546E+00  0.14828766658E+02  0.51100000000E-03 0.  1.
        -12    1    3    3    0    0  0.13675894445E+02  0.76114304453E+00 -0.16299246222E+02  0.21290252582E+02  0.00000000000E+00 0.  1.
</event>
<event>
 7    1  0.1023000E-012  0.5052889E+02  0.7816164E-02  0.1300439E+00
        -11   -1    0    0    0    0  0.00000000000E+00  0.00000000000E+00  0.45593999997E+02  0.45594000000E+02  0.51100000000E-03 0. -1.
         11   -1    0    0    0    0 -0.00000000000E+00 -0.00000000000E+00 -0.45593999997E+02  0.45594000000E+02  0.51100000000E-03 0.  1.
    9900012    2    1    2    0    0  0.12681406580E+02  0.74483125314E+01  0.37906037422E+02  0.50528891482E+02  0.30000096150E+02 0.  0.
        -12    1    1    2    0    0 -0.12681406580E+02 -0.74483125314E+01 -0.37906037422E+02  0.40659108518E+02  0.00000000000E+00 0.  1.
         11    1    3    3    0    0  0.54568651669E+01  0.92081194855E+01  0.26222550764E+01  0.11020120864E+02  0.51100000000E-03 0.  1.
        -11    1    3    3    0    0  0.12424639592E+02 -0.90790925048E+00  0.23413710651E+02  0.26521648043E+02  0.51100000000E-03 0. -1.
         12    1    3    3    0    0 -0.52000981785E+01 -0.85189770367E+00  0.11870071694E+02  0.12987122575E+02  0.00000000000E+00 0. -1.
</event>
<event>
 7    1  0.1023000E-012  0.5052886E+02  0.7816164E-02  0.1300439E+00
        -11   -1    0    0    0    0  0.00000000000E+00  0.00000000000E+00  0.45593999997E+02  0.45594000000E+02  0.51100000000E-03 0. -1.
         11   -1    0    0    0    0 -0.00000000000E+00 -0.00000000000E+00 -0.45593999997E+02  0.45594000000E+02  0.51100000000E-03 0.  1.
    9900012    2    1    2    0    0 -0.21574219494E+02  0.10296846030E+02  0.32889116377E+02  0.50528856366E+02  0.29999989411E+02 0.  0.
        -12    1    1    2    0    0  0.21574219494E+02 -0.10296846030E+02 -0.32889116377E+02  0.40659143634E+02  0.00000000000E+00 0.  1.
         11    1    3    3    0    0 -0.25163340769E+01  0.11681747074E+01  0.12836986975E+02  0.13133347029E+02  0.51100000000E-03 0. -1.
        -11    1    3    3    0    0 -0.15099518280E+02 -0.50835764302E+01  0.60106725666E+01  0.17028399413E+02  0.51100000000E-03 0.  1.
        -12    1    3    3    0    0 -0.39583671374E+01  0.14212247753E+02  0.14041456836E+02  0.20367109924E+02  0.00000000000E+00 0.  1.
</event>
<event>
 7    1  0.1023000E-012  0.5052886E+02  0.7816164E-02  0.1300439E+00
        -11   -1    0    0    0    0  0.00000000000E+00  0.00000000000E+00  0.45593999997E+02  0.45594000000E+02  0.51100000000E-03 0. -1.
         11   -1    0    0    0    0 -0.00000000000E+00 -0.00000000000E+00 -0.45593999997E+02  0.45594000000E+02  0.51100000000E-03 0.  1.
    9900012    2    1    2    0    0 -0.28716643406E+02  0.28593790860E+02  0.33038379999E+01  0.50528857980E+02  0.29999994316E+02 0.  0.
        -12    1    1    2    0    0  0.28716643406E+02 -0.28593790860E+02 -0.33038379999E+01  0.40659142020E+02  0.00000000000E+00 0.  1.
         11    1    3    3    0    0 -0.11684198774E+02  0.16507664521E+02  0.85108782109E+01  0.21942163455E+02  0.51100000000E-03 0. -1.
        -11    1    3    3    0    0 -0.14233809366E+02 -0.12828642958E+01 -0.11479304486E+01  0.14337531672E+02  0.51100000000E-03 0.  1.
        -12    1    3    3    0    0 -0.27986352668E+01  0.13368990634E+02 -0.40591097624E+01  0.14249162853E+02  0.00000000000E+00 0.  1.
</event>
