<event>
 7    1  0.2932676E-013  0.7246157E+02  0.7816164E-02  0.1226708E+00
        -11   -1    0    0    0    0  0.00000000000E+00  0.00000000000E+00  0.45593999997E+02  0.45594000000E+02  0.51100000000E-03 0.  1.
         11   -1    0    0    0    0 -0.00000000000E+00 -0.00000000000E+00 -0.45593999997E+02  0.45594000000E+02  0.51100000000E-03 0. -1.
    9900012    2    1    2    0    0 -0.12091709779E+01  0.52910566770E+01  0.17922658027E+02  0.72461573593E+02  0.70000004297E+02 0.  0.
         12    1    1    2    0    0  0.12091709779E+01 -0.52910566770E+01 -0.17922658027E+02  0.18726426407E+02  0.00000000000E+00 0. -1.
         11    1    3    3    0    0 -0.90825911241E+01  0.38250707539E+01  0.54455329308E+01  0.11259593996E+02  0.51100000000E-03 0. -1.
        -11    1    3    3    0    0 -0.93967807351E+01 -0.25889769770E+02  0.65860587108E+01  0.28318824773E+02  0.51100000000E-03 0.  1.
         12    1    3    3    0    0  0.17270200881E+02  0.27355755693E+02  0.58910663856E+01  0.32883154824E+02  0.00000000000E+00 0. -1.
</event>
<event>
 7    1  0.2932676E-013  0.7246146E+02  0.7816164E-02  0.1226708E+00
        -11   -1    0    0    0    0  0.00000000000E+00  0.00000000000E+00  0.45593999997E+02  0.45594000000E+02  0.51100000000E-03 0.  1.
         11   -1    0    0    0    0 -0.00000000000E+00 -0.00000000000E+00 -0.45593999997E+02  0.45594000000E+02  0.51100000000E-03 0. -1.
    9900012    2    1    2    0    0  0.57341718647E+01  0.40758689393E+01  0.17354826837E+02  0.72461456028E+02  0.69999851147E+02 0.  0.
         12    1    1    2    0    0 -0.57341718647E+01 -0.40758689393E+01 -0.17354826837E+02  0.18726543972E+02  0.00000000000E+00 0. -1.
         11    1    3    3    0    0 -0.74475137560E+01  0.11613630718E+02 -0.18081202530E+01  0.13914423405E+02  0.51100000000E-03 0. -1.
        -11    1    3    3    0    0  0.12587023799E+02 -0.26252797670E+02  0.25578075474E+02  0.38754102994E+02  0.51100000000E-03 0.  1.
         12    1    3    3    0    0  0.59466182134E+00  0.18715035892E+02 -0.64151283837E+01  0.19792929629E+02  0.00000000000E+00 0. -1.
</event>
<event>
 7    1  0.2932676E-013  0.7246154E+02  0.7816164E-02  0.1226708E+00
        -11   -1    0    0    0    0  0.00000000000E+00  0.00000000000E+00  0.45593999997E+02  0.45594000000E+02  0.51100000000E-03 0.  1.
         11   -1    0    0    0    0 -0.00000000000E+00 -0.00000000000E+00 -0.45593999997E+02  0.45594000000E+02  0.51100000000E-03 0. -1.
    9900012    2    1    2    0    0 -0.15118798708E+02 -0.10165161729E+02 -0.43326341605E+01  0.72461539947E+02  0.69999960467E+02 0.  0.
         12    1    1    2    0    0  0.15118798708E+02  0.10165161729E+02  0.43326341605E+01  0.18726460053E+02  0.00000000000E+00 0. -1.
         11    1    3    3    0    0 -0.41185842797E+01 -0.76459124419E+01  0.12343858728E+02  0.15092831480E+02  0.51100000000E-03 0. -1.
        -11    1    3    3    0    0 -0.21853699918E+02 -0.17225801950E+02  0.57734345425E+01  0.28419095686E+02  0.51100000000E-03 0.  1.
         12    1    3    3    0    0  0.10853485490E+02  0.14706552663E+02 -0.22449927431E+02  0.28949612781E+02  0.00000000000E+00 0. -1.
</event>
<event>
 7    1  0.2932676E-013  0.7246158E+02  0.7816164E-02  0.1226708E+00
        -11   -1    0    0    0    0  0.00000000000E+00  0.00000000000E+00  0.45593999997E+02  0.45594000000E+02  0.51100000000E-03 0. -1.
         11   -1    0    0    0    0 -0.00000000000E+00 -0.00000000000E+00 -0.45593999997E+02  0.45594000000E+02  0.51100000000E-03 0.  1.
    9900012    2    1    2    0    0 -0.84370992885E+01 -0.13333876947E+02 -0.10084735278E+02  0.72461580042E+02  0.70000012698E+02 0.  0.
         12    1    1    2    0    0  0.84370992885E+01  0.13333876947E+02  0.10084735278E+02  0.18726419958E+02  0.00000000000E+00 0. -1.
         11    1    3    3    0    0 -0.29364837122E+01 -0.97864329029E+01  0.51930685478E+01  0.11461464425E+02  0.51100000000E-03 0. -1.
        -11    1    3    3    0    0  0.23658108152E+02 -0.85476396928E+00  0.64502721569E+01  0.24536558723E+02  0.51100000000E-03 0.  1.
         12    1    3    3    0    0 -0.29158723729E+02 -0.26926800744E+01 -0.21728075983E+02  0.36463556894E+02  0.00000000000E+00 0. -1.
</event>
<event>
 7    1  0.2932676E-013  0.7246169E+02  0.7816164E-02  0.1226708E+00
        -11   -1    0    0    0    0  0.00000000000E+00  0.00000000000E+00  0.45593999997E+02  0.45594000000E+02  0.51100000000E-03 0. -1.
         11   -1    0    0    0    0 -0.00000000000E+00 -0.00000000000E+00 -0.45593999997E+02  0.45594000000E+02  0.51100000000E-03 0.  1.
    9900012    2    1    2    0    0  0.27362318620E+01  0.97822129072E+00 -0.18499483930E+02  0.72461687299E+02  0.70000152421E+02 0.  0.
         12    1    1    2    0    0 -0.27362318620E+01 -0.97822129072E+00  0.18499483930E+02  0.18726312701E+02  0.00000000000E+00 0. -1.
         11    1    3    3    0    0  0.12170619774E+02 -0.19052135605E+02 -0.16358360177E+01  0.22666799874E+02  0.51100000000E-03 0. -1.
        -11    1    3    3    0    0  0.95403928173E+01  0.44682923089E+01 -0.22296915925E+02  0.24660437776E+02  0.51100000000E-03 0.  1.
        -12    1    3    3    0    0 -0.18974780729E+02  0.15562064587E+02  0.54332680128E+01  0.25134449650E+02  0.00000000000E+00 0.  1.
</event>
<event>
 7    1  0.2932676E-013  0.7246159E+02  0.7816164E-02  0.1226708E+00
        -11   -1    0    0    0    0  0.00000000000E+00  0.00000000000E+00  0.45593999997E+02  0.45594000000E+02  0.51100000000E-03 0.  1.
         11   -1    0    0    0    0 -0.00000000000E+00 -0.00000000000E+00 -0.45593999997E+02  0.45594000000E+02  0.51100000000E-03 0. -1.
    9900012    2    1    2    0    0  0.10474395032E+02 -0.68526698688E+01  0.13928622650E+02  0.72461586447E+02  0.70000021042E+02 0.  0.
         12    1    1    2    0    0 -0.10474395032E+02  0.68526698688E+01 -0.13928622650E+02  0.18726413553E+02  0.00000000000E+00 0. -1.
         11    1    3    3    0    0 -0.14172524995E+02 -0.19402463115E+02  0.10621211763E+01  0.24050865709E+02  0.51100000000E-03 0. -1.
        -11    1    3    3    0    0  0.44959110264E+01  0.62289795713E+01 -0.12949607459E+02  0.15056750515E+02  0.51100000000E-03 0.  1.
        -12    1    3    3    0    0  0.20151009001E+02  0.63208136750E+01  0.25816108933E+02  0.33353970224E+02  0.00000000000E+00 0.  1.
</event>
<event>
 7    1  0.2932676E-013  0.7246155E+02  0.7816164E-02  0.1226708E+00
        -11   -1    0    0    0    0  0.00000000000E+00  0.00000000000E+00  0.45593999997E+02  0.45594000000E+02  0.51100000000E-03 0. -1.
         11   -1    0    0    0    0 -0.00000000000E+00 -0.00000000000E+00 -0.45593999997E+02  0.45594000000E+02  0.51100000000E-03 0.  1.
    9900012    2    1    2    0    0 -0.12724487299E+02  0.14992116651E+01 -0.13657223371E+02  0.72461549112E+02  0.69999972406E+02 0.  0.
         12    1    1    2    0    0  0.12724487299E+02 -0.14992116651E+01  0.13657223371E+02  0.18726450888E+02  0.00000000000E+00 0. -1.
         11    1    3    3    0    0  0.85529676256E+01 -0.55955696687E+01  0.17217421183E+02  0.20022568456E+02  0.51100000000E-03 0. -1.
        -11    1    3    3    0    0  0.71060779429E+01  0.11033342282E+02 -0.57471111000E+01  0.14326907269E+02  0.51100000000E-03 0.  1.
        -12    1    3    3    0    0 -0.28383532868E+02 -0.39385609480E+01 -0.25127533454E+02  0.38112073387E+02  0.00000000000E+00 0.  1.
</event>
<event>
 7    1  0.3142876E-013  0.7246141E+02  0.7816164E-02  0.1226708E+00
        -11   -1    0    0    0    0  0.00000000000E+00  0.00000000000E+00  0.45593999997E+02  0.45594000000E+02  0.51100000000E-03 0. -1.
         11   -1    0    0    0    0 -0.00000000000E+00 -0.00000000000E+00 -0.45593999997E+02  0.45594000000E+02  0.51100000000E-03 0.  1.
    9900012    2    1    2    0    0  0.12900371205E+02 -0.12025042591E+02 -0.62979301556E+01  0.72461410593E+02  0.69999791960E+02 0.  0.
         12    1    1    2    0    0 -0.12900371205E+02  0.12025042591E+02  0.62979301556E+01  0.18726589407E+02  0.00000000000E+00 0. -1.
         11    1    3    3    0    0  0.19184488324E+02 -0.24770543756E+01  0.10437643578E+02  0.21980099962E+02  0.51100000000E-03 0. -1.
        -11    1    3    3    0    0  0.68604957353E+01 -0.20196136303E+02 -0.23967299838E+02  0.32083980194E+02  0.51100000000E-03 0.  1.
         12    1    3    3    0    0 -0.13144612854E+02  0.10648148087E+02  0.72317261042E+01  0.18397330437E+02  0.00000000000E+00 0. -1.
</event>
<event>
 7    1  0.2932676E-013  0.7246140E+02  0.7816164E-02  0.1226708E+00
        -11   -1    0    0    0    0  0.00000000000E+00  0.00000000000E+00  0.45593999997E+02  0.45594000000E+02  0.51100000000E-03 0.  1.
         11   -1    0    0    0    0 -0.00000000000E+00 -0.00000000000E+00 -0.45593999997E+02  0.45594000000E+02  0.51100000000E-03 0. -1.
    9900012    2    1    2    0    0 -0.65416625003E+01 -0.12411679861E+02  0.12403327309E+02  0.72461396636E+02  0.69999773777E+02 0.  0.
         12    1    1    2    0    0  0.65416625003E+01  0.12411679861E+02 -0.12403327309E+02  0.18726603364E+02  0.00000000000E+00 0. -1.
         11    1    3    3    0    0  0.47093165320E+01 -0.32951551312E+01 -0.22414792811E+02  0.23139979399E+02  0.51100000000E-03 0. -1.
        -11    1    3    3    0    0  0.83843012441E+01 -0.11860695121E+02  0.10381050616E+02  0.17853257637E+02  0.51100000000E-03 0.  1.
         12    1    3    3    0    0 -0.19635280276E+02  0.27441703910E+01  0.24437069504E+02  0.31468159600E+02  0.00000000000E+00 0. -1.
</event>
<event>
 7    1  0.2932676E-013  0.7246158E+02  0.7816164E-02  0.1226708E+00
        -11   -1    0    0    0    0  0.00000000000E+00  0.00000000000E+00  0.45593999997E+02  0.45594000000E+02  0.51100000000E-03 0.  1.
         11   -1    0    0    0    0 -0.00000000000E+00 -0.00000000000E+00 -0.45593999997E+02  0.45594000000E+02  0.51100000000E-03 0. -1.
    9900012    2    1    2    0    0  0.86692772762E+01  0.14161152964E+02  0.86593358542E+01  0.72461582318E+02  0.70000015664E+02 0.  0.
         12    1    1    2    0    0 -0.86692772762E+01 -0.14161152964E+02 -0.86593358542E+01  0.18726417682E+02  0.00000000000E+00 0. -1.
         11    1    3    3    0    0  0.13562458102E+02 -0.81872945756E+01  0.70009171704E+01  0.17320072278E+02  0.51100000000E-03 0. -1.
        -11    1    3    3    0    0 -0.17951602216E+02 -0.47395889270E+01  0.13359842062E+02  0.22873764568E+02  0.51100000000E-03 0.  1.
         12    1    3    3    0    0  0.13058421390E+02  0.27088036466E+02 -0.11701423378E+02  0.32267745472E+02  0.00000000000E+00 0. -1.
</event>
<event>
 7    1  0.2932676E-013  0.7246161E+02  0.7816164E-02  0.1226708E+00
        -11   -1    0    0    0    0  0.00000000000E+00  0.00000000000E+00  0.45593999997E+02  0.45594000000E+02  0.51100000000E-03 0.  1.
         11   -1    0    0    0    0 -0.00000000000E+00 -0.00000000000E+00 -0.45593999997E+02  0.45594000000E+02  0.51100000000E-03 0. -1.
    9900012    2    1    2    0    0 -0.11416633374E+01 -0.17274114383E+02 -0.71399642296E+01  0.72461614548E+02  0.70000057649E+02 0.  0.
         12    1    1    2    0    0  0.11416633374E+01  0.17274114383E+02  0.71399642296E+01  0.18726385452E+02  0.00000000000E+00 0. -1.
         11    1    3    3    0    0 -0.16453596261E+02 -0.71934344986E+01 -0.75274226985E+01  0.19471220366E+02  0.51100000000E-03 0. -1.
        -11    1    3    3    0    0  0.89757259989E+01 -0.21670037141E+02  0.18987614195E+02  0.30177535684E+02  0.51100000000E-03 0.  1.
         12    1    3    3    0    0  0.63362069245E+01  0.11589357257E+02 -0.18600155726E+02  0.22812858498E+02  0.00000000000E+00 0. -1.
</event>
<event>
 7    1  0.2932676E-013  0.7246159E+02  0.7816164E-02  0.1226708E+00
        -11   -1    0    0    0    0  0.00000000000E+00  0.00000000000E+00  0.45593999997E+02  0.45594000000E+02  0.51100000000E-03 0. -1.
         11   -1    0    0    0    0 -0.00000000000E+00 -0.00000000000E+00 -0.45593999997E+02  0.45594000000E+02  0.51100000000E-03 0.  1.
    9900012    2    1    2    0    0  0.45663563175E+01  0.16276893514E+01 -0.18088047535E+02  0.72461589605E+02  0.70000025156E+02 0.  0.
         12    1    1    2    0    0 -0.45663563175E+01 -0.16276893514E+01  0.18088047535E+02  0.18726410395E+02  0.00000000000E+00 0. -1.
         11    1    3    3    0    0  0.43628475126E+01 -0.11753978957E+01 -0.77669547707E+01  0.89856321593E+01  0.51100000000E-03 0. -1.
        -11    1    3    3    0    0  0.10733226761E+02  0.22520886391E+02 -0.26107099004E+02  0.36110567694E+02  0.51100000000E-03 0.  1.
         12    1    3    3    0    0 -0.10529717956E+02 -0.19717799144E+02  0.15786006239E+02  0.27365389752E+02  0.00000000000E+00 0. -1.
</event>
<event>
 7    1  0.2932676E-013  0.7246159E+02  0.7816164E-02  0.1226708E+00
        -11   -1    0    0    0    0  0.00000000000E+00  0.00000000000E+00  0.45593999997E+02  0.45594000000E+02  0.51100000000E-03 0.  1.
         11   -1    0    0    0    0 -0.00000000000E+00 -0.00000000000E+00 -0.45593999997E+02  0.45594000000E+02  0.51100000000E-03 0. -1.
    9900012    2    1    2    0    0 -0.30715080491E+00  0.16992810786E+02  0.78631097598E+01  0.72461589369E+02  0.70000024848E+02 0.  0.
         12    1    1    2    0    0  0.30715080491E+00 -0.16992810786E+02 -0.78631097598E+01  0.18726410631E+02  0.00000000000E+00 0. -1.
         11    1    3    3    0    0 -0.89099277280E+01  0.13231675513E+01 -0.11205061235E+02  0.14376751442E+02  0.51100000000E-03 0. -1.
        -11    1    3    3    0    0 -0.53713355037E+01  0.31595026682E+02  0.18253497288E+02  0.36882070436E+02  0.51100000000E-03 0.  1.
         12    1    3    3    0    0  0.13974112427E+02 -0.15925383447E+02  0.81467370701E+00  0.21202767492E+02  0.00000000000E+00 0. -1.
</event>
<event>
 7    1  0.2932676E-013  0.7246143E+02  0.7816164E-02  0.1226708E+00
        -11   -1    0    0    0    0  0.00000000000E+00  0.00000000000E+00  0.45593999997E+02  0.45594000000E+02  0.51100000000E-03 0.  1.
         11   -1    0    0    0    0 -0.00000000000E+00 -0.00000000000E+00 -0.45593999997E+02  0.45594000000E+02  0.51100000000E-03 0. -1.
    9900012    2    1    2    0    0  0.61646935549E+01  0.10857414168E+02  0.13956989069E+02  0.72461429761E+02  0.69999816930E+02 0.  0.
         12    1    1    2    0    0 -0.61646935549E+01 -0.10857414168E+02 -0.13956989069E+02  0.18726570239E+02  0.00000000000E+00 0. -1.
         11    1    3    3    0    0  0.50481023345E+01 -0.11149490861E+02 -0.44776498851E+01  0.13032414680E+02  0.51100000000E-03 0. -1.
        -11    1    3    3    0    0  0.12815555847E+02 -0.12885592731E+02  0.12728732888E+02  0.22187780712E+02  0.51100000000E-03 0.  1.
        -12    1    3    3    0    0 -0.11698964627E+02  0.34892497761E+02  0.57059060662E+01  0.37241234369E+02  0.00000000000E+00 0.  1.
</event>
<event>
 7    1  0.2932676E-013  0.7246156E+02  0.7816164E-02  0.1226708E+00
        -11   -1    0    0    0    0  0.00000000000E+00  0.00000000000E+00  0.45593999997E+02  0.45594000000E+02  0.51100000000E-03 0.  1.
         11   -1    0    0    0    0 -0.00000000000E+00 -0.00000000000E+00 -0.45593999997E+02  0.45594000000E+02  0.51100000000E-03 0. -1.
    9900012    2    1    2    0    0  0.85042914335E+01 -0.43524773183E+01  0.16106283337E+02  0.72461564287E+02  0.69999992174E+02 0.  0.
         12    1    1    2    0    0 -0.85042914335E+01  0.43524773183E+01 -0.16106283337E+02  0.18726435713E+02  0.00000000000E+00 0. -1.
         11    1    3    3    0    0  0.17350750336E+02 -0.25073435206E+02 -0.10975162044E+02  0.32406478865E+02  0.51100000000E-03 0. -1.
        -11    1    3    3    0    0  0.12738434884E+01 -0.24808018230E+01 -0.25321419722E+00  0.28002093866E+01  0.51100000000E-03 0.  1.
        -12    1    3    3    0    0 -0.10120302391E+02  0.23201759711E+02  0.27334659578E+02  0.37254876035E+02  0.00000000000E+00 0.  1.
</event>
<event>
 7    1  0.2932676E-013  0.7246153E+02  0.7816164E-02  0.1226708E+00
        -11   -1    0    0    0    0  0.00000000000E+00  0.00000000000E+00  0.45593999997E+02  0.45594000000E+02  0.51100000000E-03 0.  1.
         11   -1    0    0    0    0 -0.00000000000E+00 -0.00000000000E+00 -0.45593999997E+02  0.45594000000E+02  0.51100000000E-03 0. -1.
    9900012    2    1    2    0    0 -0.54102243990E+01 -0.15122297308E+02  0.96294549386E+01  0.72461526591E+02  0.69999943069E+02 0.  0.
         12    1    1    2    0    0  0.54102243990E+01  0.15122297308E+02 -0.96294549386E+01  0.18726473409E+02  0.00000000000E+00 0. -1.
         11    1    3    3    0    0  0.64951783665E+01 -0.13485226042E+02  0.49095225977E+01  0.15752526014E+02  0.51100000000E-03 0. -1.
        -11    1    3    3    0    0 -0.23737544875E+02  0.40391816085E+01  0.23600244759E+02  0.33715835711E+02  0.51100000000E-03 0.  1.
         12    1    3    3    0    0  0.11832142109E+02 -0.56762528742E+01 -0.18880312418E+02  0.22993164867E+02  0.00000000000E+00 0. -1.
</event>
<event>
 7    1  0.2932676E-013  0.7246178E+02  0.7816164E-02  0.1226707E+00
        -11   -1    0    0    0    0  0.00000000000E+00  0.00000000000E+00  0.45593999997E+02  0.45594000000E+02  0.51100000000E-03 0.  1.
         11   -1    0    0    0    0 -0.00000000000E+00 -0.00000000000E+00 -0.45593999997E+02  0.45594000000E+02  0.51100000000E-03 0. -1.
    9900012    2    1    2    0    0 -0.77410219330E+01  0.44812253482E+01 -0.16451944870E+02  0.72461780648E+02  0.70000274025E+02 0.  0.
         12    1    1    2    0    0  0.77410219330E+01 -0.44812253482E+01  0.16451944870E+02  0.18726219352E+02  0.00000000000E+00 0. -1.
         11    1    3    3    0    0  0.19401738539E+02 -0.61565365165E+01  0.20062278707E+01  0.20453736840E+02  0.51100000000E-03 0. -1.
        -11    1    3    3    0    0 -0.19354554867E+02  0.18230093292E+01  0.95286478228E+01  0.21649879600E+02  0.51100000000E-03 0.  1.
        -12    1    3    3    0    0 -0.77882056049E+01  0.88147525354E+01 -0.27986820564E+02  0.30358164208E+02  0.00000000000E+00 0.  1.
</event>
<event>
 7    1  0.2932676E-013  0.7246162E+02  0.7816164E-02  0.1226708E+00
        -11   -1    0    0    0    0  0.00000000000E+00  0.00000000000E+00  0.45593999997E+02  0.45594000000E+02  0.51100000000E-03 0. -1.
         11   -1    0    0    0    0 -0.00000000000E+00 -0.00000000000E+00 -0.45593999997E+02  0.45594000000E+02  0.51100000000E-03 0.  1.
    9900012    2    1    2    0    0  0.16667638041E+02  0.78275119397E+01  0.34054423683E+01  0.72461624516E+02  0.70000070634E+02 0.  0.
         12    1    1    2    0    0 -0.16667638041E+02 -0.78275119397E+01 -0.34054423683E+01  0.18726375484E+02  0.00000000000E+00 0. -1.
         11    1    3    3    0    0  0.55855685700E+01 -0.20031232729E+02  0.14505443293E+02  0.25354619821E+02  0.51100000000E-03 0. -1.
        -11    1    3    3    0    0 -0.31342741084E+00 -0.80623562585E+01 -0.13471351049E+01  0.81801343774E+01  0.51100000000E-03 0.  1.
        -12    1    3    3    0    0  0.11395496882E+02  0.35921100927E+02 -0.97528658198E+01  0.38926870317E+02  0.00000000000E+00 0.  1.
</event>
<event>
 7    1  0.2932676E-013  0.7246157E+02  0.7816164E-02  0.1226708E+00
        -11   -1    0    0    0    0  0.00000000000E+00  0.00000000000E+00  0.45593999997E+02  0.45594000000E+02  0.51100000000E-03 0.  1.
         11   -1    0    0    0    0 -0.00000000000E+00 -0.00000000000E+00 -0.45593999997E+02  0.45594000000E+02  0.51100000000E-03 0. -1.
    9900012    2    1    2    0    0 -0.42483616890E+01 -0.17714285664E+02 -0.43398803020E+01  0.72461573361E+02  0.70000003995E+02 0.  0.
         12    1    1    2    0    0  0.42483616890E+01  0.17714285664E+02  0.43398803020E+01  0.18726426639E+02  0.00000000000E+00 0. -1.
         11    1    3    3    0    0  0.54672270895E+01  0.29865180591E+01 -0.10456506833E+02  0.12171622635E+02  0.51100000000E-03 0. -1.
        -11    1    3    3    0    0 -0.47523170779E+01 -0.27446477263E+02 -0.19063461541E+02  0.33753654586E+02  0.51100000000E-03 0.  1.
         12    1    3    3    0    0 -0.49632717005E+01  0.67456735396E+01  0.25180088072E+02  0.26536296140E+02  0.00000000000E+00 0. -1.
</event>
<event>
 7    1  0.2932676E-013  0.7246166E+02  0.7816164E-02  0.1226708E+00
        -11   -1    0    0    0    0  0.00000000000E+00  0.00000000000E+00  0.45593999997E+02  0.45594000000E+02  0.51100000000E-03 0. -1.
         11   -1    0    0    0    0 -0.00000000000E+00 -0.00000000000E+00 -0.45593999997E+02  0.45594000000E+02  0.51100000000E-03 0.  1.
    9900012    2    1    2    0    0  0.14246899876E+01 -0.13095589545E+02 -0.13309832778E+02  0.72461658776E+02  0.70000115263E+02 0.  0.
         12    1    1    2    0    0 -0.14246899876E+01  0.13095589545E+02  0.13309832778E+02  0.18726341224E+02  0.00000000000E+00 0. -1.
         11    1    3    3    0    0  0.99988613422E+00  0.80057116314E+01  0.72950245941E+01  0.10876974538E+02  0.51100000000E-03 0. -1.
        -11    1    3    3    0    0  0.23190519100E+02  0.36119898952E+01 -0.30296151764E+01  0.23664851901E+02  0.51100000000E-03 0.  1.
        -12    1    3    3    0    0 -0.22765715246E+02 -0.24713291071E+02 -0.17575242195E+02  0.37919832337E+02  0.00000000000E+00 0.  1.
</event>
<event>
 7    1  0.2932676E-013  0.7246194E+02  0.7816164E-02  0.1226707E+00
        -11   -1    0    0    0    0  0.00000000000E+00  0.00000000000E+00  0.45593999997E+02  0.45594000000E+02  0.51100000000E-03 0.  1.
         11   -1    0    0    0    0 -0.00000000000E+00 -0.00000000000E+00 -0.45593999997E+02  0.45594000000E+02  0.51100000000E-03 0. -1.
    9900012    2    1    2    0    0  0.14118086485E+02 -0.31680969293E+01  0.11887314086E+02  0.72461936870E+02  0.70000477532E+02 0.  0.
         12    1    1    2    0    0 -0.14118086485E+02  0.31680969293E+01 -0.11887314086E+02  0.18726063130E+02  0.00000000000E+00 0. -1.
         11    1    3    3    0    0  0.23686612276E+02  0.72907784519E+00 -0.72245421174E+01  0.24774607255E+02  0.51100000000E-03 0. -1.
        -11    1    3    3    0    0 -0.53599248335E+01  0.18687186078E+02  0.14508006195E+02  0.24257410451E+02  0.51100000000E-03 0.  1.
        -12    1    3    3    0    0 -0.42086009570E+01 -0.22584360853E+02  0.46038500082E+01  0.23429919164E+02  0.00000000000E+00 0.  1.
</event>
<event>
 7    1  0.2932676E-013  0.7246161E+02  0.7816164E-02  0.1226708E+00
        -11   -1    0    0    0    0  0.00000000000E+00  0.00000000000E+00  0.45593999997E+02  0.45594000000E+02  0.51100000000E-03 0.  1.
         11   -1    0    0    0    0 -0.00000000000E+00 -0.00000000000E+00 -0.45593999997E+02  0.45594000000E+02  0.51100000000E-03 0. -1.
    9900012    2    1    2    0    0  0.62323433070E+01  0.13105053378E+02  0.11836101876E+02  0.72461605932E+02  0.70000046425E+02 0.  0.
         12    1    1    2    0    0 -0.62323433070E+01 -0.13105053378E+02 -0.11836101876E+02  0.18726394068E+02  0.00000000000E+00 0. -1.
         11    1    3    3    0    0  0.26058384851E+02  0.18683092373E+02  0.10792385893E+02  0.33831537879E+02  0.51100000000E-03 0. -1.
        -11    1    3    3    0    0  0.16824403845E+00  0.85493160330E+01  0.94508109480E+01  0.12745075069E+02  0.51100000000E-03 0.  1.
        -12    1    3    3    0    0 -0.19994285583E+02 -0.14127355028E+02 -0.84070949648E+01  0.25884992984E+02  0.00000000000E+00 0.  1.
</event>
<event>
 7    1  0.2932676E-013  0.7246142E+02  0.7816164E-02  0.1226708E+00
        -11   -1    0    0    0    0  0.00000000000E+00  0.00000000000E+00  0.45593999997E+02  0.45594000000E+02  0.51100000000E-03 0.  1.
         11   -1    0    0    0    0 -0.00000000000E+00 -0.00000000000E+00 -0.45593999997E+02  0.45594000000E+02  0.51100000000E-03 0. -1.
    9900012    2    1    2    0    0  0.22727914910E+01  0.13964396235E+02  0.12268446932E+02  0.72461421736E+02  0.69999806475E+02 0.  0.
         12    1    1    2    0    0 -0.22727914910E+01 -0.13964396235E+02 -0.12268446932E+02  0.18726578264E+02  0.00000000000E+00 0. -1.
         11    1    3    3    0    0  0.23511892687E+02  0.13005001938E+02  0.13094270622E+02  0.29889782477E+02  0.51100000000E-03 0. -1.
        -11    1    3    3    0    0 -0.77723382221E+01  0.10470693703E+02  0.14891031407E+02  0.19793622323E+02  0.51100000000E-03 0.  1.
         12    1    3    3    0    0 -0.13466762974E+02 -0.95112994064E+01 -0.15716855097E+02  0.22778016936E+02  0.00000000000E+00 0. -1.
</event>
<event>
 7    1  0.2932676E-013  0.7246148E+02  0.7816164E-02  0.1226708E+00
        -11   -1    0    0    0    0  0.00000000000E+00  0.00000000000E+00  0.45593999997E+02  0.45594000000E+02  0.51100000000E-03 0.  1.
         11   -1    0    0    0    0 -0.00000000000E+00 -0.00000000000E+00 -0.45593999997E+02  0.45594000000E+02  0.51100000000E-03 0. -1.
    9900012    2    1    2    0    0 -0.64050783868E+01  0.10917581651E+02  0.13800870234E+02  0.72461477699E+02  0.69999879378E+02 0.  0.
         12    1    1    2    0    0  0.64050783868E+01 -0.10917581651E+02 -0.13800870234E+02  0.18726522301E+02  0.00000000000E+00 0. -1.
         11    1    3    3    0    0 -0.22838171131E+02  0.16003771608E+01 -0.33286260865E+01  0.23134887498E+02  0.51100000000E-03 0. -1.
        -11    1    3    3    0    0 -0.39466493154E+01  0.19863392730E+01 -0.12137888983E+02  0.12917040440E+02  0.51100000000E-03 0.  1.
        -12    1    3    3    0    0  0.20379742060E+02  0.73308652175E+01  0.29267385303E+02  0.36409549760E+02  0.00000000000E+00 0.  1.
</event>
<event>
 7    1  0.2932676E-013  0.7246160E+02  0.7816164E-02  0.1226708E+00
        -11   -1    0    0    0    0  0.00000000000E+00  0.00000000000E+00  0.45593999997E+02  0.45594000000E+02  0.51100000000E-03 0. -1.
         11   -1    0    0    0    0 -0.00000000000E+00 -0.00000000000E+00 -0.45593999997E+02  0.45594000000E+02  0.51100000000E-03 0.  1.
    9900012    2    1    2    0    0  0.14933629103E+02 -0.57104605487E+01 -0.97496436790E+01  0.72461596455E+02  0.70000034079E+02 0.  0.
         12    1    1    2    0    0 -0.14933629103E+02  0.57104605487E+01  0.97496436790E+01  0.18726403545E+02  0.00000000000E+00 0. -1.
         11    1    3    3    0    0  0.87712590973E+01 -0.63850326283E+01 -0.16956650602E+02  0.20130365812E+02  0.51100000000E-03 0. -1.
        -11    1    3    3    0    0 -0.11480765398E+01  0.23970692434E+02 -0.57679671191E+01  0.24681604901E+02  0.51100000000E-03 0.  1.
        -12    1    3    3    0    0  0.73104465460E+01 -0.23296120355E+02  0.12974974042E+02  0.27649625742E+02  0.00000000000E+00 0.  1.
</event>
<event>
 7    1  0.2932676E-013  0.7246152E+02  0.7816164E-02  0.1226708E+00
        -11   -1    0    0    0    0  0.00000000000E+00  0.00000000000E+00  0.45593999997E+02  0.45594000000E+02  0.51100000000E-03 0.  1.
         11   -1    0    0    0    0 -0.00000000000E+00 -0.00000000000E+00 -0.45593999997E+02  0.45594000000E+02  0.51100000000E-03 0. -1.
    9900012    2    1    2    0    0 -0.94452380521E+01  0.77686588868E+01  0.14181551395E+02  0.72461521881E+02  0.69999936933E+02 0.  0.
         12    1    1    2    0    0  0.94452380521E+01 -0.77686588868E+01 -0.14181551395E+02  0.18726478119E+02  0.00000000000E+00 0. -1.
         11    1    3    3    0    0 -0.11112409298E+02 -0.22699021054E+01 -0.89299471788E+00  0.11376973930E+02  0.51100000000E-03 0. -1.
        -11    1    3    3    0    0 -0.10392397453E+02  0.32236526395E+02  0.10022744650E+02  0.35322103128E+02  0.51100000000E-03 0.  1.
         12    1    3    3    0    0  0.12059568699E+02 -0.22197965403E+02  0.50518014638E+01  0.25762444823E+02  0.00000000000E+00 0. -1.
</event>
<event>
 7    1  0.2932676E-013  0.7246158E+02  0.7816164E-02  0.1226708E+00
        -11   -1    0    0    0    0  0.00000000000E+00  0.00000000000E+00  0.45593999997E+02  0.45594000000E+02  0.51100000000E-03 0.  1.
         11   -1    0    0    0    0 -0.00000000000E+00 -0.00000000000E+00 -0.45593999997E+02  0.45594000000E+02  0.51100000000E-03 0. -1.
    9900012    2    1    2    0    0  0.33450590360E+01 -0.32312417867E+01  0.18139694032E+02  0.72461579012E+02  0.70000011357E+02 0.  0.
         12    1    1    2    0    0 -0.33450590360E+01  0.32312417867E+01 -0.18139694032E+02  0.18726420988E+02  0.00000000000E+00 0. -1.
         11    1    3    3    0    0  0.89866007751E+01  0.14270423038E+02  0.12450092166E+01  0.16910174907E+02  0.51100000000E-03 0. -1.
        -11    1    3    3    0    0  0.15321969959E+02 -0.10170594891E+02  0.25749853996E+02  0.31642672848E+02  0.51100000000E-03 0.  1.
         12    1    3    3    0    0 -0.20963511699E+02 -0.73310699340E+01 -0.88551691807E+01  0.23908731257E+02  0.00000000000E+00 0. -1.
</event>
<event>
 7    1  0.2932676E-013  0.7246160E+02  0.7816164E-02  0.1226708E+00
        -11   -1    0    0    0    0  0.00000000000E+00  0.00000000000E+00  0.45593999997E+02  0.45594000000E+02  0.51100000000E-03 0.  1.
         11   -1    0    0    0    0 -0.00000000000E+00 -0.00000000000E+00 -0.45593999997E+02  0.45594000000E+02  0.51100000000E-03 0. -1.
    9900012    2    1    2    0    0  0.11014414242E+02 -0.10704962535E+01  0.15106776630E+02  0.72461601962E+02  0.70000041254E+02 0.  0.
         12    1    1    2    0    0 -0.11014414242E+02  0.10704962535E+01 -0.15106776630E+02  0.18726398038E+02  0.00000000000E+00 0. -1.
         11    1    3    3    0    0  0.38809535020E+01 -0.16761387906E+02 -0.16429334706E+01  0.17283088707E+02  0.51100000000E-03 0. -1.
        -11    1    3    3    0    0  0.11525212643E+02  0.66513152824E+01 -0.16064399163E+02  0.20859900339E+02  0.51100000000E-03 0.  1.
        -12    1    3    3    0    0 -0.43917519033E+01  0.90395763700E+01  0.32814109263E+02  0.34318612916E+02  0.00000000000E+00 0.  1.
</event>
<event>
 7    1  0.2932676E-013  0.7246146E+02  0.7816164E-02  0.1226708E+00
        -11   -1    0    0    0    0  0.00000000000E+00  0.00000000000E+00  0.45593999997E+02  0.45594000000E+02  0.51100000000E-03 0. -1.
         11   -1    0    0    0    0 -0.00000000000E+00 -0.00000000000E+00 -0.45593999997E+02  0.45594000000E+02  0.51100000000E-03 0.  1.
    9900012    2    1    2    0    0 -0.17884394823E+02 -0.40480670316E+01 -0.38006414388E+01  0.72461460004E+02  0.69999856326E+02 0.  0.
         12    1    1    2    0    0  0.17884394823E+02  0.40480670316E+01  0.38006414388E+01  0.18726539996E+02  0.00000000000E+00 0. -1.
         11    1    3    3    0    0 -0.27179253392E+01  0.49837013217E+01  0.18792118038E+02  0.19630794626E+02  0.51100000000E-03 0. -1.
        -11    1    3    3    0    0 -0.11021808662E+01 -0.72547630412E+01  0.12772285534E+02  0.14730161827E+02  0.51100000000E-03 0.  1.
        -12    1    3    3    0    0 -0.14064288618E+02 -0.17770053121E+01 -0.35365045011E+02  0.38100503551E+02  0.00000000000E+00 0.  1.
</event>
<event>
 7    1  0.2932676E-013  0.7246144E+02  0.7816164E-02  0.1226708E+00
        -11   -1    0    0    0    0  0.00000000000E+00  0.00000000000E+00  0.45593999997E+02  0.45594000000E+02  0.51100000000E-03 0.  1.
         11   -1    0    0    0    0 -0.00000000000E+00 -0.00000000000E+00 -0.45593999997E+02  0.45594000000E+02  0.51100000000E-03 0. -1.
    9900012    2    1    2    0    0  0.16678025617E+02  0.74446656181E+01  0.41357451208E+01  0.72461442058E+02  0.69999832948E+02 0.  0.
         12    1    1    2    0    0 -0.16678025617E+02 -0.74446656181E+01 -0.41357451208E+01  0.18726557942E+02  0.00000000000E+00 0. -1.
         11    1    3    3    0    0  0.15633338211E+02 -0.26029416708E+02  0.15130259873E+02  0.33924276881E+02  0.51100000000E-03 0.  1.
        -11    1    3    3    0    0 -0.12116521840E+01  0.18339775280E+02  0.19657322251E+01  0.18484576321E+02  0.51100000000E-03 0. -1.
        -12    1    3    3    0    0  0.22563395905E+01  0.15134307046E+02 -0.12960246978E+02  0.20052588856E+02  0.00000000000E+00 0.  1.
</event>
<event>
 7    1  0.2932676E-013  0.7246166E+02  0.7816164E-02  0.1226708E+00
        -11   -1    0    0    0    0  0.00000000000E+00  0.00000000000E+00  0.45593999997E+02  0.45594000000E+02  0.51100000000E-03 0. -1.
         11   -1    0    0    0    0 -0.00000000000E+00 -0.00000000000E+00 -0.45593999997E+02  0.45594000000E+02  0.51100000000E-03 0.  1.
    9900012    2    1    2    0    0 -0.42153753905E+01  0.91884715677E+01 -0.15763198232E+02  0.72461659783E+02  0.70000116575E+02 0.  0.
         12    1    1    2    0    0  0.42153753905E+01 -0.91884715677E+01  0.15763198232E+02  0.18726340217E+02  0.00000000000E+00 0. -1.
         11    1    3    3    0    0  0.25049315952E+02 -0.16518698138E+01 -0.66528111890E+01  0.25970306130E+02  0.51100000000E-03 0. -1.
        -11    1    3    3    0    0 -0.99387973293E+00 -0.10043532405E+02  0.32913526938E+00  0.10097953772E+02  0.51100000000E-03 0.  1.
        -12    1    3    3    0    0 -0.28270811609E+02  0.20883873786E+02 -0.94395223124E+01  0.36393399880E+02  0.00000000000E+00 0.  1.
</event>
<event>
 7    1  0.2932676E-013  0.7246149E+02  0.7816164E-02  0.1226708E+00
        -11   -1    0    0    0    0  0.00000000000E+00  0.00000000000E+00  0.45593999997E+02  0.45594000000E+02  0.51100000000E-03 0.  1.
         11   -1    0    0    0    0 -0.00000000000E+00 -0.00000000000E+00 -0.45593999997E+02  0.45594000000E+02  0.51100000000E-03 0. -1.
    9900012    2    1    2    0    0 -0.25885942670E+01  0.99896122354E+01  0.15626543756E+02  0.72461493581E+02  0.69999900067E+02 0.  0.
         12    1    1    2    0    0  0.25885942670E+01 -0.99896122354E+01 -0.15626543756E+02  0.18726506419E+02  0.00000000000E+00 0. -1.
         11    1    3    3    0    0  0.12689511592E+01 -0.37579402664E+01  0.74963702059E+01  0.84810328743E+01  0.51100000000E-03 0. -1.
        -11    1    3    3    0    0 -0.29178151797E+02 -0.77638675129E+01  0.26843505688E+01  0.30312504339E+02  0.51100000000E-03 0.  1.
         12    1    3    3    0    0  0.25320606371E+02  0.21511420015E+02  0.54458229813E+01  0.33667956368E+02  0.00000000000E+00 0. -1.
</event>
<event>
 7    1  0.2932676E-013  0.7246159E+02  0.7816164E-02  0.1226708E+00
        -11   -1    0    0    0    0  0.00000000000E+00  0.00000000000E+00  0.45593999997E+02  0.45594000000E+02  0.51100000000E-03 0. -1.
         11   -1    0    0    0    0 -0.00000000000E+00 -0.00000000000E+00 -0.45593999997E+02  0.45594000000E+02  0.51100000000E-03 0.  1.
    9900012    2    1    2    0    0  0.14469278376E+02 -0.26025822891E+01 -0.11599348825E+02  0.72461592324E+02  0.70000028698E+02 0.  0.
         12    1    1    2    0    0 -0.14469278376E+02  0.26025822891E+01  0.11599348825E+02  0.18726407676E+02  0.00000000000E+00 0. -1.
         11    1    3    3    0    0 -0.71173102450E+01  0.21709924235E+02  0.18922195904E+01  0.22925038946E+02  0.51100000000E-03 0. -1.
        -11    1    3    3    0    0  0.83764502933E+01  0.64757003540E+01  0.45050494261E+01  0.11506306322E+02  0.51100000000E-03 0.  1.
        -12    1    3    3    0    0  0.13210138327E+02 -0.30788206878E+02 -0.17996617842E+02  0.38030247056E+02  0.00000000000E+00 0.  1.
</event>
<event>
 7    1  0.2932676E-013  0.7246157E+02  0.7816164E-02  0.1226708E+00
        -11   -1    0    0    0    0  0.00000000000E+00  0.00000000000E+00  0.45593999997E+02  0.45594000000E+02  0.51100000000E-03 0.  1.
         11   -1    0    0    0    0 -0.00000000000E+00 -0.00000000000E+00 -0.45593999997E+02  0.45594000000E+02  0.51100000000E-03 0. -1.
    9900012    2    1    2    0    0 -0.15551165128E+02 -0.30333447517E+01  0.99819376704E+01  0.72461574904E+02  0.70000006005E+02 0.  0.
         12    1    1    2    0    0  0.15551165128E+02  0.30333447517E+01 -0.99819376704E+01  0.18726425096E+02  0.00000000000E+00 0. -1.
         11    1    3    3    0    0  0.88354082941E+01 -0.17171042416E+02  0.49689567237E+01  0.19939901418E+02  0.51100000000E-03 0. -1.
        -11    1    3    3    0    0  0.10537034596E+02 -0.47147700953E+01 -0.32307649055E+01  0.11987326527E+02  0.51100000000E-03 0.  1.
        -12    1    3    3    0    0 -0.34923608019E+02  0.18852467760E+02  0.82437458522E+01  0.40534346958E+02  0.00000000000E+00 0.  1.
</event>
<event>
 7    1  0.2932676E-013  0.7246158E+02  0.7816164E-02  0.1226708E+00
        -11   -1    0    0    0    0  0.00000000000E+00  0.00000000000E+00  0.45593999997E+02  0.45594000000E+02  0.51100000000E-03 0. -1.
         11   -1    0    0    0    0 -0.00000000000E+00 -0.00000000000E+00 -0.45593999997E+02  0.45594000000E+02  0.51100000000E-03 0.  1.
    9900012    2    1    2    0    0 -0.18186169706E+02 -0.10114008021E+01  0.43495908882E+01  0.72461584404E+02  0.70000018381E+02 0.  0.
         12    1    1    2    0    0  0.18186169706E+02  0.10114008021E+01 -0.43495908882E+01  0.18726415596E+02  0.00000000000E+00 0. -1.
         11    1    3    3    0    0  0.68797225822E+01 -0.45824794490E+01  0.16259252425E+02  0.18239873640E+02  0.51100000000E-03 0. -1.
        -11    1    3    3    0    0 -0.87529959859E+01  0.17608978390E+02  0.11210150646E+02  0.22635338222E+02  0.51100000000E-03 0.  1.
        -12    1    3    3    0    0 -0.16312896303E+02 -0.14037899743E+02 -0.23119812183E+02  0.31586372542E+02  0.00000000000E+00 0.  1.
</event>
<event>
 7    1  0.2932676E-013  0.7246162E+02  0.7816164E-02  0.1226708E+00
        -11   -1    0    0    0    0  0.00000000000E+00  0.00000000000E+00  0.45593999997E+02  0.45594000000E+02  0.51100000000E-03 0. -1.
         11   -1    0    0    0    0 -0.00000000000E+00 -0.00000000000E+00 -0.45593999997E+02  0.45594000000E+02  0.51100000000E-03 0.  1.
    9900012    2    1    2    0    0 -0.12048339639E+02  0.11742440160E+02  0.82237423102E+01  0.72461619502E+02  0.70000064102E+02 0.  0.
         12    1    1    2    0    0  0.12048339639E+02 -0.11742440160E+02 -0.82237423102E+01  0.18726380498E+02  0.00000000000E+00 0. -1.
         11    1    3    3    0    0 -0.27334385091E+01  0.13721878516E+02  0.13696000171E+02  0.19579122989E+02  0.51100000000E-03 0. -1.
        -11    1    3    3    0    0 -0.28375942418E+02  0.99704092393E+01 -0.39339463936E+01  0.30332805723E+02  0.51100000000E-03 0.  1.
        -12    1    3    3    0    0  0.19061041288E+02 -0.11949847595E+02 -0.15383114670E+01  0.22549690790E+02  0.00000000000E+00 0.  1.
</event>
<event>
 7    1  0.2932676E-013  0.7246148E+02  0.7816164E-02  0.1226708E+00
        -11   -1    0    0    0    0  0.00000000000E+00  0.00000000000E+00  0.45593999997E+02  0.45594000000E+02  0.51100000000E-03 0.  1.
         11   -1    0    0    0    0 -0.00000000000E+00 -0.00000000000E+00 -0.45593999997E+02  0.45594000000E+02  0.51100000000E-03 0. -1.
    9900012    2    1    2    0    0  0.13518153972E+02 -0.11748000678E+02  0.54705278173E+01  0.72461476529E+02  0.69999877853E+02 0.  0.
         12    1    1    2    0    0 -0.13518153972E+02  0.11748000678E+02 -0.54705278173E+01  0.18726523471E+02  0.00000000000E+00 0. -1.
         11    1    3    3    0    0  0.49539315622E+01  0.93031704073E+01 -0.13682245091E+01  0.10628379750E+02  0.51100000000E-03 0. -1.
        -11    1    3    3    0    0  0.37699510152E+00  0.18212827866E+02  0.11363135293E+02  0.21470213509E+02  0.51100000000E-03 0.  1.
         12    1    3    3    0    0  0.81872273079E+01 -0.39263998951E+02 -0.45243829666E+01  0.40362883269E+02  0.00000000000E+00 0. -1.
</event>
<event>
 7    1  0.2932676E-013  0.7246150E+02  0.7816164E-02  0.1226708E+00
        -11   -1    0    0    0    0  0.00000000000E+00  0.00000000000E+00  0.45593999997E+02  0.45594000000E+02  0.51100000000E-03 0. -1.
         11   -1    0    0    0    0 -0.00000000000E+00 -0.00000000000E+00 -0.45593999997E+02  0.45594000000E+02  0.51100000000E-03 0.  1.
    9900012    2    1    2    0    0 -0.18180686736E+02 -0.44213088091E+01  0.77230984701E+00  0.72461499946E+02  0.69999908358E+02 0.  0.
         12    1    1    2    0    0  0.18180686736E+02  0.44213088091E+01 -0.77230984701E+00  0.18726500054E+02  0.00000000000E+00 0. -1.
         11    1    3    3    0    0 -0.26936086908E+02  0.14322005277E+02 -0.10769626042E+02  0.32352085844E+02  0.51100000000E-03 0. -1.
        -11    1    3    3    0    0 -0.51170659633E+01  0.43241167257E+01  0.11363481089E+02  0.13191324886E+02  0.51100000000E-03 0.  1.
        -12    1    3    3    0    0  0.13872466136E+02 -0.23067430812E+02  0.17845480021E+00  0.26918089217E+02  0.00000000000E+00 0.  1.
</event>
<event>
 7    1  0.2932676E-013  0.7246152E+02  0.7816164E-02  0.1226708E+00
        -11   -1    0    0    0    0  0.00000000000E+00  0.00000000000E+00  0.45593999997E+02  0.45594000000E+02  0.51100000000E-03 0.  1.
         11   -1    0    0    0    0 -0.00000000000E+00 -0.00000000000E+00 -0.45593999997E+02  0.45594000000E+02  0.51100000000E-03 0. -1.
    9900012    2    1    2    0    0  0.22744693854E+01 -0.62050828952E+01  0.17521551384E+02  0.72461520683E+02  0.69999935372E+02 0.  0.
         12    1    1    2    0    0 -0.22744693854E+01  0.62050828952E+01 -0.17521551384E+02  0.18726479317E+02  0.00000000000E+00 0. -1.
         11    1    3    3    0    0  0.18484835628E+02  0.39877804798E+01 -0.51625172312E+01  0.19602120441E+02  0.51100000000E-03 0. -1.
        -11    1    3    3    0    0  0.88917756797E+01  0.10833716863E+02  0.20737154409E+01  0.14168041212E+02  0.51100000000E-03 0.  1.
        -12    1    3    3    0    0 -0.25102141922E+02 -0.21026580238E+02  0.20610353174E+02  0.38691359030E+02  0.00000000000E+00 0.  1.
</event>
<event>
 7    1  0.2932676E-013  0.7246159E+02  0.7816164E-02  0.1226708E+00
        -11   -1    0    0    0    0  0.00000000000E+00  0.00000000000E+00  0.45593999997E+02  0.45594000000E+02  0.51100000000E-03 0.  1.
         11   -1    0    0    0    0 -0.00000000000E+00 -0.00000000000E+00 -0.45593999997E+02  0.45594000000E+02  0.51100000000E-03 0. -1.
    9900012    2    1    2    0    0  0.98738580641E+01 -0.49182608375E+01  0.15132620312E+02  0.72461586562E+02  0.70000021192E+02 0.  0.
         12    1    1    2    0    0 -0.98738580641E+01  0.49182608375E+01 -0.15132620312E+02  0.18726413438E+02  0.00000000000E+00 0. -1.
         11    1    3    3    0    0  0.15776432203E+02 -0.19671944718E+01  0.17430278344E+01  0.15993867995E+02  0.51100000000E-03 0. -1.
        -11    1    3    3    0    0 -0.83011130257E+01 -0.24299407030E+02  0.21514541126E+02  0.33499927457E+02  0.51100000000E-03 0.  1.
         12    1    3    3    0    0  0.23985388863E+01  0.21348340664E+02 -0.81249486491E+01  0.22967791110E+02  0.00000000000E+00 0. -1.
</event>
<event>
 7    1  0.2932676E-013  0.7246154E+02  0.7816164E-02  0.1226708E+00
        -11   -1    0    0    0    0  0.00000000000E+00  0.00000000000E+00  0.45593999997E+02  0.45594000000E+02  0.51100000000E-03 0.  1.
         11   -1    0    0    0    0 -0.00000000000E+00 -0.00000000000E+00 -0.45593999997E+02  0.45594000000E+02  0.51100000000E-03 0. -1.
    9900012    2    1    2    0    0 -0.11934759581E+02 -0.95366933754E+01  0.10830205601E+02  0.72461538504E+02  0.69999958587E+02 0.  0.
         12    1    1    2    0    0  0.11934759581E+02  0.95366933754E+01 -0.10830205601E+02  0.18726461496E+02  0.00000000000E+00 0. -1.
         11    1    3    3    0    0 -0.58453612353E+01 -0.32217919068E+02 -0.69935199449E+01  0.33482411480E+02  0.51100000000E-03 0. -1.
        -11    1    3    3    0    0  0.58746802956E+01  0.93302856084E+00 -0.29239321407E+01  0.66281060867E+01  0.51100000000E-03 0.  1.
        -12    1    3    3    0    0 -0.11964078641E+02  0.21748197132E+02  0.20747657687E+02  0.32351020938E+02  0.00000000000E+00 0.  1.
</event>
<event>
 7    1  0.2932676E-013  0.7246157E+02  0.7816164E-02  0.1226708E+00
        -11   -1    0    0    0    0  0.00000000000E+00  0.00000000000E+00  0.45593999997E+02  0.45594000000E+02  0.51100000000E-03 0.  1.
         11   -1    0    0    0    0 -0.00000000000E+00 -0.00000000000E+00 -0.45593999997E+02  0.45594000000E+02  0.51100000000E-03 0. -1.
    9900012    2    1    2    0    0 -0.39057873178E+00  0.17559050352E+02  0.64966561521E+01  0.72461565684E+02  0.69999993995E+02 0.  0.
         12    1    1    2    0    0  0.39057873178E+00 -0.17559050352E+02 -0.64966561521E+01  0.18726434316E+02  0.00000000000E+00 0. -1.
         11    1    3    3    0    0 -0.11955690370E+02 -0.36463061774E+01  0.85003541121E+01  0.15115889033E+02  0.51100000000E-03 0. -1.
        -11    1    3    3    0    0 -0.10232568278E+02  0.11550259303E+02  0.19755923722E+02  0.25068116521E+02  0.51100000000E-03 0.  1.
         12    1    3    3    0    0  0.21797679917E+02  0.96550972269E+01 -0.21759621682E+02  0.32277560130E+02  0.00000000000E+00 0. -1.
</event>
<event>
 7    1  0.2932676E-013  0.7246153E+02  0.7816164E-02  0.1226708E+00
        -11   -1    0    0    0    0  0.00000000000E+00  0.00000000000E+00  0.45593999997E+02  0.45594000000E+02  0.51100000000E-03 0.  1.
         11   -1    0    0    0    0 -0.00000000000E+00 -0.00000000000E+00 -0.45593999997E+02  0.45594000000E+02  0.51100000000E-03 0. -1.
    9900012    2    1    2    0    0  0.25793053377E+01 -0.17945835391E+02 -0.46877346986E+01  0.72461529950E+02  0.69999947444E+02 0.  0.
         12    1    1    2    0    0 -0.25793053377E+01  0.17945835391E+02  0.46877346986E+01  0.18726470050E+02  0.00000000000E+00 0. -1.
         11    1    3    3    0    0 -0.74899397699E+01  0.12877235236E+02 -0.41558003130E+01  0.15465867631E+02  0.51100000000E-03 0. -1.
        -11    1    3    3    0    0 -0.14900815215E+02  0.26298794727E+01  0.14757310746E+01  0.15202905728E+02  0.51100000000E-03 0.  1.
        -12    1    3    3    0    0  0.24970060322E+02 -0.33452950100E+02 -0.20076654602E+01  0.41792756591E+02  0.00000000000E+00 0.  1.
</event>
<event>
 7    1  0.2932676E-013  0.7246158E+02  0.7816164E-02  0.1226708E+00
        -11   -1    0    0    0    0  0.00000000000E+00  0.00000000000E+00  0.45593999997E+02  0.45594000000E+02  0.51100000000E-03 0.  1.
         11   -1    0    0    0    0 -0.00000000000E+00 -0.00000000000E+00 -0.45593999997E+02  0.45594000000E+02  0.51100000000E-03 0. -1.
    9900012    2    1    2    0    0 -0.44919049200E+01  0.15461607101E+02 -0.95624445280E+01  0.72461578844E+02  0.70000011138E+02 0.  0.
         12    1    1    2    0    0  0.44919049200E+01 -0.15461607101E+02  0.95624445280E+01  0.18726421156E+02  0.00000000000E+00 0. -1.
         11    1    3    3    0    0  0.22055164574E+02  0.12347398138E+02 -0.17450991662E+01  0.25336414438E+02  0.51100000000E-03 0. -1.
        -11    1    3    3    0    0 -0.24625030857E+02  0.16265851506E+02  0.34335979604E+01  0.29711271684E+02  0.51100000000E-03 0.  1.
        -12    1    3    3    0    0 -0.19220386378E+01 -0.13151642543E+02 -0.11250943322E+02  0.17413892722E+02  0.00000000000E+00 0.  1.
</event>
<event>
 7    1  0.2932676E-013  0.7246153E+02  0.7816164E-02  0.1226708E+00
        -11   -1    0    0    0    0  0.00000000000E+00  0.00000000000E+00  0.45593999997E+02  0.45594000000E+02  0.51100000000E-03 0. -1.
         11   -1    0    0    0    0 -0.00000000000E+00 -0.00000000000E+00 -0.45593999997E+02  0.45594000000E+02  0.51100000000E-03 0.  1.
    9900012    2    1    2    0    0  0.10214308741E+02  0.11502220186E+02  0.10679308658E+02  0.72461526609E+02  0.69999943091E+02 0.  0.
         12    1    1    2    0    0 -0.10214308741E+02 -0.11502220186E+02 -0.10679308658E+02  0.18726473391E+02  0.00000000000E+00 0. -1.
         11    1    3    3    0    0  0.17582942430E+02  0.55549186482E+01 -0.40101316017E+01  0.18870562827E+02  0.51100000000E-03 0. -1.
        -11    1    3    3    0    0 -0.42572998702E+01  0.12009643351E+02 -0.16961767277E+02  0.21214563041E+02  0.51100000000E-03 0.  1.
         12    1    3    3    0    0 -0.31113338191E+01 -0.60623418124E+01  0.31651207537E+02  0.32376400741E+02  0.00000000000E+00 0. -1.
</event>
<event>
 7    1  0.2932676E-013  0.7246155E+02  0.7816164E-02  0.1226708E+00
        -11   -1    0    0    0    0  0.00000000000E+00  0.00000000000E+00  0.45593999997E+02  0.45594000000E+02  0.51100000000E-03 0.  1.
         11   -1    0    0    0    0 -0.00000000000E+00 -0.00000000000E+00 -0.45593999997E+02  0.45594000000E+02  0.51100000000E-03 0. -1.
    9900012    2    1    2    0    0  0.26504907907E+01  0.18227519329E+02 -0.33782053796E+01  0.72461552555E+02  0.69999976892E+02 0.  0.
         12    1    1    2    0    0 -0.26504907907E+01 -0.18227519329E+02  0.33782053796E+01  0.18726447445E+02  0.00000000000E+00 0. -1.
         11    1    3    3    0    0  0.17134449206E+02 -0.15497315005E+02 -0.19277648949E+02  0.30089597392E+02  0.51100000000E-03 0. -1.
        -11    1    3    3    0    0 -0.47426436946E+00  0.23399862443E+01  0.62240908168E+01  0.66663160046E+01  0.51100000000E-03 0.  1.
        -12    1    3    3    0    0 -0.14009694046E+02  0.31384848089E+02  0.96753527523E+01  0.35705639159E+02  0.00000000000E+00 0.  1.
</event>
<event>
 7    1  0.2932676E-013  0.7246146E+02  0.7816164E-02  0.1226708E+00
        -11   -1    0    0    0    0  0.00000000000E+00  0.00000000000E+00  0.45593999997E+02  0.45594000000E+02  0.51100000000E-03 0.  1.
         11   -1    0    0    0    0 -0.00000000000E+00 -0.00000000000E+00 -0.45593999997E+02  0.45594000000E+02  0.51100000000E-03 0. -1.
    9900012    2    1    2    0    0  0.10652813205E+02  0.13005512600E+02  0.82496907590E+01  0.72461463086E+02  0.69999860341E+02 0.  0.
         12    1    1    2    0    0 -0.10652813205E+02 -0.13005512600E+02 -0.82496907590E+01  0.18726536914E+02  0.00000000000E+00 0. -1.
         11    1    3    3    0    0 -0.79628326999E+01  0.72152530775E+01  0.42556302552E+01  0.11557550377E+02  0.51100000000E-03 0. -1.
        -11    1    3    3    0    0  0.26152715933E+02  0.97406705893E+01 -0.20724675991E+02  0.34761435663E+02  0.51100000000E-03 0.  1.
         12    1    3    3    0    0 -0.75370700278E+01 -0.39504110669E+01  0.24718736495E+02  0.26142477046E+02  0.00000000000E+00 0. -1.
</event>
<event>
 7    1  0.2932676E-013  0.7246145E+02  0.7816164E-02  0.1226708E+00
        -11   -1    0    0    0    0  0.00000000000E+00  0.00000000000E+00  0.45593999997E+02  0.45594000000E+02  0.51100000000E-03 0.  1.
         11   -1    0    0    0    0 -0.00000000000E+00 -0.00000000000E+00 -0.45593999997E+02  0.45594000000E+02  0.51100000000E-03 0. -1.
    9900012    2    1    2    0    0  0.19025572866E+01 -0.68321082216E+01  0.17331654373E+02  0.72461450123E+02  0.69999843455E+02 0.  0.
         12    1    1    2    0    0 -0.19025572866E+01  0.68321082216E+01 -0.17331654373E+02  0.18726549877E+02  0.00000000000E+00 0. -1.
         11    1    3    3    0    0 -0.13748001458E+01  0.63319069105E+01 -0.20206904854E+01  0.67872167243E+01  0.51100000000E-03 0. -1.
        -11    1    3    3    0    0 -0.75801451682E+00  0.24180517179E+02  0.13363332909E+02  0.27637848392E+02  0.51100000000E-03 0.  1.
         12    1    3    3    0    0  0.40353719493E+01 -0.37344532311E+02  0.59890119488E+01  0.38036385007E+02  0.00000000000E+00 0. -1.
</event>
<event>
 7    1  0.2932676E-013  0.7246157E+02  0.7816164E-02  0.1226708E+00
        -11   -1    0    0    0    0  0.00000000000E+00  0.00000000000E+00  0.45593999997E+02  0.45594000000E+02  0.51100000000E-03 0. -1.
         11   -1    0    0    0    0 -0.00000000000E+00 -0.00000000000E+00 -0.45593999997E+02  0.45594000000E+02  0.51100000000E-03 0.  1.
    9900012    2    1    2    0    0 -0.80601988058E+01 -0.13184134425E+02 -0.10577858136E+02  0.72461567129E+02  0.69999995877E+02 0.  0.
         12    1    1    2    0    0  0.80601988058E+01  0.13184134425E+02  0.10577858136E+02  0.18726432871E+02  0.00000000000E+00 0. -1.
         11    1    3    3    0    0 -0.24380495046E+02  0.68935751314E+01  0.23817162346E+01  0.25448035077E+02  0.51100000000E-03 0. -1.
        -11    1    3    3    0    0 -0.11484646446E+02 -0.33738444845E+01  0.29427613872E+00  0.11973576296E+02  0.51100000000E-03 0.  1.
        -12    1    3    3    0    0  0.27804942687E+02 -0.16703865072E+02 -0.13253850509E+02  0.35039955757E+02  0.00000000000E+00 0.  1.
</event>
<event>
 7    1  0.2932676E-013  0.7246158E+02  0.7816164E-02  0.1226708E+00
        -11   -1    0    0    0    0  0.00000000000E+00  0.00000000000E+00  0.45593999997E+02  0.45594000000E+02  0.51100000000E-03 0.  1.
         11   -1    0    0    0    0 -0.00000000000E+00 -0.00000000000E+00 -0.45593999997E+02  0.45594000000E+02  0.51100000000E-03 0. -1.
    9900012    2    1    2    0    0  0.12471531454E+02  0.24085581724E+01  0.13760033421E+02  0.72461580987E+02  0.70000013929E+02 0.  0.
         12    1    1    2    0    0 -0.12471531454E+02 -0.24085581724E+01 -0.13760033421E+02  0.18726419013E+02  0.00000000000E+00 0. -1.
         11    1    3    3    0    0 -0.41396376551E+01  0.10277776611E+02 -0.96108691048E+01  0.14667586618E+02  0.51100000000E-03 0. -1.
        -11    1    3    3    0    0 -0.33874943481E+01  0.18615425961E+02  0.39070424141E+01  0.19320304924E+02  0.51100000000E-03 0.  1.
         12    1    3    3    0    0  0.19998663458E+02 -0.26484644400E+02  0.19463860112E+02  0.38473689445E+02  0.00000000000E+00 0. -1.
</event>
<event>
 7    1  0.2932676E-013  0.7246163E+02  0.7816164E-02  0.1226708E+00
        -11   -1    0    0    0    0  0.00000000000E+00  0.00000000000E+00  0.45593999997E+02  0.45594000000E+02  0.51100000000E-03 0.  1.
         11   -1    0    0    0    0 -0.00000000000E+00 -0.00000000000E+00 -0.45593999997E+02  0.45594000000E+02  0.51100000000E-03 0. -1.
    9900012    2    1    2    0    0 -0.17158171093E+02  0.66692838196E+01  0.34343502108E+01  0.72461629736E+02  0.70000077433E+02 0.  0.
         12    1    1    2    0    0  0.17158171093E+02 -0.66692838196E+01 -0.34343502108E+01  0.18726370264E+02  0.00000000000E+00 0. -1.
         11    1    3    3    0    0 -0.17662867281E+02  0.53015703915E+01  0.28292944842E+01  0.18657128309E+02  0.51100000000E-03 0. -1.
        -11    1    3    3    0    0 -0.10380956914E+00  0.26498611822E+02 -0.72408449894E+01  0.27470293798E+02  0.51100000000E-03 0.  1.
         12    1    3    3    0    0  0.60850575768E+00 -0.25130898394E+02  0.78459007160E+01  0.26334207628E+02  0.00000000000E+00 0. -1.
</event>
<event>
 7    1  0.2932676E-013  0.7246148E+02  0.7816164E-02  0.1226708E+00
        -11   -1    0    0    0    0  0.00000000000E+00  0.00000000000E+00  0.45593999997E+02  0.45594000000E+02  0.51100000000E-03 0.  1.
         11   -1    0    0    0    0 -0.00000000000E+00 -0.00000000000E+00 -0.45593999997E+02  0.45594000000E+02  0.51100000000E-03 0. -1.
    9900012    2    1    2    0    0 -0.17811908685E+02 -0.51210468946E+01  0.26820305515E+01  0.72461481366E+02  0.69999884154E+02 0.  0.
         12    1    1    2    0    0  0.17811908685E+02  0.51210468946E+01 -0.26820305515E+01  0.18726518634E+02  0.00000000000E+00 0. -1.
         11    1    3    3    0    0 -0.21877685573E+02 -0.18627958633E+02  0.16696633727E+02  0.33232687928E+02  0.51100000000E-03 0. -1.
        -11    1    3    3    0    0  0.11563568506E+01 -0.30608095712E+01  0.96529944622E+01  0.10192449104E+02  0.51100000000E-03 0.  1.
         12    1    3    3    0    0  0.29094200373E+01  0.16567721309E+02 -0.23667597638E+02  0.29036344334E+02  0.00000000000E+00 0. -1.
</event>
<event>
 7    1  0.2932676E-013  0.7246158E+02  0.7816164E-02  0.1226708E+00
        -11   -1    0    0    0    0  0.00000000000E+00  0.00000000000E+00  0.45593999997E+02  0.45594000000E+02  0.51100000000E-03 0.  1.
         11   -1    0    0    0    0 -0.00000000000E+00 -0.00000000000E+00 -0.45593999997E+02  0.45594000000E+02  0.51100000000E-03 0. -1.
    9900012    2    1    2    0    0  0.22597630857E+01  0.32807173923E+01  0.18297790873E+02  0.72461580517E+02  0.70000013317E+02 0.  0.
         12    1    1    2    0    0 -0.22597630857E+01 -0.32807173923E+01 -0.18297790873E+02  0.18726419483E+02  0.00000000000E+00 0. -1.
         11    1    3    3    0    0 -0.82467436039E+01  0.13896159590E+02  0.46362633395E+00  0.16165611064E+02  0.51100000000E-03 0. -1.
        -11    1    3    3    0    0 -0.17989541296E+02  0.76398905614E+01  0.60099843369E+01  0.20447773371E+02  0.51100000000E-03 0.  1.
        -12    1    3    3    0    0  0.28496047985E+02 -0.18255332759E+02  0.11824180202E+02  0.35848196083E+02  0.00000000000E+00 0.  1.
</event>
<event>
 7    1  0.2932676E-013  0.7246158E+02  0.7816164E-02  0.1226708E+00
        -11   -1    0    0    0    0  0.00000000000E+00  0.00000000000E+00  0.45593999997E+02  0.45594000000E+02  0.51100000000E-03 0. -1.
         11   -1    0    0    0    0 -0.00000000000E+00 -0.00000000000E+00 -0.45593999997E+02  0.45594000000E+02  0.51100000000E-03 0.  1.
    9900012    2    1    2    0    0  0.38767098375E+01 -0.14498875473E+02  0.11199663445E+02  0.72461582018E+02  0.70000015273E+02 0.  0.
         12    1    1    2    0    0 -0.38767098375E+01  0.14498875473E+02 -0.11199663445E+02  0.18726417982E+02  0.00000000000E+00 0. -1.
         11    1    3    3    0    0 -0.12320189709E+02 -0.32839343289E+01  0.13211631542E+02  0.18360787222E+02  0.51100000000E-03 0. -1.
        -11    1    3    3    0    0 -0.13156230713E+02  0.50753741338E+01 -0.12589302501E+02  0.18903342744E+02  0.51100000000E-03 0.  1.
         12    1    3    3    0    0  0.29353130260E+02 -0.16290315277E+02  0.10577334404E+02  0.35197452052E+02  0.00000000000E+00 0. -1.
</event>
<event>
 7    1  0.2932676E-013  0.7246157E+02  0.7816164E-02  0.1226708E+00
        -11   -1    0    0    0    0  0.00000000000E+00  0.00000000000E+00  0.45593999997E+02  0.45594000000E+02  0.51100000000E-03 0.  1.
         11   -1    0    0    0    0 -0.00000000000E+00 -0.00000000000E+00 -0.45593999997E+02  0.45594000000E+02  0.51100000000E-03 0. -1.
    9900012    2    1    2    0    0 -0.81271314040E+01  0.16854298439E+02  0.74924376096E+00  0.72461574636E+02  0.70000005655E+02 0.  0.
         12    1    1    2    0    0  0.81271314040E+01 -0.16854298439E+02 -0.74924376096E+00  0.18726425364E+02  0.00000000000E+00 0. -1.
         11    1    3    3    0    0  0.11066967286E+02  0.20141684858E+01 -0.25376560135E+02  0.27757961816E+02  0.51100000000E-03 0. -1.
        -11    1    3    3    0    0  0.11790637028E+01  0.84533968009E+01 -0.25905920440E+01  0.89197127806E+01  0.51100000000E-03 0.  1.
        -12    1    3    3    0    0 -0.20373162393E+02  0.63867331518E+01  0.28716395940E+02  0.35783900040E+02  0.00000000000E+00 0.  1.
</event>
<event>
 7    1  0.2932676E-013  0.7246157E+02  0.7816164E-02  0.1226708E+00
        -11   -1    0    0    0    0  0.00000000000E+00  0.00000000000E+00  0.45593999997E+02  0.45594000000E+02  0.51100000000E-03 0. -1.
         11   -1    0    0    0    0 -0.00000000000E+00 -0.00000000000E+00 -0.45593999997E+02  0.45594000000E+02  0.51100000000E-03 0.  1.
    9900012    2    1    2    0    0 -0.18696420034E+02 -0.91589663265E+00  0.53302607478E+00  0.72461572003E+02  0.70000002226E+02 0.  0.
         12    1    1    2    0    0  0.18696420034E+02  0.91589663265E+00 -0.53302607478E+00  0.18726427997E+02  0.00000000000E+00 0. -1.
         11    1    3    3    0    0 -0.85551520952E+01 -0.12816484992E+02  0.11208109452E+02  0.19054517382E+02  0.51100000000E-03 0. -1.
        -11    1    3    3    0    0 -0.14104650521E+02  0.83534666057E+01  0.17940170871E+02  0.24301672818E+02  0.51100000000E-03 0.  1.
         12    1    3    3    0    0  0.39633825817E+01  0.35471217536E+01 -0.28615254247E+02  0.29105381803E+02  0.00000000000E+00 0. -1.
</event>
<event>
 7    1  0.2932676E-013  0.7246156E+02  0.7816164E-02  0.1226708E+00
        -11   -1    0    0    0    0  0.00000000000E+00  0.00000000000E+00  0.45593999997E+02  0.45594000000E+02  0.51100000000E-03 0.  1.
         11   -1    0    0    0    0 -0.00000000000E+00 -0.00000000000E+00 -0.45593999997E+02  0.45594000000E+02  0.51100000000E-03 0. -1.
    9900012    2    1    2    0    0  0.53380715480E+01 -0.17949305414E+02 -0.83449626742E-01  0.72461560495E+02  0.69999987235E+02 0.  0.
         12    1    1    2    0    0 -0.53380715480E+01  0.17949305414E+02  0.83449626742E-01  0.18726439505E+02  0.00000000000E+00 0. -1.
         11    1    3    3    0    0  0.10531146512E+02 -0.28471279826E+02  0.13349187289E+01  0.30385865630E+02  0.51100000000E-03 0. -1.
        -11    1    3    3    0    0 -0.15821278605E+02 -0.56018589301E+01 -0.11446717335E+02  0.20315536374E+02  0.51100000000E-03 0.  1.
        -12    1    3    3    0    0  0.10628203641E+02  0.16123833343E+02  0.10028348979E+02  0.21760158491E+02  0.00000000000E+00 0.  1.
</event>
<event>
 7    1  0.2932676E-013  0.7246149E+02  0.7816164E-02  0.1226708E+00
        -11   -1    0    0    0    0  0.00000000000E+00  0.00000000000E+00  0.45593999997E+02  0.45594000000E+02  0.51100000000E-03 0.  1.
         11   -1    0    0    0    0 -0.00000000000E+00 -0.00000000000E+00 -0.45593999997E+02  0.45594000000E+02  0.51100000000E-03 0. -1.
    9900012    2    1    2    0    0 -0.54937344015E+01 -0.46476671696E+01  0.17288731809E+02  0.72461490038E+02  0.69999895451E+02 0.  0.
         12    1    1    2    0    0  0.54937344015E+01  0.46476671696E+01 -0.17288731809E+02  0.18726509962E+02  0.00000000000E+00 0. -1.
         11    1    3    3    0    0 -0.17482915564E+02  0.87477367584E+00  0.14765925664E+02  0.22900876109E+02  0.51100000000E-03 0. -1.
        -11    1    3    3    0    0  0.11505172570E+02  0.52625965988E+01  0.23091842280E+02  0.26330535485E+02  0.51100000000E-03 0.  1.
         12    1    3    3    0    0  0.48400859263E+00 -0.10785037444E+02 -0.20569036134E+02  0.23230078443E+02  0.00000000000E+00 0. -1.
</event>
<event>
 7    1  0.2932676E-013  0.7246151E+02  0.7816164E-02  0.1226708E+00
        -11   -1    0    0    0    0  0.00000000000E+00  0.00000000000E+00  0.45593999997E+02  0.45594000000E+02  0.51100000000E-03 0.  1.
         11   -1    0    0    0    0 -0.00000000000E+00 -0.00000000000E+00 -0.45593999997E+02  0.45594000000E+02  0.51100000000E-03 0. -1.
    9900012    2    1    2    0    0 -0.86296650853E+01 -0.16615750651E+02 -0.35642951081E+00  0.72461512578E+02  0.69999924814E+02 0.  0.
         12    1    1    2    0    0  0.86296650853E+01  0.16615750651E+02  0.35642951081E+00  0.18726487422E+02  0.00000000000E+00 0. -1.
         11    1    3    3    0    0 -0.99557871041E+01  0.10620767467E+02 -0.73105999023E+01  0.16289974514E+02  0.51100000000E-03 0. -1.
        -11    1    3    3    0    0 -0.20234013127E+02  0.66373248248E+00  0.65590039168E-01  0.20245002602E+02  0.51100000000E-03 0.  1.
         12    1    3    3    0    0  0.21560135146E+02 -0.27900250601E+02  0.68885803524E+01  0.35926535463E+02  0.00000000000E+00 0. -1.
</event>
<event>
 7    1  0.2932676E-013  0.7246154E+02  0.7816164E-02  0.1226708E+00
        -11   -1    0    0    0    0  0.00000000000E+00  0.00000000000E+00  0.45593999997E+02  0.45594000000E+02  0.51100000000E-03 0.  1.
         11   -1    0    0    0    0 -0.00000000000E+00 -0.00000000000E+00 -0.45593999997E+02  0.45594000000E+02  0.51100000000E-03 0. -1.
    9900012    2    1    2    0    0  0.17215170105E+02 -0.65117158517E+01  0.34519166563E+01  0.72461541347E+02  0.69999962291E+02 0.  0.
         12    1    1    2    0    0 -0.17215170105E+02  0.65117158517E+01 -0.34519166563E+01  0.18726458653E+02  0.00000000000E+00 0. -1.
         11    1    3    3    0    0 -0.14668120033E+02 -0.21338215154E+02 -0.98798889286E+01  0.27714353263E+02  0.51100000000E-03 0.  1.
        -11    1    3    3    0    0  0.64124879982E+01  0.12313284013E+01 -0.68941309062E+01  0.94955364868E+01  0.51100000000E-03 0. -1.
        -12    1    3    3    0    0  0.25470802139E+02  0.13595170901E+02  0.20225936491E+02  0.35251651598E+02  0.00000000000E+00 0.  1.
</event>
<event>
 7    1  0.2932676E-013  0.7246153E+02  0.7816164E-02  0.1226708E+00
        -11   -1    0    0    0    0  0.00000000000E+00  0.00000000000E+00  0.45593999997E+02  0.45594000000E+02  0.51100000000E-03 0.  1.
         11   -1    0    0    0    0 -0.00000000000E+00 -0.00000000000E+00 -0.45593999997E+02  0.45594000000E+02  0.51100000000E-03 0. -1.
    9900012    2    1    2    0    0 -0.13912691886E+02  0.75695568504E+01  0.99909673061E+01  0.72461531723E+02  0.69999949753E+02 0.  0.
         12    1    1    2    0    0  0.13912691886E+02 -0.75695568504E+01 -0.99909673061E+01  0.18726468277E+02  0.00000000000E+00 0. -1.
         11    1    3    3    0    0  0.44322194711E+01  0.53700704118E+01  0.74094227555E+01  0.10167682701E+02  0.51100000000E-03 0. -1.
        -11    1    3    3    0    0 -0.21890370107E+02 -0.20190118990E+02  0.18075523019E+02  0.34836098245E+02  0.51100000000E-03 0.  1.
         12    1    3    3    0    0  0.35454587496E+01  0.22389605428E+02 -0.15493978469E+02  0.27457750777E+02  0.00000000000E+00 0. -1.
</event>
<event>
 7    1  0.2932676E-013  0.7246134E+02  0.7816164E-02  0.1226709E+00
        -11   -1    0    0    0    0  0.00000000000E+00  0.00000000000E+00  0.45593999997E+02  0.45594000000E+02  0.51100000000E-03 0. -1.
         11   -1    0    0    0    0 -0.00000000000E+00 -0.00000000000E+00 -0.45593999997E+02  0.45594000000E+02  0.51100000000E-03 0.  1.
    9900012    2    1    2    0    0  0.66484266046E+01  0.89632359978E+01 -0.15038165917E+02  0.72461344933E+02  0.69999706424E+02 0.  0.
         12    1    1    2    0    0 -0.66484266046E+01 -0.89632359978E+01  0.15038165917E+02  0.18726655067E+02  0.00000000000E+00 0. -1.
         11    1    3    3    0    0  0.46684160264E+01 -0.10502743428E+02  0.14204533969E+02  0.18272123940E+02  0.51100000000E-03 0. -1.
        -11    1    3    3    0    0 -0.16422834224E+02  0.20949638873E+02 -0.13116609203E+02  0.29675617771E+02  0.51100000000E-03 0.  1.
        -12    1    3    3    0    0  0.18402844803E+02 -0.14836594471E+01 -0.16126090683E+02  0.24513603222E+02  0.00000000000E+00 0.  1.
</event>
<event>
 7    1  0.2932676E-013  0.7246157E+02  0.7816164E-02  0.1226708E+00
        -11   -1    0    0    0    0  0.00000000000E+00  0.00000000000E+00  0.45593999997E+02  0.45594000000E+02  0.51100000000E-03 0. -1.
         11   -1    0    0    0    0 -0.00000000000E+00 -0.00000000000E+00 -0.45593999997E+02  0.45594000000E+02  0.51100000000E-03 0.  1.
    9900012    2    1    2    0    0  0.64370257293E+01 -0.85544147438E+01 -0.15364435832E+02  0.72461569473E+02  0.69999998931E+02 0.  0.
         12    1    1    2    0    0 -0.64370257293E+01  0.85544147438E+01  0.15364435832E+02  0.18726430527E+02  0.00000000000E+00 0. -1.
         11    1    3    3    0    0  0.18921886558E+02 -0.21365568721E+02  0.97051204684E+01  0.30144894779E+02  0.51100000000E-03 0. -1.
        -11    1    3    3    0    0 -0.70726522730E+01  0.13503566517E+02  0.13839285664E+01  0.15306337818E+02  0.51100000000E-03 0.  1.
        -12    1    3    3    0    0 -0.54122085561E+01 -0.69241254035E+00 -0.26453484866E+02  0.27010336876E+02  0.00000000000E+00 0.  1.
</event>
<event>
 7    1  0.2932676E-013  0.7246157E+02  0.7816164E-02  0.1226708E+00
        -11   -1    0    0    0    0  0.00000000000E+00  0.00000000000E+00  0.45593999997E+02  0.45594000000E+02  0.51100000000E-03 0. -1.
         11   -1    0    0    0    0 -0.00000000000E+00 -0.00000000000E+00 -0.45593999997E+02  0.45594000000E+02  0.51100000000E-03 0.  1.
    9900012    2    1    2    0    0  0.83407531958E+01 -0.11751472350E+02 -0.11958837716E+02  0.72461573064E+02  0.70000003608E+02 0.  0.
         12    1    1    2    0    0 -0.83407531958E+01  0.11751472350E+02  0.11958837716E+02  0.18726426936E+02  0.00000000000E+00 0. -1.
         11    1    3    3    0    0 -0.15505358724E+02  0.21838448369E+02 -0.72252922613E+01  0.27740562807E+02  0.51100000000E-03 0. -1.
        -11    1    3    3    0    0  0.21166309357E+01  0.18086286873E+01 -0.12109003674E+01  0.30360408771E+01  0.51100000000E-03 0.  1.
        -12    1    3    3    0    0  0.21729480984E+02 -0.35398549405E+02 -0.35226450875E+01  0.41684969381E+02  0.00000000000E+00 0.  1.
</event>
<event>
 7    1  0.2932676E-013  0.7246149E+02  0.7816164E-02  0.1226708E+00
        -11   -1    0    0    0    0  0.00000000000E+00  0.00000000000E+00  0.45593999997E+02  0.45594000000E+02  0.51100000000E-03 0.  1.
         11   -1    0    0    0    0 -0.00000000000E+00 -0.00000000000E+00 -0.45593999997E+02  0.45594000000E+02  0.51100000000E-03 0. -1.
    9900012    2    1    2    0    0 -0.31817390491E+01 -0.36247002123E+01  0.18094761631E+02  0.72461486350E+02  0.69999890646E+02 0.  0.
         12    1    1    2    0    0  0.31817390491E+01  0.36247002123E+01 -0.18094761631E+02  0.18726513650E+02  0.00000000000E+00 0. -1.
         11    1    3    3    0    0 -0.16226314706E+02 -0.90141112134E+01  0.10697921835E+02  0.21424122427E+02  0.51100000000E-03 0. -1.
        -11    1    3    3    0    0 -0.18016116633E+02 -0.69634974817E-01 -0.20087724778E+01  0.18127892175E+02  0.51100000000E-03 0.  1.
         12    1    3    3    0    0  0.31060692290E+02  0.54590459759E+01  0.94056122739E+01  0.32909471748E+02  0.00000000000E+00 0. -1.
</event>
<event>
 7    1  0.2932676E-013  0.7246153E+02  0.7816164E-02  0.1226708E+00
        -11   -1    0    0    0    0  0.00000000000E+00  0.00000000000E+00  0.45593999997E+02  0.45594000000E+02  0.51100000000E-03 0. -1.
         11   -1    0    0    0    0 -0.00000000000E+00 -0.00000000000E+00 -0.45593999997E+02  0.45594000000E+02  0.51100000000E-03 0.  1.
    9900012    2    1    2    0    0  0.74538892565E+01 -0.10786696613E+01 -0.17145162259E+02  0.72461532576E+02  0.69999950865E+02 0.  0.
         12    1    1    2    0    0 -0.74538892565E+01  0.10786696613E+01  0.17145162259E+02  0.18726467424E+02  0.00000000000E+00 0. -1.
         11    1    3    3    0    0 -0.20063008698E+02  0.94578834431E+01 -0.11632379607E+02  0.25045720849E+02  0.51100000000E-03 0. -1.
        -11    1    3    3    0    0  0.82430300248E+01  0.11940047884E+02 -0.97852338449E+01  0.17500373971E+02  0.51100000000E-03 0.  1.
         12    1    3    3    0    0  0.19273867930E+02 -0.22476600989E+02  0.42724511931E+01  0.29915437757E+02  0.00000000000E+00 0. -1.
</event>
<event>
 7    1  0.2932676E-013  0.7246157E+02  0.7816164E-02  0.1226708E+00
        -11   -1    0    0    0    0  0.00000000000E+00  0.00000000000E+00  0.45593999997E+02  0.45594000000E+02  0.51100000000E-03 0.  1.
         11   -1    0    0    0    0 -0.00000000000E+00 -0.00000000000E+00 -0.45593999997E+02  0.45594000000E+02  0.51100000000E-03 0. -1.
    9900012    2    1    2    0    0 -0.13175232940E+02  0.25856332688E+01 -0.13053995580E+02  0.72461573138E+02  0.70000003705E+02 0.  0.
         12    1    1    2    0    0  0.13175232940E+02 -0.25856332688E+01  0.13053995580E+02  0.18726426862E+02  0.00000000000E+00 0. -1.
         11    1    3    3    0    0  0.18621994440E+01 -0.22422931565E+02 -0.53070833223E+01  0.23117542698E+02  0.51100000000E-03 0. -1.
        -11    1    3    3    0    0 -0.24927925559E+02  0.36677903257E+01 -0.46084565704E+01  0.25614293486E+02  0.51100000000E-03 0.  1.
         12    1    3    3    0    0  0.98904931754E+01  0.21340774508E+02 -0.31384556869E+01  0.23729736955E+02  0.00000000000E+00 0. -1.
</event>
<event>
 7    1  0.2932676E-013  0.7246157E+02  0.7816164E-02  0.1226708E+00
        -11   -1    0    0    0    0  0.00000000000E+00  0.00000000000E+00  0.45593999997E+02  0.45594000000E+02  0.51100000000E-03 0.  1.
         11   -1    0    0    0    0 -0.00000000000E+00 -0.00000000000E+00 -0.45593999997E+02  0.45594000000E+02  0.51100000000E-03 0. -1.
    9900012    2    1    2    0    0 -0.59642544553E+01  0.55517746026E+01  0.16860739047E+02  0.72461573388E+02  0.70000004031E+02 0.  0.
         12    1    1    2    0    0  0.59642544553E+01 -0.55517746026E+01 -0.16860739047E+02  0.18726426612E+02  0.00000000000E+00 0. -1.
         11    1    3    3    0    0 -0.13577546278E+02  0.16258369857E+02  0.20030058906E+02  0.29152831996E+02  0.51100000000E-03 0. -1.
        -11    1    3    3    0    0 -0.33216969077E+01 -0.70972290676E+01  0.17764919094E+02  0.19416402382E+02  0.51100000000E-03 0.  1.
         12    1    3    3    0    0  0.10934988730E+02 -0.36093661869E+01 -0.20934238954E+02  0.23892339010E+02  0.00000000000E+00 0. -1.
</event>
<event>
 7    1  0.2932676E-013  0.7246160E+02  0.7816164E-02  0.1226708E+00
        -11   -1    0    0    0    0  0.00000000000E+00  0.00000000000E+00  0.45593999997E+02  0.45594000000E+02  0.51100000000E-03 0.  1.
         11   -1    0    0    0    0 -0.00000000000E+00 -0.00000000000E+00 -0.45593999997E+02  0.45594000000E+02  0.51100000000E-03 0. -1.
    9900012    2    1    2    0    0 -0.15799721734E+02  0.97676780423E+01  0.23747612800E+01  0.72461595318E+02  0.70000032597E+02 0.  0.
         12    1    1    2    0    0  0.15799721734E+02 -0.97676780423E+01 -0.23747612800E+01  0.18726404682E+02  0.00000000000E+00 0. -1.
         11    1    3    3    0    0 -0.39835248656E+01  0.18143194443E+02  0.14383324210E+02  0.23493062605E+02  0.51100000000E-03 0. -1.
        -11    1    3    3    0    0 -0.10925901287E+02  0.16526289612E+02 -0.13551889477E+02  0.24003068052E+02  0.51100000000E-03 0.  1.
         12    1    3    3    0    0 -0.89029558085E+00 -0.24901806012E+02  0.15433265468E+01  0.24965464661E+02  0.00000000000E+00 0. -1.
</event>
<event>
 7    1  0.2932676E-013  0.7246152E+02  0.7816164E-02  0.1226708E+00
        -11   -1    0    0    0    0  0.00000000000E+00  0.00000000000E+00  0.45593999997E+02  0.45594000000E+02  0.51100000000E-03 0. -1.
         11   -1    0    0    0    0 -0.00000000000E+00 -0.00000000000E+00 -0.45593999997E+02  0.45594000000E+02  0.51100000000E-03 0.  1.
    9900012    2    1    2    0    0 -0.14993651878E+02  0.10361567334E+02  0.43022560430E+01  0.72461519249E+02  0.69999933504E+02 0.  0.
         12    1    1    2    0    0  0.14993651878E+02 -0.10361567334E+02 -0.43022560430E+01  0.18726480751E+02  0.00000000000E+00 0. -1.
         11    1    3    3    0    0 -0.12027188884E+02 -0.59260250289E+01  0.29555360966E+02  0.32454435863E+02  0.51100000000E-03 0. -1.
        -11    1    3    3    0    0 -0.68724844895E+01 -0.50764962508E+01 -0.33952887861E+01  0.91940112815E+01  0.51100000000E-03 0.  1.
        -12    1    3    3    0    0  0.39060214959E+01  0.21364088614E+02 -0.21857816137E+02  0.30813072104E+02  0.00000000000E+00 0.  1.
</event>
<event>
 7    1  0.2932676E-013  0.7246160E+02  0.7816164E-02  0.1226708E+00
        -11   -1    0    0    0    0  0.00000000000E+00  0.00000000000E+00  0.45593999997E+02  0.45594000000E+02  0.51100000000E-03 0.  1.
         11   -1    0    0    0    0 -0.00000000000E+00 -0.00000000000E+00 -0.45593999997E+02  0.45594000000E+02  0.51100000000E-03 0. -1.
    9900012    2    1    2    0    0 -0.17985360660E+02  0.48388866742E+01  0.19467900569E+01  0.72461601151E+02  0.70000040197E+02 0.  0.
         12    1    1    2    0    0  0.17985360660E+02 -0.48388866742E+01 -0.19467900569E+01  0.18726398849E+02  0.00000000000E+00 0. -1.
         11    1    3    3    0    0 -0.87888510907E+01 -0.95413441487E+01  0.30431005982E+01  0.13324474217E+02  0.51100000000E-03 0. -1.
        -11    1    3    3    0    0 -0.50532324965E+01 -0.14497296556E+02  0.18464187281E+02  0.24013183427E+02  0.51100000000E-03 0.  1.
         12    1    3    3    0    0 -0.41432770726E+01  0.28877527379E+02 -0.19560497822E+02  0.35123943507E+02  0.00000000000E+00 0. -1.
</event>
<event>
 7    1  0.2932676E-013  0.7246159E+02  0.7816164E-02  0.1226708E+00
        -11   -1    0    0    0    0  0.00000000000E+00  0.00000000000E+00  0.45593999997E+02  0.45594000000E+02  0.51100000000E-03 0.  1.
         11   -1    0    0    0    0 -0.00000000000E+00 -0.00000000000E+00 -0.45593999997E+02  0.45594000000E+02  0.51100000000E-03 0. -1.
    9900012    2    1    2    0    0 -0.99417197926E+01 -0.10573283175E+02  0.11834119478E+02  0.72461588348E+02  0.70000023519E+02 0.  0.
         12    1    1    2    0    0  0.99417197926E+01  0.10573283175E+02 -0.11834119478E+02  0.18726411652E+02  0.00000000000E+00 0. -1.
         11    1    3    3    0    0  0.61248094095E+01 -0.15346817996E+02  0.79980830173E+00  0.16543210284E+02  0.51100000000E-03 0. -1.
        -11    1    3    3    0    0  0.40362654391E+01 -0.49484245254E+01  0.27463103097E+02  0.28195751027E+02  0.51100000000E-03 0.  1.
        -12    1    3    3    0    0 -0.20102794641E+02  0.97219593466E+01 -0.16428791921E+02  0.27722627038E+02  0.00000000000E+00 0.  1.
</event>
<event>
 7    1  0.2932676E-013  0.7246159E+02  0.7816164E-02  0.1226708E+00
        -11   -1    0    0    0    0  0.00000000000E+00  0.00000000000E+00  0.45593999997E+02  0.45594000000E+02  0.51100000000E-03 0.  1.
         11   -1    0    0    0    0 -0.00000000000E+00 -0.00000000000E+00 -0.45593999997E+02  0.45594000000E+02  0.51100000000E-03 0. -1.
    9900012    2    1    2    0    0  0.22931003908E+01  0.16058542927E+02  0.93564649613E+01  0.72461586918E+02  0.70000021655E+02 0.  0.
         12    1    1    2    0    0 -0.22931003908E+01 -0.16058542927E+02 -0.93564649613E+01  0.18726413082E+02  0.00000000000E+00 0. -1.
         11    1    3    3    0    0 -0.21163055280E+02  0.24488122018E+02 -0.13383967339E+02  0.35023900564E+02  0.51100000000E-03 0. -1.
        -11    1    3    3    0    0  0.10554657853E+01 -0.64179944132E+01  0.89214191997E+01  0.11040669414E+02  0.51100000000E-03 0.  1.
        -12    1    3    3    0    0  0.22400689885E+02 -0.20115846777E+01  0.13819013101E+02  0.26397016940E+02  0.00000000000E+00 0.  1.
</event>
<event>
 7    1  0.2932676E-013  0.7246156E+02  0.7816164E-02  0.1226708E+00
        -11   -1    0    0    0    0  0.00000000000E+00  0.00000000000E+00  0.45593999997E+02  0.45594000000E+02  0.51100000000E-03 0. -1.
         11   -1    0    0    0    0 -0.00000000000E+00 -0.00000000000E+00 -0.45593999997E+02  0.45594000000E+02  0.51100000000E-03 0.  1.
    9900012    2    1    2    0    0  0.17730399235E+02  0.20512835188E+01 -0.56661151855E+01  0.72461556600E+02  0.69999982160E+02 0.  0.
         12    1    1    2    0    0 -0.17730399235E+02 -0.20512835188E+01  0.56661151855E+01  0.18726443400E+02  0.00000000000E+00 0. -1.
         11    1    3    3    0    0 -0.10987083215E+02  0.71740053348E+01  0.27928734110E+00  0.13124799115E+02  0.51100000000E-03 0. -1.
        -11    1    3    3    0    0  0.24436378741E+02  0.14457211219E+02  0.13475661553E+02  0.31428347344E+02  0.51100000000E-03 0.  1.
        -12    1    3    3    0    0  0.42811037094E+01 -0.19579933035E+02 -0.19421064080E+02  0.27908410141E+02  0.00000000000E+00 0.  1.
</event>
<event>
 7    1  0.2932676E-013  0.7246156E+02  0.7816164E-02  0.1226708E+00
        -11   -1    0    0    0    0  0.00000000000E+00  0.00000000000E+00  0.45593999997E+02  0.45594000000E+02  0.51100000000E-03 0.  1.
         11   -1    0    0    0    0 -0.00000000000E+00 -0.00000000000E+00 -0.45593999997E+02  0.45594000000E+02  0.51100000000E-03 0. -1.
    9900012    2    1    2    0    0 -0.16041329046E+02  0.12460364528E+01  0.95813656142E+01  0.72461563835E+02  0.69999991586E+02 0.  0.
         12    1    1    2    0    0  0.16041329046E+02 -0.12460364528E+01 -0.95813656142E+01  0.18726436165E+02  0.00000000000E+00 0. -1.
         11    1    3    3    0    0 -0.12649370127E+02  0.17438937974E+02  0.11044425473E+02  0.24209553002E+02  0.51100000000E-03 0. -1.
        -11    1    3    3    0    0  0.44732556407E+01 -0.23690286318E+02  0.15096651337E+02  0.28445536797E+02  0.51100000000E-03 0.  1.
         12    1    3    3    0    0 -0.78652145598E+01  0.74973847962E+01 -0.16559711195E+02  0.19806474036E+02  0.00000000000E+00 0. -1.
</event>
<event>
 7    1  0.2932676E-013  0.7246155E+02  0.7816164E-02  0.1226708E+00
        -11   -1    0    0    0    0  0.00000000000E+00  0.00000000000E+00  0.45593999997E+02  0.45594000000E+02  0.51100000000E-03 0.  1.
         11   -1    0    0    0    0 -0.00000000000E+00 -0.00000000000E+00 -0.45593999997E+02  0.45594000000E+02  0.51100000000E-03 0. -1.
    9900012    2    1    2    0    0  0.75030947754E+01  0.94850858815E+01  0.14297429452E+02  0.72461554146E+02  0.69999978963E+02 0.  0.
         12    1    1    2    0    0 -0.75030947754E+01 -0.94850858815E+01 -0.14297429452E+02  0.18726445854E+02  0.00000000000E+00 0. -1.
         11    1    3    3    0    0  0.10210967971E+02  0.16371688139E+01  0.28457203618E+02  0.30277989144E+02  0.51100000000E-03 0. -1.
        -11    1    3    3    0    0  0.86035068365E+01  0.17327092073E+02  0.29710822938E+01  0.19572321780E+02  0.51100000000E-03 0.  1.
         12    1    3    3    0    0 -0.11311380032E+02 -0.94791750054E+01 -0.17130856459E+02  0.22611243222E+02  0.00000000000E+00 0. -1.
</event>
<event>
 7    1  0.2932676E-013  0.7246156E+02  0.7816164E-02  0.1226708E+00
        -11   -1    0    0    0    0  0.00000000000E+00  0.00000000000E+00  0.45593999997E+02  0.45594000000E+02  0.51100000000E-03 0. -1.
         11   -1    0    0    0    0 -0.00000000000E+00 -0.00000000000E+00 -0.45593999997E+02  0.45594000000E+02  0.51100000000E-03 0.  1.
    9900012    2    1    2    0    0 -0.10523565200E+02  0.75610067676E+01 -0.13519065119E+02  0.72461564954E+02  0.69999993043E+02 0.  0.
         12    1    1    2    0    0  0.10523565200E+02 -0.75610067676E+01  0.13519065119E+02  0.18726435046E+02  0.00000000000E+00 0. -1.
         11    1    3    3    0    0 -0.19579391845E+01  0.30465525774E+02 -0.16769523141E+02  0.34831001898E+02  0.51100000000E-03 0. -1.
        -11    1    3    3    0    0  0.94137933796E+00 -0.97857436832E+01 -0.11909231046E+02  0.15442692734E+02  0.51100000000E-03 0.  1.
         12    1    3    3    0    0 -0.95070053539E+01 -0.13118775323E+02  0.15159689069E+02  0.22187870323E+02  0.00000000000E+00 0. -1.
</event>
<event>
 7    1  0.2932676E-013  0.7246157E+02  0.7816164E-02  0.1226708E+00
        -11   -1    0    0    0    0  0.00000000000E+00  0.00000000000E+00  0.45593999997E+02  0.45594000000E+02  0.51100000000E-03 0.  1.
         11   -1    0    0    0    0 -0.00000000000E+00 -0.00000000000E+00 -0.45593999997E+02  0.45594000000E+02  0.51100000000E-03 0. -1.
    9900012    2    1    2    0    0 -0.17354959169E+02 -0.64404541938E+01  0.28293531640E+01  0.72461566883E+02  0.69999995556E+02 0.  0.
         12    1    1    2    0    0  0.17354959169E+02  0.64404541938E+01 -0.28293531640E+01  0.18726433117E+02  0.00000000000E+00 0. -1.
         11    1    3    3    0    0 -0.16295526458E+01  0.13505155528E+01 -0.14445230024E+02  0.14599452209E+02  0.51100000000E-03 0. -1.
        -11    1    3    3    0    0  0.15777280905E+02 -0.15742762156E+02  0.34541599012E+01  0.22554120997E+02  0.51100000000E-03 0.  1.
        -12    1    3    3    0    0 -0.31502687428E+02  0.79517924091E+01  0.13820423287E+02  0.35307993677E+02  0.00000000000E+00 0.  1.
</event>
<event>
 7    1  0.2932676E-013  0.7246155E+02  0.7816164E-02  0.1226708E+00
        -11   -1    0    0    0    0  0.00000000000E+00  0.00000000000E+00  0.45593999997E+02  0.45594000000E+02  0.51100000000E-03 0.  1.
         11   -1    0    0    0    0 -0.00000000000E+00 -0.00000000000E+00 -0.45593999997E+02  0.45594000000E+02  0.51100000000E-03 0. -1.
    9900012    2    1    2    0    0 -0.83188081220E+01 -0.12295010038E+02  0.11415352530E+02  0.72461545082E+02  0.69999967157E+02 0.  0.
         12    1    1    2    0    0  0.83188081220E+01  0.12295010038E+02 -0.11415352530E+02  0.18726454918E+02  0.00000000000E+00 0. -1.
         11    1    3    3    0    0 -0.72544219564E+01  0.48522936855E+01  0.18505997632E+02  0.20460775658E+02  0.51100000000E-03 0. -1.
        -11    1    3    3    0    0  0.11903458710E+02 -0.30260084643E+02 -0.81677818516E+01  0.33527268193E+02  0.51100000000E-03 0.  1.
         12    1    3    3    0    0 -0.12967844875E+02  0.13112780919E+02  0.10771367494E+01  0.18473501231E+02  0.00000000000E+00 0. -1.
</event>
<event>
 7    1  0.2932676E-013  0.7246157E+02  0.7816164E-02  0.1226708E+00
        -11   -1    0    0    0    0  0.00000000000E+00  0.00000000000E+00  0.45593999997E+02  0.45594000000E+02  0.51100000000E-03 0.  1.
         11   -1    0    0    0    0 -0.00000000000E+00 -0.00000000000E+00 -0.45593999997E+02  0.45594000000E+02  0.51100000000E-03 0. -1.
    9900012    2    1    2    0    0 -0.22328089518E-01  0.17478817789E+02  0.67208236457E+01  0.72461573744E+02  0.70000004494E+02 0.  0.
         12    1    1    2    0    0  0.22328089518E-01 -0.17478817789E+02 -0.67208236457E+01  0.18726426256E+02  0.00000000000E+00 0. -1.
         11    1    3    3    0    0  0.89565807923E+00  0.21284737651E+02 -0.23309943885E+02  0.31578406301E+02  0.51100000000E-03 0. -1.
        -11    1    3    3    0    0  0.57622489953E+01  0.51653446426E+01 -0.10886023321E+01  0.78146883534E+01  0.51100000000E-03 0.  1.
        -12    1    3    3    0    0 -0.66802351641E+01 -0.89712645056E+01  0.31119369863E+02  0.33068479090E+02  0.00000000000E+00 0.  1.
</event>
<event>
 7    1  0.2932676E-013  0.7246167E+02  0.7816164E-02  0.1226708E+00
        -11   -1    0    0    0    0  0.00000000000E+00  0.00000000000E+00  0.45593999997E+02  0.45594000000E+02  0.51100000000E-03 0.  1.
         11   -1    0    0    0    0 -0.00000000000E+00 -0.00000000000E+00 -0.45593999997E+02  0.45594000000E+02  0.51100000000E-03 0. -1.
    9900012    2    1    2    0    0 -0.11649556862E+02  0.13298857286E+02  0.61728078460E+01  0.72461672627E+02  0.70000133307E+02 0.  0.
         12    1    1    2    0    0  0.11649556862E+02 -0.13298857286E+02 -0.61728078460E+01  0.18726327373E+02  0.00000000000E+00 0. -1.
         11    1    3    3    0    0  0.23013123883E+02  0.82999873101E+01 -0.16106608671E+02  0.29290211732E+02  0.51100000000E-03 0. -1.
        -11    1    3    3    0    0  0.74802045103E+00 -0.35282226977E+00  0.16404660781E+01  0.18371574140E+01  0.51100000000E-03 0.  1.
        -12    1    3    3    0    0 -0.35410701195E+02  0.53516922452E+01  0.20638950439E+02  0.41334303481E+02  0.00000000000E+00 0.  1.
</event>
<event>
 7    1  0.2932676E-013  0.7246236E+02  0.7816164E-02  0.1226706E+00
        -11   -1    0    0    0    0  0.00000000000E+00  0.00000000000E+00  0.45593999997E+02  0.45594000000E+02  0.51100000000E-03 0.  1.
         11   -1    0    0    0    0 -0.00000000000E+00 -0.00000000000E+00 -0.45593999997E+02  0.45594000000E+02  0.51100000000E-03 0. -1.
    9900012    2    1    2    0    0  0.11887779164E+02 -0.84723157033E+01  0.11728172549E+02  0.72462363611E+02  0.70001033435E+02 0.  0.
         12    1    1    2    0    0 -0.11887779164E+02  0.84723157033E+01 -0.11728172549E+02  0.18725636389E+02  0.00000000000E+00 0. -1.
         11    1    3    3    0    0  0.45926397931E+01  0.71214336548E+01  0.32897206104E+01  0.90900725808E+01  0.51100000000E-03 0. -1.
        -11    1    3    3    0    0 -0.15789413770E+02  0.30381097758E+01  0.24752787865E+02  0.29516710616E+02  0.51100000000E-03 0.  1.
        -12    1    3    3    0    0  0.23084553141E+02 -0.18631859134E+02 -0.16314335927E+02  0.33855580415E+02  0.00000000000E+00 0.  1.
</event>
<event>
 7    1  0.2932676E-013  0.7246150E+02  0.7816164E-02  0.1226708E+00
        -11   -1    0    0    0    0  0.00000000000E+00  0.00000000000E+00  0.45593999997E+02  0.45594000000E+02  0.51100000000E-03 0.  1.
         11   -1    0    0    0    0 -0.00000000000E+00 -0.00000000000E+00 -0.45593999997E+02  0.45594000000E+02  0.51100000000E-03 0. -1.
    9900012    2    1    2    0    0  0.13901819236E+02 -0.12148603327E+02  0.31357286984E+01  0.72461496446E+02  0.69999903799E+02 0.  0.
         12    1    1    2    0    0 -0.13901819236E+02  0.12148603327E+02 -0.31357286984E+01  0.18726503554E+02  0.00000000000E+00 0. -1.
         11    1    3    3    0    0 -0.20794584302E+02  0.14895816755E+02 -0.49580726881E+01  0.26055375225E+02  0.51100000000E-03 0. -1.
        -11    1    3    3    0    0  0.86848556512E+01 -0.17434652682E+01 -0.12232463138E+01  0.89421876870E+01  0.51100000000E-03 0.  1.
        -12    1    3    3    0    0  0.26011547887E+02 -0.25300954814E+02  0.93170477004E+01  0.37463933534E+02  0.00000000000E+00 0.  1.
</event>
<event>
 7    1  0.2932676E-013  0.7246158E+02  0.7816164E-02  0.1226708E+00
        -11   -1    0    0    0    0  0.00000000000E+00  0.00000000000E+00  0.45593999997E+02  0.45594000000E+02  0.51100000000E-03 0.  1.
         11   -1    0    0    0    0 -0.00000000000E+00 -0.00000000000E+00 -0.45593999997E+02  0.45594000000E+02  0.51100000000E-03 0. -1.
    9900012    2    1    2    0    0  0.84631415720E+01  0.11890227873E+02  0.11733560128E+02  0.72461582365E+02  0.70000015725E+02 0.  0.
         12    1    1    2    0    0 -0.84631415720E+01 -0.11890227873E+02 -0.11733560128E+02  0.18726417635E+02  0.00000000000E+00 0. -1.
         11    1    3    3    0    0 -0.47110052541E+01 -0.36022059788E+01  0.22521905454E+02  0.23289604633E+02  0.51100000000E-03 0. -1.
        -11    1    3    3    0    0 -0.53020983140E+01  0.24223635463E+02  0.23015108085E+01  0.24903688759E+02  0.51100000000E-03 0.  1.
         12    1    3    3    0    0  0.18476245140E+02 -0.87312016104E+01 -0.13089856134E+02  0.24268288973E+02  0.00000000000E+00 0. -1.
</event>
<event>
 7    1  0.2932676E-013  0.7246153E+02  0.7816164E-02  0.1226708E+00
        -11   -1    0    0    0    0  0.00000000000E+00  0.00000000000E+00  0.45593999997E+02  0.45594000000E+02  0.51100000000E-03 0. -1.
         11   -1    0    0    0    0 -0.00000000000E+00 -0.00000000000E+00 -0.45593999997E+02  0.45594000000E+02  0.51100000000E-03 0.  1.
    9900012    2    1    2    0    0 -0.13069786598E+02 -0.97279059415E+01 -0.92319568082E+01  0.72461534711E+02  0.69999953646E+02 0.  0.
         12    1    1    2    0    0  0.13069786598E+02  0.97279059415E+01  0.92319568082E+01  0.18726465289E+02  0.00000000000E+00 0. -1.
         11    1    3    3    0    0 -0.31794568979E+02 -0.11984967528E+02  0.60344047199E+01  0.34510115963E+02  0.51100000000E-03 0. -1.
        -11    1    3    3    0    0  0.97310004201E+00  0.55466981461E+01 -0.18738715523E+02  0.19566610431E+02  0.51100000000E-03 0.  1.
        -12    1    3    3    0    0  0.17751682339E+02 -0.32896365592E+01  0.34723539954E+01  0.18384808317E+02  0.00000000000E+00 0.  1.
</event>
<event>
 7    1  0.2932676E-013  0.7246168E+02  0.7816164E-02  0.1226708E+00
        -11   -1    0    0    0    0  0.00000000000E+00  0.00000000000E+00  0.45593999997E+02  0.45594000000E+02  0.51100000000E-03 0.  1.
         11   -1    0    0    0    0 -0.00000000000E+00 -0.00000000000E+00 -0.45593999997E+02  0.45594000000E+02  0.51100000000E-03 0. -1.
    9900012    2    1    2    0    0  0.10910569006E+02  0.40328147035E+01  0.14675525503E+02  0.72461677370E+02  0.70000139485E+02 0.  0.
         12    1    1    2    0    0 -0.10910569006E+02 -0.40328147035E+01 -0.14675525503E+02  0.18726322630E+02  0.00000000000E+00 0. -1.
         11    1    3    3    0    0 -0.67923705617E+01 -0.64991246211E+01  0.32671710848E+00  0.94064692110E+01  0.51100000000E-03 0.  1.
        -11    1    3    3    0    0 -0.13356714010E+02  0.46497475105E+00 -0.14332178068E+02  0.19596666530E+02  0.51100000000E-03 0. -1.
        -12    1    3    3    0    0  0.31059653577E+02  0.10066964574E+02  0.28680986462E+02  0.43458541629E+02  0.00000000000E+00 0.  1.
</event>
<event>
 7    1  0.2932676E-013  0.7246158E+02  0.7816164E-02  0.1226708E+00
        -11   -1    0    0    0    0  0.00000000000E+00  0.00000000000E+00  0.45593999997E+02  0.45594000000E+02  0.51100000000E-03 0. -1.
         11   -1    0    0    0    0 -0.00000000000E+00 -0.00000000000E+00 -0.45593999997E+02  0.45594000000E+02  0.51100000000E-03 0.  1.
    9900012    2    1    2    0    0  0.11295433278E+02  0.14148988642E+02 -0.47852083421E+01  0.72461577187E+02  0.70000008979E+02 0.  0.
         12    1    1    2    0    0 -0.11295433278E+02 -0.14148988642E+02  0.47852083421E+01  0.18726422813E+02  0.00000000000E+00 0. -1.
         11    1    3    3    0    0 -0.14011479259E+02  0.28338348699E+01 -0.43557645447E+01  0.14944057552E+02  0.51100000000E-03 0. -1.
        -11    1    3    3    0    0 -0.78626364040E+01  0.53816072580E+01 -0.17363276511E+02  0.19805709262E+02  0.51100000000E-03 0.  1.
         12    1    3    3    0    0  0.33169548941E+02  0.59335465137E+01  0.16933832714E+02  0.37711810372E+02  0.00000000000E+00 0. -1.
</event>
<event>
 7    1  0.2932676E-013  0.7246157E+02  0.7816164E-02  0.1226708E+00
        -11   -1    0    0    0    0  0.00000000000E+00  0.00000000000E+00  0.45593999997E+02  0.45594000000E+02  0.51100000000E-03 0. -1.
         11   -1    0    0    0    0 -0.00000000000E+00 -0.00000000000E+00 -0.45593999997E+02  0.45594000000E+02  0.51100000000E-03 0.  1.
    9900012    2    1    2    0    0 -0.15262487289E+02 -0.10797002842E+02  0.10772436018E+01  0.72461568349E+02  0.69999997465E+02 0.  0.
         12    1    1    2    0    0  0.15262487289E+02  0.10797002842E+02 -0.10772436018E+01  0.18726431651E+02  0.00000000000E+00 0. -1.
         11    1    3    3    0    0 -0.31211154533E+01  0.60419611122E+01  0.93059729997E+01  0.11525961543E+02  0.51100000000E-03 0. -1.
        -11    1    3    3    0    0 -0.27672797046E+02  0.89991941391E+01 -0.99136453955E+01  0.30741658328E+02  0.51100000000E-03 0.  1.
         12    1    3    3    0    0  0.15531425211E+02 -0.25838158094E+02  0.16849159977E+01  0.30193948478E+02  0.00000000000E+00 0. -1.
</event>
<event>
 7    1  0.2932676E-013  0.7246134E+02  0.7816164E-02  0.1226709E+00
        -11   -1    0    0    0    0  0.00000000000E+00  0.00000000000E+00  0.45593999997E+02  0.45594000000E+02  0.51100000000E-03 0. -1.
         11   -1    0    0    0    0 -0.00000000000E+00 -0.00000000000E+00 -0.45593999997E+02  0.45594000000E+02  0.51100000000E-03 0.  1.
    9900012    2    1    2    0    0 -0.86567172745E+01 -0.62425380585E+01 -0.15387653196E+02  0.72461337023E+02  0.69999696120E+02 0.  0.
         12    1    1    2    0    0  0.86567172745E+01  0.62425380585E+01  0.15387653196E+02  0.18726662977E+02  0.00000000000E+00 0. -1.
         11    1    3    3    0    0 -0.83357121291E+01 -0.55003648354E+01 -0.12838564565E+02  0.16265511070E+02  0.51100000000E-03 0. -1.
        -11    1    3    3    0    0 -0.14333000355E+02  0.40307553241E+01 -0.25121743531E+02  0.29202463697E+02  0.51100000000E-03 0.  1.
         12    1    3    3    0    0  0.14011995209E+02 -0.47729285472E+01  0.22572654900E+02  0.26993362256E+02  0.00000000000E+00 0. -1.
</event>
<event>
 7    1  0.2932676E-013  0.7246119E+02  0.7816164E-02  0.1226709E+00
        -11   -1    0    0    0    0  0.00000000000E+00  0.00000000000E+00  0.45593999997E+02  0.45594000000E+02  0.51100000000E-03 0.  1.
         11   -1    0    0    0    0 -0.00000000000E+00 -0.00000000000E+00 -0.45593999997E+02  0.45594000000E+02  0.51100000000E-03 0. -1.
    9900012    2    1    2    0    0 -0.67747627200E+01  0.11511170878E+01  0.17420422343E+02  0.72461185133E+02  0.69999498253E+02 0.  0.
         12    1    1    2    0    0  0.67747627200E+01 -0.11511170878E+01 -0.17420422343E+02  0.18726814867E+02  0.00000000000E+00 0. -1.
         11    1    3    3    0    0 -0.25574395648E+02  0.71030892378E+01  0.28201846033E-01  0.26542501485E+02  0.51100000000E-03 0. -1.
        -11    1    3    3    0    0 -0.21550026350E+01 -0.72153700222E+01  0.22990517315E+02  0.24192343573E+02  0.51100000000E-03 0.  1.
        -12    1    3    3    0    0  0.20954635563E+02  0.12633978722E+01 -0.55982968174E+01  0.21726340074E+02  0.00000000000E+00 0.  1.
</event>
<event>
 7    1  0.2932676E-013  0.7246155E+02  0.7816164E-02  0.1226708E+00
        -11   -1    0    0    0    0  0.00000000000E+00  0.00000000000E+00  0.45593999997E+02  0.45594000000E+02  0.51100000000E-03 0.  1.
         11   -1    0    0    0    0 -0.00000000000E+00 -0.00000000000E+00 -0.45593999997E+02  0.45594000000E+02  0.51100000000E-03 0. -1.
    9900012    2    1    2    0    0  0.63843877363E+01 -0.14464345531E+02  0.10035059029E+02  0.72461545233E+02  0.69999967353E+02 0.  0.
         12    1    1    2    0    0 -0.63843877363E+01  0.14464345531E+02 -0.10035059029E+02  0.18726454767E+02  0.00000000000E+00 0. -1.
         11    1    3    3    0    0  0.20372885909E+02 -0.94671023454E+01 -0.79261813138E+01  0.23822360453E+02  0.51100000000E-03 0. -1.
        -11    1    3    3    0    0 -0.23598594684E+01 -0.15636099864E+02 -0.84149204947E+01  0.17912773176E+02  0.51100000000E-03 0.  1.
        -12    1    3    3    0    0 -0.11628638704E+02  0.10638856678E+02  0.26376160838E+02  0.30726411604E+02  0.00000000000E+00 0.  1.
</event>
<event>
 7    1  0.2932676E-013  0.7246156E+02  0.7816164E-02  0.1226708E+00
        -11   -1    0    0    0    0  0.00000000000E+00  0.00000000000E+00  0.45593999997E+02  0.45594000000E+02  0.51100000000E-03 0.  1.
         11   -1    0    0    0    0 -0.00000000000E+00 -0.00000000000E+00 -0.45593999997E+02  0.45594000000E+02  0.51100000000E-03 0. -1.
    9900012    2    1    2    0    0 -0.72019372652E+01  0.17251129450E+02  0.11000498305E+01  0.72461562076E+02  0.69999989294E+02 0.  0.
         12    1    1    2    0    0  0.72019372652E+01 -0.17251129450E+02 -0.11000498305E+01  0.18726437924E+02  0.00000000000E+00 0. -1.
         11    1    3    3    0    0 -0.13797844698E+02  0.33580160446E+01  0.37641641649E+01  0.14691008209E+02  0.51100000000E-03 0. -1.
        -11    1    3    3    0    0  0.60858780475E+01  0.34005944775E+02  0.73153025264E+01  0.35312261935E+02  0.51100000000E-03 0.  1.
         12    1    3    3    0    0  0.51002938578E+00 -0.20112831369E+02 -0.99794168609E+01  0.22458291933E+02  0.00000000000E+00 0. -1.
</event>
<event>
 7    1  0.2932676E-013  0.7246153E+02  0.7816164E-02  0.1226708E+00
        -11   -1    0    0    0    0  0.00000000000E+00  0.00000000000E+00  0.45593999997E+02  0.45594000000E+02  0.51100000000E-03 0.  1.
         11   -1    0    0    0    0 -0.00000000000E+00 -0.00000000000E+00 -0.45593999997E+02  0.45594000000E+02  0.51100000000E-03 0. -1.
    9900012    2    1    2    0    0  0.11855120789E+02  0.11733162284E+01 -0.14448535860E+02  0.72461528138E+02  0.69999945084E+02 0.  0.
         12    1    1    2    0    0 -0.11855120789E+02 -0.11733162284E+01  0.14448535860E+02  0.18726471862E+02  0.00000000000E+00 0. -1.
         11    1    3    3    0    0  0.21745887803E+01  0.18401577575E+01 -0.15659221194E+01  0.32507121191E+01  0.51100000000E-03 0. -1.
        -11    1    3    3    0    0  0.94095260849E+01  0.32661875464E+02 -0.16174756643E+01  0.34028716075E+02  0.51100000000E-03 0.  1.
         12    1    3    3    0    0  0.27100592325E+00 -0.33328716993E+02 -0.11265138076E+02  0.35182099944E+02  0.00000000000E+00 0. -1.
</event>
<event>
 7    1  0.2932676E-013  0.7246164E+02  0.7816164E-02  0.1226708E+00
        -11   -1    0    0    0    0  0.00000000000E+00  0.00000000000E+00  0.45593999997E+02  0.45594000000E+02  0.51100000000E-03 0. -1.
         11   -1    0    0    0    0 -0.00000000000E+00 -0.00000000000E+00 -0.45593999997E+02  0.45594000000E+02  0.51100000000E-03 0.  1.
    9900012    2    1    2    0    0 -0.13801982214E+02 -0.12185591350E+01 -0.12597500529E+02  0.72461638395E+02  0.70000088714E+02 0.  0.
         12    1    1    2    0    0  0.13801982214E+02  0.12185591350E+01  0.12597500529E+02  0.18726361605E+02  0.00000000000E+00 0. -1.
         11    1    3    3    0    0 -0.21250802143E+02 -0.83590711926E+01  0.44668943888E+01  0.23268515394E+02  0.51100000000E-03 0. -1.
        -11    1    3    3    0    0 -0.32765963710E+01  0.23510748788E+02 -0.80880090222E+00  0.23751748388E+02  0.51100000000E-03 0.  1.
        -12    1    3    3    0    0  0.10725416300E+02 -0.16370236730E+02 -0.16255594015E+02  0.25441374613E+02  0.00000000000E+00 0.  1.
</event>
<event>
 7    1  0.2932676E-013  0.7246157E+02  0.7816164E-02  0.1226708E+00
        -11   -1    0    0    0    0  0.00000000000E+00  0.00000000000E+00  0.45593999997E+02  0.45594000000E+02  0.51100000000E-03 0.  1.
         11   -1    0    0    0    0 -0.00000000000E+00 -0.00000000000E+00 -0.45593999997E+02  0.45594000000E+02  0.51100000000E-03 0. -1.
    9900012    2    1    2    0    0 -0.12049855162E+01  0.17697438995E+02 -0.60023136225E+01  0.72461571993E+02  0.70000002213E+02 0.  0.
         12    1    1    2    0    0  0.12049855162E+01 -0.17697438995E+02  0.60023136225E+01  0.18726428007E+02  0.00000000000E+00 0. -1.
         11    1    3    3    0    0 -0.22411976062E+01  0.23573862151E+02  0.11845039693E+02  0.26477441512E+02  0.51100000000E-03 0. -1.
        -11    1    3    3    0    0 -0.14386102312E+02 -0.51811445300E+01  0.69324332919E+01  0.16788770949E+02  0.51100000000E-03 0.  1.
         12    1    3    3    0    0  0.15422314402E+02 -0.69527862626E+00 -0.24779786607E+02  0.29195359532E+02  0.00000000000E+00 0. -1.
</event>
<event>
 7    1  0.2932676E-013  0.7246223E+02  0.7816164E-02  0.1226706E+00
        -11   -1    0    0    0    0  0.00000000000E+00  0.00000000000E+00  0.45593999997E+02  0.45594000000E+02  0.51100000000E-03 0.  1.
         11   -1    0    0    0    0 -0.00000000000E+00 -0.00000000000E+00 -0.45593999997E+02  0.45594000000E+02  0.51100000000E-03 0. -1.
    9900012    2    1    2    0    0  0.81900047239E+01  0.62832251732E+01  0.15623685621E+02  0.72462225027E+02  0.70000852906E+02 0.  0.
         12    1    1    2    0    0 -0.81900047239E+01 -0.62832251732E+01 -0.15623685621E+02  0.18725774973E+02  0.00000000000E+00 0. -1.
         11    1    3    3    0    0 -0.11423598015E+02  0.27022788739E+01  0.23634507411E+01  0.11974422841E+02  0.51100000000E-03 0. -1.
        -11    1    3    3    0    0 -0.14030950900E+02 -0.13187728160E+02  0.12367595486E+02  0.22885392187E+02  0.51100000000E-03 0.  1.
         12    1    3    3    0    0  0.33644553638E+02  0.16768674460E+02  0.89263939362E+00  0.37602409999E+02  0.00000000000E+00 0. -1.
</event>
<event>
 7    1  0.2932676E-013  0.7246153E+02  0.7816164E-02  0.1226708E+00
        -11   -1    0    0    0    0  0.00000000000E+00  0.00000000000E+00  0.45593999997E+02  0.45594000000E+02  0.51100000000E-03 0.  1.
         11   -1    0    0    0    0 -0.00000000000E+00 -0.00000000000E+00 -0.45593999997E+02  0.45594000000E+02  0.51100000000E-03 0. -1.
    9900012    2    1    2    0    0  0.70400099801E+01 -0.14301755197E+02 -0.98274572166E+01  0.72461525223E+02  0.69999941286E+02 0.  0.
         12    1    1    2    0    0 -0.70400099801E+01  0.14301755197E+02  0.98274572166E+01  0.18726474777E+02  0.00000000000E+00 0. -1.
         11    1    3    3    0    0  0.69540003066E+01 -0.58812527487E+01  0.12719087454E+02  0.15643607004E+02  0.51100000000E-03 0. -1.
        -11    1    3    3    0    0  0.22770539387E+02 -0.15477899094E+02 -0.17209217312E+02  0.32468753982E+02  0.51100000000E-03 0.  1.
         12    1    3    3    0    0 -0.22684529714E+02  0.70573966462E+01 -0.53373273585E+01  0.24349164238E+02  0.00000000000E+00 0. -1.
</event>
<event>
 7    1  0.2932676E-013  0.7246132E+02  0.7816164E-02  0.1226709E+00
        -11   -1    0    0    0    0  0.00000000000E+00  0.00000000000E+00  0.45593999997E+02  0.45594000000E+02  0.51100000000E-03 0.  1.
         11   -1    0    0    0    0 -0.00000000000E+00 -0.00000000000E+00 -0.45593999997E+02  0.45594000000E+02  0.51100000000E-03 0. -1.
    9900012    2    1    2    0    0  0.10218306526E+02 -0.47805993773E+01  0.14947266227E+02  0.72461316195E+02  0.69999668988E+02 0.  0.
         12    1    1    2    0    0 -0.10218306526E+02  0.47805993773E+01 -0.14947266227E+02  0.18726683805E+02  0.00000000000E+00 0. -1.
         11    1    3    3    0    0 -0.59704553375E+01 -0.16138509956E+01 -0.11880325716E+02  0.13393766884E+02  0.51100000000E-03 0. -1.
        -11    1    3    3    0    0 -0.93664774798E+01 -0.42676748664E+01 -0.99192844580E+01  0.14294619742E+02  0.51100000000E-03 0.  1.
        -12    1    3    3    0    0  0.25555239343E+02  0.11009264847E+01  0.36746876401E+02  0.44772929569E+02  0.00000000000E+00 0.  1.
</event>
<event>
 7    1  0.2932676E-013  0.7246166E+02  0.7816164E-02  0.1226708E+00
        -11   -1    0    0    0    0  0.00000000000E+00  0.00000000000E+00  0.45593999997E+02  0.45594000000E+02  0.51100000000E-03 0.  1.
         11   -1    0    0    0    0 -0.00000000000E+00 -0.00000000000E+00 -0.45593999997E+02  0.45594000000E+02  0.51100000000E-03 0. -1.
    9900012    2    1    2    0    0  0.48965905745E+01 -0.11908173189E+02  0.13597601071E+02  0.72461656448E+02  0.70000112231E+02 0.  0.
         12    1    1    2    0    0 -0.48965905745E+01  0.11908173189E+02 -0.13597601071E+02  0.18726343552E+02  0.00000000000E+00 0. -1.
         11    1    3    3    0    0 -0.20377446016E+02 -0.60108367250E+01 -0.10678596488E+02  0.23778201939E+02  0.51100000000E-03 0. -1.
        -11    1    3    3    0    0  0.66508881829E+01  0.13623462583E+02  0.75046879063E+01  0.16916068905E+02  0.51100000000E-03 0.  1.
        -12    1    3    3    0    0  0.18623148407E+02 -0.19520799047E+02  0.16771509652E+02  0.31767385603E+02  0.00000000000E+00 0.  1.
</event>
<event>
 7    1  0.2932676E-013  0.7246187E+02  0.7816164E-02  0.1226707E+00
        -11   -1    0    0    0    0  0.00000000000E+00  0.00000000000E+00  0.45593999997E+02  0.45594000000E+02  0.51100000000E-03 0. -1.
         11   -1    0    0    0    0 -0.00000000000E+00 -0.00000000000E+00 -0.45593999997E+02  0.45594000000E+02  0.51100000000E-03 0.  1.
    9900012    2    1    2    0    0 -0.15850016333E+02  0.38503920634E+01 -0.91988779886E+01  0.72461871381E+02  0.70000392221E+02 0.  0.
         12    1    1    2    0    0  0.15850016333E+02 -0.38503920634E+01  0.91988779886E+01  0.18726128619E+02  0.00000000000E+00 0. -1.
         11    1    3    3    0    0 -0.42717419601E+01 -0.22301337313E+02 -0.37469334323E+01  0.23013842263E+02  0.51100000000E-03 0. -1.
        -11    1    3    3    0    0 -0.50792451413E+01  0.69198715976E+01 -0.21770697121E+02  0.23401850515E+02  0.51100000000E-03 0.  1.
        -12    1    3    3    0    0 -0.64990292315E+01  0.19231857778E+02  0.16318752565E+02  0.26046178603E+02  0.00000000000E+00 0.  1.
</event>
<event>
 7    1  0.2932676E-013  0.7246154E+02  0.7816164E-02  0.1226708E+00
        -11   -1    0    0    0    0  0.00000000000E+00  0.00000000000E+00  0.45593999997E+02  0.45594000000E+02  0.51100000000E-03 0.  1.
         11   -1    0    0    0    0 -0.00000000000E+00 -0.00000000000E+00 -0.45593999997E+02  0.45594000000E+02  0.51100000000E-03 0. -1.
    9900012    2    1    2    0    0 -0.10936370329E+02  0.15181857139E+02  0.76626898509E+00  0.72461544106E+02  0.69999965885E+02 0.  0.
         12    1    1    2    0    0  0.10936370329E+02 -0.15181857139E+02 -0.76626898509E+00  0.18726455894E+02  0.00000000000E+00 0. -1.
         11    1    3    3    0    0  0.13363044676E+02 -0.31632125605E+01  0.51867775783E+01  0.14679221322E+02  0.51100000000E-03 0. -1.
        -11    1    3    3    0    0 -0.34113183159E+02  0.85336133874E+01  0.11183861265E+02  0.36900007802E+02  0.51100000000E-03 0.  1.
         12    1    3    3    0    0  0.98137681542E+01  0.98114563124E+01 -0.15604369859E+02  0.20882314983E+02  0.00000000000E+00 0. -1.
</event>
<event>
 7    1  0.2932676E-013  0.7246151E+02  0.7816164E-02  0.1226708E+00
        -11   -1    0    0    0    0  0.00000000000E+00  0.00000000000E+00  0.45593999997E+02  0.45594000000E+02  0.51100000000E-03 0.  1.
         11   -1    0    0    0    0 -0.00000000000E+00 -0.00000000000E+00 -0.45593999997E+02  0.45594000000E+02  0.51100000000E-03 0. -1.
    9900012    2    1    2    0    0 -0.13353003591E+02  0.12893744091E+01  0.13065836557E+02  0.72461514045E+02  0.69999926725E+02 0.  0.
         12    1    1    2    0    0  0.13353003591E+02 -0.12893744091E+01 -0.13065836557E+02  0.18726485955E+02  0.00000000000E+00 0. -1.
         11    1    3    3    0    0  0.19616961988E+01 -0.39797478503E+01 -0.65916330431E+01  0.79458335852E+01  0.51100000000E-03 0. -1.
        -11    1    3    3    0    0 -0.36199533957E+02  0.16881165293E+01  0.23204211514E+02  0.43031284298E+02  0.51100000000E-03 0.  1.
         12    1    3    3    0    0  0.20884834167E+02  0.35810057302E+01 -0.35467419136E+01  0.21484396161E+02  0.00000000000E+00 0. -1.
</event>
<event>
 7    1  0.2932676E-013  0.7246159E+02  0.7816164E-02  0.1226708E+00
        -11   -1    0    0    0    0  0.00000000000E+00  0.00000000000E+00  0.45593999997E+02  0.45594000000E+02  0.51100000000E-03 0.  1.
         11   -1    0    0    0    0 -0.00000000000E+00 -0.00000000000E+00 -0.45593999997E+02  0.45594000000E+02  0.51100000000E-03 0. -1.
    9900012    2    1    2    0    0  0.20467358849E+01  0.17989635516E+02  0.47814529528E+01  0.72461590678E+02  0.70000026553E+02 0.  0.
         12    1    1    2    0    0 -0.20467358849E+01 -0.17989635516E+02 -0.47814529528E+01  0.18726409322E+02  0.00000000000E+00 0. -1.
         11    1    3    3    0    0 -0.13609964111E+02  0.19454329104E+00 -0.48336292230E+00  0.13619934294E+02  0.51100000000E-03 0. -1.
        -11    1    3    3    0    0 -0.86302874774E+01 -0.12842238360E+02 -0.81755220470E+01  0.17499831686E+02  0.51100000000E-03 0.  1.
        -12    1    3    3    0    0  0.24286987473E+02  0.30637330585E+02  0.13440337922E+02  0.41341824698E+02  0.00000000000E+00 0.  1.
</event>
<event>
 7    1  0.2932676E-013  0.7246135E+02  0.7816164E-02  0.1226709E+00
        -11   -1    0    0    0    0  0.00000000000E+00  0.00000000000E+00  0.45593999997E+02  0.45594000000E+02  0.51100000000E-03 0. -1.
         11   -1    0    0    0    0 -0.00000000000E+00 -0.00000000000E+00 -0.45593999997E+02  0.45594000000E+02  0.51100000000E-03 0.  1.
    9900012    2    1    2    0    0 -0.43182967388E+01  0.36713424664E+01 -0.17848277084E+02  0.72461349550E+02  0.69999712439E+02 0.  0.
         12    1    1    2    0    0  0.43182967388E+01 -0.36713424664E+01  0.17848277084E+02  0.18726650450E+02  0.00000000000E+00 0. -1.
         11    1    3    3    0    0 -0.72225994593E+01 -0.11840584575E+02 -0.31044530711E+00  0.13873058876E+02  0.51100000000E-03 0. -1.
        -11    1    3    3    0    0 -0.18306098523E+02 -0.60905003196E+01  0.60395438452E+01  0.20215922620E+02  0.51100000000E-03 0.  1.
         12    1    3    3    0    0  0.21210401243E+02  0.21602427361E+02 -0.23577375622E+02  0.38372368053E+02  0.00000000000E+00 0. -1.
</event>
<event>
 7    1  0.2932676E-013  0.7246158E+02  0.7816164E-02  0.1226708E+00
        -11   -1    0    0    0    0  0.00000000000E+00  0.00000000000E+00  0.45593999997E+02  0.45594000000E+02  0.51100000000E-03 0. -1.
         11   -1    0    0    0    0 -0.00000000000E+00 -0.00000000000E+00 -0.45593999997E+02  0.45594000000E+02  0.51100000000E-03 0.  1.
    9900012    2    1    2    0    0 -0.13225843064E+02 -0.11727913759E+02  0.61815894311E+01  0.72461576589E+02  0.70000008200E+02 0.  0.
         12    1    1    2    0    0  0.13225843064E+02  0.11727913759E+02 -0.61815894311E+01  0.18726423411E+02  0.00000000000E+00 0. -1.
         11    1    3    3    0    0 -0.28206058044E+02 -0.71055946535E+01  0.18841810566E+01  0.29148264516E+02  0.51100000000E-03 0. -1.
        -11    1    3    3    0    0  0.20279542274E+01  0.28855582450E+01  0.20762300832E+02  0.21059728888E+02  0.51100000000E-03 0.  1.
        -12    1    3    3    0    0  0.12952260753E+02 -0.75078773506E+01 -0.16464892457E+02  0.22253583185E+02  0.00000000000E+00 0.  1.
</event>
<event>
 7    1  0.2932676E-013  0.7246162E+02  0.7816164E-02  0.1226708E+00
        -11   -1    0    0    0    0  0.00000000000E+00  0.00000000000E+00  0.45593999997E+02  0.45594000000E+02  0.51100000000E-03 0.  1.
         11   -1    0    0    0    0 -0.00000000000E+00 -0.00000000000E+00 -0.45593999997E+02  0.45594000000E+02  0.51100000000E-03 0. -1.
    9900012    2    1    2    0    0 -0.49002924006E+00  0.18566086313E+02 -0.23953575477E+01  0.72461616809E+02  0.70000060594E+02 0.  0.
         12    1    1    2    0    0  0.49002924006E+00 -0.18566086313E+02  0.23953575477E+01  0.18726383191E+02  0.00000000000E+00 0. -1.
         11    1    3    3    0    0 -0.19166061669E+02  0.61905421944E+01 -0.19846066616E+02  0.28275910117E+02  0.51100000000E-03 0. -1.
        -11    1    3    3    0    0  0.88223256456E+01 -0.83832205938E+01 -0.39396805944E+01  0.12791907628E+02  0.51100000000E-03 0.  1.
        -12    1    3    3    0    0  0.98537067830E+01  0.20758764713E+02  0.21390389662E+02  0.31393799064E+02  0.00000000000E+00 0.  1.
</event>
<event>
 7    1  0.2932676E-013  0.7246158E+02  0.7816164E-02  0.1226708E+00
        -11   -1    0    0    0    0  0.00000000000E+00  0.00000000000E+00  0.45593999997E+02  0.45594000000E+02  0.51100000000E-03 0.  1.
         11   -1    0    0    0    0 -0.00000000000E+00 -0.00000000000E+00 -0.45593999997E+02  0.45594000000E+02  0.51100000000E-03 0. -1.
    9900012    2    1    2    0    0 -0.11299102808E+02 -0.61986884547E+00  0.14920614044E+02  0.72461583228E+02  0.70000016849E+02 0.  0.
         12    1    1    2    0    0  0.11299102808E+02  0.61986884547E+00 -0.14920614044E+02  0.18726416772E+02  0.00000000000E+00 0. -1.
         11    1    3    3    0    0  0.98578088274E+01  0.10961437129E+02  0.11612636150E+02  0.18766534508E+02  0.51100000000E-03 0. -1.
        -11    1    3    3    0    0 -0.14536285971E+02  0.15310593353E+01  0.24130861852E+02  0.28212519322E+02  0.51100000000E-03 0.  1.
         12    1    3    3    0    0 -0.66206256645E+01 -0.13112365310E+02 -0.20822883958E+02  0.25482529399E+02  0.00000000000E+00 0. -1.
</event>
<event>
 7    1  0.2932676E-013  0.7246153E+02  0.7816164E-02  0.1226708E+00
        -11   -1    0    0    0    0  0.00000000000E+00  0.00000000000E+00  0.45593999997E+02  0.45594000000E+02  0.51100000000E-03 0. -1.
         11   -1    0    0    0    0 -0.00000000000E+00 -0.00000000000E+00 -0.45593999997E+02  0.45594000000E+02  0.51100000000E-03 0.  1.
    9900012    2    1    2    0    0 -0.76183319421E+01 -0.16973082266E+02 -0.21344772788E+01  0.72461534865E+02  0.69999953847E+02 0.  0.
         12    1    1    2    0    0  0.76183319421E+01  0.16973082266E+02  0.21344772788E+01  0.18726465135E+02  0.00000000000E+00 0. -1.
         11    1    3    3    0    0 -0.10834082881E+02 -0.14534371691E+02  0.17275514871E+02  0.25041340353E+02  0.51100000000E-03 0. -1.
        -11    1    3    3    0    0 -0.16321626399E+02 -0.11739808611E+02 -0.15603148715E+02  0.25449495960E+02  0.51100000000E-03 0.  1.
        -12    1    3    3    0    0  0.19537377338E+02  0.93010980361E+01 -0.38068434346E+01  0.21970698552E+02  0.00000000000E+00 0.  1.
</event>
<event>
 7    1  0.2932676E-013  0.7246155E+02  0.7816164E-02  0.1226708E+00
        -11   -1    0    0    0    0  0.00000000000E+00  0.00000000000E+00  0.45593999997E+02  0.45594000000E+02  0.51100000000E-03 0.  1.
         11   -1    0    0    0    0 -0.00000000000E+00 -0.00000000000E+00 -0.45593999997E+02  0.45594000000E+02  0.51100000000E-03 0. -1.
    9900012    2    1    2    0    0 -0.98590798732E+01 -0.43340789731E+01  0.15319732723E+02  0.72461550598E+02  0.69999974342E+02 0.  0.
         12    1    1    2    0    0  0.98590798732E+01  0.43340789731E+01 -0.15319732723E+02  0.18726449402E+02  0.00000000000E+00 0. -1.
         11    1    3    3    0    0  0.17740649482E+02  0.86299698111E+01 -0.22015181479E+01  0.19850786015E+02  0.51100000000E-03 0. -1.
        -11    1    3    3    0    0 -0.21702268189E+02  0.56874337066E+01 -0.47875116248E+01  0.22940261867E+02  0.51100000000E-03 0.  1.
        -12    1    3    3    0    0 -0.58974611662E+01 -0.18651482491E+02  0.22308762496E+02  0.29670502716E+02  0.00000000000E+00 0.  1.
</event>
<event>
 7    1  0.2932676E-013  0.7246157E+02  0.7816164E-02  0.1226708E+00
        -11   -1    0    0    0    0  0.00000000000E+00  0.00000000000E+00  0.45593999997E+02  0.45594000000E+02  0.51100000000E-03 0.  1.
         11   -1    0    0    0    0 -0.00000000000E+00 -0.00000000000E+00 -0.45593999997E+02  0.45594000000E+02  0.51100000000E-03 0. -1.
    9900012    2    1    2    0    0 -0.15066744524E+01  0.16802944254E+02  0.81283564001E+01  0.72461569981E+02  0.69999999592E+02 0.  0.
         12    1    1    2    0    0  0.15066744524E+01 -0.16802944254E+02 -0.81283564001E+01  0.18726430019E+02  0.00000000000E+00 0. -1.
         11    1    3    3    0    0 -0.48826647888E+01 -0.16648019190E+02  0.14744504348E+02  0.22768341334E+02  0.51100000000E-03 0. -1.
        -11    1    3    3    0    0 -0.28236166332E+01  0.24897506675E+00 -0.14693970189E+02  0.14964877536E+02  0.51100000000E-03 0.  1.
        -12    1    3    3    0    0  0.61996069697E+01  0.33201988376E+02  0.80778222416E+01  0.34728351111E+02  0.00000000000E+00 0.  1.
</event>
<event>
 7    1  0.2932676E-013  0.7246154E+02  0.7816164E-02  0.1226708E+00
        -11   -1    0    0    0    0  0.00000000000E+00  0.00000000000E+00  0.45593999997E+02  0.45594000000E+02  0.51100000000E-03 0.  1.
         11   -1    0    0    0    0 -0.00000000000E+00 -0.00000000000E+00 -0.45593999997E+02  0.45594000000E+02  0.51100000000E-03 0. -1.
    9900012    2    1    2    0    0 -0.59255514951E+01 -0.10163942288E+02  0.14569224655E+02  0.72461543036E+02  0.69999964492E+02 0.  0.
         12    1    1    2    0    0  0.59255514951E+01  0.10163942288E+02 -0.14569224655E+02  0.18726456964E+02  0.00000000000E+00 0. -1.
         11    1    3    3    0    0  0.17745721209E+02  0.49335029714E+01 -0.29893053228E+01  0.18659743282E+02  0.51100000000E-03 0. -1.
        -11    1    3    3    0    0 -0.20969934537E+02 -0.11359562343E+01 -0.96419682564E+01  0.23108355700E+02  0.51100000000E-03 0.  1.
        -12    1    3    3    0    0 -0.27013381668E+01 -0.13961489026E+02  0.27200498234E+02  0.30693444054E+02  0.00000000000E+00 0.  1.
</event>
<event>
 7    1  0.2932676E-013  0.7246152E+02  0.7816164E-02  0.1226708E+00
        -11   -1    0    0    0    0  0.00000000000E+00  0.00000000000E+00  0.45593999997E+02  0.45594000000E+02  0.51100000000E-03 0. -1.
         11   -1    0    0    0    0 -0.00000000000E+00 -0.00000000000E+00 -0.45593999997E+02  0.45594000000E+02  0.51100000000E-03 0.  1.
    9900012    2    1    2    0    0 -0.83978309653E+01 -0.15062475837E+02 -0.72992669945E+01  0.72461520301E+02  0.69999934874E+02 0.  0.
         12    1    1    2    0    0  0.83978309653E+01  0.15062475837E+02  0.72992669945E+01  0.18726479699E+02  0.00000000000E+00 0. -1.
         11    1    3    3    0    0  0.18851612868E+02 -0.98676382120E+01  0.97702646670E+01  0.23413920294E+02  0.51100000000E-03 0. -1.
        -11    1    3    3    0    0  0.32098788543E+01 -0.13912944762E+02 -0.59861119616E+01  0.15482470439E+02  0.51100000000E-03 0.  1.
         12    1    3    3    0    0 -0.30459322688E+02  0.87181071365E+01 -0.11083419700E+02  0.33565129568E+02  0.00000000000E+00 0. -1.
</event>
<event>
 7    1  0.2932676E-013  0.7246160E+02  0.7816164E-02  0.1226708E+00
        -11   -1    0    0    0    0  0.00000000000E+00  0.00000000000E+00  0.45593999997E+02  0.45594000000E+02  0.51100000000E-03 0.  1.
         11   -1    0    0    0    0 -0.00000000000E+00 -0.00000000000E+00 -0.45593999997E+02  0.45594000000E+02  0.51100000000E-03 0. -1.
    9900012    2    1    2    0    0 -0.10939767413E+02  0.98591265633E+01  0.11567078247E+02  0.72461596533E+02  0.70000034181E+02 0.  0.
         12    1    1    2    0    0  0.10939767413E+02 -0.98591265633E+01 -0.11567078247E+02  0.18726403467E+02  0.00000000000E+00 0. -1.
         11    1    3    3    0    0 -0.12087233448E+01 -0.61453963777E+01 -0.21451047570E+02  0.22346685456E+02  0.51100000000E-03 0. -1.
        -11    1    3    3    0    0 -0.20951494182E+01  0.58010169235E+01 -0.62798088400E+01  0.88021274564E+01  0.51100000000E-03 0.  1.
        -12    1    3    3    0    0 -0.76358946499E+01  0.10203506017E+02  0.39297934657E+02  0.41312783620E+02  0.00000000000E+00 0.  1.
</event>
<event>
 7    1  0.2932676E-013  0.7246157E+02  0.7816164E-02  0.1226708E+00
        -11   -1    0    0    0    0  0.00000000000E+00  0.00000000000E+00  0.45593999997E+02  0.45594000000E+02  0.51100000000E-03 0.  1.
         11   -1    0    0    0    0 -0.00000000000E+00 -0.00000000000E+00 -0.45593999997E+02  0.45594000000E+02  0.51100000000E-03 0. -1.
    9900012    2    1    2    0    0 -0.30611170061E+01 -0.10763497695E+02  0.15015183961E+02  0.72461572969E+02  0.70000003485E+02 0.  0.
         12    1    1    2    0    0  0.30611170061E+01  0.10763497695E+02 -0.15015183961E+02  0.18726427031E+02  0.00000000000E+00 0. -1.
         11    1    3    3    0    0  0.26927910685E+02  0.24873394458E+01  0.68661892968E+01  0.27900605497E+02  0.51100000000E-03 0. -1.
        -11    1    3    3    0    0 -0.44948395650E+01 -0.17359127886E+02  0.44374555715E+01  0.18472517854E+02  0.51100000000E-03 0.  1.
        -12    1    3    3    0    0 -0.25494188126E+02  0.41082907450E+01  0.37115390926E+01  0.26088449618E+02  0.00000000000E+00 0.  1.
</event>
<event>
 7    1  0.2932676E-013  0.7246166E+02  0.7816164E-02  0.1226708E+00
        -11   -1    0    0    0    0  0.00000000000E+00  0.00000000000E+00  0.45593999997E+02  0.45594000000E+02  0.51100000000E-03 0. -1.
         11   -1    0    0    0    0 -0.00000000000E+00 -0.00000000000E+00 -0.45593999997E+02  0.45594000000E+02  0.51100000000E-03 0.  1.
    9900012    2    1    2    0    0 -0.11739264596E+02 -0.12029312888E+02 -0.82559695187E+01  0.72461662010E+02  0.70000119477E+02 0.  0.
         12    1    1    2    0    0  0.11739264596E+02  0.12029312888E+02  0.82559695187E+01  0.18726337990E+02  0.00000000000E+00 0. -1.
         11    1    3    3    0    0  0.23096463900E+02  0.44450372896E+01 -0.12729125066E+02  0.26743889515E+02  0.51100000000E-03 0. -1.
        -11    1    3    3    0    0 -0.30475042937E+01 -0.44056264051E+01 -0.78908988571E+01  0.95374583342E+01  0.51100000000E-03 0.  1.
        -12    1    3    3    0    0 -0.31788224203E+02 -0.12068723772E+02  0.12364054404E+02  0.36180314161E+02  0.00000000000E+00 0.  1.
</event>
<event>
 7    1  0.2932676E-013  0.7246154E+02  0.7816164E-02  0.1226708E+00
        -11   -1    0    0    0    0  0.00000000000E+00  0.00000000000E+00  0.45593999997E+02  0.45594000000E+02  0.51100000000E-03 0.  1.
         11   -1    0    0    0    0 -0.00000000000E+00 -0.00000000000E+00 -0.45593999997E+02  0.45594000000E+02  0.51100000000E-03 0. -1.
    9900012    2    1    2    0    0 -0.55742395124E+01  0.39950172708E+01  0.17425496278E+02  0.72461541988E+02  0.69999963126E+02 0.  0.
         12    1    1    2    0    0  0.55742395124E+01 -0.39950172708E+01 -0.17425496278E+02  0.18726458012E+02  0.00000000000E+00 0. -1.
         11    1    3    3    0    0 -0.65532602322E+00 -0.24885426919E+02  0.34730720355E+01  0.25135157743E+02  0.51100000000E-03 0. -1.
        -11    1    3    3    0    0  0.29811639635E+01  0.10004072911E+02  0.22766785036E+02  0.25045864220E+02  0.51100000000E-03 0.  1.
        -12    1    3    3    0    0 -0.79000774527E+01  0.18876371279E+02 -0.88143607934E+01  0.22280520026E+02  0.00000000000E+00 0.  1.
</event>
<event>
 7    1  0.2932676E-013  0.7246155E+02  0.7816164E-02  0.1226708E+00
        -11   -1    0    0    0    0  0.00000000000E+00  0.00000000000E+00  0.45593999997E+02  0.45594000000E+02  0.51100000000E-03 0.  1.
         11   -1    0    0    0    0 -0.00000000000E+00 -0.00000000000E+00 -0.45593999997E+02  0.45594000000E+02  0.51100000000E-03 0. -1.
    9900012    2    1    2    0    0  0.16246995766E+01  0.14354041936E+02 -0.11916453403E+02  0.72461547311E+02  0.69999970060E+02 0.  0.
         12    1    1    2    0    0 -0.16246995766E+01 -0.14354041936E+02  0.11916453403E+02  0.18726452689E+02  0.00000000000E+00 0. -1.
         11    1    3    3    0    0 -0.12534298159E+02  0.29378009052E+02 -0.20678260256E+01  0.32007060954E+02  0.51100000000E-03 0. -1.
        -11    1    3    3    0    0  0.23124888274E+01 -0.79590872073E+01  0.12019288654E+02  0.14599930608E+02  0.51100000000E-03 0.  1.
        -12    1    3    3    0    0  0.11846508908E+02 -0.70648799087E+01 -0.21867916032E+02  0.25854555749E+02  0.00000000000E+00 0.  1.
</event>
<event>
 7    1  0.2932676E-013  0.7246152E+02  0.7816164E-02  0.1226708E+00
        -11   -1    0    0    0    0  0.00000000000E+00  0.00000000000E+00  0.45593999997E+02  0.45594000000E+02  0.51100000000E-03 0.  1.
         11   -1    0    0    0    0 -0.00000000000E+00 -0.00000000000E+00 -0.45593999997E+02  0.45594000000E+02  0.51100000000E-03 0. -1.
    9900012    2    1    2    0    0  0.17337158046E+02 -0.70572320247E+01 -0.54707923052E+00  0.72461524927E+02  0.69999940901E+02 0.  0.
         12    1    1    2    0    0 -0.17337158046E+02  0.70572320247E+01  0.54707923052E+00  0.18726475073E+02  0.00000000000E+00 0. -1.
         11    1    3    3    0    0  0.31007674984E+02  0.90353281624E+01  0.99357188329E+01  0.33790998385E+02  0.51100000000E-03 0. -1.
        -11    1    3    3    0    0  0.48106163763E+01  0.58951066631E+01 -0.58021645838E+01  0.95686690092E+01  0.51100000000E-03 0.  1.
        -12    1    3    3    0    0 -0.18481133314E+02 -0.21987666850E+02 -0.46806334796E+01  0.29101857533E+02  0.00000000000E+00 0.  1.
</event>
<event>
 7    1  0.2932676E-013  0.7246152E+02  0.7816164E-02  0.1226708E+00
        -11   -1    0    0    0    0  0.00000000000E+00  0.00000000000E+00  0.45593999997E+02  0.45594000000E+02  0.51100000000E-03 0. -1.
         11   -1    0    0    0    0 -0.00000000000E+00 -0.00000000000E+00 -0.45593999997E+02  0.45594000000E+02  0.51100000000E-03 0.  1.
    9900012    2    1    2    0    0  0.14880779870E+02  0.10593982529E+02 -0.41244387956E+01  0.72461519531E+02  0.69999933871E+02 0.  0.
         12    1    1    2    0    0 -0.14880779870E+02 -0.10593982529E+02  0.41244387956E+01  0.18726480469E+02  0.00000000000E+00 0. -1.
         11    1    3    3    0    0  0.11778885792E+02 -0.13068789944E+01 -0.24233817783E+02  0.26976434305E+02  0.51100000000E-03 0. -1.
        -11    1    3    3    0    0 -0.31604235778E+01 -0.13757155811E+02  0.45462945014E+01  0.14829578793E+02  0.51100000000E-03 0.  1.
         12    1    3    3    0    0  0.62623176565E+01  0.25658017335E+02  0.15563084486E+02  0.30655506434E+02  0.00000000000E+00 0. -1.
</event>
<event>
 7    1  0.2932676E-013  0.7246155E+02  0.7816164E-02  0.1226708E+00
        -11   -1    0    0    0    0  0.00000000000E+00  0.00000000000E+00  0.45593999997E+02  0.45594000000E+02  0.51100000000E-03 0.  1.
         11   -1    0    0    0    0 -0.00000000000E+00 -0.00000000000E+00 -0.45593999997E+02  0.45594000000E+02  0.51100000000E-03 0. -1.
    9900012    2    1    2    0    0 -0.11437113830E+02  0.37036399843E+01  0.14358110960E+02  0.72461551532E+02  0.69999975559E+02 0.  0.
         12    1    1    2    0    0  0.11437113830E+02 -0.37036399843E+01 -0.14358110960E+02  0.18726448468E+02  0.00000000000E+00 0. -1.
         11    1    3    3    0    0 -0.84645425000E+00 -0.14227695429E+02 -0.54108337157E+01  0.15245357450E+02  0.51100000000E-03 0. -1.
        -11    1    3    3    0    0  0.59922755278E+01  0.77070398104E-01 -0.14199096445E+02  0.15411931935E+02  0.51100000000E-03 0.  1.
        -12    1    3    3    0    0 -0.16582935107E+02  0.17854265015E+02  0.33968041121E+02  0.41804262147E+02  0.00000000000E+00 0.  1.
</event>
<event>
 7    1  0.2932676E-013  0.7246156E+02  0.7816164E-02  0.1226708E+00
        -11   -1    0    0    0    0  0.00000000000E+00  0.00000000000E+00  0.45593999997E+02  0.45594000000E+02  0.51100000000E-03 0.  1.
         11   -1    0    0    0    0 -0.00000000000E+00 -0.00000000000E+00 -0.45593999997E+02  0.45594000000E+02  0.51100000000E-03 0. -1.
    9900012    2    1    2    0    0  0.31398078264E+01  0.15636426429E+02  0.98144393227E+01  0.72461562969E+02  0.69999990458E+02 0.  0.
         12    1    1    2    0    0 -0.31398078264E+01 -0.15636426429E+02 -0.98144393227E+01  0.18726437031E+02  0.00000000000E+00 0. -1.
         11    1    3    3    0    0  0.14406791838E+02  0.79891517466E+01 -0.21095302346E+01  0.16608200227E+02  0.51100000000E-03 0. -1.
        -11    1    3    3    0    0  0.45575902776E+01  0.28234078523E+02  0.61855956272E+01  0.29260834108E+02  0.51100000000E-03 0.  1.
        -12    1    3    3    0    0 -0.15824574290E+02 -0.20586803840E+02  0.57383739301E+01  0.26592528634E+02  0.00000000000E+00 0.  1.
</event>
<event>
 7    1  0.2932676E-013  0.7246158E+02  0.7816164E-02  0.1226708E+00
        -11   -1    0    0    0    0  0.00000000000E+00  0.00000000000E+00  0.45593999997E+02  0.45594000000E+02  0.51100000000E-03 0.  1.
         11   -1    0    0    0    0 -0.00000000000E+00 -0.00000000000E+00 -0.45593999997E+02  0.45594000000E+02  0.51100000000E-03 0. -1.
    9900012    2    1    2    0    0  0.99891124194E+01  0.15252387450E+02  0.42733073211E+01  0.72461578951E+02  0.70000011277E+02 0.  0.
         12    1    1    2    0    0 -0.99891124194E+01 -0.15252387450E+02 -0.42733073211E+01  0.18726421049E+02  0.00000000000E+00 0. -1.
         11    1    3    3    0    0 -0.60338015661E+01 -0.19582549598E+02  0.88593618119E+01  0.22324231277E+02  0.51100000000E-03 0. -1.
        -11    1    3    3    0    0  0.92274560081E+01 -0.37139916025E+01 -0.46825984165E+01  0.10993925877E+02  0.51100000000E-03 0.  1.
        -12    1    3    3    0    0  0.67954579773E+01  0.38548928651E+02  0.96543925798E-01  0.39143421797E+02  0.00000000000E+00 0.  1.
</event>
<event>
 7    1  0.2932676E-013  0.7246136E+02  0.7816164E-02  0.1226709E+00
        -11   -1    0    0    0    0  0.00000000000E+00  0.00000000000E+00  0.45593999997E+02  0.45594000000E+02  0.51100000000E-03 0. -1.
         11   -1    0    0    0    0 -0.00000000000E+00 -0.00000000000E+00 -0.45593999997E+02  0.45594000000E+02  0.51100000000E-03 0.  1.
    9900012    2    1    2    0    0  0.12738750128E+02 -0.66457627771E+00 -0.13710205152E+02  0.72461357434E+02  0.69999722710E+02 0.  0.
         12    1    1    2    0    0 -0.12738750128E+02  0.66457627771E+00  0.13710205152E+02  0.18726642566E+02  0.00000000000E+00 0. -1.
         11    1    3    3    0    0  0.26051308351E+02 -0.11976958590E+02 -0.79918351915E+01  0.29765544407E+02  0.51100000000E-03 0. -1.
        -11    1    3    3    0    0  0.83482706346E+01  0.11439988416E+02  0.87497944567E+01  0.16647097670E+02  0.51100000000E-03 0.  1.
        -12    1    3    3    0    0 -0.21660828858E+02 -0.12760610414E+00 -0.14468164418E+02  0.26048715357E+02  0.00000000000E+00 0.  1.
</event>
<event>
 7    1  0.2932676E-013  0.7246157E+02  0.7816164E-02  0.1226708E+00
        -11   -1    0    0    0    0  0.00000000000E+00  0.00000000000E+00  0.45593999997E+02  0.45594000000E+02  0.51100000000E-03 0. -1.
         11   -1    0    0    0    0 -0.00000000000E+00 -0.00000000000E+00 -0.45593999997E+02  0.45594000000E+02  0.51100000000E-03 0.  1.
    9900012    2    1    2    0    0 -0.98098790471E+01  0.34861552967E+01 -0.15565740500E+02  0.72461567265E+02  0.69999996053E+02 0.  0.
         12    1    1    2    0    0  0.98098790471E+01 -0.34861552967E+01  0.15565740500E+02  0.18726432735E+02  0.00000000000E+00 0. -1.
         11    1    3    3    0    0 -0.11620520062E+02 -0.23538888309E+00  0.52460117210E+00  0.11634736829E+02  0.51100000000E-03 0. -1.
        -11    1    3    3    0    0 -0.11816589595E+02  0.28233244477E+02 -0.89192421915E+01  0.31879472468E+02  0.51100000000E-03 0.  1.
        -12    1    3    3    0    0  0.13627230609E+02 -0.24511700297E+02 -0.71710994808E+01  0.28947357967E+02  0.00000000000E+00 0.  1.
</event>
<event>
 7    1  0.2932676E-013  0.7246151E+02  0.7816164E-02  0.1226708E+00
        -11   -1    0    0    0    0  0.00000000000E+00  0.00000000000E+00  0.45593999997E+02  0.45594000000E+02  0.51100000000E-03 0.  1.
         11   -1    0    0    0    0 -0.00000000000E+00 -0.00000000000E+00 -0.45593999997E+02  0.45594000000E+02  0.51100000000E-03 0. -1.
    9900012    2    1    2    0    0 -0.15472802587E+02 -0.10422783590E+02 -0.16246215637E+01  0.72461509862E+02  0.69999921275E+02 0.  0.
         12    1    1    2    0    0  0.15472802587E+02  0.10422783590E+02  0.16246215637E+01  0.18726490138E+02  0.00000000000E+00 0. -1.
         11    1    3    3    0    0 -0.12427658324E+02  0.36720337922E+01  0.17581502643E+01  0.13077523321E+02  0.51100000000E-03 0. -1.
        -11    1    3    3    0    0  0.14406581102E+02  0.17169457748E+02 -0.67850119173E+01  0.23417434646E+02  0.51100000000E-03 0.  1.
         12    1    3    3    0    0 -0.17451725365E+02 -0.31264275130E+02  0.34022400892E+01  0.35966551895E+02  0.00000000000E+00 0. -1.
</event>
<event>
 7    1  0.2932676E-013  0.7246159E+02  0.7816164E-02  0.1226708E+00
        -11   -1    0    0    0    0  0.00000000000E+00  0.00000000000E+00  0.45593999997E+02  0.45594000000E+02  0.51100000000E-03 0.  1.
         11   -1    0    0    0    0 -0.00000000000E+00 -0.00000000000E+00 -0.45593999997E+02  0.45594000000E+02  0.51100000000E-03 0. -1.
    9900012    2    1    2    0    0  0.55860160158E+01 -0.17508084211E+02 -0.35974719023E+01  0.72461591061E+02  0.70000027052E+02 0.  0.
         12    1    1    2    0    0 -0.55860160158E+01  0.17508084211E+02  0.35974719023E+01  0.18726408939E+02  0.00000000000E+00 0. -1.
         11    1    3    3    0    0  0.81884829722E+01 -0.11951644316E+02 -0.58470806067E+01  0.15623104913E+02  0.51100000000E-03 0. -1.
        -11    1    3    3    0    0  0.14596150842E+02 -0.24116658388E+02  0.10713340383E+02  0.30156864784E+02  0.51100000000E-03 0.  1.
         12    1    3    3    0    0 -0.17198617798E+02  0.18560218493E+02 -0.84637316780E+01  0.26681621363E+02  0.00000000000E+00 0. -1.
</event>
<event>
 7    1  0.2932676E-013  0.7246156E+02  0.7816164E-02  0.1226708E+00
        -11   -1    0    0    0    0  0.00000000000E+00  0.00000000000E+00  0.45593999997E+02  0.45594000000E+02  0.51100000000E-03 0. -1.
         11   -1    0    0    0    0 -0.00000000000E+00 -0.00000000000E+00 -0.45593999997E+02  0.45594000000E+02  0.51100000000E-03 0.  1.
    9900012    2    1    2    0    0 -0.12194483426E+02  0.12406079433E+02  0.69327637433E+01  0.72461562911E+02  0.69999990382E+02 0.  0.
         12    1    1    2    0    0  0.12194483426E+02 -0.12406079433E+02 -0.69327637433E+01  0.18726437089E+02  0.00000000000E+00 0. -1.
         11    1    3    3    0    0 -0.52230571700E+01  0.85771004225E+01  0.17905534961E+02  0.20529373112E+02  0.51100000000E-03 0. -1.
        -11    1    3    3    0    0 -0.32749156348E+01 -0.22788781442E+01  0.19873737713E+02  0.20270269090E+02  0.51100000000E-03 0.  1.
        -12    1    3    3    0    0 -0.36965106216E+01  0.61078571547E+01 -0.30846508931E+02  0.31661920710E+02  0.00000000000E+00 0.  1.
</event>
<event>
 7    1  0.2932676E-013  0.7246154E+02  0.7816164E-02  0.1226708E+00
        -11   -1    0    0    0    0  0.00000000000E+00  0.00000000000E+00  0.45593999997E+02  0.45594000000E+02  0.51100000000E-03 0.  1.
         11   -1    0    0    0    0 -0.00000000000E+00 -0.00000000000E+00 -0.45593999997E+02  0.45594000000E+02  0.51100000000E-03 0. -1.
    9900012    2    1    2    0    0 -0.16792847506E+02  0.65704495802E+01  0.50507162342E+01  0.72461540924E+02  0.69999961740E+02 0.  0.
         12    1    1    2    0    0  0.16792847506E+02 -0.65704495802E+01 -0.50507162342E+01  0.18726459076E+02  0.00000000000E+00 0. -1.
         11    1    3    3    0    0 -0.16004939770E+02  0.75081375883E+00  0.12326791451E+02  0.20215627768E+02  0.51100000000E-03 0.  1.
        -11    1    3    3    0    0 -0.16671249983E+01  0.87982015795E+01 -0.28974323819E+02  0.30326541145E+02  0.51100000000E-03 0. -1.
         12    1    3    3    0    0  0.87921726254E+00 -0.29785657581E+01  0.21698248602E+02  0.21919372011E+02  0.00000000000E+00 0. -1.
</event>
<event>
 7    1  0.2932676E-013  0.7246158E+02  0.7816164E-02  0.1226708E+00
        -11   -1    0    0    0    0  0.00000000000E+00  0.00000000000E+00  0.45593999997E+02  0.45594000000E+02  0.51100000000E-03 0.  1.
         11   -1    0    0    0    0 -0.00000000000E+00 -0.00000000000E+00 -0.45593999997E+02  0.45594000000E+02  0.51100000000E-03 0. -1.
    9900012    2    1    2    0    0  0.46690911101E+01  0.17432705443E+02 -0.49979025979E+01  0.72461583866E+02  0.70000017680E+02 0.  0.
         12    1    1    2    0    0 -0.46690911101E+01 -0.17432705443E+02  0.49979025979E+01  0.18726416134E+02  0.00000000000E+00 0. -1.
         11    1    3    3    0    0 -0.60625424879E+00 -0.41205710504E+01 -0.18867554865E+02  0.19321782445E+02  0.51100000000E-03 0. -1.
        -11    1    3    3    0    0  0.96387696265E+01 -0.12582148331E+02  0.94261075437E+01  0.18440928399E+02  0.51100000000E-03 0.  1.
        -12    1    3    3    0    0 -0.43634242676E+01  0.34135424824E+02  0.44435447233E+01  0.34698873022E+02  0.00000000000E+00 0.  1.
</event>
<event>
 7    1  0.2932676E-013  0.7246150E+02  0.7816164E-02  0.1226708E+00
        -11   -1    0    0    0    0  0.00000000000E+00  0.00000000000E+00  0.45593999997E+02  0.45594000000E+02  0.51100000000E-03 0.  1.
         11   -1    0    0    0    0 -0.00000000000E+00 -0.00000000000E+00 -0.45593999997E+02  0.45594000000E+02  0.51100000000E-03 0. -1.
    9900012    2    1    2    0    0  0.15927946465E+02 -0.15049220761E+01  0.97323006610E+01  0.72461496183E+02  0.69999903456E+02 0.  0.
         12    1    1    2    0    0 -0.15927946465E+02  0.15049220761E+01 -0.97323006610E+01  0.18726503817E+02  0.00000000000E+00 0. -1.
         11    1    3    3    0    0  0.25698236825E+01 -0.52182731714E+01 -0.16994819004E+02  0.17962690275E+02  0.51100000000E-03 0. -1.
        -11    1    3    3    0    0  0.19216858944E+02 -0.84823144181E+01 -0.35801872349E+01  0.21308567912E+02  0.51100000000E-03 0.  1.
        -12    1    3    3    0    0 -0.58587361612E+01  0.12195665513E+02  0.30307306900E+02  0.33190237997E+02  0.00000000000E+00 0.  1.
</event>
<event>
 7    1  0.2932676E-013  0.7246178E+02  0.7816164E-02  0.1226707E+00
        -11   -1    0    0    0    0  0.00000000000E+00  0.00000000000E+00  0.45593999997E+02  0.45594000000E+02  0.51100000000E-03 0.  1.
         11   -1    0    0    0    0 -0.00000000000E+00 -0.00000000000E+00 -0.45593999997E+02  0.45594000000E+02  0.51100000000E-03 0. -1.
    9900012    2    1    2    0    0 -0.11460374538E+02  0.67484039002E+01  0.13182955262E+02  0.72461776430E+02  0.70000268529E+02 0.  0.
         12    1    1    2    0    0  0.11460374538E+02 -0.67484039002E+01 -0.13182955262E+02  0.18726223570E+02  0.00000000000E+00 0. -1.
         11    1    3    3    0    0 -0.77881893113E+01  0.13030380810E+02  0.18237850651E+02  0.23729009955E+02  0.51100000000E-03 0. -1.
        -11    1    3    3    0    0 -0.64205872963E+01 -0.15981822747E+02  0.17175161893E+02  0.24323420521E+02  0.51100000000E-03 0.  1.
         12    1    3    3    0    0  0.27484020692E+01  0.96998458365E+01 -0.22230057281E+02  0.24409345954E+02  0.00000000000E+00 0. -1.
</event>
<event>
 7    1  0.2932676E-013  0.7246159E+02  0.7816164E-02  0.1226708E+00
        -11   -1    0    0    0    0  0.00000000000E+00  0.00000000000E+00  0.45593999997E+02  0.45594000000E+02  0.51100000000E-03 0.  1.
         11   -1    0    0    0    0 -0.00000000000E+00 -0.00000000000E+00 -0.45593999997E+02  0.45594000000E+02  0.51100000000E-03 0. -1.
    9900012    2    1    2    0    0  0.90276573230E+01  0.13366936280E+02  0.95133972198E+01  0.72461593273E+02  0.70000029934E+02 0.  0.
         12    1    1    2    0    0 -0.90276573230E+01 -0.13366936280E+02 -0.95133972198E+01  0.18726406727E+02  0.00000000000E+00 0. -1.
         11    1    3    3    0    0  0.19848646030E+02 -0.67852651247E+01 -0.29665660776E+01  0.21185114741E+02  0.51100000000E-03 0. -1.
        -11    1    3    3    0    0  0.14458778000E+02  0.10098010905E+02  0.16039472695E+02  0.23838850016E+02  0.51100000000E-03 0.  1.
        -12    1    3    3    0    0 -0.25279766708E+02  0.10054190500E+02 -0.35595093981E+01  0.27437628515E+02  0.00000000000E+00 0.  1.
</event>
<event>
 7    1  0.2932676E-013  0.7246148E+02  0.7816164E-02  0.1226708E+00
        -11   -1    0    0    0    0  0.00000000000E+00  0.00000000000E+00  0.45593999997E+02  0.45594000000E+02  0.51100000000E-03 0.  1.
         11   -1    0    0    0    0 -0.00000000000E+00 -0.00000000000E+00 -0.45593999997E+02  0.45594000000E+02  0.51100000000E-03 0. -1.
    9900012    2    1    2    0    0  0.33011767588E+01  0.97625694338E+01  0.15635762914E+02  0.72461478384E+02  0.69999880270E+02 0.  0.
         12    1    1    2    0    0 -0.33011767588E+01 -0.97625694338E+01 -0.15635762914E+02  0.18726521616E+02  0.00000000000E+00 0. -1.
         11    1    3    3    0    0 -0.95906227887E+01 -0.97700859544E+01 -0.79681339275E+01  0.15840637095E+02  0.51100000000E-03 0. -1.
        -11    1    3    3    0    0 -0.10459841399E+01 -0.13846039204E+02  0.90113802463E+00  0.13914702097E+02  0.51100000000E-03 0.  1.
        -12    1    3    3    0    0  0.13937783688E+02  0.33378694592E+02  0.22702758816E+02  0.42706139192E+02  0.00000000000E+00 0.  1.
</event>
<event>
 7    1  0.2932676E-013  0.7246152E+02  0.7816164E-02  0.1226708E+00
        -11   -1    0    0    0    0  0.00000000000E+00  0.00000000000E+00  0.45593999997E+02  0.45594000000E+02  0.51100000000E-03 0. -1.
         11   -1    0    0    0    0 -0.00000000000E+00 -0.00000000000E+00 -0.45593999997E+02  0.45594000000E+02  0.51100000000E-03 0.  1.
    9900012    2    1    2    0    0  0.14164835876E+02  0.63006987536E+01 -0.10504272354E+02  0.72461518274E+02  0.69999932233E+02 0.  0.
         12    1    1    2    0    0 -0.14164835876E+02 -0.63006987536E+01  0.10504272354E+02  0.18726481726E+02  0.00000000000E+00 0. -1.
         11    1    3    3    0    0  0.10956177792E+01  0.57406476076E+01  0.64667486409E-01  0.58446210671E+01  0.51100000000E-03 0. -1.
        -11    1    3    3    0    0 -0.63866120825E+00  0.21527092723E+01 -0.36857752262E+02  0.36926087627E+02  0.51100000000E-03 0.  1.
         12    1    3    3    0    0  0.13707879305E+02 -0.15926581263E+01  0.26288812422E+02  0.29690809580E+02  0.00000000000E+00 0. -1.
</event>
<event>
 7    1  0.2932676E-013  0.7246172E+02  0.7816164E-02  0.1226708E+00
        -11   -1    0    0    0    0  0.00000000000E+00  0.00000000000E+00  0.45593999997E+02  0.45594000000E+02  0.51100000000E-03 0.  1.
         11   -1    0    0    0    0 -0.00000000000E+00 -0.00000000000E+00 -0.45593999997E+02  0.45594000000E+02  0.51100000000E-03 0. -1.
    9900012    2    1    2    0    0 -0.27904779498E+01 -0.14728389151E+02  0.11223242097E+02  0.72461724948E+02  0.70000201464E+02 0.  0.
         12    1    1    2    0    0  0.27904779498E+01  0.14728389151E+02 -0.11223242097E+02  0.18726275052E+02  0.00000000000E+00 0. -1.
         11    1    3    3    0    0  0.12427124557E+02 -0.47826715003E+01 -0.13879791221E+02  0.19234239679E+02  0.51100000000E-03 0. -1.
        -11    1    3    3    0    0 -0.16799021604E+02  0.14648781882E+02  0.12166376254E+02  0.25393200840E+02  0.51100000000E-03 0.  1.
         12    1    3    3    0    0  0.15814190968E+01 -0.24594499533E+02  0.12936657063E+02  0.27834284428E+02  0.00000000000E+00 0. -1.
</event>
<event>
 7    1  0.2932676E-013  0.7246159E+02  0.7816164E-02  0.1226708E+00
        -11   -1    0    0    0    0  0.00000000000E+00  0.00000000000E+00  0.45593999997E+02  0.45594000000E+02  0.51100000000E-03 0.  1.
         11   -1    0    0    0    0 -0.00000000000E+00 -0.00000000000E+00 -0.45593999997E+02  0.45594000000E+02  0.51100000000E-03 0. -1.
    9900012    2    1    2    0    0 -0.53308539230E+01  0.94010286859E+01  0.15293175488E+02  0.72461586558E+02  0.70000021186E+02 0.  0.
         12    1    1    2    0    0  0.53308539230E+01 -0.94010286859E+01 -0.15293175488E+02  0.18726413442E+02  0.00000000000E+00 0. -1.
         11    1    3    3    0    0 -0.14230453977E+01 -0.14591721214E+01 -0.25203010395E+02  0.25285291667E+02  0.51100000000E-03 0. -1.
        -11    1    3    3    0    0  0.22576884795E+01  0.14577490982E+02  0.16543360879E+02  0.22164908978E+02  0.51100000000E-03 0.  1.
        -12    1    3    3    0    0 -0.61654970048E+01 -0.37172901746E+01  0.23952825004E+02  0.25011385912E+02  0.00000000000E+00 0.  1.
</event>
<event>
 7    1  0.2932676E-013  0.7246157E+02  0.7816164E-02  0.1226708E+00
        -11   -1    0    0    0    0  0.00000000000E+00  0.00000000000E+00  0.45593999997E+02  0.45594000000E+02  0.51100000000E-03 0. -1.
         11   -1    0    0    0    0 -0.00000000000E+00 -0.00000000000E+00 -0.45593999997E+02  0.45594000000E+02  0.51100000000E-03 0.  1.
    9900012    2    1    2    0    0  0.25360871905E+01 -0.11608738842E+02  0.14473588057E+02  0.72461566625E+02  0.69999995219E+02 0.  0.
         12    1    1    2    0    0 -0.25360871905E+01  0.11608738842E+02 -0.14473588057E+02  0.18726433375E+02  0.00000000000E+00 0. -1.
         11    1    3    3    0    0  0.30195935251E+02 -0.12460062464E+02  0.95731139438E+01  0.34039567758E+02  0.51100000000E-03 0. -1.
        -11    1    3    3    0    0  0.41579235838E+00  0.16891488828E+01  0.97624005375E+01  0.99161772750E+01  0.51100000000E-03 0.  1.
        -12    1    3    3    0    0 -0.28075640419E+02 -0.83782526020E+00 -0.48619264246E+01  0.28505821592E+02  0.00000000000E+00 0.  1.
</event>
<event>
 7    1  0.2932676E-013  0.7246150E+02  0.7816164E-02  0.1226708E+00
        -11   -1    0    0    0    0  0.00000000000E+00  0.00000000000E+00  0.45593999997E+02  0.45594000000E+02  0.51100000000E-03 0.  1.
         11   -1    0    0    0    0 -0.00000000000E+00 -0.00000000000E+00 -0.45593999997E+02  0.45594000000E+02  0.51100000000E-03 0. -1.
    9900012    2    1    2    0    0 -0.43045046215E+01 -0.15456290366E+02  0.96569194730E+01  0.72461500978E+02  0.69999909702E+02 0.  0.
         12    1    1    2    0    0  0.43045046215E+01  0.15456290366E+02 -0.96569194730E+01  0.18726499022E+02  0.00000000000E+00 0. -1.
         11    1    3    3    0    0 -0.42816146866E+00 -0.26477409348E+02 -0.12891267047E+01  0.26512230686E+02  0.51100000000E-03 0. -1.
        -11    1    3    3    0    0  0.12118846497E+02 -0.89750053808E+01  0.13468007131E+02  0.20218911404E+02  0.51100000000E-03 0.  1.
        -12    1    3    3    0    0 -0.15995189650E+02  0.19996124363E+02 -0.25219609538E+01  0.25730358888E+02  0.00000000000E+00 0.  1.
</event>
<event>
 7    1  0.2932676E-013  0.7246171E+02  0.7816164E-02  0.1226708E+00
        -11   -1    0    0    0    0  0.00000000000E+00  0.00000000000E+00  0.45593999997E+02  0.45594000000E+02  0.51100000000E-03 0. -1.
         11   -1    0    0    0    0 -0.00000000000E+00 -0.00000000000E+00 -0.45593999997E+02  0.45594000000E+02  0.51100000000E-03 0.  1.
    9900012    2    1    2    0    0 -0.10240819183E+02  0.53839675356E+01  0.14724554602E+02  0.72461708531E+02  0.70000180078E+02 0.  0.
         12    1    1    2    0    0  0.10240819183E+02 -0.53839675356E+01 -0.14724554602E+02  0.18726291469E+02  0.00000000000E+00 0. -1.
         11    1    3    3    0    0  0.19623251305E+01 -0.15634588052E+01 -0.39685084428E+01  0.46951233078E+01  0.51100000000E-03 0. -1.
        -11    1    3    3    0    0  0.26058435582E+02  0.62209433410E+01  0.60677120792E+01  0.27469243367E+02  0.51100000000E-03 0.  1.
         12    1    3    3    0    0 -0.38261579895E+02  0.72648299983E+00  0.12625350966E+02  0.40297341856E+02  0.00000000000E+00 0. -1.
</event>
<event>
 7    1  0.2932676E-013  0.7246160E+02  0.7816164E-02  0.1226708E+00
        -11   -1    0    0    0    0  0.00000000000E+00  0.00000000000E+00  0.45593999997E+02  0.45594000000E+02  0.51100000000E-03 0. -1.
         11   -1    0    0    0    0 -0.00000000000E+00 -0.00000000000E+00 -0.45593999997E+02  0.45594000000E+02  0.51100000000E-03 0.  1.
    9900012    2    1    2    0    0  0.96547896728E+01  0.10946609594E+01 -0.16008271287E+02  0.72461601632E+02  0.70000040823E+02 0.  0.
         12    1    1    2    0    0 -0.96547896728E+01 -0.10946609594E+01  0.16008271287E+02  0.18726398368E+02  0.00000000000E+00 0. -1.
         11    1    3    3    0    0 -0.19922241824E+02  0.24718224165E+01 -0.11755721809E+01  0.20109390731E+02  0.51100000000E-03 0. -1.
        -11    1    3    3    0    0  0.79468336823E+01 -0.19160433718E+02 -0.12580280158E+02  0.24259798741E+02  0.51100000000E-03 0.  1.
        -12    1    3    3    0    0  0.21630197815E+02  0.17783272261E+02 -0.22524189485E+01  0.28092412159E+02  0.00000000000E+00 0.  1.
</event>
<event>
 7    1  0.2932676E-013  0.7246156E+02  0.7816164E-02  0.1226708E+00
        -11   -1    0    0    0    0  0.00000000000E+00  0.00000000000E+00  0.45593999997E+02  0.45594000000E+02  0.51100000000E-03 0. -1.
         11   -1    0    0    0    0 -0.00000000000E+00 -0.00000000000E+00 -0.45593999997E+02  0.45594000000E+02  0.51100000000E-03 0.  1.
    9900012    2    1    2    0    0 -0.11421850126E+02 -0.14717110343E+02 -0.19045723024E+01  0.72461564332E+02  0.69999992233E+02 0.  0.
         12    1    1    2    0    0  0.11421850126E+02  0.14717110343E+02  0.19045723024E+01  0.18726435668E+02  0.00000000000E+00 0. -1.
         11    1    3    3    0    0  0.12378794319E+02 -0.16968838367E+02 -0.17309896403E+02  0.27217798186E+02  0.51100000000E-03 0. -1.
        -11    1    3    3    0    0  0.81065249519E+01 -0.49400437299E+01  0.11426767521E+01  0.95616677034E+01  0.51100000000E-03 0.  1.
         12    1    3    3    0    0 -0.31907169397E+02  0.71917717531E+01  0.14262647349E+02  0.35682098443E+02  0.00000000000E+00 0. -1.
</event>
<event>
 7    1  0.2932676E-013  0.7246153E+02  0.7816164E-02  0.1226708E+00
        -11   -1    0    0    0    0  0.00000000000E+00  0.00000000000E+00  0.45593999997E+02  0.45594000000E+02  0.51100000000E-03 0.  1.
         11   -1    0    0    0    0 -0.00000000000E+00 -0.00000000000E+00 -0.45593999997E+02  0.45594000000E+02  0.51100000000E-03 0. -1.
    9900012    2    1    2    0    0  0.11422241697E+02 -0.70586403699E+01 -0.13053300552E+02  0.72461530376E+02  0.69999948000E+02 0.  0.
         12    1    1    2    0    0 -0.11422241697E+02  0.70586403699E+01  0.13053300552E+02  0.18726469624E+02  0.00000000000E+00 0. -1.
         11    1    3    3    0    0  0.14576943200E+02  0.15806640297E+01 -0.28145248597E+02  0.31735481573E+02  0.51100000000E-03 0. -1.
        -11    1    3    3    0    0  0.89485300733E+01 -0.53821260234E+01 -0.88588417509E+01  0.13693887265E+02  0.51100000000E-03 0.  1.
        -12    1    3    3    0    0 -0.12103231576E+02 -0.32571783762E+01  0.23950789796E+02  0.27032161538E+02  0.00000000000E+00 0.  1.
</event>
<event>
 7    1  0.2932676E-013  0.7246155E+02  0.7816164E-02  0.1226708E+00
        -11   -1    0    0    0    0  0.00000000000E+00  0.00000000000E+00  0.45593999997E+02  0.45594000000E+02  0.51100000000E-03 0. -1.
         11   -1    0    0    0    0 -0.00000000000E+00 -0.00000000000E+00 -0.45593999997E+02  0.45594000000E+02  0.51100000000E-03 0.  1.
    9900012    2    1    2    0    0 -0.10757440793E+02 -0.45327111563E+01 -0.14642812986E+02  0.72461548788E+02  0.69999971984E+02 0.  0.
         12    1    1    2    0    0  0.10757440793E+02  0.45327111563E+01  0.14642812986E+02  0.18726451212E+02  0.00000000000E+00 0. -1.
         11    1    3    3    0    0 -0.61536332750E+01  0.69753356925E+01  0.17999657182E+02  0.20261050552E+02  0.51100000000E-03 0. -1.
        -11    1    3    3    0    0  0.14062769887E+02 -0.80777714459E+01 -0.22558699265E+01  0.16373785079E+02  0.51100000000E-03 0.  1.
        -12    1    3    3    0    0 -0.18666577405E+02 -0.34302754029E+01 -0.30386600242E+02  0.35826713157E+02  0.00000000000E+00 0.  1.
</event>
<event>
 7    1  0.2932676E-013  0.7246161E+02  0.7816164E-02  0.1226708E+00
        -11   -1    0    0    0    0  0.00000000000E+00  0.00000000000E+00  0.45593999997E+02  0.45594000000E+02  0.51100000000E-03 0. -1.
         11   -1    0    0    0    0 -0.00000000000E+00 -0.00000000000E+00 -0.45593999997E+02  0.45594000000E+02  0.51100000000E-03 0.  1.
    9900012    2    1    2    0    0  0.13925628065E+02 -0.12489148844E+02 -0.88065475913E+00  0.72461614639E+02  0.70000057768E+02 0.  0.
         12    1    1    2    0    0 -0.13925628065E+02  0.12489148844E+02  0.88065475913E+00  0.18726385361E+02  0.00000000000E+00 0. -1.
         11    1    3    3    0    0  0.47627777551E+01  0.55112461297E+01  0.15095667326E+02  0.16761177111E+02  0.51100000000E-03 0. -1.
        -11    1    3    3    0    0  0.25794579912E+02 -0.16110280804E+02  0.28063843269E+01  0.30541402943E+02  0.51100000000E-03 0.  1.
        -12    1    3    3    0    0 -0.16631729602E+02 -0.18901141697E+01 -0.18782706412E+02  0.25159034586E+02  0.00000000000E+00 0.  1.
</event>
<event>
 7    1  0.2932676E-013  0.7246158E+02  0.7816164E-02  0.1226708E+00
        -11   -1    0    0    0    0  0.00000000000E+00  0.00000000000E+00  0.45593999997E+02  0.45594000000E+02  0.51100000000E-03 0.  1.
         11   -1    0    0    0    0 -0.00000000000E+00 -0.00000000000E+00 -0.45593999997E+02  0.45594000000E+02  0.51100000000E-03 0. -1.
    9900012    2    1    2    0    0 -0.37797557655E+01  0.16142616889E+02  0.87067872852E+01  0.72461580735E+02  0.70000013601E+02 0.  0.
         12    1    1    2    0    0  0.37797557655E+01 -0.16142616889E+02 -0.87067872852E+01  0.18726419265E+02  0.00000000000E+00 0. -1.
         11    1    3    3    0    0 -0.15330747259E+02  0.10793027153E+01 -0.24965882196E+02  0.29317093648E+02  0.51100000000E-03 0. -1.
        -11    1    3    3    0    0 -0.49631698703E+01  0.61284462639E+00  0.54905081182E+01  0.74265950041E+01  0.51100000000E-03 0.  1.
        -12    1    3    3    0    0  0.16514161364E+02  0.14450469547E+02  0.28182161363E+02  0.35717892082E+02  0.00000000000E+00 0.  1.
</event>
<event>
 7    1  0.2932676E-013  0.7246156E+02  0.7816164E-02  0.1226708E+00
        -11   -1    0    0    0    0  0.00000000000E+00  0.00000000000E+00  0.45593999997E+02  0.45594000000E+02  0.51100000000E-03 0.  1.
         11   -1    0    0    0    0 -0.00000000000E+00 -0.00000000000E+00 -0.45593999997E+02  0.45594000000E+02  0.51100000000E-03 0. -1.
    9900012    2    1    2    0    0 -0.48968696745E+01  0.17862032215E+02 -0.27655139315E+01  0.72461558940E+02  0.69999985209E+02 0.  0.
         12    1    1    2    0    0  0.48968696745E+01 -0.17862032215E+02  0.27655139315E+01  0.18726441060E+02  0.00000000000E+00 0. -1.
         11    1    3    3    0    0 -0.33935050318E+01  0.16781811281E+02 -0.32210633053E+00  0.17124509308E+02  0.51100000000E-03 0. -1.
        -11    1    3    3    0    0 -0.10022251580E+01  0.16549450699E+02  0.21301441913E+02  0.26993336243E+02  0.51100000000E-03 0.  1.
         12    1    3    3    0    0 -0.50113948472E+00 -0.15469229764E+02 -0.23744849514E+02  0.28343713390E+02  0.00000000000E+00 0. -1.
</event>
<event>
 7    1  0.2932676E-013  0.7246178E+02  0.7816164E-02  0.1226707E+00
        -11   -1    0    0    0    0  0.00000000000E+00  0.00000000000E+00  0.45593999997E+02  0.45594000000E+02  0.51100000000E-03 0.  1.
         11   -1    0    0    0    0 -0.00000000000E+00 -0.00000000000E+00 -0.45593999997E+02  0.45594000000E+02  0.51100000000E-03 0. -1.
    9900012    2    1    2    0    0 -0.79881310365E+01 -0.11975240893E+02  0.11977253048E+02  0.72461782483E+02  0.70000276415E+02 0.  0.
         12    1    1    2    0    0  0.79881310365E+01  0.11975240893E+02 -0.11977253048E+02  0.18726217517E+02  0.00000000000E+00 0. -1.
         11    1    3    3    0    0 -0.17030252066E+02  0.69780891402E+01 -0.13868067009E+02  0.23044446106E+02  0.51100000000E-03 0. -1.
        -11    1    3    3    0    0 -0.10251371674E+02  0.79805827229E+00 -0.16931767870E+01  0.10420862061E+02  0.51100000000E-03 0.  1.
        -12    1    3    3    0    0  0.19293492703E+02 -0.19751388305E+02  0.27538496845E+02  0.38996474317E+02  0.00000000000E+00 0.  1.
</event>
<event>
 7    1  0.2932676E-013  0.7246158E+02  0.7816164E-02  0.1226708E+00
        -11   -1    0    0    0    0  0.00000000000E+00  0.00000000000E+00  0.45593999997E+02  0.45594000000E+02  0.51100000000E-03 0.  1.
         11   -1    0    0    0    0 -0.00000000000E+00 -0.00000000000E+00 -0.45593999997E+02  0.45594000000E+02  0.51100000000E-03 0. -1.
    9900012    2    1    2    0    0  0.15453514933E+02  0.10566871276E+02 -0.45726254252E+00  0.72461575318E+02  0.70000006544E+02 0.  0.
         12    1    1    2    0    0 -0.15453514933E+02 -0.10566871276E+02  0.45726254252E+00  0.18726424682E+02  0.00000000000E+00 0. -1.
         11    1    3    3    0    0  0.92637891275E+01  0.16170487089E+02  0.14750477906E+02  0.23767184108E+02  0.51100000000E-03 0.  1.
        -11    1    3    3    0    0  0.10575373569E+02  0.15793553045E+02 -0.18596076573E+02  0.26591143414E+02  0.51100000000E-03 0. -1.
         12    1    3    3    0    0 -0.43856477635E+01 -0.21397168858E+02  0.33883361249E+01  0.22103247796E+02  0.00000000000E+00 0. -1.
</event>
<event>
 7    1  0.2932676E-013  0.7246155E+02  0.7816164E-02  0.1226708E+00
        -11   -1    0    0    0    0  0.00000000000E+00  0.00000000000E+00  0.45593999997E+02  0.45594000000E+02  0.51100000000E-03 0.  1.
         11   -1    0    0    0    0 -0.00000000000E+00 -0.00000000000E+00 -0.45593999997E+02  0.45594000000E+02  0.51100000000E-03 0. -1.
    9900012    2    1    2    0    0 -0.89052743145E+01  0.97934572887E+01  0.13246288905E+02  0.72461551163E+02  0.69999975078E+02 0.  0.
         12    1    1    2    0    0  0.89052743145E+01 -0.97934572887E+01 -0.13246288905E+02  0.18726448837E+02  0.00000000000E+00 0. -1.
         11    1    3    3    0    0 -0.24153366246E+02 -0.67019284406E+01  0.13416888440E+02  0.28430860723E+02  0.51100000000E-03 0. -1.
        -11    1    3    3    0    0  0.12248856517E+02  0.12929874581E+01  0.16941308519E+02  0.20945506371E+02  0.51100000000E-03 0.  1.
        -12    1    3    3    0    0  0.29992354139E+01  0.15202398271E+02 -0.17111908053E+02  0.23085184069E+02  0.00000000000E+00 0.  1.
</event>
<event>
 7    1  0.2932676E-013  0.7246166E+02  0.7816164E-02  0.1226708E+00
        -11   -1    0    0    0    0  0.00000000000E+00  0.00000000000E+00  0.45593999997E+02  0.45594000000E+02  0.51100000000E-03 0.  1.
         11   -1    0    0    0    0 -0.00000000000E+00 -0.00000000000E+00 -0.45593999997E+02  0.45594000000E+02  0.51100000000E-03 0. -1.
    9900012    2    1    2    0    0  0.89079315571E+01  0.87707024906E+01  0.13942716869E+02  0.72461659714E+02  0.70000116486E+02 0.  0.
         12    1    1    2    0    0 -0.89079315571E+01 -0.87707024906E+01 -0.13942716869E+02  0.18726340286E+02  0.00000000000E+00 0. -1.
         11    1    3    3    0    0 -0.25591280310E+01  0.32051766715E+02 -0.36855092138E+01  0.32364299224E+02  0.51100000000E-03 0. -1.
        -11    1    3    3    0    0 -0.34916131073E+01  0.24534515002E+01  0.75476933855E+01  0.86705514276E+01  0.51100000000E-03 0.  1.
         12    1    3    3    0    0  0.14958672695E+02 -0.25734515725E+02  0.10080532697E+02  0.31426809063E+02  0.00000000000E+00 0. -1.
</event>
<event>
 7    1  0.2932676E-013  0.7246157E+02  0.7816164E-02  0.1226708E+00
        -11   -1    0    0    0    0  0.00000000000E+00  0.00000000000E+00  0.45593999997E+02  0.45594000000E+02  0.51100000000E-03 0. -1.
         11   -1    0    0    0    0 -0.00000000000E+00 -0.00000000000E+00 -0.45593999997E+02  0.45594000000E+02  0.51100000000E-03 0.  1.
    9900012    2    1    2    0    0 -0.18995733872E+01 -0.15128068818E+02 -0.10872551076E+02  0.72461569157E+02  0.69999998518E+02 0.  0.
         12    1    1    2    0    0  0.18995733872E+01  0.15128068818E+02  0.10872551076E+02  0.18726430843E+02  0.00000000000E+00 0. -1.
         11    1    3    3    0    0 -0.18997191854E+01  0.49960857117E+01 -0.19863862429E+02  0.20570435977E+02  0.51100000000E-03 0.  1.
        -11    1    3    3    0    0 -0.58127891901E+01  0.13425559562E+02 -0.44390912712E+01  0.15288547978E+02  0.51100000000E-03 0. -1.
         12    1    3    3    0    0  0.58129349883E+01 -0.33549714091E+02  0.13430402624E+02  0.36602585201E+02  0.00000000000E+00 0. -1.
</event>
<event>
 7    1  0.2932676E-013  0.7246156E+02  0.7816164E-02  0.1226708E+00
        -11   -1    0    0    0    0  0.00000000000E+00  0.00000000000E+00  0.45593999997E+02  0.45594000000E+02  0.51100000000E-03 0.  1.
         11   -1    0    0    0    0 -0.00000000000E+00 -0.00000000000E+00 -0.45593999997E+02  0.45594000000E+02  0.51100000000E-03 0. -1.
    9900012    2    1    2    0    0  0.62694918204E+01  0.17494436529E+02 -0.23059943293E+01  0.72461562885E+02  0.69999990348E+02 0.  0.
         12    1    1    2    0    0 -0.62694918204E+01 -0.17494436529E+02  0.23059943293E+01  0.18726437115E+02  0.00000000000E+00 0. -1.
         11    1    3    3    0    0 -0.67634123839E+01 -0.87379714667E+01 -0.25239798559E+01  0.11334300464E+02  0.51100000000E-03 0. -1.
        -11    1    3    3    0    0  0.38137835191E+01 -0.16716978092E+02 -0.10791940457E+01  0.17180423782E+02  0.51100000000E-03 0.  1.
         12    1    3    3    0    0  0.92191206852E+01  0.42949386088E+02  0.12971795723E+01  0.43946838640E+02  0.00000000000E+00 0. -1.
</event>
<event>
 7    1  0.2932676E-013  0.7246156E+02  0.7816164E-02  0.1226708E+00
        -11   -1    0    0    0    0  0.00000000000E+00  0.00000000000E+00  0.45593999997E+02  0.45594000000E+02  0.51100000000E-03 0.  1.
         11   -1    0    0    0    0 -0.00000000000E+00 -0.00000000000E+00 -0.45593999997E+02  0.45594000000E+02  0.51100000000E-03 0. -1.
    9900012    2    1    2    0    0 -0.10510162462E+02 -0.13018931328E+02  0.84097140511E+01  0.72461564719E+02  0.69999992737E+02 0.  0.
         12    1    1    2    0    0  0.10510162462E+02  0.13018931328E+02 -0.84097140511E+01  0.18726435281E+02  0.00000000000E+00 0. -1.
         11    1    3    3    0    0  0.47992761966E+01 -0.17964878925E+02 -0.14136851633E+02  0.23358520955E+02  0.51100000000E-03 0. -1.
        -11    1    3    3    0    0  0.12881384839E+02  0.16499162616E+01  0.21540618618E+00  0.12988406336E+02  0.51100000000E-03 0.  1.
        -12    1    3    3    0    0 -0.28190823498E+02  0.32960313357E+01  0.22331159498E+02  0.36114637429E+02  0.00000000000E+00 0.  1.
</event>
<event>
 7    1  0.2932676E-013  0.7246156E+02  0.7816164E-02  0.1226708E+00
        -11   -1    0    0    0    0  0.00000000000E+00  0.00000000000E+00  0.45593999997E+02  0.45594000000E+02  0.51100000000E-03 0. -1.
         11   -1    0    0    0    0 -0.00000000000E+00 -0.00000000000E+00 -0.45593999997E+02  0.45594000000E+02  0.51100000000E-03 0.  1.
    9900012    2    1    2    0    0 -0.12833252157E+02  0.78337684306E+01 -0.11163308022E+02  0.72461555203E+02  0.69999980341E+02 0.  0.
         12    1    1    2    0    0  0.12833252157E+02 -0.78337684306E+01  0.11163308022E+02  0.18726444797E+02  0.00000000000E+00 0. -1.
         11    1    3    3    0    0 -0.10585347622E+02  0.61521153081E+01 -0.51316684103E+01  0.13275244931E+02  0.51100000000E-03 0. -1.
        -11    1    3    3    0    0  0.41973013242E+01  0.26946787756E+02 -0.15592370626E+02  0.31414466903E+02  0.51100000000E-03 0.  1.
         12    1    3    3    0    0 -0.64452058592E+01 -0.25265134634E+02  0.95607310145E+01  0.27771843370E+02  0.00000000000E+00 0. -1.
</event>
<event>
 7    1  0.2932676E-013  0.7246157E+02  0.7816164E-02  0.1226708E+00
        -11   -1    0    0    0    0  0.00000000000E+00  0.00000000000E+00  0.45593999997E+02  0.45594000000E+02  0.51100000000E-03 0. -1.
         11   -1    0    0    0    0 -0.00000000000E+00 -0.00000000000E+00 -0.45593999997E+02  0.45594000000E+02  0.51100000000E-03 0.  1.
    9900012    2    1    2    0    0 -0.24401132069E+01  0.23013531966E+01 -0.18423595888E+02  0.72461567760E+02  0.69999996699E+02 0.  0.
         12    1    1    2    0    0  0.24401132069E+01 -0.23013531966E+01  0.18423595888E+02  0.18726432240E+02  0.00000000000E+00 0. -1.
         11    1    3    3    0    0  0.33543611634E+01  0.50760826259E+01  0.15747498784E+02  0.16882004379E+02  0.51100000000E-03 0. -1.
        -11    1    3    3    0    0  0.61579488154E+01 -0.21056457212E+02 -0.15751511226E+02  0.27007495813E+02  0.51100000000E-03 0.  1.
        -12    1    3    3    0    0 -0.11952423186E+02  0.18281727783E+02 -0.18419583446E+02  0.28572067567E+02  0.00000000000E+00 0.  1.
</event>
<event>
 7    1  0.2932676E-013  0.7246146E+02  0.7816164E-02  0.1226708E+00
        -11   -1    0    0    0    0  0.00000000000E+00  0.00000000000E+00  0.45593999997E+02  0.45594000000E+02  0.51100000000E-03 0.  1.
         11   -1    0    0    0    0 -0.00000000000E+00 -0.00000000000E+00 -0.45593999997E+02  0.45594000000E+02  0.51100000000E-03 0. -1.
    9900012    2    1    2    0    0 -0.34543069774E+01  0.36822200825E+01  0.18033092466E+02  0.72461457198E+02  0.69999852671E+02 0.  0.
         12    1    1    2    0    0  0.34543069774E+01 -0.36822200825E+01 -0.18033092466E+02  0.18726542802E+02  0.00000000000E+00 0. -1.
         11    1    3    3    0    0 -0.14744229113E+02 -0.17532683696E+02 -0.64852165580E+01  0.23808513683E+02  0.51100000000E-03 0.  1.
        -11    1    3    3    0    0 -0.12133897472E+01  0.17293905157E+02 -0.35322745480E+01  0.17692609587E+02  0.51100000000E-03 0. -1.
        -12    1    3    3    0    0  0.12503311882E+02  0.39209986214E+01  0.28050583572E+02  0.30960333928E+02  0.00000000000E+00 0.  1.
</event>
<event>
 7    1  0.2932676E-013  0.7246154E+02  0.7816164E-02  0.1226708E+00
        -11   -1    0    0    0    0  0.00000000000E+00  0.00000000000E+00  0.45593999997E+02  0.45594000000E+02  0.51100000000E-03 0.  1.
         11   -1    0    0    0    0 -0.00000000000E+00 -0.00000000000E+00 -0.45593999997E+02  0.45594000000E+02  0.51100000000E-03 0. -1.
    9900012    2    1    2    0    0 -0.87152558365E+01  0.82960893332E+01  0.14349205684E+02  0.72461535137E+02  0.69999954200E+02 0.  0.
         12    1    1    2    0    0  0.87152558365E+01 -0.82960893332E+01 -0.14349205684E+02  0.18726464863E+02  0.00000000000E+00 0. -1.
         11    1    3    3    0    0  0.23215636721E+01  0.74717982356E+01  0.15477492764E+02  0.17342727850E+02  0.51100000000E-03 0. -1.
        -11    1    3    3    0    0  0.14526362847E+02  0.18860827440E+02 -0.11280801488E+01  0.23833140673E+02  0.51100000000E-03 0.  1.
         12    1    3    3    0    0 -0.25563182355E+02 -0.18036536342E+02 -0.20693153382E-03  0.31285666613E+02  0.00000000000E+00 0. -1.
</event>
<event>
 7    1  0.2932676E-013  0.7246174E+02  0.7816164E-02  0.1226708E+00
        -11   -1    0    0    0    0  0.00000000000E+00  0.00000000000E+00  0.45593999997E+02  0.45594000000E+02  0.51100000000E-03 0. -1.
         11   -1    0    0    0    0 -0.00000000000E+00 -0.00000000000E+00 -0.45593999997E+02  0.45594000000E+02  0.51100000000E-03 0.  1.
    9900012    2    1    2    0    0  0.44309611712E+01 -0.18142053803E+02 -0.13803775836E+01  0.72461735680E+02  0.70000215445E+02 0.  0.
         12    1    1    2    0    0 -0.44309611712E+01  0.18142053803E+02  0.13803775836E+01  0.18726264320E+02  0.00000000000E+00 0. -1.
         11    1    3    3    0    0 -0.15078784811E+02 -0.24235785373E+01 -0.11514142584E+01  0.15315653410E+02  0.51100000000E-03 0. -1.
        -11    1    3    3    0    0  0.10124657627E+02  0.97767916331E+01 -0.19347643981E+02  0.23925419006E+02  0.51100000000E-03 0.  1.
         12    1    3    3    0    0  0.93850883551E+01 -0.25495266899E+02  0.19118680656E+02  0.33220663265E+02  0.00000000000E+00 0. -1.
</event>
<event>
 7    1  0.2932676E-013  0.7246158E+02  0.7816164E-02  0.1226708E+00
        -11   -1    0    0    0    0  0.00000000000E+00  0.00000000000E+00  0.45593999997E+02  0.45594000000E+02  0.51100000000E-03 0. -1.
         11   -1    0    0    0    0 -0.00000000000E+00 -0.00000000000E+00 -0.45593999997E+02  0.45594000000E+02  0.51100000000E-03 0.  1.
    9900012    2    1    2    0    0 -0.33901022100E+01  0.78712798280E+01 -0.16650196903E+02  0.72461577596E+02  0.70000009512E+02 0.  0.
         12    1    1    2    0    0  0.33901022100E+01 -0.78712798280E+01  0.16650196903E+02  0.18726422404E+02  0.00000000000E+00 0. -1.
         11    1    3    3    0    0 -0.53284105945E+01  0.91119879144E+01  0.59629856622E+01  0.12123426969E+02  0.51100000000E-03 0. -1.
        -11    1    3    3    0    0  0.26821835842E+02  0.96233776648E+01 -0.84953780976E+01  0.29735361523E+02  0.51100000000E-03 0.  1.
         12    1    3    3    0    0 -0.24883527458E+02 -0.10864085751E+02 -0.14117804468E+02  0.30602789104E+02  0.00000000000E+00 0. -1.
</event>
<event>
 7    1  0.2932676E-013  0.7246156E+02  0.7816164E-02  0.1226708E+00
        -11   -1    0    0    0    0  0.00000000000E+00  0.00000000000E+00  0.45593999997E+02  0.45594000000E+02  0.51100000000E-03 0. -1.
         11   -1    0    0    0    0 -0.00000000000E+00 -0.00000000000E+00 -0.45593999997E+02  0.45594000000E+02  0.51100000000E-03 0.  1.
    9900012    2    1    2    0    0 -0.27254391906E+01  0.13161669272E+02 -0.13039242002E+02  0.72461564440E+02  0.69999992373E+02 0.  0.
         12    1    1    2    0    0  0.27254391906E+01 -0.13161669272E+02  0.13039242002E+02  0.18726435560E+02  0.00000000000E+00 0. -1.
         11    1    3    3    0    0 -0.13249697197E+02  0.12579246002E+02 -0.16308672391E+02  0.24490093940E+02  0.51100000000E-03 0. -1.
        -11    1    3    3    0    0  0.21404463823E+02  0.73829864823E+01 -0.13876789290E+02  0.26556069781E+02  0.51100000000E-03 0.  1.
         12    1    3    3    0    0 -0.10880205817E+02 -0.68005632122E+01  0.17146219679E+02  0.21415400718E+02  0.00000000000E+00 0. -1.
</event>
<event>
 7    1  0.2932676E-013  0.7246158E+02  0.7816164E-02  0.1226708E+00
        -11   -1    0    0    0    0  0.00000000000E+00  0.00000000000E+00  0.45593999997E+02  0.45594000000E+02  0.51100000000E-03 0.  1.
         11   -1    0    0    0    0 -0.00000000000E+00 -0.00000000000E+00 -0.45593999997E+02  0.45594000000E+02  0.51100000000E-03 0. -1.
    9900012    2    1    2    0    0  0.13718839117E+02 -0.12126287802E+02  0.39275039059E+01  0.72461583111E+02  0.70000016696E+02 0.  0.
         12    1    1    2    0    0 -0.13718839117E+02  0.12126287802E+02 -0.39275039059E+01  0.18726416889E+02  0.00000000000E+00 0. -1.
         11    1    3    3    0    0 -0.10466279376E+02  0.23324463349E+01 -0.27333315402E+01  0.11065912138E+02  0.51100000000E-03 0. -1.
        -11    1    3    3    0    0  0.27290816340E+01  0.16183120774E+02 -0.11274509726E+02  0.19911199220E+02  0.51100000000E-03 0.  1.
         12    1    3    3    0    0  0.21456036859E+02 -0.30641854911E+02  0.17935345172E+02  0.41484471752E+02  0.00000000000E+00 0. -1.
</event>
<event>
 7    1  0.2932676E-013  0.7246161E+02  0.7816164E-02  0.1226708E+00
        -11   -1    0    0    0    0  0.00000000000E+00  0.00000000000E+00  0.45593999997E+02  0.45594000000E+02  0.51100000000E-03 0. -1.
         11   -1    0    0    0    0 -0.00000000000E+00 -0.00000000000E+00 -0.45593999997E+02  0.45594000000E+02  0.51100000000E-03 0.  1.
    9900012    2    1    2    0    0  0.18141846773E+02  0.28578587134E+01 -0.36583793005E+01  0.72461609535E+02  0.70000051118E+02 0.  0.
         12    1    1    2    0    0 -0.18141846773E+02 -0.28578587134E+01  0.36583793005E+01  0.18726390465E+02  0.00000000000E+00 0. -1.
         11    1    3    3    0    0  0.14577367769E+02  0.60714061516E+01  0.60517179388E+01  0.16911088493E+02  0.51100000000E-03 0. -1.
        -11    1    3    3    0    0  0.39108537703E+01  0.13675129920E+02 -0.27535823874E+02  0.30992346671E+02  0.51100000000E-03 0.  1.
         12    1    3    3    0    0 -0.34637476677E+00 -0.16888677358E+02  0.17825726634E+02  0.24558174371E+02  0.00000000000E+00 0. -1.
</event>
<event>
 7    1  0.2932676E-013  0.7246143E+02  0.7816164E-02  0.1226708E+00
        -11   -1    0    0    0    0  0.00000000000E+00  0.00000000000E+00  0.45593999997E+02  0.45594000000E+02  0.51100000000E-03 0.  1.
         11   -1    0    0    0    0 -0.00000000000E+00 -0.00000000000E+00 -0.45593999997E+02  0.45594000000E+02  0.51100000000E-03 0. -1.
    9900012    2    1    2    0    0  0.11130333293E+02 -0.18768565378E+01  0.14942473127E+02  0.72461430297E+02  0.69999817627E+02 0.  0.
         12    1    1    2    0    0 -0.11130333293E+02  0.18768565378E+01 -0.14942473127E+02  0.18726569703E+02  0.00000000000E+00 0. -1.
         11    1    3    3    0    0  0.11251659051E+01 -0.31057874554E+01  0.22928935387E+02  0.23165664080E+02  0.51100000000E-03 0. -1.
        -11    1    3    3    0    0  0.10318033801E+02  0.15760345599E+01  0.19333868123E+02  0.21971439719E+02  0.51100000000E-03 0.  1.
         12    1    3    3    0    0 -0.31286641235E+00 -0.34710364225E+00 -0.27320330383E+02  0.27324326498E+02  0.00000000000E+00 0. -1.
</event>
<event>
 7    1  0.2932676E-013  0.7246165E+02  0.7816164E-02  0.1226708E+00
        -11   -1    0    0    0    0  0.00000000000E+00  0.00000000000E+00  0.45593999997E+02  0.45594000000E+02  0.51100000000E-03 0. -1.
         11   -1    0    0    0    0 -0.00000000000E+00 -0.00000000000E+00 -0.45593999997E+02  0.45594000000E+02  0.51100000000E-03 0.  1.
    9900012    2    1    2    0    0 -0.24766691638E+01  0.16314718703E+02 -0.88528033312E+01  0.72461653231E+02  0.70000108040E+02 0.  0.
         12    1    1    2    0    0  0.24766691638E+01 -0.16314718703E+02  0.88528033312E+01  0.18726346769E+02  0.00000000000E+00 0. -1.
         11    1    3    3    0    0  0.10693261212E+02  0.26079277670E+01 -0.13991842019E+01  0.11095262019E+02  0.51100000000E-03 0.  1.
        -11    1    3    3    0    0  0.37698244519E+01  0.31556475496E+02  0.73888971441E+01  0.32628492509E+02  0.51100000000E-03 0. -1.
         12    1    3    3    0    0 -0.16939754828E+02 -0.17849684560E+02 -0.14842516273E+02  0.28737898703E+02  0.00000000000E+00 0. -1.
</event>
<event>
 7    1  0.2932676E-013  0.7246149E+02  0.7816164E-02  0.1226708E+00
        -11   -1    0    0    0    0  0.00000000000E+00  0.00000000000E+00  0.45593999997E+02  0.45594000000E+02  0.51100000000E-03 0. -1.
         11   -1    0    0    0    0 -0.00000000000E+00 -0.00000000000E+00 -0.45593999997E+02  0.45594000000E+02  0.51100000000E-03 0.  1.
    9900012    2    1    2    0    0 -0.61287529936E+01  0.16685644341E+02  0.58915175442E+01  0.72461486194E+02  0.69999890444E+02 0.  0.
         12    1    1    2    0    0  0.61287529936E+01 -0.16685644341E+02 -0.58915175442E+01  0.18726513806E+02  0.00000000000E+00 0. -1.
         11    1    3    3    0    0 -0.17124066006E+02  0.20644895185E+01 -0.13152344362E+01  0.17298138497E+02  0.51100000000E-03 0. -1.
        -11    1    3    3    0    0 -0.55626815406E+01  0.21279266299E+02 -0.15038495733E+02  0.26644079161E+02  0.51100000000E-03 0.  1.
         12    1    3    3    0    0  0.16557994554E+02 -0.66581114767E+01  0.22245247713E+02  0.28519268537E+02  0.00000000000E+00 0. -1.
</event>
<event>
 7    1  0.2932676E-013  0.7246153E+02  0.7816164E-02  0.1226708E+00
        -11   -1    0    0    0    0  0.00000000000E+00  0.00000000000E+00  0.45593999997E+02  0.45594000000E+02  0.51100000000E-03 0.  1.
         11   -1    0    0    0    0 -0.00000000000E+00 -0.00000000000E+00 -0.45593999997E+02  0.45594000000E+02  0.51100000000E-03 0. -1.
    9900012    2    1    2    0    0  0.11154995761E+02  0.10216051027E+02 -0.11039883265E+02  0.72461530725E+02  0.69999948453E+02 0.  0.
         12    1    1    2    0    0 -0.11154995761E+02 -0.10216051027E+02  0.11039883265E+02  0.18726469275E+02  0.00000000000E+00 0. -1.
         11    1    3    3    0    0 -0.47640370207E+01 -0.44899811587E+01  0.27586531275E+00  0.65522577385E+01  0.51100000000E-03 0. -1.
        -11    1    3    3    0    0  0.14800740057E+02 -0.88345345731E+01  0.20201081311E+02  0.26555500255E+02  0.51100000000E-03 0.  1.
         12    1    3    3    0    0  0.11182927241E+01  0.23540566758E+02 -0.31516829890E+02  0.39353772732E+02  0.00000000000E+00 0. -1.
</event>
<event>
 7    1  0.2932676E-013  0.7246175E+02  0.7816164E-02  0.1226708E+00
        -11   -1    0    0    0    0  0.00000000000E+00  0.00000000000E+00  0.45593999997E+02  0.45594000000E+02  0.51100000000E-03 0.  1.
         11   -1    0    0    0    0 -0.00000000000E+00 -0.00000000000E+00 -0.45593999997E+02  0.45594000000E+02  0.51100000000E-03 0. -1.
    9900012    2    1    2    0    0  0.12758310918E+02 -0.75931789614E+01  0.11412336941E+02  0.72461753748E+02  0.70000238982E+02 0.  0.
         12    1    1    2    0    0 -0.12758310918E+02  0.75931789614E+01 -0.11412336941E+02  0.18726246252E+02  0.00000000000E+00 0. -1.
         11    1    3    3    0    0 -0.19653296285E+01 -0.39458307638E+01 -0.11963184126E+02  0.12749504919E+02  0.51100000000E-03 0. -1.
        -11    1    3    3    0    0  0.17790556535E+02  0.18227117461E+02 -0.26143283425E+01  0.25604031434E+02  0.51100000000E-03 0.  1.
        -12    1    3    3    0    0 -0.30669159885E+01 -0.21874465658E+02  0.25989849410E+02  0.34108217395E+02  0.00000000000E+00 0.  1.
</event>
<event>
 7    1  0.2932676E-013  0.7246163E+02  0.7816164E-02  0.1226708E+00
        -11   -1    0    0    0    0  0.00000000000E+00  0.00000000000E+00  0.45593999997E+02  0.45594000000E+02  0.51100000000E-03 0. -1.
         11   -1    0    0    0    0 -0.00000000000E+00 -0.00000000000E+00 -0.45593999997E+02  0.45594000000E+02  0.51100000000E-03 0.  1.
    9900012    2    1    2    0    0  0.17883203258E+02  0.18923704339E+01 -0.52236824139E+01  0.72461631356E+02  0.70000079545E+02 0.  0.
         12    1    1    2    0    0 -0.17883203258E+02 -0.18923704339E+01  0.52236824139E+01  0.18726368644E+02  0.00000000000E+00 0. -1.
         11    1    3    3    0    0 -0.62109845129E+01  0.89947228935E+01  0.14979162902E+02  0.18543373211E+02  0.51100000000E-03 0. -1.
        -11    1    3    3    0    0  0.95463597482E+01  0.71964673342E+00  0.13403992081E+02  0.16471729716E+02  0.51100000000E-03 0.  1.
        -12    1    3    3    0    0  0.14547828022E+02 -0.78219991930E+01 -0.33606837397E+02  0.37446528429E+02  0.00000000000E+00 0.  1.
</event>
<event>
 7    1  0.2932676E-013  0.7246155E+02  0.7816164E-02  0.1226708E+00
        -11   -1    0    0    0    0  0.00000000000E+00  0.00000000000E+00  0.45593999997E+02  0.45594000000E+02  0.51100000000E-03 0.  1.
         11   -1    0    0    0    0 -0.00000000000E+00 -0.00000000000E+00 -0.45593999997E+02  0.45594000000E+02  0.51100000000E-03 0. -1.
    9900012    2    1    2    0    0 -0.50938116716E+01  0.10882895918E+01  0.17987456658E+02  0.72461551094E+02  0.69999974988E+02 0.  0.
         12    1    1    2    0    0  0.50938116716E+01 -0.10882895918E+01 -0.17987456658E+02  0.18726448906E+02  0.00000000000E+00 0. -1.
         11    1    3    3    0    0  0.82010914543E+01  0.10678104293E+01 -0.30265088829E+01  0.88066949779E+01  0.51100000000E-03 0. -1.
        -11    1    3    3    0    0  0.11404431428E+02  0.59508983484E+01  0.33109594535E+02  0.35520691123E+02  0.51100000000E-03 0.  1.
         12    1    3    3    0    0 -0.24699334554E+02 -0.59304191859E+01 -0.12095628994E+02  0.28134164993E+02  0.00000000000E+00 0. -1.
</event>
<event>
 7    1  0.2932676E-013  0.7246157E+02  0.7816164E-02  0.1226708E+00
        -11   -1    0    0    0    0  0.00000000000E+00  0.00000000000E+00  0.45593999997E+02  0.45594000000E+02  0.51100000000E-03 0. -1.
         11   -1    0    0    0    0 -0.00000000000E+00 -0.00000000000E+00 -0.45593999997E+02  0.45594000000E+02  0.51100000000E-03 0.  1.
    9900012    2    1    2    0    0 -0.11017411082E+02  0.13058872397E+02 -0.76656061618E+01  0.72461574472E+02  0.70000005442E+02 0.  0.
         12    1    1    2    0    0  0.11017411082E+02 -0.13058872397E+02  0.76656061618E+01  0.18726425528E+02  0.00000000000E+00 0. -1.
         11    1    3    3    0    0 -0.40128894356E+01  0.13406260637E+01  0.25625810015E+02  0.25972729911E+02  0.51100000000E-03 0. -1.
        -11    1    3    3    0    0  0.17185055437E+01 -0.50259895312E+01  0.26155668304E+01  0.59207281796E+01  0.51100000000E-03 0.  1.
        -12    1    3    3    0    0 -0.87230271903E+01  0.16744235864E+02 -0.35906983007E+02  0.40568116381E+02  0.00000000000E+00 0.  1.
</event>
<event>
 7    1  0.2932676E-013  0.7246149E+02  0.7816164E-02  0.1226708E+00
        -11   -1    0    0    0    0  0.00000000000E+00  0.00000000000E+00  0.45593999997E+02  0.45594000000E+02  0.51100000000E-03 0. -1.
         11   -1    0    0    0    0 -0.00000000000E+00 -0.00000000000E+00 -0.45593999997E+02  0.45594000000E+02  0.51100000000E-03 0.  1.
    9900012    2    1    2    0    0  0.12571690879E+02  0.13680917664E+02 -0.23381918291E+01  0.72461493099E+02  0.69999899439E+02 0.  0.
         12    1    1    2    0    0 -0.12571690879E+02 -0.13680917664E+02  0.23381918291E+01  0.18726506901E+02  0.00000000000E+00 0. -1.
         11    1    3    3    0    0  0.55431836554E+01 -0.20899584297E+02  0.14752135773E+02  0.26175274955E+02  0.51100000000E-03 0. -1.
        -11    1    3    3    0    0  0.43653274683E+01 -0.28622994230E+01 -0.49314437774E+00  0.52432846128E+01  0.51100000000E-03 0.  1.
        -12    1    3    3    0    0  0.26631797552E+01  0.37442801384E+02 -0.16597183224E+02  0.41042933532E+02  0.00000000000E+00 0.  1.
</event>
<event>
 7    1  0.2932676E-013  0.7246156E+02  0.7816164E-02  0.1226708E+00
        -11   -1    0    0    0    0  0.00000000000E+00  0.00000000000E+00  0.45593999997E+02  0.45594000000E+02  0.51100000000E-03 0. -1.
         11   -1    0    0    0    0 -0.00000000000E+00 -0.00000000000E+00 -0.45593999997E+02  0.45594000000E+02  0.51100000000E-03 0.  1.
    9900012    2    1    2    0    0 -0.54357197839E+01 -0.17843057212E+02 -0.16606548669E+01  0.72461561075E+02  0.69999987990E+02 0.  0.
         12    1    1    2    0    0  0.54357197839E+01  0.17843057212E+02  0.16606548669E+01  0.18726438925E+02  0.00000000000E+00 0. -1.
         11    1    3    3    0    0 -0.22748071573E+01 -0.71713752750E+01 -0.26895212038E+02  0.27927688801E+02  0.51100000000E-03 0. -1.
        -11    1    3    3    0    0 -0.27947689121E+01 -0.21644036863E+02  0.64164119258E+01  0.22747426388E+02  0.51100000000E-03 0.  1.
         12    1    3    3    0    0 -0.36614371455E+00  0.10972354926E+02  0.18818145246E+02  0.21786445886E+02  0.00000000000E+00 0. -1.
</event>
<event>
 7    1  0.2932676E-013  0.7246158E+02  0.7816164E-02  0.1226708E+00
        -11   -1    0    0    0    0  0.00000000000E+00  0.00000000000E+00  0.45593999997E+02  0.45594000000E+02  0.51100000000E-03 0.  1.
         11   -1    0    0    0    0 -0.00000000000E+00 -0.00000000000E+00 -0.45593999997E+02  0.45594000000E+02  0.51100000000E-03 0. -1.
    9900012    2    1    2    0    0  0.50674406701E+01 -0.11717233742E+01  0.17989638713E+02  0.72461575044E+02  0.70000006187E+02 0.  0.
         12    1    1    2    0    0 -0.50674406701E+01  0.11717233742E+01 -0.17989638713E+02  0.18726424956E+02  0.00000000000E+00 0. -1.
         11    1    3    3    0    0 -0.22373750014E+01  0.21445967791E+02 -0.65812241812E+00  0.21572401506E+02  0.51100000000E-03 0. -1.
        -11    1    3    3    0    0 -0.29908517208E+01 -0.15509605759E+02 -0.10637540612E+02  0.19043380355E+02  0.51100000000E-03 0.  1.
         12    1    3    3    0    0  0.10295667392E+02 -0.71080854060E+01  0.29285301743E+02  0.31845793182E+02  0.00000000000E+00 0. -1.
</event>
<event>
 7    1  0.2932676E-013  0.7246180E+02  0.7816164E-02  0.1226707E+00
        -11   -1    0    0    0    0  0.00000000000E+00  0.00000000000E+00  0.45593999997E+02  0.45594000000E+02  0.51100000000E-03 0.  1.
         11   -1    0    0    0    0 -0.00000000000E+00 -0.00000000000E+00 -0.45593999997E+02  0.45594000000E+02  0.51100000000E-03 0. -1.
    9900012    2    1    2    0    0 -0.88353238604E+00 -0.96389215310E+01  0.16030626381E+02  0.72461803912E+02  0.70000304330E+02 0.  0.
         12    1    1    2    0    0  0.88353238604E+00  0.96389215310E+01 -0.16030626381E+02  0.18726196088E+02  0.00000000000E+00 0. -1.
         11    1    3    3    0    0  0.34800113664E+01  0.13658728667E+02  0.34408285218E+01  0.14508985116E+02  0.51100000000E-03 0. -1.
        -11    1    3    3    0    0 -0.13937311093E+02 -0.16238738919E+01  0.26852227443E+02  0.30297322090E+02  0.51100000000E-03 0.  1.
        -12    1    3    3    0    0  0.95737673404E+01 -0.21673776306E+02 -0.14262429583E+02  0.27655496707E+02  0.00000000000E+00 0.  1.
</event>
<event>
 7    1  0.2932676E-013  0.7246156E+02  0.7816164E-02  0.1226708E+00
        -11   -1    0    0    0    0  0.00000000000E+00  0.00000000000E+00  0.45593999997E+02  0.45594000000E+02  0.51100000000E-03 0. -1.
         11   -1    0    0    0    0 -0.00000000000E+00 -0.00000000000E+00 -0.45593999997E+02  0.45594000000E+02  0.51100000000E-03 0.  1.
    9900012    2    1    2    0    0  0.31947702406E+01  0.11927514250E+02  0.14078613423E+02  0.72461561230E+02  0.69999988192E+02 0.  0.
         12    1    1    2    0    0 -0.31947702406E+01 -0.11927514250E+02 -0.14078613423E+02  0.18726438770E+02  0.00000000000E+00 0. -1.
         11    1    3    3    0    0 -0.11674026250E+02 -0.60436081883E+01  0.65875608918E+01  0.14703878658E+02  0.51100000000E-03 0. -1.
        -11    1    3    3    0    0 -0.75787506976E+01  0.20144447609E+01  0.24271738206E+02  0.25507111276E+02  0.51100000000E-03 0.  1.
        -12    1    3    3    0    0  0.22447547188E+02  0.15956677677E+02 -0.16780685675E+02  0.32250571297E+02  0.00000000000E+00 0.  1.
</event>
<event>
 7    1  0.2932676E-013  0.7246160E+02  0.7816164E-02  0.1226708E+00
        -11   -1    0    0    0    0  0.00000000000E+00  0.00000000000E+00  0.45593999997E+02  0.45594000000E+02  0.51100000000E-03 0.  1.
         11   -1    0    0    0    0 -0.00000000000E+00 -0.00000000000E+00 -0.45593999997E+02  0.45594000000E+02  0.51100000000E-03 0. -1.
    9900012    2    1    2    0    0 -0.18663951378E+02 -0.11226403490E+01 -0.10366972025E+01  0.72461597689E+02  0.70000035687E+02 0.  0.
         12    1    1    2    0    0  0.18663951378E+02  0.11226403490E+01  0.10366972025E+01  0.18726402311E+02  0.00000000000E+00 0. -1.
         11    1    3    3    0    0  0.69423207254E+01 -0.11871069195E+02  0.11660260355E+02  0.18029968738E+02  0.51100000000E-03 0.  1.
        -11    1    3    3    0    0  0.22226158403E+01  0.21626869439E+02  0.54884619093E+00  0.21747706438E+02  0.51100000000E-03 0. -1.
        -12    1    3    3    0    0 -0.27828887944E+02 -0.10878440593E+02 -0.13245803748E+02  0.32683922514E+02  0.00000000000E+00 0.  1.
</event>
<event>
 7    1  0.2932676E-013  0.7246150E+02  0.7816164E-02  0.1226708E+00
        -11   -1    0    0    0    0  0.00000000000E+00  0.00000000000E+00  0.45593999997E+02  0.45594000000E+02  0.51100000000E-03 0. -1.
         11   -1    0    0    0    0 -0.00000000000E+00 -0.00000000000E+00 -0.45593999997E+02  0.45594000000E+02  0.51100000000E-03 0.  1.
    9900012    2    1    2    0    0  0.16772300783E+02 -0.66996553486E+01 -0.49483783088E+01  0.72461497304E+02  0.69999904916E+02 0.  0.
         12    1    1    2    0    0 -0.16772300783E+02  0.66996553486E+01  0.49483783088E+01  0.18726502696E+02  0.00000000000E+00 0. -1.
         11    1    3    3    0    0  0.16147461691E+02 -0.22187699388E+02  0.63744454500E+01  0.28172115260E+02  0.51100000000E-03 0. -1.
        -11    1    3    3    0    0  0.19828827741E+02  0.78394105774E+01 -0.10069355464E+02  0.23580302956E+02  0.51100000000E-03 0.  1.
         12    1    3    3    0    0 -0.19203988649E+02  0.76486334619E+01 -0.12534682948E+01  0.20709079087E+02  0.00000000000E+00 0. -1.
</event>
<event>
 7    1  0.2932676E-013  0.7246161E+02  0.7816164E-02  0.1226708E+00
        -11   -1    0    0    0    0  0.00000000000E+00  0.00000000000E+00  0.45593999997E+02  0.45594000000E+02  0.51100000000E-03 0.  1.
         11   -1    0    0    0    0 -0.00000000000E+00 -0.00000000000E+00 -0.45593999997E+02  0.45594000000E+02  0.51100000000E-03 0. -1.
    9900012    2    1    2    0    0  0.13808220193E+02 -0.93257803831E+01  0.85463698746E+01  0.72461613197E+02  0.70000055889E+02 0.  0.
         12    1    1    2    0    0 -0.13808220193E+02  0.93257803831E+01 -0.85463698746E+01  0.18726386803E+02  0.00000000000E+00 0. -1.
         11    1    3    3    0    0 -0.56613468739E+01 -0.14826981704E+02 -0.67644332123E+01  0.17252472049E+02  0.51100000000E-03 0. -1.
        -11    1    3    3    0    0  0.27151801690E+02 -0.49292258077E+01  0.26375260685E+02  0.38172922059E+02  0.51100000000E-03 0.  1.
         12    1    3    3    0    0 -0.76822346227E+01  0.10430427128E+02 -0.11064457598E+02  0.17036219088E+02  0.00000000000E+00 0. -1.
</event>
<event>
 7    1  0.2932676E-013  0.7246162E+02  0.7816164E-02  0.1226708E+00
        -11   -1    0    0    0    0  0.00000000000E+00  0.00000000000E+00  0.45593999997E+02  0.45594000000E+02  0.51100000000E-03 0.  1.
         11   -1    0    0    0    0 -0.00000000000E+00 -0.00000000000E+00 -0.45593999997E+02  0.45594000000E+02  0.51100000000E-03 0. -1.
    9900012    2    1    2    0    0 -0.78979888418E+01  0.14267998400E+02  0.92045345073E+01  0.72461615897E+02  0.70000059406E+02 0.  0.
         12    1    1    2    0    0  0.78979888418E+01 -0.14267998400E+02 -0.92045345073E+01  0.18726384103E+02  0.00000000000E+00 0. -1.
         11    1    3    3    0    0 -0.15274422536E+01 -0.13666740197E+02  0.19185099096E+02  0.23604679516E+02  0.51100000000E-03 0. -1.
        -11    1    3    3    0    0 -0.12321010225E+02 -0.51677188947E+01 -0.70227597310E+01  0.15094097059E+02  0.51100000000E-03 0.  1.
        -12    1    3    3    0    0  0.59504636367E+01  0.33102457492E+02 -0.29578048580E+01  0.33762839322E+02  0.00000000000E+00 0.  1.
</event>
<event>
 7    1  0.2932676E-013  0.7246160E+02  0.7816164E-02  0.1226708E+00
        -11   -1    0    0    0    0  0.00000000000E+00  0.00000000000E+00  0.45593999997E+02  0.45594000000E+02  0.51100000000E-03 0. -1.
         11   -1    0    0    0    0 -0.00000000000E+00 -0.00000000000E+00 -0.45593999997E+02  0.45594000000E+02  0.51100000000E-03 0.  1.
    9900012    2    1    2    0    0  0.10269020237E+02 -0.88430700776E+01 -0.12923834566E+02  0.72461597118E+02  0.70000034942E+02 0.  0.
         12    1    1    2    0    0 -0.10269020237E+02  0.88430700776E+01  0.12923834566E+02  0.18726402882E+02  0.00000000000E+00 0. -1.
         11    1    3    3    0    0  0.83083270286E+01 -0.79266280924E+01  0.41043626310E+01  0.12194487435E+02  0.51100000000E-03 0. -1.
        -11    1    3    3    0    0  0.69899363270E+01  0.18461584577E+02  0.13388970998E+02  0.23852753711E+02  0.51100000000E-03 0.  1.
         12    1    3    3    0    0 -0.50292431187E+01 -0.19378026563E+02 -0.30417168195E+02  0.36414355971E+02  0.00000000000E+00 0. -1.
</event>
<event>
 7    1  0.2932676E-013  0.7246148E+02  0.7816164E-02  0.1226708E+00
        -11   -1    0    0    0    0  0.00000000000E+00  0.00000000000E+00  0.45593999997E+02  0.45594000000E+02  0.51100000000E-03 0.  1.
         11   -1    0    0    0    0 -0.00000000000E+00 -0.00000000000E+00 -0.45593999997E+02  0.45594000000E+02  0.51100000000E-03 0. -1.
    9900012    2    1    2    0    0 -0.66503124138E-01  0.18722860401E+02  0.36402265810E+00  0.72461483058E+02  0.69999886359E+02 0.  0.
         12    1    1    2    0    0  0.66503124138E-01 -0.18722860401E+02 -0.36402265810E+00  0.18726516942E+02  0.00000000000E+00 0. -1.
         11    1    3    3    0    0  0.12504994364E+02  0.19188056078E+02 -0.31076206947E+01  0.23113063118E+02  0.51100000000E-03 0. -1.
        -11    1    3    3    0    0  0.49529654565E+01  0.16754575553E+01  0.22670785253E+02  0.23265930652E+02  0.51100000000E-03 0.  1.
         12    1    3    3    0    0 -0.17524462944E+02 -0.21406532316E+01 -0.19199141901E+02  0.26082489288E+02  0.00000000000E+00 0. -1.
</event>
<event>
 7    1  0.2932676E-013  0.7246177E+02  0.7816164E-02  0.1226707E+00
        -11   -1    0    0    0    0  0.00000000000E+00  0.00000000000E+00  0.45593999997E+02  0.45594000000E+02  0.51100000000E-03 0. -1.
         11   -1    0    0    0    0 -0.00000000000E+00 -0.00000000000E+00 -0.45593999997E+02  0.45594000000E+02  0.51100000000E-03 0.  1.
    9900012    2    1    2    0    0 -0.97081440853E+01 -0.12066452346E+02 -0.10527315754E+02  0.72461769446E+02  0.70000259431E+02 0.  0.
         12    1    1    2    0    0  0.97081440853E+01  0.12066452346E+02  0.10527315754E+02  0.18726230554E+02  0.00000000000E+00 0. -1.
         11    1    3    3    0    0 -0.32717366152E+00  0.22671774693E+01 -0.39109196975E+01  0.45323756931E+01  0.51100000000E-03 0. -1.
        -11    1    3    3    0    0 -0.35969088776E+02  0.19213142498E+01 -0.73268990308E+01  0.36757995668E+02  0.51100000000E-03 0.  1.
         12    1    3    3    0    0  0.26588118353E+02 -0.16254944065E+02  0.71050297438E+00  0.31171398085E+02  0.00000000000E+00 0. -1.
</event>
<event>
 7    1  0.2932676E-013  0.7246158E+02  0.7816164E-02  0.1226708E+00
        -11   -1    0    0    0    0  0.00000000000E+00  0.00000000000E+00  0.45593999997E+02  0.45594000000E+02  0.51100000000E-03 0. -1.
         11   -1    0    0    0    0 -0.00000000000E+00 -0.00000000000E+00 -0.45593999997E+02  0.45594000000E+02  0.51100000000E-03 0.  1.
    9900012    2    1    2    0    0 -0.46158056822E+01  0.17503776577E+02 -0.47948752909E+01  0.72461583215E+02  0.70000016831E+02 0.  0.
         12    1    1    2    0    0  0.46158056822E+01 -0.17503776577E+02  0.47948752909E+01  0.18726416785E+02  0.00000000000E+00 0. -1.
         11    1    3    3    0    0  0.31257729824E+01  0.26106979219E+02  0.66678838622E+01  0.27125734942E+02  0.51100000000E-03 0. -1.
        -11    1    3    3    0    0  0.69109444046E+01  0.78613319410E+00  0.13335522079E+02  0.15040455689E+02  0.51100000000E-03 0.  1.
         12    1    3    3    0    0 -0.14652523069E+02 -0.93893358359E+01 -0.24798281232E+02  0.30295392584E+02  0.00000000000E+00 0. -1.
</event>
<event>
 7    1  0.2932676E-013  0.7246156E+02  0.7816164E-02  0.1226708E+00
        -11   -1    0    0    0    0  0.00000000000E+00  0.00000000000E+00  0.45593999997E+02  0.45594000000E+02  0.51100000000E-03 0. -1.
         11   -1    0    0    0    0 -0.00000000000E+00 -0.00000000000E+00 -0.45593999997E+02  0.45594000000E+02  0.51100000000E-03 0.  1.
    9900012    2    1    2    0    0  0.62397130825E+01 -0.99876558136E+01 -0.14559951212E+02  0.72461562344E+02  0.69999989643E+02 0.  0.
         12    1    1    2    0    0 -0.62397130825E+01  0.99876558136E+01  0.14559951212E+02  0.18726437656E+02  0.00000000000E+00 0. -1.
         11    1    3    3    0    0 -0.44404158762E+01 -0.11260466847E+02  0.24894555460E+01  0.12357701887E+02  0.51100000000E-03 0. -1.
        -11    1    3    3    0    0 -0.11999287745E+00 -0.21733503889E+02 -0.25327693639E+02  0.33374416174E+02  0.51100000000E-03 0.  1.
         12    1    3    3    0    0  0.10800121836E+02  0.23006314922E+02  0.82782868815E+01  0.26729444283E+02  0.00000000000E+00 0. -1.
</event>
<event>
 7    1  0.3200201E-013  0.7246156E+02  0.7816164E-02  0.1226708E+00
        -11   -1    0    0    0    0  0.00000000000E+00  0.00000000000E+00  0.45593999997E+02  0.45594000000E+02  0.51100000000E-03 0. -1.
         11   -1    0    0    0    0 -0.00000000000E+00 -0.00000000000E+00 -0.45593999997E+02  0.45594000000E+02  0.51100000000E-03 0.  1.
    9900012    2    1    2    0    0  0.14220794935E+02 -0.11920216056E+02 -0.25213034970E+01  0.72461560650E+02  0.69999987437E+02 0.  0.
         12    1    1    2    0    0 -0.14220794935E+02  0.11920216056E+02  0.25213034970E+01  0.18726439350E+02  0.00000000000E+00 0. -1.
         11    1    3    3    0    0 -0.94763613718E+01  0.93041261443E+01  0.16695713988E+02  0.21333425744E+02  0.51100000000E-03 0. -1.
        -11    1    3    3    0    0  0.12655823934E+02  0.84487031208E+01 -0.28290808829E+01  0.15477537361E+02  0.51100000000E-03 0.  1.
        -12    1    3    3    0    0  0.11041332373E+02 -0.29673045321E+02 -0.16387936602E+02  0.35650597544E+02  0.00000000000E+00 0.  1.
</event>
<event>
 7    1  0.2932676E-013  0.7246153E+02  0.7816164E-02  0.1226708E+00
        -11   -1    0    0    0    0  0.00000000000E+00  0.00000000000E+00  0.45593999997E+02  0.45594000000E+02  0.51100000000E-03 0. -1.
         11   -1    0    0    0    0 -0.00000000000E+00 -0.00000000000E+00 -0.45593999997E+02  0.45594000000E+02  0.51100000000E-03 0.  1.
    9900012    2    1    2    0    0  0.14406572362E+02  0.28861060020E+01 -0.11610421189E+02  0.72461526353E+02  0.69999942758E+02 0.  0.
         12    1    1    2    0    0 -0.14406572362E+02 -0.28861060020E+01  0.11610421189E+02  0.18726473647E+02  0.00000000000E+00 0. -1.
         11    1    3    3    0    0  0.11645544494E+02  0.16555341315E+02 -0.56424257912E+01  0.21012734275E+02  0.51100000000E-03 0. -1.
        -11    1    3    3    0    0 -0.80954130186E+01 -0.33087961122E+01 -0.25419168724E+02  0.26881554689E+02  0.51100000000E-03 0.  1.
         12    1    3    3    0    0  0.10856440887E+02 -0.10360439201E+02  0.19451173326E+02  0.24567237389E+02  0.00000000000E+00 0. -1.
</event>
<event>
 7    1  0.2932676E-013  0.7246161E+02  0.7816164E-02  0.1226708E+00
        -11   -1    0    0    0    0  0.00000000000E+00  0.00000000000E+00  0.45593999997E+02  0.45594000000E+02  0.51100000000E-03 0.  1.
         11   -1    0    0    0    0 -0.00000000000E+00 -0.00000000000E+00 -0.45593999997E+02  0.45594000000E+02  0.51100000000E-03 0. -1.
    9900012    2    1    2    0    0  0.54982474783E+01 -0.17404560428E+02  0.41866951379E+01  0.72461605120E+02  0.70000045367E+02 0.  0.
         12    1    1    2    0    0 -0.54982474783E+01  0.17404560428E+02 -0.41866951379E+01  0.18726394880E+02  0.00000000000E+00 0. -1.
         11    1    3    3    0    0  0.13383088382E+01 -0.34671959081E+01  0.20915979128E+02  0.21243603770E+02  0.51100000000E-03 0. -1.
        -11    1    3    3    0    0  0.52027375272E+01 -0.26254472363E+02  0.40205224329E+01  0.27065298774E+02  0.51100000000E-03 0.  1.
         12    1    3    3    0    0 -0.10427988871E+01  0.12317107843E+02 -0.20749806423E+02  0.24152702576E+02  0.00000000000E+00 0. -1.
</event>
<event>
 7    1  0.2932676E-013  0.7246157E+02  0.7816164E-02  0.1226708E+00
        -11   -1    0    0    0    0  0.00000000000E+00  0.00000000000E+00  0.45593999997E+02  0.45594000000E+02  0.51100000000E-03 0.  1.
         11   -1    0    0    0    0 -0.00000000000E+00 -0.00000000000E+00 -0.45593999997E+02  0.45594000000E+02  0.51100000000E-03 0. -1.
    9900012    2    1    2    0    0 -0.11478097897E+02 -0.14498710030E+02 -0.29529149898E+01  0.72461573998E+02  0.70000004825E+02 0.  0.
         12    1    1    2    0    0  0.11478097897E+02  0.14498710030E+02  0.29529149898E+01  0.18726426002E+02  0.00000000000E+00 0. -1.
         11    1    3    3    0    0 -0.27405068408E+01 -0.23931969714E+02 -0.22837584173E+02  0.33193445185E+02  0.51100000000E-03 0. -1.
        -11    1    3    3    0    0  0.10000997944E+02 -0.39598510547E+01  0.75385247648E+01  0.13135057523E+02  0.51100000000E-03 0.  1.
         12    1    3    3    0    0 -0.18738589001E+02  0.13393110739E+02  0.12346144418E+02  0.26133071289E+02  0.00000000000E+00 0. -1.
</event>
<event>
 7    1  0.2932676E-013  0.7246166E+02  0.7816164E-02  0.1226708E+00
        -11   -1    0    0    0    0  0.00000000000E+00  0.00000000000E+00  0.45593999997E+02  0.45594000000E+02  0.51100000000E-03 0.  1.
         11   -1    0    0    0    0 -0.00000000000E+00 -0.00000000000E+00 -0.45593999997E+02  0.45594000000E+02  0.51100000000E-03 0. -1.
    9900012    2    1    2    0    0 -0.14463016676E+02 -0.10025030285E+02  0.64028033666E+01  0.72461655601E+02  0.70000111128E+02 0.  0.
         12    1    1    2    0    0  0.14463016676E+02  0.10025030285E+02 -0.64028033666E+01  0.18726344399E+02  0.00000000000E+00 0. -1.
         11    1    3    3    0    0  0.59116741300E+01  0.12040325869E+02 -0.19360005946E+02  0.23552646741E+02  0.51100000000E-03 0. -1.
        -11    1    3    3    0    0 -0.65958246692E+00  0.57746027325E+01 -0.53332015539E+00  0.58365671758E+01  0.51100000000E-03 0.  1.
        -12    1    3    3    0    0 -0.19715108339E+02 -0.27839958887E+02  0.26296129468E+02  0.43072441684E+02  0.00000000000E+00 0.  1.
</event>
<event>
 7    1  0.2932676E-013  0.7246157E+02  0.7816164E-02  0.1226708E+00
        -11   -1    0    0    0    0  0.00000000000E+00  0.00000000000E+00  0.45593999997E+02  0.45594000000E+02  0.51100000000E-03 0. -1.
         11   -1    0    0    0    0 -0.00000000000E+00 -0.00000000000E+00 -0.45593999997E+02  0.45594000000E+02  0.51100000000E-03 0.  1.
    9900012    2    1    2    0    0 -0.30384989805E+01 -0.14578057035E+01 -0.18420685713E+02  0.72461565858E+02  0.69999994221E+02 0.  0.
         12    1    1    2    0    0  0.30384989805E+01  0.14578057035E+01  0.18420685713E+02  0.18726434142E+02  0.00000000000E+00 0. -1.
         11    1    3    3    0    0  0.14044161024E+02 -0.40223759017E+01 -0.69432635451E+01  0.16174884101E+02  0.51100000000E-03 0. -1.
        -11    1    3    3    0    0 -0.19907562364E+01 -0.22992934265E+02 -0.13143417640E+02  0.26559133345E+02  0.51100000000E-03 0.  1.
         12    1    3    3    0    0 -0.15091903768E+02  0.25557504463E+02  0.16659954721E+01  0.29727548412E+02  0.00000000000E+00 0. -1.
</event>
<event>
 7    1  0.2932676E-013  0.7246156E+02  0.7816164E-02  0.1226708E+00
        -11   -1    0    0    0    0  0.00000000000E+00  0.00000000000E+00  0.45593999997E+02  0.45594000000E+02  0.51100000000E-03 0. -1.
         11   -1    0    0    0    0 -0.00000000000E+00 -0.00000000000E+00 -0.45593999997E+02  0.45594000000E+02  0.51100000000E-03 0.  1.
    9900012    2    1    2    0    0 -0.18159697090E+02  0.57482886635E+00 -0.45359108537E+01  0.72461561099E+02  0.69999988022E+02 0.  0.
         12    1    1    2    0    0  0.18159697090E+02 -0.57482886635E+00  0.45359108537E+01  0.18726438901E+02  0.00000000000E+00 0. -1.
         11    1    3    3    0    0 -0.17821393834E+02 -0.24669494946E+02  0.10109659064E+02  0.32068540125E+02  0.51100000000E-03 0. -1.
        -11    1    3    3    0    0 -0.35263330632E+01  0.12380127452E+01  0.69851968908E+01  0.79221636119E+01  0.51100000000E-03 0.  1.
        -12    1    3    3    0    0  0.31880298073E+01  0.24006311067E+02 -0.21630766809E+02  0.32470857362E+02  0.00000000000E+00 0.  1.
</event>
<event>
 7    1  0.2932676E-013  0.7246178E+02  0.7816164E-02  0.1226707E+00
        -11   -1    0    0    0    0  0.00000000000E+00  0.00000000000E+00  0.45593999997E+02  0.45594000000E+02  0.51100000000E-03 0.  1.
         11   -1    0    0    0    0 -0.00000000000E+00 -0.00000000000E+00 -0.45593999997E+02  0.45594000000E+02  0.51100000000E-03 0. -1.
    9900012    2    1    2    0    0 -0.11102280656E+02  0.46956372221E+01  0.14330450847E+02  0.72461775977E+02  0.70000267939E+02 0.  0.
         12    1    1    2    0    0  0.11102280656E+02 -0.46956372221E+01 -0.14330450847E+02  0.18726224023E+02  0.00000000000E+00 0. -1.
         11    1    3    3    0    0  0.24887567463E+02  0.35279519977E+01 -0.60729495860E+01  0.25859585775E+02  0.51100000000E-03 0. -1.
        -11    1    3    3    0    0 -0.85165250335E+01  0.79006419658E-01  0.16848025608E+02  0.18878384672E+02  0.51100000000E-03 0.  1.
        -12    1    3    3    0    0 -0.27473323086E+02  0.10886788047E+01  0.35553748249E+01  0.27723805530E+02  0.00000000000E+00 0.  1.
</event>
<event>
 7    1  0.2932676E-013  0.7246158E+02  0.7816164E-02  0.1226708E+00
        -11   -1    0    0    0    0  0.00000000000E+00  0.00000000000E+00  0.45593999997E+02  0.45594000000E+02  0.51100000000E-03 0. -1.
         11   -1    0    0    0    0 -0.00000000000E+00 -0.00000000000E+00 -0.45593999997E+02  0.45594000000E+02  0.51100000000E-03 0.  1.
    9900012    2    1    2    0    0  0.54444625824E+01 -0.76621868892E+01 -0.16196526116E+02  0.72461581790E+02  0.70000014976E+02 0.  0.
         12    1    1    2    0    0 -0.54444625824E+01  0.76621868892E+01  0.16196526116E+02  0.18726418210E+02  0.00000000000E+00 0. -1.
         11    1    3    3    0    0  0.10820551853E+02 -0.11378049212E+02 -0.90022328197E+01  0.18099296734E+02  0.51100000000E-03 0. -1.
        -11    1    3    3    0    0  0.12397911584E+02 -0.16382413254E+02 -0.16090317366E+02  0.26095784887E+02  0.51100000000E-03 0.  1.
         12    1    3    3    0    0 -0.17774000855E+02  0.20098275577E+02  0.88960240698E+01  0.28266500169E+02  0.00000000000E+00 0. -1.
</event>
<event>
 7    1  0.2932676E-013  0.7246202E+02  0.7816164E-02  0.1226707E+00
        -11   -1    0    0    0    0  0.00000000000E+00  0.00000000000E+00  0.45593999997E+02  0.45594000000E+02  0.51100000000E-03 0. -1.
         11   -1    0    0    0    0 -0.00000000000E+00 -0.00000000000E+00 -0.45593999997E+02  0.45594000000E+02  0.51100000000E-03 0.  1.
    9900012    2    1    2    0    0  0.15321996758E+01  0.36697809169E+01 -0.18298839795E+02  0.72462016296E+02  0.70000580998E+02 0.  0.
         12    1    1    2    0    0 -0.15321996758E+01 -0.36697809169E+01  0.18298839795E+02  0.18725983704E+02  0.00000000000E+00 0. -1.
         11    1    3    3    0    0 -0.17271439635E+02  0.27041098319E+02 -0.17127944655E+02  0.36371556384E+02  0.51100000000E-03 0.  1.
        -11    1    3    3    0    0 -0.23302435965E+00 -0.11052506738E+02 -0.64639431535E+01  0.12806044155E+02  0.51100000000E-03 0. -1.
        -12    1    3    3    0    0  0.19036663671E+02 -0.12318810664E+02  0.52930480137E+01  0.23284415757E+02  0.00000000000E+00 0.  1.
</event>
<event>
 7    1  0.2932676E-013  0.7246163E+02  0.7816164E-02  0.1226708E+00
        -11   -1    0    0    0    0  0.00000000000E+00  0.00000000000E+00  0.45593999997E+02  0.45594000000E+02  0.51100000000E-03 0. -1.
         11   -1    0    0    0    0 -0.00000000000E+00 -0.00000000000E+00 -0.45593999997E+02  0.45594000000E+02  0.51100000000E-03 0.  1.
    9900012    2    1    2    0    0  0.23142565063E+01  0.99263004644E+01 -0.15709536319E+02  0.72461634751E+02  0.70000083967E+02 0.  0.
         12    1    1    2    0    0 -0.23142565063E+01 -0.99263004644E+01  0.15709536319E+02  0.18726365249E+02  0.00000000000E+00 0. -1.
         11    1    3    3    0    0 -0.15601714383E+02  0.17623268829E+01  0.10258130377E+02  0.18754960059E+02  0.51100000000E-03 0. -1.
        -11    1    3    3    0    0  0.72339978459E+01 -0.15853123719E+02 -0.10016281613E+01  0.17454383854E+02  0.51100000000E-03 0.  1.
         12    1    3    3    0    0  0.10681973043E+02  0.24017097301E+02 -0.24966038535E+02  0.36252290838E+02  0.00000000000E+00 0. -1.
</event>
<event>
 7    1  0.2932676E-013  0.7246165E+02  0.7816164E-02  0.1226708E+00
        -11   -1    0    0    0    0  0.00000000000E+00  0.00000000000E+00  0.45593999997E+02  0.45594000000E+02  0.51100000000E-03 0.  1.
         11   -1    0    0    0    0 -0.00000000000E+00 -0.00000000000E+00 -0.45593999997E+02  0.45594000000E+02  0.51100000000E-03 0. -1.
    9900012    2    1    2    0    0 -0.98318204739E+00 -0.11528051487E+02  0.14724593832E+02  0.72461647405E+02  0.70000100450E+02 0.  0.
         12    1    1    2    0    0  0.98318204739E+00  0.11528051487E+02 -0.14724593832E+02  0.18726352595E+02  0.00000000000E+00 0. -1.
         11    1    3    3    0    0  0.80462848272E+01 -0.12706163440E+02 -0.29871931797E+00  0.15042557043E+02  0.51100000000E-03 0. -1.
        -11    1    3    3    0    0 -0.21808590091E+02 -0.20669691245E+02  0.68147359443E+01  0.30810572280E+02  0.51100000000E-03 0.  1.
         12    1    3    3    0    0  0.12779123217E+02  0.21847803199E+02  0.82085772055E+01  0.26608518082E+02  0.00000000000E+00 0. -1.
</event>
<event>
 7    1  0.2932676E-013  0.7246156E+02  0.7816164E-02  0.1226708E+00
        -11   -1    0    0    0    0  0.00000000000E+00  0.00000000000E+00  0.45593999997E+02  0.45594000000E+02  0.51100000000E-03 0.  1.
         11   -1    0    0    0    0 -0.00000000000E+00 -0.00000000000E+00 -0.45593999997E+02  0.45594000000E+02  0.51100000000E-03 0. -1.
    9900012    2    1    2    0    0  0.10821851251E+02 -0.82277451583E+01  0.12879105767E+02  0.72461558260E+02  0.69999984323E+02 0.  0.
         12    1    1    2    0    0 -0.10821851251E+02  0.82277451583E+01 -0.12879105767E+02  0.18726441740E+02  0.00000000000E+00 0. -1.
         11    1    3    3    0    0  0.17481791124E+02 -0.80363120261E+01  0.15953808300E+01  0.19306490414E+02  0.51100000000E-03 0. -1.
        -11    1    3    3    0    0 -0.64955088363E+01  0.29068335317E+01  0.31707863298E+02  0.32496613845E+02  0.51100000000E-03 0.  1.
         12    1    3    3    0    0 -0.16443103608E+00 -0.30982666639E+01 -0.20424138361E+02  0.20658454000E+02  0.00000000000E+00 0. -1.
</event>
<event>
 7    1  0.2932676E-013  0.7246156E+02  0.7816164E-02  0.1226708E+00
        -11   -1    0    0    0    0  0.00000000000E+00  0.00000000000E+00  0.45593999997E+02  0.45594000000E+02  0.51100000000E-03 0.  1.
         11   -1    0    0    0    0 -0.00000000000E+00 -0.00000000000E+00 -0.45593999997E+02  0.45594000000E+02  0.51100000000E-03 0. -1.
    9900012    2    1    2    0    0 -0.16001615425E+02  0.78119370006E+00 -0.96962669549E+01  0.72461560065E+02  0.69999986674E+02 0.  0.
         12    1    1    2    0    0  0.16001615425E+02 -0.78119370006E+00  0.96962669549E+01  0.18726439935E+02  0.00000000000E+00 0. -1.
         11    1    3    3    0    0  0.22059210530E+02 -0.25778950903E+01  0.12908097496E+02  0.25687999018E+02  0.51100000000E-03 0. -1.
        -11    1    3    3    0    0 -0.11771877640E+02  0.65244835628E+01 -0.29007468968E+01  0.13768090708E+02  0.51100000000E-03 0.  1.
        -12    1    3    3    0    0 -0.26288948315E+02 -0.31653947724E+01 -0.19703617554E+02  0.33005470339E+02  0.00000000000E+00 0.  1.
</event>
<event>
 7    1  0.2932676E-013  0.7246157E+02  0.7816164E-02  0.1226708E+00
        -11   -1    0    0    0    0  0.00000000000E+00  0.00000000000E+00  0.45593999997E+02  0.45594000000E+02  0.51100000000E-03 0.  1.
         11   -1    0    0    0    0 -0.00000000000E+00 -0.00000000000E+00 -0.45593999997E+02  0.45594000000E+02  0.51100000000E-03 0. -1.
    9900012    2    1    2    0    0  0.11813250676E+02 -0.13331831806E+02  0.57782856536E+01  0.72461569055E+02  0.69999998386E+02 0.  0.
         12    1    1    2    0    0 -0.11813250676E+02  0.13331831806E+02 -0.57782856536E+01  0.18726430945E+02  0.00000000000E+00 0. -1.
         11    1    3    3    0    0 -0.53294963846E+01  0.41521679999E+00  0.71804637635E+01  0.89518152810E+01  0.51100000000E-03 0. -1.
        -11    1    3    3    0    0 -0.21290886122E+02 -0.22525773767E+01 -0.79991935736E+01  0.22855262737E+02  0.51100000000E-03 0.  1.
        -12    1    3    3    0    0  0.38433633183E+02 -0.11494471229E+02  0.65970154637E+01  0.40654491037E+02  0.00000000000E+00 0.  1.
</event>
<event>
 7    1  0.2932676E-013  0.7246158E+02  0.7816164E-02  0.1226708E+00
        -11   -1    0    0    0    0  0.00000000000E+00  0.00000000000E+00  0.45593999997E+02  0.45594000000E+02  0.51100000000E-03 0.  1.
         11   -1    0    0    0    0 -0.00000000000E+00 -0.00000000000E+00 -0.45593999997E+02  0.45594000000E+02  0.51100000000E-03 0. -1.
    9900012    2    1    2    0    0 -0.18340494571E+02  0.29869740271E+01  0.23201723706E+01  0.72461576028E+02  0.70000007469E+02 0.  0.
         12    1    1    2    0    0  0.18340494571E+02 -0.29869740271E+01 -0.23201723706E+01  0.18726423972E+02  0.00000000000E+00 0. -1.
         11    1    3    3    0    0  0.66783618584E+01  0.89425310188E+01  0.10531072218E+02  0.15345124973E+02  0.51100000000E-03 0. -1.
        -11    1    3    3    0    0  0.14282739840E+02  0.13127955168E+01 -0.93687275639E+01  0.17131641656E+02  0.51100000000E-03 0.  1.
         12    1    3    3    0    0 -0.39301596270E+02 -0.72683525085E+01  0.11578277169E+01  0.39984809398E+02  0.00000000000E+00 0. -1.
</event>
<event>
 7    1  0.2932676E-013  0.7246159E+02  0.7816164E-02  0.1226708E+00
        -11   -1    0    0    0    0  0.00000000000E+00  0.00000000000E+00  0.45593999997E+02  0.45594000000E+02  0.51100000000E-03 0. -1.
         11   -1    0    0    0    0 -0.00000000000E+00 -0.00000000000E+00 -0.45593999997E+02  0.45594000000E+02  0.51100000000E-03 0.  1.
    9900012    2    1    2    0    0  0.36874048761E+01 -0.15880424642E+02 -0.92137713537E+01  0.72461590198E+02  0.70000025928E+02 0.  0.
         12    1    1    2    0    0 -0.36874048761E+01  0.15880424642E+02  0.92137713537E+01  0.18726409802E+02  0.00000000000E+00 0. -1.
         11    1    3    3    0    0 -0.17448606728E-01 -0.27032134011E+01  0.49412500064E+01  0.56323724160E+01  0.51100000000E-03 0. -1.
        -11    1    3    3    0    0  0.17397511027E+02 -0.33920825462E+02 -0.17134859432E+02  0.41795923222E+02  0.51100000000E-03 0.  1.
        -12    1    3    3    0    0 -0.13692657544E+02  0.20743614221E+02  0.29798380717E+01  0.25033294560E+02  0.00000000000E+00 0.  1.
</event>
<event>
 7    1  0.2932676E-013  0.7246160E+02  0.7816164E-02  0.1226708E+00
        -11   -1    0    0    0    0  0.00000000000E+00  0.00000000000E+00  0.45593999997E+02  0.45594000000E+02  0.51100000000E-03 0.  1.
         11   -1    0    0    0    0 -0.00000000000E+00 -0.00000000000E+00 -0.45593999997E+02  0.45594000000E+02  0.51100000000E-03 0. -1.
    9900012    2    1    2    0    0 -0.16345077707E+02 -0.90651979173E+01 -0.11569805213E+01  0.72461601989E+02  0.70000041289E+02 0.  0.
         12    1    1    2    0    0  0.16345077707E+02  0.90651979173E+01  0.11569805213E+01  0.18726398011E+02  0.00000000000E+00 0. -1.
         11    1    3    3    0    0 -0.14261325513E+02  0.14019380799E+02 -0.17337480396E+02  0.26467275457E+02  0.51100000000E-03 0. -1.
        -11    1    3    3    0    0 -0.33700709417E+01  0.48594809405E+01 -0.73545263161E+01  0.94372130822E+01  0.51100000000E-03 0.  1.
        -12    1    3    3    0    0  0.12863187480E+01 -0.27944059656E+02  0.23535026191E+02  0.36557113450E+02  0.00000000000E+00 0.  1.
</event>
<event>
 7    1  0.2932676E-013  0.7246159E+02  0.7816164E-02  0.1226708E+00
        -11   -1    0    0    0    0  0.00000000000E+00  0.00000000000E+00  0.45593999997E+02  0.45594000000E+02  0.51100000000E-03 0.  1.
         11   -1    0    0    0    0 -0.00000000000E+00 -0.00000000000E+00 -0.45593999997E+02  0.45594000000E+02  0.51100000000E-03 0. -1.
    9900012    2    1    2    0    0  0.16808456791E+02 -0.46730946994E+01  0.68056087578E+01  0.72461592328E+02  0.70000028702E+02 0.  0.
         12    1    1    2    0    0 -0.16808456791E+02  0.46730946994E+01 -0.68056087578E+01  0.18726407672E+02  0.00000000000E+00 0. -1.
         11    1    3    3    0    0  0.64538789706E+01  0.28016633913E+01  0.64280345075E+01  0.95300314489E+01  0.51100000000E-03 0. -1.
        -11    1    3    3    0    0  0.50147968864E+01  0.26872002222E+02  0.52404012518E+01  0.27833693552E+02  0.51100000000E-03 0.  1.
         12    1    3    3    0    0  0.53397809336E+01 -0.34346760313E+02 -0.48628270015E+01  0.35097867326E+02  0.00000000000E+00 0. -1.
</event>
<event>
 7    1  0.2932676E-013  0.7246161E+02  0.7816164E-02  0.1226708E+00
        -11   -1    0    0    0    0  0.00000000000E+00  0.00000000000E+00  0.45593999997E+02  0.45594000000E+02  0.51100000000E-03 0.  1.
         11   -1    0    0    0    0 -0.00000000000E+00 -0.00000000000E+00 -0.45593999997E+02  0.45594000000E+02  0.51100000000E-03 0. -1.
    9900012    2    1    2    0    0  0.57807012914E+01  0.12868806394E+02 -0.12314835839E+02  0.72461605068E+02  0.70000045299E+02 0.  0.
         12    1    1    2    0    0 -0.57807012914E+01 -0.12868806394E+02  0.12314835839E+02  0.18726394932E+02  0.00000000000E+00 0. -1.
         11    1    3    3    0    0  0.15464947766E+02  0.47309454615E+01 -0.25587577991E+02  0.30269962043E+02  0.51100000000E-03 0. -1.
        -11    1    3    3    0    0 -0.91608410909E+01  0.10387658390E+02 -0.11075611405E+02  0.17733968100E+02  0.51100000000E-03 0.  1.
        -12    1    3    3    0    0 -0.52340538324E+00 -0.22497974575E+01  0.24348353558E+02  0.24457674925E+02  0.00000000000E+00 0.  1.
</event>
<event>
 7    1  0.3041842E-013  0.7246157E+02  0.7816164E-02  0.1226708E+00
        -11   -1    0    0    0    0  0.00000000000E+00  0.00000000000E+00  0.45593999997E+02  0.45594000000E+02  0.51100000000E-03 0. -1.
         11   -1    0    0    0    0 -0.00000000000E+00 -0.00000000000E+00 -0.45593999997E+02  0.45594000000E+02  0.51100000000E-03 0.  1.
    9900012    2    1    2    0    0 -0.41280917007E+01  0.15841513657E+02 -0.90931012522E+01  0.72461569843E+02  0.69999999412E+02 0.  0.
         12    1    1    2    0    0  0.41280917007E+01 -0.15841513657E+02  0.90931012522E+01  0.18726430157E+02  0.00000000000E+00 0. -1.
         11    1    3    3    0    0  0.21034962959E+01  0.15721276598E+02  0.22767933839E+02  0.27748189961E+02  0.51100000000E-03 0. -1.
        -11    1    3    3    0    0  0.60660274876E+01  0.62948164516E+01  0.12742946357E+01  0.88343211804E+01  0.51100000000E-03 0.  1.
        -12    1    3    3    0    0 -0.12297615484E+02 -0.61745793927E+01 -0.33135329727E+02  0.35879058702E+02  0.00000000000E+00 0.  1.
</event>
<event>
 7    1  0.2932676E-013  0.7246160E+02  0.7816164E-02  0.1226708E+00
        -11   -1    0    0    0    0  0.00000000000E+00  0.00000000000E+00  0.45593999997E+02  0.45594000000E+02  0.51100000000E-03 0.  1.
         11   -1    0    0    0    0 -0.00000000000E+00 -0.00000000000E+00 -0.45593999997E+02  0.45594000000E+02  0.51100000000E-03 0. -1.
    9900012    2    1    2    0    0 -0.16175131664E+02 -0.94209926586E+01 -0.53686650659E+00  0.72461595842E+02  0.70000033281E+02 0.  0.
         12    1    1    2    0    0  0.16175131664E+02  0.94209926586E+01  0.53686650659E+00  0.18726404158E+02  0.00000000000E+00 0. -1.
         11    1    3    3    0    0  0.18337004030E+02  0.31838929404E+01  0.36585135022E+00  0.18614960073E+02  0.51100000000E-03 0.  1.
        -11    1    3    3    0    0 -0.10374905432E+02 -0.85067380498E+01 -0.19100436696E+02  0.23341592431E+02  0.51100000000E-03 0. -1.
        -12    1    3    3    0    0 -0.24137230263E+02 -0.40981475492E+01  0.18197718839E+02  0.30505043338E+02  0.00000000000E+00 0.  1.
</event>
<event>
 7    1  0.2932676E-013  0.7246158E+02  0.7816164E-02  0.1226708E+00
        -11   -1    0    0    0    0  0.00000000000E+00  0.00000000000E+00  0.45593999997E+02  0.45594000000E+02  0.51100000000E-03 0.  1.
         11   -1    0    0    0    0 -0.00000000000E+00 -0.00000000000E+00 -0.45593999997E+02  0.45594000000E+02  0.51100000000E-03 0. -1.
    9900012    2    1    2    0    0  0.16318018529E+01 -0.18650279196E+02  0.42779062591E+00  0.72461582933E+02  0.70000016464E+02 0.  0.
         12    1    1    2    0    0 -0.16318018529E+01  0.18650279196E+02 -0.42779062591E+00  0.18726417067E+02  0.00000000000E+00 0. -1.
         11    1    3    3    0    0 -0.96278344926E+01  0.14383724804E+02 -0.10632657592E+02  0.20313545825E+02  0.51100000000E-03 0. -1.
        -11    1    3    3    0    0  0.14320761368E+02  0.96538054370E+00  0.10879673053E+02  0.18010648288E+02  0.51100000000E-03 0.  1.
        -12    1    3    3    0    0 -0.30611250222E+01 -0.33999384544E+02  0.18077516455E+00  0.34137388819E+02  0.00000000000E+00 0.  1.
</event>
<event>
 7    1  0.2932676E-013  0.7246154E+02  0.7816164E-02  0.1226708E+00
        -11   -1    0    0    0    0  0.00000000000E+00  0.00000000000E+00  0.45593999997E+02  0.45594000000E+02  0.51100000000E-03 0.  1.
         11   -1    0    0    0    0 -0.00000000000E+00 -0.00000000000E+00 -0.45593999997E+02  0.45594000000E+02  0.51100000000E-03 0. -1.
    9900012    2    1    2    0    0 -0.11639130249E+02  0.55345141996E+01 -0.13586028184E+02  0.72461538449E+02  0.69999958516E+02 0.  0.
         12    1    1    2    0    0  0.11639130249E+02 -0.55345141996E+01  0.13586028184E+02  0.18726461551E+02  0.00000000000E+00 0. -1.
         11    1    3    3    0    0 -0.92463838270E+00  0.15497781043E+02 -0.12545151110E+02  0.19960385518E+02  0.51100000000E-03 0. -1.
        -11    1    3    3    0    0 -0.20860024654E+02  0.76880503953E+01 -0.15869044856E+02  0.27314342979E+02  0.51100000000E-03 0.  1.
        -12    1    3    3    0    0  0.10145532787E+02 -0.17651317239E+02  0.14828167782E+02  0.25186809952E+02  0.00000000000E+00 0.  1.
</event>
<event>
 7    1  0.2932676E-013  0.7246157E+02  0.7816164E-02  0.1226708E+00
        -11   -1    0    0    0    0  0.00000000000E+00  0.00000000000E+00  0.45593999997E+02  0.45594000000E+02  0.51100000000E-03 0.  1.
         11   -1    0    0    0    0 -0.00000000000E+00 -0.00000000000E+00 -0.45593999997E+02  0.45594000000E+02  0.51100000000E-03 0. -1.
    9900012    2    1    2    0    0 -0.15619812108E+02  0.73026330105E+00  0.10303761500E+02  0.72461566388E+02  0.69999994912E+02 0.  0.
         12    1    1    2    0    0  0.15619812108E+02 -0.73026330105E+00 -0.10303761500E+02  0.18726433612E+02  0.00000000000E+00 0. -1.
         11    1    3    3    0    0 -0.20409873651E+02 -0.31145452838E+01  0.46025179028E+01  0.21152931382E+02  0.51100000000E-03 0. -1.
        -11    1    3    3    0    0  0.50746087157E+01  0.21339692778E+01  0.28205470563E+02  0.28737676463E+02  0.51100000000E-03 0.  1.
         12    1    3    3    0    0 -0.28454717269E+00  0.17108393070E+01 -0.22504226966E+02  0.22570958543E+02  0.00000000000E+00 0. -1.
</event>
<event>
 7    1  0.2932676E-013  0.7246162E+02  0.7816164E-02  0.1226708E+00
        -11   -1    0    0    0    0  0.00000000000E+00  0.00000000000E+00  0.45593999997E+02  0.45594000000E+02  0.51100000000E-03 0.  1.
         11   -1    0    0    0    0 -0.00000000000E+00 -0.00000000000E+00 -0.45593999997E+02  0.45594000000E+02  0.51100000000E-03 0. -1.
    9900012    2    1    2    0    0  0.32815384633E+01 -0.24148246117E+01  0.18277788407E+02  0.72461616963E+02  0.70000060794E+02 0.  0.
         12    1    1    2    0    0 -0.32815384633E+01  0.24148246117E+01 -0.18277788407E+02  0.18726383037E+02  0.00000000000E+00 0. -1.
         11    1    3    3    0    0  0.13846877648E+02  0.17444587910E+02  0.10067355131E+01  0.22294913873E+02  0.51100000000E-03 0. -1.
        -11    1    3    3    0    0  0.15028363434E+02 -0.13104233934E+01  0.25546435999E+01  0.15300167357E+02  0.51100000000E-03 0.  1.
         12    1    3    3    0    0 -0.25593702619E+02 -0.18548989129E+02  0.14716409295E+02  0.34866535732E+02  0.00000000000E+00 0. -1.
</event>
<event>
 7    1  0.2932676E-013  0.7246156E+02  0.7816164E-02  0.1226708E+00
        -11   -1    0    0    0    0  0.00000000000E+00  0.00000000000E+00  0.45593999997E+02  0.45594000000E+02  0.51100000000E-03 0. -1.
         11   -1    0    0    0    0 -0.00000000000E+00 -0.00000000000E+00 -0.45593999997E+02  0.45594000000E+02  0.51100000000E-03 0.  1.
    9900012    2    1    2    0    0  0.13794000991E+02  0.28988709357E+01  0.12328890789E+02  0.72461562428E+02  0.69999989753E+02 0.  0.
         12    1    1    2    0    0 -0.13794000991E+02 -0.28988709357E+01 -0.12328890789E+02  0.18726437572E+02  0.00000000000E+00 0. -1.
         11    1    3    3    0    0 -0.13325775817E+01  0.23950362163E+02 -0.11699563674E+02  0.26688488177E+02  0.51100000000E-03 0. -1.
        -11    1    3    3    0    0 -0.61579434317E+01 -0.84484175789E+01 -0.11003949807E+01  0.10512226038E+02  0.51100000000E-03 0.  1.
         12    1    3    3    0    0  0.21284522004E+02 -0.12603073649E+02  0.25128849443E+02  0.35260848213E+02  0.00000000000E+00 0. -1.
</event>
<event>
 7    1  0.2932676E-013  0.7246151E+02  0.7816164E-02  0.1226708E+00
        -11   -1    0    0    0    0  0.00000000000E+00  0.00000000000E+00  0.45593999997E+02  0.45594000000E+02  0.51100000000E-03 0.  1.
         11   -1    0    0    0    0 -0.00000000000E+00 -0.00000000000E+00 -0.45593999997E+02  0.45594000000E+02  0.51100000000E-03 0. -1.
    9900012    2    1    2    0    0  0.12208505198E+02 -0.14191195349E+02  0.49390832642E+00  0.72461506200E+02  0.69999916505E+02 0.  0.
         12    1    1    2    0    0 -0.12208505198E+02  0.14191195349E+02 -0.49390832642E+00  0.18726493800E+02  0.00000000000E+00 0. -1.
         11    1    3    3    0    0 -0.17046891447E+01  0.62583664136E+01  0.31460635111E+00  0.64940043628E+01  0.51100000000E-03 0. -1.
        -11    1    3    3    0    0 -0.34344590934E+00 -0.11258527496E+02  0.29786726074E+02  0.31845273541E+02  0.51100000000E-03 0.  1.
         12    1    3    3    0    0  0.14256640252E+02 -0.91910342670E+01 -0.29607424098E+02  0.34122228296E+02  0.00000000000E+00 0. -1.
</event>
<event>
 7    1  0.2932676E-013  0.7246165E+02  0.7816164E-02  0.1226708E+00
        -11   -1    0    0    0    0  0.00000000000E+00  0.00000000000E+00  0.45593999997E+02  0.45594000000E+02  0.51100000000E-03 0. -1.
         11   -1    0    0    0    0 -0.00000000000E+00 -0.00000000000E+00 -0.45593999997E+02  0.45594000000E+02  0.51100000000E-03 0.  1.
    9900012    2    1    2    0    0 -0.87648840025E+01 -0.96022740586E+01 -0.13477737234E+02  0.72461647989E+02  0.70000101212E+02 0.  0.
         12    1    1    2    0    0  0.87648840025E+01  0.96022740586E+01  0.13477737234E+02  0.18726352011E+02  0.00000000000E+00 0. -1.
         11    1    3    3    0    0 -0.26672908502E+02  0.11177574214E+02 -0.17517541340E+02  0.33811927897E+02  0.51100000000E-03 0. -1.
        -11    1    3    3    0    0  0.10680533884E+02  0.49066422755E+01  0.13165328598E+01  0.11827180623E+02  0.51100000000E-03 0.  1.
        -12    1    3    3    0    0  0.72274906156E+01 -0.25686490548E+02  0.27232712461E+01  0.26822539468E+02  0.00000000000E+00 0.  1.
</event>
<event>
 7    1  0.2932676E-013  0.7246160E+02  0.7816164E-02  0.1226708E+00
        -11   -1    0    0    0    0  0.00000000000E+00  0.00000000000E+00  0.45593999997E+02  0.45594000000E+02  0.51100000000E-03 0.  1.
         11   -1    0    0    0    0 -0.00000000000E+00 -0.00000000000E+00 -0.45593999997E+02  0.45594000000E+02  0.51100000000E-03 0. -1.
    9900012    2    1    2    0    0  0.16721290001E+02 -0.76810820993E+01  0.34752923037E+01  0.72461595697E+02  0.70000033092E+02 0.  0.
         12    1    1    2    0    0 -0.16721290001E+02  0.76810820993E+01 -0.34752923037E+01  0.18726404303E+02  0.00000000000E+00 0. -1.
         11    1    3    3    0    0 -0.13304678731E+02  0.42954061242E+00 -0.12594788182E+02  0.18325601515E+02  0.51100000000E-03 0. -1.
        -11    1    3    3    0    0  0.26018253224E+02  0.60602436653E+01 -0.62116470083E+01  0.27427369778E+02  0.51100000000E-03 0.  1.
        -12    1    3    3    0    0  0.40077155080E+01 -0.14170866377E+02  0.22281727494E+02  0.26708624404E+02  0.00000000000E+00 0.  1.
</event>
<event>
 7    1  0.2932676E-013  0.7246156E+02  0.7816164E-02  0.1226708E+00
        -11   -1    0    0    0    0  0.00000000000E+00  0.00000000000E+00  0.45593999997E+02  0.45594000000E+02  0.51100000000E-03 0.  1.
         11   -1    0    0    0    0 -0.00000000000E+00 -0.00000000000E+00 -0.45593999997E+02  0.45594000000E+02  0.51100000000E-03 0. -1.
    9900012    2    1    2    0    0  0.11593960113E+02 -0.88540333515E+01 -0.11741624725E+02  0.72461559632E+02  0.69999986110E+02 0.  0.
         12    1    1    2    0    0 -0.11593960113E+02  0.88540333515E+01  0.11741624725E+02  0.18726440368E+02  0.00000000000E+00 0. -1.
         11    1    3    3    0    0  0.94092075063E+01 -0.21451802877E+02 -0.77709545121E+01  0.24679966914E+02  0.51100000000E-03 0. -1.
        -11    1    3    3    0    0 -0.96607737165E+00 -0.17373110004E+02 -0.11861846025E+00  0.17400354230E+02  0.51100000000E-03 0.  1.
         12    1    3    3    0    0  0.31508299787E+01  0.29970879530E+02 -0.38520517522E+01  0.30381238488E+02  0.00000000000E+00 0. -1.
</event>
<event>
 7    1  0.2932676E-013  0.7246147E+02  0.7816164E-02  0.1226708E+00
        -11   -1    0    0    0    0  0.00000000000E+00  0.00000000000E+00  0.45593999997E+02  0.45594000000E+02  0.51100000000E-03 0.  1.
         11   -1    0    0    0    0 -0.00000000000E+00 -0.00000000000E+00 -0.45593999997E+02  0.45594000000E+02  0.51100000000E-03 0. -1.
    9900012    2    1    2    0    0 -0.16809343714E+02  0.80251340071E+01  0.19302683934E+01  0.72461474749E+02  0.69999875534E+02 0.  0.
         12    1    1    2    0    0  0.16809343714E+02 -0.80251340071E+01 -0.19302683934E+01  0.18726525251E+02  0.00000000000E+00 0. -1.
         11    1    3    3    0    0  0.26612394924E+01  0.22645159242E+02  0.43984450738E+01  0.23221364130E+02  0.51100000000E-03 0. -1.
        -11    1    3    3    0    0 -0.81747239416E+01 -0.27916081217E+02  0.62261074308E+01  0.29747237116E+02  0.51100000000E-03 0.  1.
         12    1    3    3    0    0 -0.11295859265E+02  0.13296055982E+02 -0.86942841112E+01  0.19492873503E+02  0.00000000000E+00 0. -1.
</event>
<event>
 7    1  0.2932676E-013  0.7246166E+02  0.7816164E-02  0.1226708E+00
        -11   -1    0    0    0    0  0.00000000000E+00  0.00000000000E+00  0.45593999997E+02  0.45594000000E+02  0.51100000000E-03 0.  1.
         11   -1    0    0    0    0 -0.00000000000E+00 -0.00000000000E+00 -0.45593999997E+02  0.45594000000E+02  0.51100000000E-03 0. -1.
    9900012    2    1    2    0    0  0.75939071051E+01  0.17102533230E+02  0.71534631267E+00  0.72461660573E+02  0.70000117604E+02 0.  0.
         12    1    1    2    0    0 -0.75939071051E+01 -0.17102533230E+02 -0.71534631267E+00  0.18726339427E+02  0.00000000000E+00 0. -1.
         11    1    3    3    0    0  0.91064533019E+00  0.12418545490E+02  0.16537302141E+01  0.12561224896E+02  0.51100000000E-03 0. -1.
        -11    1    3    3    0    0 -0.41210625608E+01  0.11792650939E+02  0.26649179321E+02  0.29431760592E+02  0.51100000000E-03 0.  1.
        -12    1    3    3    0    0  0.10804324336E+02 -0.71086631992E+01 -0.27587563223E+02  0.30468675084E+02  0.00000000000E+00 0.  1.
</event>
<event>
 7    1  0.2932676E-013  0.7246158E+02  0.7816164E-02  0.1226708E+00
        -11   -1    0    0    0    0  0.00000000000E+00  0.00000000000E+00  0.45593999997E+02  0.45594000000E+02  0.51100000000E-03 0.  1.
         11   -1    0    0    0    0 -0.00000000000E+00 -0.00000000000E+00 -0.45593999997E+02  0.45594000000E+02  0.51100000000E-03 0. -1.
    9900012    2    1    2    0    0  0.15445240882E+01  0.18812550816E+01  0.18567559223E+02  0.72461576667E+02  0.70000008302E+02 0.  0.
         12    1    1    2    0    0 -0.15445240882E+01 -0.18812550816E+01 -0.18567559223E+02  0.18726423333E+02  0.00000000000E+00 0. -1.
         11    1    3    3    0    0 -0.22139384161E+02 -0.10038050410E+02  0.17747233225E+02  0.30097825079E+02  0.51100000000E-03 0. -1.
        -11    1    3    3    0    0  0.40391695628E+00 -0.10003560380E+02  0.25764635921E+01  0.10337917300E+02  0.51100000000E-03 0.  1.
        -12    1    3    3    0    0  0.23279991293E+02  0.21922865872E+02 -0.17561375944E+01  0.32025834289E+02  0.00000000000E+00 0.  1.
</event>
<event>
 7    1  0.2932676E-013  0.7246158E+02  0.7816164E-02  0.1226708E+00
        -11   -1    0    0    0    0  0.00000000000E+00  0.00000000000E+00  0.45593999997E+02  0.45594000000E+02  0.51100000000E-03 0. -1.
         11   -1    0    0    0    0 -0.00000000000E+00 -0.00000000000E+00 -0.45593999997E+02  0.45594000000E+02  0.51100000000E-03 0.  1.
    9900012    2    1    2    0    0 -0.77954547526E+01 -0.78874563448E+01 -0.15089658475E+02  0.72461578150E+02  0.70000010234E+02 0.  0.
         12    1    1    2    0    0  0.77954547526E+01  0.78874563448E+01  0.15089658475E+02  0.18726421850E+02  0.00000000000E+00 0. -1.
         11    1    3    3    0    0 -0.15579871409E+02  0.14994994435E+02  0.56425770764E+01  0.22347727570E+02  0.51100000000E-03 0. -1.
        -11    1    3    3    0    0  0.77844106993E+01 -0.12340531826E+01 -0.26551789489E+02  0.27696885430E+02  0.51100000000E-03 0.  1.
         12    1    3    3    0    0  0.59569180930E-05 -0.21648397597E+02  0.58195539373E+01  0.22416965150E+02  0.00000000000E+00 0. -1.
</event>
<event>
 7    1  0.2932676E-013  0.7246152E+02  0.7816164E-02  0.1226708E+00
        -11   -1    0    0    0    0  0.00000000000E+00  0.00000000000E+00  0.45593999997E+02  0.45594000000E+02  0.51100000000E-03 0.  1.
         11   -1    0    0    0    0 -0.00000000000E+00 -0.00000000000E+00 -0.45593999997E+02  0.45594000000E+02  0.51100000000E-03 0. -1.
    9900012    2    1    2    0    0  0.13229628492E+02  0.12256878161E+02  0.50424994467E+01  0.72461523210E+02  0.69999938664E+02 0.  0.
         12    1    1    2    0    0 -0.13229628492E+02 -0.12256878161E+02 -0.50424994467E+01  0.18726476790E+02  0.00000000000E+00 0. -1.
         11    1    3    3    0    0  0.24510306847E+01  0.14287874361E+02 -0.15460289975E+01  0.14578789768E+02  0.51100000000E-03 0. -1.
        -11    1    3    3    0    0  0.22576150264E+02  0.10159450948E+02  0.23352439388E+02  0.34032828709E+02  0.51100000000E-03 0.  1.
        -12    1    3    3    0    0 -0.11797552457E+02 -0.12190447148E+02 -0.16763910944E+02  0.23849904733E+02  0.00000000000E+00 0.  1.
</event>
<event>
 7    1  0.2932676E-013  0.7246155E+02  0.7816164E-02  0.1226708E+00
        -11   -1    0    0    0    0  0.00000000000E+00  0.00000000000E+00  0.45593999997E+02  0.45594000000E+02  0.51100000000E-03 0. -1.
         11   -1    0    0    0    0 -0.00000000000E+00 -0.00000000000E+00 -0.45593999997E+02  0.45594000000E+02  0.51100000000E-03 0.  1.
    9900012    2    1    2    0    0  0.98451757519E+01  0.15053963054E+02 -0.52086919666E+01  0.72461554496E+02  0.69999979420E+02 0.  0.
         12    1    1    2    0    0 -0.98451757519E+01 -0.15053963054E+02  0.52086919666E+01  0.18726445504E+02  0.00000000000E+00 0. -1.
         11    1    3    3    0    0 -0.26152132647E+01  0.53903100454E+01  0.41450808499E+01  0.72853605483E+01  0.51100000000E-03 0. -1.
        -11    1    3    3    0    0 -0.11488871966E+02  0.29410414731E+02 -0.12537836631E+02  0.33972989585E+02  0.51100000000E-03 0.  1.
         12    1    3    3    0    0  0.23949260983E+02 -0.19746761722E+02  0.31840638145E+01  0.31203204363E+02  0.00000000000E+00 0. -1.
</event>
<event>
 7    1  0.2932676E-013  0.7246171E+02  0.7816164E-02  0.1226708E+00
        -11   -1    0    0    0    0  0.00000000000E+00  0.00000000000E+00  0.45593999997E+02  0.45594000000E+02  0.51100000000E-03 0.  1.
         11   -1    0    0    0    0 -0.00000000000E+00 -0.00000000000E+00 -0.45593999997E+02  0.45594000000E+02  0.51100000000E-03 0. -1.
    9900012    2    1    2    0    0 -0.15309123794E+02 -0.10267460473E+02  0.32990759046E+01  0.72461710519E+02  0.70000182669E+02 0.  0.
         12    1    1    2    0    0  0.15309123794E+02  0.10267460473E+02 -0.32990759046E+01  0.18726289481E+02  0.00000000000E+00 0. -1.
         11    1    3    3    0    0  0.97208345847E+01  0.10712967913E+02  0.83497274545E+01  0.16702702038E+02  0.51100000000E-03 0. -1.
        -11    1    3    3    0    0 -0.23678991659E+02 -0.25635367757E+02  0.12869205511E+02  0.37195203680E+02  0.51100000000E-03 0.  1.
         12    1    3    3    0    0 -0.13509667192E+01  0.46549393703E+01 -0.17919857061E+02  0.18563804802E+02  0.00000000000E+00 0. -1.
</event>
<event>
 7    1  0.2932676E-013  0.7246158E+02  0.7816164E-02  0.1226708E+00
        -11   -1    0    0    0    0  0.00000000000E+00  0.00000000000E+00  0.45593999997E+02  0.45594000000E+02  0.51100000000E-03 0. -1.
         11   -1    0    0    0    0 -0.00000000000E+00 -0.00000000000E+00 -0.45593999997E+02  0.45594000000E+02  0.51100000000E-03 0.  1.
    9900012    2    1    2    0    0  0.15359768640E+02  0.13236531823E+01 -0.10630351693E+02  0.72461576756E+02  0.70000008417E+02 0.  0.
         12    1    1    2    0    0 -0.15359768640E+02 -0.13236531823E+01  0.10630351693E+02  0.18726423244E+02  0.00000000000E+00 0. -1.
         11    1    3    3    0    0  0.25198104903E+01 -0.13021328793E+02 -0.16229668150E+02  0.20959641623E+02  0.51100000000E-03 0. -1.
        -11    1    3    3    0    0 -0.12857314291E+02 -0.95589709776E+01  0.43116610685E+00  0.16027175715E+02  0.51100000000E-03 0.  1.
        -12    1    3    3    0    0  0.25697272441E+02  0.23903952953E+02  0.51681503502E+01  0.35474759418E+02  0.00000000000E+00 0.  1.
</event>
<event>
 7    1  0.2932676E-013  0.7246176E+02  0.7816164E-02  0.1226708E+00
        -11   -1    0    0    0    0  0.00000000000E+00  0.00000000000E+00  0.45593999997E+02  0.45594000000E+02  0.51100000000E-03 0.  1.
         11   -1    0    0    0    0 -0.00000000000E+00 -0.00000000000E+00 -0.45593999997E+02  0.45594000000E+02  0.51100000000E-03 0. -1.
    9900012    2    1    2    0    0  0.11804780798E-01 -0.17361784563E+02  0.70171415115E+01  0.72461762322E+02  0.70000250152E+02 0.  0.
         12    1    1    2    0    0 -0.11804780798E-01  0.17361784563E+02 -0.70171415115E+01  0.18726237678E+02  0.00000000000E+00 0. -1.
         11    1    3    3    0    0 -0.30291953309E+01  0.22252989660E+02  0.42502852350E+01  0.22856869821E+02  0.51100000000E-03 0. -1.
        -11    1    3    3    0    0 -0.85125194506E+00 -0.12650597961E+02 -0.12974013908E+02  0.18140763374E+02  0.51100000000E-03 0.  1.
        -12    1    3    3    0    0  0.38922520568E+01 -0.26964176263E+02  0.15740870184E+02  0.31464129127E+02  0.00000000000E+00 0.  1.
</event>
<event>
 7    1  0.2932676E-013  0.7246156E+02  0.7816164E-02  0.1226708E+00
        -11   -1    0    0    0    0  0.00000000000E+00  0.00000000000E+00  0.45593999997E+02  0.45594000000E+02  0.51100000000E-03 0. -1.
         11   -1    0    0    0    0 -0.00000000000E+00 -0.00000000000E+00 -0.45593999997E+02  0.45594000000E+02  0.51100000000E-03 0.  1.
    9900012    2    1    2    0    0 -0.15363901331E+02 -0.13174027570E+01 -0.10625177446E+02  0.72461563877E+02  0.69999991640E+02 0.  0.
         12    1    1    2    0    0  0.15363901331E+02  0.13174027570E+01  0.10625177446E+02  0.18726436123E+02  0.00000000000E+00 0. -1.
         11    1    3    3    0    0 -0.11072998556E+02  0.18138054453E+02  0.21856305365E+02  0.30484396022E+02  0.51100000000E-03 0. -1.
        -11    1    3    3    0    0  0.29893010053E+01  0.11044930215E+00 -0.13281069453E+02  0.13613777052E+02  0.51100000000E-03 0.  1.
        -12    1    3    3    0    0 -0.72802037799E+01 -0.19565906512E+02 -0.19200413358E+02  0.28363390802E+02  0.00000000000E+00 0.  1.
</event>
<event>
 7    1  0.2932676E-013  0.7246158E+02  0.7816164E-02  0.1226708E+00
        -11   -1    0    0    0    0  0.00000000000E+00  0.00000000000E+00  0.45593999997E+02  0.45594000000E+02  0.51100000000E-03 0. -1.
         11   -1    0    0    0    0 -0.00000000000E+00 -0.00000000000E+00 -0.45593999997E+02  0.45594000000E+02  0.51100000000E-03 0.  1.
    9900012    2    1    2    0    0 -0.38730976719E+00 -0.93138476613E+00 -0.18699235901E+02  0.72461577231E+02  0.70000009036E+02 0.  0.
         12    1    1    2    0    0  0.38730976719E+00  0.93138476613E+00  0.18699235901E+02  0.18726422769E+02  0.00000000000E+00 0. -1.
         11    1    3    3    0    0  0.33396642080E+01 -0.16415429169E+00  0.13366101748E+01  0.36009485797E+01  0.51100000000E-03 0. -1.
        -11    1    3    3    0    0  0.50367579729E+00 -0.43274542572E+01 -0.44026240138E+02  0.44241274514E+02  0.51100000000E-03 0.  1.
         12    1    3    3    0    0 -0.42306497725E+01  0.35602237827E+01  0.23990394062E+02  0.24619354138E+02  0.00000000000E+00 0. -1.
</event>
<event>
 7    1  0.2932676E-013  0.7246162E+02  0.7816164E-02  0.1226708E+00
        -11   -1    0    0    0    0  0.00000000000E+00  0.00000000000E+00  0.45593999997E+02  0.45594000000E+02  0.51100000000E-03 0. -1.
         11   -1    0    0    0    0 -0.00000000000E+00 -0.00000000000E+00 -0.45593999997E+02  0.45594000000E+02  0.51100000000E-03 0.  1.
    9900012    2    1    2    0    0 -0.17394202253E+02  0.69272946497E+01 -0.36285199995E+00  0.72461619016E+02  0.70000063470E+02 0.  0.
         12    1    1    2    0    0  0.17394202253E+02 -0.69272946497E+01  0.36285199995E+00  0.18726380984E+02  0.00000000000E+00 0. -1.
         11    1    3    3    0    0  0.13378026658E+02  0.80299978837E+01  0.23859019361E+02  0.28507986046E+02  0.51100000000E-03 0. -1.
        -11    1    3    3    0    0 -0.46979898733E+01  0.67542230461E+01 -0.10846685084E+02  0.13614008057E+02  0.51100000000E-03 0.  1.
        -12    1    3    3    0    0 -0.26074239037E+02 -0.78569262800E+01 -0.13375186278E+02  0.30339624913E+02  0.00000000000E+00 0.  1.
</event>
<event>
 7    1  0.2932676E-013  0.7246154E+02  0.7816164E-02  0.1226708E+00
        -11   -1    0    0    0    0  0.00000000000E+00  0.00000000000E+00  0.45593999997E+02  0.45594000000E+02  0.51100000000E-03 0. -1.
         11   -1    0    0    0    0 -0.00000000000E+00 -0.00000000000E+00 -0.45593999997E+02  0.45594000000E+02  0.51100000000E-03 0.  1.
    9900012    2    1    2    0    0 -0.10931142091E+02 -0.38729967484E+01 -0.14703406526E+02  0.72461544524E+02  0.69999966429E+02 0.  0.
         12    1    1    2    0    0  0.10931142091E+02  0.38729967484E+01  0.14703406526E+02  0.18726455476E+02  0.00000000000E+00 0. -1.
         11    1    3    3    0    0 -0.17377536098E+02 -0.80062775719E+01  0.54748731131E+01  0.19901092364E+02  0.51100000000E-03 0. -1.
        -11    1    3    3    0    0  0.49147639480E+01  0.17051498629E+02  0.95200173649E+01  0.20138004892E+02  0.51100000000E-03 0.  1.
        -12    1    3    3    0    0  0.15316300593E+01 -0.12918217805E+02 -0.29698297004E+02  0.32422447268E+02  0.00000000000E+00 0.  1.
</event>
<event>
 7    1  0.2932676E-013  0.7246159E+02  0.7816164E-02  0.1226708E+00
        -11   -1    0    0    0    0  0.00000000000E+00  0.00000000000E+00  0.45593999997E+02  0.45594000000E+02  0.51100000000E-03 0.  1.
         11   -1    0    0    0    0 -0.00000000000E+00 -0.00000000000E+00 -0.45593999997E+02  0.45594000000E+02  0.51100000000E-03 0. -1.
    9900012    2    1    2    0    0 -0.90262674339E+01  0.16400642264E+02  0.47321775740E+00  0.72461588024E+02  0.70000023096E+02 0.  0.
         12    1    1    2    0    0  0.90262674339E+01 -0.16400642264E+02 -0.47321775740E+00  0.18726411976E+02  0.00000000000E+00 0. -1.
         11    1    3    3    0    0 -0.16794536628E+01  0.22521865731E+02 -0.83201738322E+01  0.24068242425E+02  0.51100000000E-03 0. -1.
        -11    1    3    3    0    0  0.16259946689E+02  0.70671127620E+01  0.11630901608E+02  0.21203957687E+02  0.51100000000E-03 0.  1.
         12    1    3    3    0    0 -0.23606760460E+02 -0.13188336228E+02 -0.28375100185E+01  0.27189387911E+02  0.00000000000E+00 0. -1.
</event>
<event>
 7    1  0.2932676E-013  0.7246150E+02  0.7816164E-02  0.1226708E+00
        -11   -1    0    0    0    0  0.00000000000E+00  0.00000000000E+00  0.45593999997E+02  0.45594000000E+02  0.51100000000E-03 0.  1.
         11   -1    0    0    0    0 -0.00000000000E+00 -0.00000000000E+00 -0.45593999997E+02  0.45594000000E+02  0.51100000000E-03 0. -1.
    9900012    2    1    2    0    0 -0.85615079533E+01  0.13450123132E+02  0.98222404830E+01  0.72461504364E+02  0.69999914113E+02 0.  0.
         12    1    1    2    0    0  0.85615079533E+01 -0.13450123132E+02 -0.98222404830E+01  0.18726495636E+02  0.00000000000E+00 0. -1.
         11    1    3    3    0    0  0.19267263448E+02 -0.10928684957E+02  0.21949940278E+01  0.22259415866E+02  0.51100000000E-03 0. -1.
        -11    1    3    3    0    0  0.62202473712E+01  0.38405963767E+01  0.74504746974E+01  0.10437970654E+02  0.51100000000E-03 0.  1.
         12    1    3    3    0    0 -0.34049018772E+02  0.20538211712E+02  0.17677175788E+00  0.39764117844E+02  0.00000000000E+00 0. -1.
</event>
<event>
 7    1  0.2932676E-013  0.7246154E+02  0.7816164E-02  0.1226708E+00
        -11   -1    0    0    0    0  0.00000000000E+00  0.00000000000E+00  0.45593999997E+02  0.45594000000E+02  0.51100000000E-03 0. -1.
         11   -1    0    0    0    0 -0.00000000000E+00 -0.00000000000E+00 -0.45593999997E+02  0.45594000000E+02  0.51100000000E-03 0.  1.
    9900012    2    1    2    0    0 -0.10191875299E+02 -0.10664554233E+02 -0.11535731112E+02  0.72461544613E+02  0.69999966545E+02 0.  0.
         12    1    1    2    0    0  0.10191875299E+02  0.10664554233E+02  0.11535731112E+02  0.18726455387E+02  0.00000000000E+00 0. -1.
         11    1    3    3    0    0  0.17618390850E+02 -0.17242100127E+02  0.12551160810E+02  0.27662779160E+02  0.51100000000E-03 0. -1.
        -11    1    3    3    0    0 -0.73434998978E+01 -0.57063159645E+01 -0.17849888926E+02  0.20127284158E+02  0.51100000000E-03 0.  1.
        -12    1    3    3    0    0 -0.20466766251E+02  0.12283861859E+02 -0.62370029954E+01  0.24671481295E+02  0.00000000000E+00 0.  1.
</event>
<event>
 7    1  0.2932676E-013  0.7246164E+02  0.7816164E-02  0.1226708E+00
        -11   -1    0    0    0    0  0.00000000000E+00  0.00000000000E+00  0.45593999997E+02  0.45594000000E+02  0.51100000000E-03 0.  1.
         11   -1    0    0    0    0 -0.00000000000E+00 -0.00000000000E+00 -0.45593999997E+02  0.45594000000E+02  0.51100000000E-03 0. -1.
    9900012    2    1    2    0    0 -0.15948341570E+02  0.88794600261E+01  0.41811867165E+01  0.72461635389E+02  0.70000084798E+02 0.  0.
         12    1    1    2    0    0  0.15948341570E+02 -0.88794600261E+01 -0.41811867165E+01  0.18726364611E+02  0.00000000000E+00 0. -1.
         11    1    3    3    0    0 -0.83634464000E+01  0.36663542966E+01 -0.12114622166E+02  0.15170809471E+02  0.51100000000E-03 0. -1.
        -11    1    3    3    0    0 -0.20202835246E+02 -0.77442367887E+01 -0.11212907485E+02  0.24369182382E+02  0.51100000000E-03 0.  1.
         12    1    3    3    0    0  0.12617940076E+02  0.12957342518E+02  0.27508716368E+02  0.32921643536E+02  0.00000000000E+00 0. -1.
</event>
<event>
 7    1  0.2932676E-013  0.7246154E+02  0.7816164E-02  0.1226708E+00
        -11   -1    0    0    0    0  0.00000000000E+00  0.00000000000E+00  0.45593999997E+02  0.45594000000E+02  0.51100000000E-03 0. -1.
         11   -1    0    0    0    0 -0.00000000000E+00 -0.00000000000E+00 -0.45593999997E+02  0.45594000000E+02  0.51100000000E-03 0.  1.
    9900012    2    1    2    0    0 -0.18649006038E+02 -0.33342402590E+00 -0.16684406641E+01  0.72461540323E+02  0.69999960957E+02 0.  0.
         12    1    1    2    0    0  0.18649006038E+02  0.33342402590E+00  0.16684406641E+01  0.18726459677E+02  0.00000000000E+00 0. -1.
         11    1    3    3    0    0 -0.32799598948E+02  0.14588452357E+02  0.15111453894E+02  0.38948590121E+02  0.51100000000E-03 0. -1.
        -11    1    3    3    0    0 -0.39706397253E+01 -0.76685008405E+01 -0.15917385550E+01  0.87809747100E+01  0.51100000000E-03 0.  1.
        -12    1    3    3    0    0  0.18121232636E+02 -0.72533755424E+01 -0.15188156003E+02  0.24731975493E+02  0.00000000000E+00 0.  1.
</event>
<event>
 7    1  0.2932676E-013  0.7246170E+02  0.7816164E-02  0.1226708E+00
        -11   -1    0    0    0    0  0.00000000000E+00  0.00000000000E+00  0.45593999997E+02  0.45594000000E+02  0.51100000000E-03 0.  1.
         11   -1    0    0    0    0 -0.00000000000E+00 -0.00000000000E+00 -0.45593999997E+02  0.45594000000E+02  0.51100000000E-03 0. -1.
    9900012    2    1    2    0    0  0.12970109330E+02 -0.11683175422E+02 -0.67789395406E+01  0.72461699103E+02  0.70000167797E+02 0.  0.
         12    1    1    2    0    0 -0.12970109330E+02  0.11683175422E+02  0.67789395406E+01  0.18726300897E+02  0.00000000000E+00 0. -1.
         11    1    3    3    0    0  0.50931476643E+01  0.12842510459E+02  0.10744237468E+02  0.17501681835E+02  0.51100000000E-03 0. -1.
        -11    1    3    3    0    0  0.14352640260E+02  0.54153664126E+01  0.58606333780E+01  0.16421677736E+02  0.51100000000E-03 0.  1.
         12    1    3    3    0    0 -0.64756785939E+01 -0.29941052294E+02 -0.23383810387E+02  0.38538339532E+02  0.00000000000E+00 0. -1.
</event>
<event>
 7    1  0.2932676E-013  0.7246157E+02  0.7816164E-02  0.1226708E+00
        -11   -1    0    0    0    0  0.00000000000E+00  0.00000000000E+00  0.45593999997E+02  0.45594000000E+02  0.51100000000E-03 0.  1.
         11   -1    0    0    0    0 -0.00000000000E+00 -0.00000000000E+00 -0.45593999997E+02  0.45594000000E+02  0.51100000000E-03 0. -1.
    9900012    2    1    2    0    0 -0.73138836771E+00 -0.17480983485E+02  0.66752742275E+01  0.72461574859E+02  0.70000005947E+02 0.  0.
         12    1    1    2    0    0  0.73138836771E+00  0.17480983485E+02 -0.66752742275E+01  0.18726425141E+02  0.00000000000E+00 0. -1.
         11    1    3    3    0    0  0.30416007922E+01  0.30995817465E+01 -0.64769507835E+01  0.77980532247E+01  0.51100000000E-03 0. -1.
        -11    1    3    3    0    0  0.71152067684E+01  0.19126323532E+02 -0.26175645069E+01  0.20574111486E+02  0.51100000000E-03 0.  1.
        -12    1    3    3    0    0 -0.10888195928E+02 -0.39706888763E+02  0.15769789518E+02  0.44089410149E+02  0.00000000000E+00 0.  1.
</event>
<event>
 7    1  0.2932676E-013  0.7246160E+02  0.7816164E-02  0.1226708E+00
        -11   -1    0    0    0    0  0.00000000000E+00  0.00000000000E+00  0.45593999997E+02  0.45594000000E+02  0.51100000000E-03 0.  1.
         11   -1    0    0    0    0 -0.00000000000E+00 -0.00000000000E+00 -0.45593999997E+02  0.45594000000E+02  0.51100000000E-03 0. -1.
    9900012    2    1    2    0    0 -0.17593162996E+02 -0.35362234084E+01  0.53529286443E+01  0.72461598710E+02  0.70000037017E+02 0.  0.
         12    1    1    2    0    0  0.17593162996E+02  0.35362234084E+01 -0.53529286443E+01  0.18726401290E+02  0.00000000000E+00 0. -1.
         11    1    3    3    0    0 -0.16643999566E+01  0.12144700848E+02 -0.10536664131E+02  0.16164321117E+02  0.51100000000E-03 0. -1.
        -11    1    3    3    0    0 -0.41747535596E+01  0.28974713501E+01 -0.16436382275E+02  0.17204027727E+02  0.51100000000E-03 0.  1.
        -12    1    3    3    0    0 -0.11754009480E+02 -0.18578395607E+02  0.32325975050E+02  0.39093249866E+02  0.00000000000E+00 0.  1.
</event>
<event>
 7    1  0.2932676E-013  0.7246155E+02  0.7816164E-02  0.1226708E+00
        -11   -1    0    0    0    0  0.00000000000E+00  0.00000000000E+00  0.45593999997E+02  0.45594000000E+02  0.51100000000E-03 0. -1.
         11   -1    0    0    0    0 -0.00000000000E+00 -0.00000000000E+00 -0.45593999997E+02  0.45594000000E+02  0.51100000000E-03 0.  1.
    9900012    2    1    2    0    0  0.25247237330E+01 -0.16823494396E+02 -0.78278783531E+01  0.72461551508E+02  0.69999975527E+02 0.  0.
         12    1    1    2    0    0 -0.25247237330E+01  0.16823494396E+02  0.78278783531E+01  0.18726448492E+02  0.00000000000E+00 0. -1.
         11    1    3    3    0    0 -0.44542447141E+01 -0.14921115578E+02  0.71833151189E+01  0.17148760959E+02  0.51100000000E-03 0. -1.
        -11    1    3    3    0    0  0.75503013259E+01 -0.57774104908E+01 -0.34319091011E+02  0.35611592638E+02  0.51100000000E-03 0.  1.
         12    1    3    3    0    0 -0.57133287882E+00  0.38750316731E+01  0.19307897540E+02  0.19701197911E+02  0.00000000000E+00 0. -1.
</event>
<event>
 7    1  0.2932676E-013  0.7246157E+02  0.7816164E-02  0.1226708E+00
        -11   -1    0    0    0    0  0.00000000000E+00  0.00000000000E+00  0.45593999997E+02  0.45594000000E+02  0.51100000000E-03 0. -1.
         11   -1    0    0    0    0 -0.00000000000E+00 -0.00000000000E+00 -0.45593999997E+02  0.45594000000E+02  0.51100000000E-03 0.  1.
    9900012    2    1    2    0    0 -0.84042638505E+01 -0.10419903343E+02 -0.13094769488E+02  0.72461574167E+02  0.70000005044E+02 0.  0.
         12    1    1    2    0    0  0.84042638505E+01  0.10419903343E+02  0.13094769488E+02  0.18726425833E+02  0.00000000000E+00 0. -1.
         11    1    3    3    0    0  0.11925052864E+01 -0.86410316142E+01  0.77506622345E+01  0.11668858622E+02  0.51100000000E-03 0. -1.
        -11    1    3    3    0    0  0.19233041667E+02 -0.76652220741E+00 -0.25102430622E+02  0.31632727853E+02  0.51100000000E-03 0.  1.
         12    1    3    3    0    0 -0.28829810804E+02 -0.10123495208E+01  0.42569988989E+01  0.29159987691E+02  0.00000000000E+00 0. -1.
</event>
<event>
 7    1  0.2932676E-013  0.7246148E+02  0.7816164E-02  0.1226708E+00
        -11   -1    0    0    0    0  0.00000000000E+00  0.00000000000E+00  0.45593999997E+02  0.45594000000E+02  0.51100000000E-03 0.  1.
         11   -1    0    0    0    0 -0.00000000000E+00 -0.00000000000E+00 -0.45593999997E+02  0.45594000000E+02  0.51100000000E-03 0. -1.
    9900012    2    1    2    0    0 -0.60440640029E+01 -0.17079082576E+02  0.47388526773E+01  0.72461481477E+02  0.69999884298E+02 0.  0.
         12    1    1    2    0    0  0.60440640029E+01  0.17079082576E+02 -0.47388526773E+01  0.18726518523E+02  0.00000000000E+00 0. -1.
         11    1    3    3    0    0  0.82320218789E+01 -0.14147278117E+02 -0.25928804256E+01  0.16572105826E+02  0.51100000000E-03 0. -1.
        -11    1    3    3    0    0  0.81002694007E+01 -0.16429951733E+02  0.19766430426E+02  0.26949386827E+02  0.51100000000E-03 0.  1.
         12    1    3    3    0    0 -0.22376355283E+02  0.13498147274E+02 -0.12434697324E+02  0.28939988823E+02  0.00000000000E+00 0. -1.
</event>
<event>
 7    1  0.2932676E-013  0.7246159E+02  0.7816164E-02  0.1226708E+00
        -11   -1    0    0    0    0  0.00000000000E+00  0.00000000000E+00  0.45593999997E+02  0.45594000000E+02  0.51100000000E-03 0.  1.
         11   -1    0    0    0    0 -0.00000000000E+00 -0.00000000000E+00 -0.45593999997E+02  0.45594000000E+02  0.51100000000E-03 0. -1.
    9900012    2    1    2    0    0  0.18689288152E+02 -0.30739908661E+00 -0.11377441490E+01  0.72461589571E+02  0.70000025111E+02 0.  0.
         12    1    1    2    0    0 -0.18689288152E+02  0.30739908661E+00  0.11377441490E+01  0.18726410429E+02  0.00000000000E+00 0. -1.
         11    1    3    3    0    0 -0.16105368548E+02 -0.64223862401E+01  0.46783967294E+01  0.17958767700E+02  0.51100000000E-03 0. -1.
        -11    1    3    3    0    0  0.11660539896E+02 -0.16019526052E+02 -0.10032028278E+02  0.22208894552E+02  0.51100000000E-03 0.  1.
        -12    1    3    3    0    0  0.23134116804E+02  0.22134513206E+02  0.42158873991E+01  0.32293927319E+02  0.00000000000E+00 0.  1.
</event>
<event>
 7    1  0.2932676E-013  0.7246155E+02  0.7816164E-02  0.1226708E+00
        -11   -1    0    0    0    0  0.00000000000E+00  0.00000000000E+00  0.45593999997E+02  0.45594000000E+02  0.51100000000E-03 0. -1.
         11   -1    0    0    0    0 -0.00000000000E+00 -0.00000000000E+00 -0.45593999997E+02  0.45594000000E+02  0.51100000000E-03 0.  1.
    9900012    2    1    2    0    0 -0.28520051343E+01  0.11357183169E+01 -0.18473114989E+02  0.72461554348E+02  0.69999979227E+02 0.  0.
         12    1    1    2    0    0  0.28520051343E+01 -0.11357183169E+01  0.18473114989E+02  0.18726445652E+02  0.00000000000E+00 0. -1.
         11    1    3    3    0    0  0.45292950624E+01 -0.42835733401E+00 -0.46216258087E+00  0.45729201043E+01  0.51100000000E-03 0. -1.
        -11    1    3    3    0    0  0.25059466815E+02  0.88652474126E+01 -0.21858460616E+02  0.34414557814E+02  0.51100000000E-03 0.  1.
         12    1    3    3    0    0 -0.32440767012E+02 -0.73011717617E+01  0.38475082087E+01  0.33474076430E+02  0.00000000000E+00 0. -1.
</event>
<event>
 7    1  0.2932676E-013  0.7246160E+02  0.7816164E-02  0.1226708E+00
        -11   -1    0    0    0    0  0.00000000000E+00  0.00000000000E+00  0.45593999997E+02  0.45594000000E+02  0.51100000000E-03 0. -1.
         11   -1    0    0    0    0 -0.00000000000E+00 -0.00000000000E+00 -0.45593999997E+02  0.45594000000E+02  0.51100000000E-03 0.  1.
    9900012    2    1    2    0    0  0.18223808246E+02  0.17985950108E+01 -0.39161287972E+01  0.72461596294E+02  0.70000033869E+02 0.  0.
         12    1    1    2    0    0 -0.18223808246E+02 -0.17985950108E+01  0.39161287972E+01  0.18726403706E+02  0.00000000000E+00 0. -1.
         11    1    3    3    0    0  0.78133444185E+01  0.17852453161E+01  0.11312006484E+02  0.13863511200E+02  0.51100000000E-03 0. -1.
        -11    1    3    3    0    0  0.54114176054E+01 -0.27715012586E+02 -0.98988858357E+01  0.29923123236E+02  0.51100000000E-03 0.  1.
         12    1    3    3    0    0  0.49990462225E+01  0.27728362280E+02 -0.53292494459E+01  0.28674961858E+02  0.00000000000E+00 0. -1.
</event>
<event>
 7    1  0.2932676E-013  0.7246167E+02  0.7816164E-02  0.1226708E+00
        -11   -1    0    0    0    0  0.00000000000E+00  0.00000000000E+00  0.45593999997E+02  0.45594000000E+02  0.51100000000E-03 0. -1.
         11   -1    0    0    0    0 -0.00000000000E+00 -0.00000000000E+00 -0.45593999997E+02  0.45594000000E+02  0.51100000000E-03 0.  1.
    9900012    2    1    2    0    0 -0.14225884620E+01 -0.15534653704E+02  0.10359843489E+02  0.72461666116E+02  0.70000124825E+02 0.  0.
         12    1    1    2    0    0  0.14225884620E+01  0.15534653704E+02 -0.10359843489E+02  0.18726333884E+02  0.00000000000E+00 0. -1.
         11    1    3    3    0    0  0.16325494239E+02 -0.21735997017E+02  0.18440778803E+02  0.32848708522E+02  0.51100000000E-03 0. -1.
        -11    1    3    3    0    0  0.91803638097E+01 -0.39576404136E+01 -0.22527963004E+01  0.10247784578E+02  0.51100000000E-03 0.  1.
        -12    1    3    3    0    0 -0.26928446511E+02  0.10158983727E+02 -0.58281390132E+01  0.29365173015E+02  0.00000000000E+00 0.  1.
</event>
<event>
 7    1  0.2932676E-013  0.7246143E+02  0.7816164E-02  0.1226708E+00
        -11   -1    0    0    0    0  0.00000000000E+00  0.00000000000E+00  0.45593999997E+02  0.45594000000E+02  0.51100000000E-03 0. -1.
         11   -1    0    0    0    0 -0.00000000000E+00 -0.00000000000E+00 -0.45593999997E+02  0.45594000000E+02  0.51100000000E-03 0.  1.
    9900012    2    1    2    0    0  0.15273886498E+02 -0.77384855737E+01 -0.75834512182E+01  0.72461427967E+02  0.69999814592E+02 0.  0.
         12    1    1    2    0    0 -0.15273886498E+02  0.77384855737E+01  0.75834512182E+01  0.18726572033E+02  0.00000000000E+00 0. -1.
         11    1    3    3    0    0  0.19551939961E+00 -0.49846583274E+01  0.78986609362E+01  0.93420496318E+01  0.51100000000E-03 0. -1.
        -11    1    3    3    0    0  0.12653275339E+01  0.11527569806E+02  0.19616135150E+02  0.22787686980E+02  0.51100000000E-03 0.  1.
        -12    1    3    3    0    0  0.13813039564E+02 -0.14281397052E+02 -0.35098247305E+02  0.40331691356E+02  0.00000000000E+00 0.  1.
</event>
<event>
 7    1  0.2932676E-013  0.7246161E+02  0.7816164E-02  0.1226708E+00
        -11   -1    0    0    0    0  0.00000000000E+00  0.00000000000E+00  0.45593999997E+02  0.45594000000E+02  0.51100000000E-03 0. -1.
         11   -1    0    0    0    0 -0.00000000000E+00 -0.00000000000E+00 -0.45593999997E+02  0.45594000000E+02  0.51100000000E-03 0.  1.
    9900012    2    1    2    0    0  0.10176340448E+01  0.11747614400E+02 -0.14547700101E+02  0.72461612164E+02  0.70000054543E+02 0.  0.
         12    1    1    2    0    0 -0.10176340448E+01 -0.11747614400E+02  0.14547700101E+02  0.18726387836E+02  0.00000000000E+00 0. -1.
         11    1    3    3    0    0 -0.12463049971E+02  0.34409904184E+02  0.55846599622E+01  0.37021041958E+02  0.51100000000E-03 0. -1.
        -11    1    3    3    0    0  0.16180939218E+01  0.11834567803E+01 -0.35202254385E+01  0.40510227461E+01  0.51100000000E-03 0.  1.
        -12    1    3    3    0    0  0.11862590094E+02 -0.23845746564E+02 -0.16612134625E+02  0.31389547460E+02  0.00000000000E+00 0.  1.
</event>
<event>
 7    1  0.2932676E-013  0.7246157E+02  0.7816164E-02  0.1226708E+00
        -11   -1    0    0    0    0  0.00000000000E+00  0.00000000000E+00  0.45593999997E+02  0.45594000000E+02  0.51100000000E-03 0. -1.
         11   -1    0    0    0    0 -0.00000000000E+00 -0.00000000000E+00 -0.45593999997E+02  0.45594000000E+02  0.51100000000E-03 0.  1.
    9900012    2    1    2    0    0 -0.75840093278E+01 -0.17121707552E+02 -0.95022548662E-01  0.72461572250E+02  0.70000002548E+02 0.  0.
         12    1    1    2    0    0  0.75840093278E+01  0.17121707552E+02  0.95022548662E-01  0.18726427750E+02  0.00000000000E+00 0. -1.
         11    1    3    3    0    0 -0.15986693583E+00 -0.16574337678E+02  0.26197168679E+01  0.16780856463E+02  0.51100000000E-03 0. -1.
        -11    1    3    3    0    0  0.52266717928E+01 -0.25048451038E+02 -0.94816204946E+01  0.27288168221E+02  0.51100000000E-03 0.  1.
         12    1    3    3    0    0 -0.12650814185E+02  0.24501081164E+02  0.67668810781E+01  0.28392547565E+02  0.00000000000E+00 0. -1.
</event>
<event>
 7    1  0.2932676E-013  0.7246158E+02  0.7816164E-02  0.1226708E+00
        -11   -1    0    0    0    0  0.00000000000E+00  0.00000000000E+00  0.45593999997E+02  0.45594000000E+02  0.51100000000E-03 0.  1.
         11   -1    0    0    0    0 -0.00000000000E+00 -0.00000000000E+00 -0.45593999997E+02  0.45594000000E+02  0.51100000000E-03 0. -1.
    9900012    2    1    2    0    0  0.16834322762E+02 -0.73586439689E+01  0.36241642772E+01  0.72461584683E+02  0.70000018744E+02 0.  0.
         12    1    1    2    0    0 -0.16834322762E+02  0.73586439689E+01 -0.36241642772E+01  0.18726415317E+02  0.00000000000E+00 0. -1.
         11    1    3    3    0    0  0.34779923218E+01 -0.58433339390E+01 -0.51095213416E+01  0.85057739633E+01  0.51100000000E-03 0. -1.
        -11    1    3    3    0    0  0.18223803710E+02 -0.28358495942E+02  0.13406952964E+02  0.36277509586E+02  0.51100000000E-03 0.  1.
         12    1    3    3    0    0 -0.48674732700E+01  0.26843185912E+02 -0.46732673457E+01  0.27678301133E+02  0.00000000000E+00 0. -1.
</event>
<event>
 7    1  0.2932676E-013  0.7246165E+02  0.7816164E-02  0.1226708E+00
        -11   -1    0    0    0    0  0.00000000000E+00  0.00000000000E+00  0.45593999997E+02  0.45594000000E+02  0.51100000000E-03 0.  1.
         11   -1    0    0    0    0 -0.00000000000E+00 -0.00000000000E+00 -0.45593999997E+02  0.45594000000E+02  0.51100000000E-03 0. -1.
    9900012    2    1    2    0    0  0.87222040811E+01 -0.16013424433E+02  0.42625667831E+01  0.72461652740E+02  0.70000107401E+02 0.  0.
         12    1    1    2    0    0 -0.87222040811E+01  0.16013424433E+02 -0.42625667831E+01  0.18726347260E+02  0.00000000000E+00 0. -1.
         11    1    3    3    0    0  0.59685744831E+01 -0.10158520739E+01  0.52148204491E+01  0.79906313501E+01  0.51100000000E-03 0. -1.
        -11    1    3    3    0    0  0.26046364936E+02 -0.24887748209E+02  0.92381016320E+01  0.37190800735E+02  0.51100000000E-03 0.  1.
         12    1    3    3    0    0 -0.23292735338E+02  0.98901758501E+01 -0.10190355298E+02  0.27280220655E+02  0.00000000000E+00 0. -1.
</event>
<event>
 7    1  0.2932676E-013  0.7246157E+02  0.7816164E-02  0.1226708E+00
        -11   -1    0    0    0    0  0.00000000000E+00  0.00000000000E+00  0.45593999997E+02  0.45594000000E+02  0.51100000000E-03 0.  1.
         11   -1    0    0    0    0 -0.00000000000E+00 -0.00000000000E+00 -0.45593999997E+02  0.45594000000E+02  0.51100000000E-03 0. -1.
    9900012    2    1    2    0    0 -0.85248269627E+01 -0.97971883714E+01  0.13491539400E+02  0.72461569210E+02  0.69999998588E+02 0.  0.
         12    1    1    2    0    0  0.85248269627E+01  0.97971883714E+01 -0.13491539400E+02  0.18726430790E+02  0.00000000000E+00 0. -1.
         11    1    3    3    0    0  0.33506037874E+01 -0.98433437960E+01  0.32174187043E+02  0.33812664417E+02  0.51100000000E-03 0.  1.
        -11    1    3    3    0    0  0.24668816364E+01  0.62693978738E+01  0.62696519933E+01  0.92032272104E+01  0.51100000000E-03 0. -1.
        -12    1    3    3    0    0 -0.14342312387E+02 -0.62232424493E+01 -0.24952299636E+02  0.29445677583E+02  0.00000000000E+00 0.  1.
</event>
<event>
 7    1  0.2932676E-013  0.7246157E+02  0.7816164E-02  0.1226708E+00
        -11   -1    0    0    0    0  0.00000000000E+00  0.00000000000E+00  0.45593999997E+02  0.45594000000E+02  0.51100000000E-03 0.  1.
         11   -1    0    0    0    0 -0.00000000000E+00 -0.00000000000E+00 -0.45593999997E+02  0.45594000000E+02  0.51100000000E-03 0. -1.
    9900012    2    1    2    0    0 -0.53113245784E+00 -0.16652557960E+02  0.85492356319E+01  0.72461568995E+02  0.69999998307E+02 0.  0.
         12    1    1    2    0    0  0.53113245784E+00  0.16652557960E+02 -0.85492356319E+01  0.18726431005E+02  0.00000000000E+00 0. -1.
         11    1    3    3    0    0 -0.12600278098E+02 -0.13539768081E+02 -0.17390594845E+02  0.25387499230E+02  0.51100000000E-03 0. -1.
        -11    1    3    3    0    0  0.15224586561E+01 -0.93367165716E+01 -0.71063043915E+01  0.11831809628E+02  0.51100000000E-03 0.  1.
        -12    1    3    3    0    0  0.10546686985E+02  0.62239266927E+01  0.33046134868E+02  0.35242260137E+02  0.00000000000E+00 0.  1.
</event>
<event>
 7    1  0.2932676E-013  0.7246156E+02  0.7816164E-02  0.1226708E+00
        -11   -1    0    0    0    0  0.00000000000E+00  0.00000000000E+00  0.45593999997E+02  0.45594000000E+02  0.51100000000E-03 0. -1.
         11   -1    0    0    0    0 -0.00000000000E+00 -0.00000000000E+00 -0.45593999997E+02  0.45594000000E+02  0.51100000000E-03 0.  1.
    9900012    2    1    2    0    0 -0.13954321381E+02 -0.12093760006E+02  0.31140920235E+01  0.72461556520E+02  0.69999982056E+02 0.  0.
         12    1    1    2    0    0  0.13954321381E+02  0.12093760006E+02 -0.31140920235E+01  0.18726443480E+02  0.00000000000E+00 0. -1.
         11    1    3    3    0    0  0.27354629621E+01 -0.67346665205E+01  0.43392461176E-03  0.72690089564E+01  0.51100000000E-03 0.  1.
        -11    1    3    3    0    0  0.52580073898E+01 -0.22409384402E+02  0.21799595273E+02  0.31702515757E+02  0.51100000000E-03 0. -1.
         12    1    3    3    0    0 -0.21947791733E+02  0.17050290917E+02 -0.18685937175E+02  0.33490031806E+02  0.00000000000E+00 0. -1.
</event>
<event>
 7    1  0.2932676E-013  0.7246157E+02  0.7816164E-02  0.1226708E+00
        -11   -1    0    0    0    0  0.00000000000E+00  0.00000000000E+00  0.45593999997E+02  0.45594000000E+02  0.51100000000E-03 0.  1.
         11   -1    0    0    0    0 -0.00000000000E+00 -0.00000000000E+00 -0.45593999997E+02  0.45594000000E+02  0.51100000000E-03 0. -1.
    9900012    2    1    2    0    0 -0.91627480241E+01 -0.73356464597E+01  0.14591483204E+02  0.72461573687E+02  0.70000004420E+02 0.  0.
         12    1    1    2    0    0  0.91627480241E+01  0.73356464597E+01 -0.14591483204E+02  0.18726426313E+02  0.00000000000E+00 0. -1.
         11    1    3    3    0    0 -0.11737107579E+02 -0.65867343217E+01  0.16865401167E+02  0.21577453977E+02  0.51100000000E-03 0. -1.
        -11    1    3    3    0    0  0.13178267765E+02  0.19780526021E+02  0.86918475027E+01  0.25307788608E+02  0.51100000000E-03 0.  1.
         12    1    3    3    0    0 -0.10603908210E+02 -0.20529438159E+02 -0.10965765465E+02  0.25576331103E+02  0.00000000000E+00 0. -1.
</event>
<event>
 7    1  0.2932676E-013  0.7246167E+02  0.7816164E-02  0.1226708E+00
        -11   -1    0    0    0    0  0.00000000000E+00  0.00000000000E+00  0.45593999997E+02  0.45594000000E+02  0.51100000000E-03 0.  1.
         11   -1    0    0    0    0 -0.00000000000E+00 -0.00000000000E+00 -0.45593999997E+02  0.45594000000E+02  0.51100000000E-03 0. -1.
    9900012    2    1    2    0    0  0.17263544180E+02  0.68118353457E+01 -0.24988874406E+01  0.72461668356E+02  0.70000127743E+02 0.  0.
         12    1    1    2    0    0 -0.17263544180E+02 -0.68118353457E+01  0.24988874406E+01  0.18726331644E+02  0.00000000000E+00 0. -1.
         11    1    3    3    0    0 -0.14862883350E+02 -0.16638218515E+02  0.16618124302E+01  0.22371795584E+02  0.51100000000E-03 0. -1.
        -11    1    3    3    0    0 -0.89056537115E+00  0.13003718993E+02 -0.79271815426E+01  0.15255491529E+02  0.51100000000E-03 0.  1.
        -12    1    3    3    0    0  0.33016992901E+02  0.10446334867E+02  0.37664816717E+01  0.34834381243E+02  0.00000000000E+00 0.  1.
</event>
<event>
 7    1  0.2932676E-013  0.7246148E+02  0.7816164E-02  0.1226708E+00
        -11   -1    0    0    0    0  0.00000000000E+00  0.00000000000E+00  0.45593999997E+02  0.45594000000E+02  0.51100000000E-03 0. -1.
         11   -1    0    0    0    0 -0.00000000000E+00 -0.00000000000E+00 -0.45593999997E+02  0.45594000000E+02  0.51100000000E-03 0.  1.
    9900012    2    1    2    0    0 -0.12753477567E+02 -0.11663473257E+01 -0.13662763610E+02  0.72461476949E+02  0.69999878400E+02 0.  0.
         12    1    1    2    0    0  0.12753477567E+02  0.11663473257E+01  0.13662763610E+02  0.18726523051E+02  0.00000000000E+00 0. -1.
         11    1    3    3    0    0  0.95652246387E+01 -0.28558830335E+01  0.78071794176E+00  0.10012947171E+02  0.51100000000E-03 0. -1.
        -11    1    3    3    0    0 -0.18336545922E+02  0.59751434891E+01  0.19840469239E+02  0.27669034605E+02  0.51100000000E-03 0.  1.
        -12    1    3    3    0    0 -0.39821562830E+01 -0.42856077813E+01 -0.34283950790E+02  0.34779495173E+02  0.00000000000E+00 0.  1.
</event>
<event>
 7    1  0.2932676E-013  0.7246157E+02  0.7816164E-02  0.1226708E+00
        -11   -1    0    0    0    0  0.00000000000E+00  0.00000000000E+00  0.45593999997E+02  0.45594000000E+02  0.51100000000E-03 0.  1.
         11   -1    0    0    0    0 -0.00000000000E+00 -0.00000000000E+00 -0.45593999997E+02  0.45594000000E+02  0.51100000000E-03 0. -1.
    9900012    2    1    2    0    0 -0.18969402590E+01  0.17528882112E+02  0.63102510188E+01  0.72461565252E+02  0.69999993432E+02 0.  0.
         12    1    1    2    0    0  0.18969402590E+01 -0.17528882112E+02 -0.63102510188E+01  0.18726434748E+02  0.00000000000E+00 0. -1.
         11    1    3    3    0    0  0.12544379800E+01  0.32496204824E+01 -0.22173626169E+02  0.22445564053E+02  0.51100000000E-03 0. -1.
        -11    1    3    3    0    0 -0.53220013966E+01  0.23980949900E+02  0.57863147599E+01  0.25236701364E+02  0.51100000000E-03 0.  1.
         12    1    3    3    0    0  0.21706231577E+01 -0.97016882701E+01  0.22697562427E+02  0.24779299835E+02  0.00000000000E+00 0. -1.
</event>
<event>
 7    1  0.2932676E-013  0.7246161E+02  0.7816164E-02  0.1226708E+00
        -11   -1    0    0    0    0  0.00000000000E+00  0.00000000000E+00  0.45593999997E+02  0.45594000000E+02  0.51100000000E-03 0.  1.
         11   -1    0    0    0    0 -0.00000000000E+00 -0.00000000000E+00 -0.45593999997E+02  0.45594000000E+02  0.51100000000E-03 0. -1.
    9900012    2    1    2    0    0  0.43596796526E+01 -0.16535416487E+02  0.76322164481E+01  0.72461613990E+02  0.70000056922E+02 0.  0.
         12    1    1    2    0    0 -0.43596796526E+01  0.16535416487E+02 -0.76322164481E+01  0.18726386010E+02  0.00000000000E+00 0. -1.
         11    1    3    3    0    0 -0.25471004539E+02  0.39808825404E+01 -0.97274876858E+00  0.25798560782E+02  0.51100000000E-03 0. -1.
        -11    1    3    3    0    0 -0.36717100596E+01 -0.46854859389E+01  0.75225243027E+01  0.95928934838E+01  0.51100000000E-03 0.  1.
        -12    1    3    3    0    0  0.33502394251E+02 -0.15830813089E+02  0.10824409140E+01  0.37070159724E+02  0.00000000000E+00 0.  1.
</event>
<event>
 7    1  0.2932676E-013  0.7246158E+02  0.7816164E-02  0.1226708E+00
        -11   -1    0    0    0    0  0.00000000000E+00  0.00000000000E+00  0.45593999997E+02  0.45594000000E+02  0.51100000000E-03 0. -1.
         11   -1    0    0    0    0 -0.00000000000E+00 -0.00000000000E+00 -0.45593999997E+02  0.45594000000E+02  0.51100000000E-03 0.  1.
    9900012    2    1    2    0    0 -0.14689590675E+02  0.11544706283E+02 -0.12706547445E+01  0.72461578002E+02  0.70000010041E+02 0.  0.
         12    1    1    2    0    0  0.14689590675E+02 -0.11544706283E+02  0.12706547445E+01  0.18726421998E+02  0.00000000000E+00 0. -1.
         11    1    3    3    0    0 -0.11112662753E+02 -0.15146622462E+02  0.10504723193E+01  0.18815284686E+02  0.51100000000E-03 0. -1.
        -11    1    3    3    0    0 -0.18911076125E+02 -0.30054466054E+01  0.41762271257E+01  0.19598530118E+02  0.51100000000E-03 0.  1.
         12    1    3    3    0    0  0.15334148204E+02  0.29696775350E+02 -0.64973541894E+01  0.34047763198E+02  0.00000000000E+00 0. -1.
</event>
<event>
 7    1  0.2932676E-013  0.7246156E+02  0.7816164E-02  0.1226708E+00
        -11   -1    0    0    0    0  0.00000000000E+00  0.00000000000E+00  0.45593999997E+02  0.45594000000E+02  0.51100000000E-03 0.  1.
         11   -1    0    0    0    0 -0.00000000000E+00 -0.00000000000E+00 -0.45593999997E+02  0.45594000000E+02  0.51100000000E-03 0. -1.
    9900012    2    1    2    0    0 -0.27813684124E+01  0.18230621864E+02  0.32539061909E+01  0.72461561757E+02  0.69999988878E+02 0.  0.
         12    1    1    2    0    0  0.27813684124E+01 -0.18230621864E+02 -0.32539061909E+01  0.18726438243E+02  0.00000000000E+00 0. -1.
         11    1    3    3    0    0 -0.32624889492E+01 -0.10990168657E+02 -0.47818796494E+01  0.12421514179E+02  0.51100000000E-03 0. -1.
        -11    1    3    3    0    0 -0.13070699549E+02  0.38615255559E+02  0.13049533985E+02  0.42805040428E+02  0.51100000000E-03 0.  1.
         12    1    3    3    0    0  0.13551820085E+02 -0.93944650379E+01 -0.50137481449E+01  0.17235007149E+02  0.00000000000E+00 0. -1.
</event>
<event>
 7    1  0.2932676E-013  0.7246159E+02  0.7816164E-02  0.1226708E+00
        -11   -1    0    0    0    0  0.00000000000E+00  0.00000000000E+00  0.45593999997E+02  0.45594000000E+02  0.51100000000E-03 0.  1.
         11   -1    0    0    0    0 -0.00000000000E+00 -0.00000000000E+00 -0.45593999997E+02  0.45594000000E+02  0.51100000000E-03 0. -1.
    9900012    2    1    2    0    0  0.94197183040E+01  0.15972046113E+02 -0.26155705495E+01  0.72461586588E+02  0.70000021226E+02 0.  0.
         12    1    1    2    0    0 -0.94197183040E+01 -0.15972046113E+02  0.26155705495E+01  0.18726413412E+02  0.00000000000E+00 0. -1.
         11    1    3    3    0    0 -0.10489111214E+02 -0.17545451879E+02 -0.73823447516E+01  0.21733921643E+02  0.51100000000E-03 0. -1.
        -11    1    3    3    0    0 -0.56180884174E+01  0.21476813822E+01  0.81654061546E+01  0.10141464920E+02  0.51100000000E-03 0.  1.
        -12    1    3    3    0    0  0.25526917935E+02  0.31369816610E+02 -0.33986319526E+01  0.40586200026E+02  0.00000000000E+00 0.  1.
</event>
<event>
 7    1  0.2932676E-013  0.7246153E+02  0.7816164E-02  0.1226708E+00
        -11   -1    0    0    0    0  0.00000000000E+00  0.00000000000E+00  0.45593999997E+02  0.45594000000E+02  0.51100000000E-03 0.  1.
         11   -1    0    0    0    0 -0.00000000000E+00 -0.00000000000E+00 -0.45593999997E+02  0.45594000000E+02  0.51100000000E-03 0. -1.
    9900012    2    1    2    0    0 -0.12966307912E+02 -0.83637109859E+01  0.10611493059E+02  0.72461532440E+02  0.69999950688E+02 0.  0.
         12    1    1    2    0    0  0.12966307912E+02  0.83637109859E+01 -0.10611493059E+02  0.18726467560E+02  0.00000000000E+00 0. -1.
         11    1    3    3    0    0 -0.77123378535E+01 -0.15949858199E+02 -0.15918736218E+02  0.23817730680E+02  0.51100000000E-03 0. -1.
        -11    1    3    3    0    0 -0.89552917929E+01  0.94505991095E+01 -0.70519956442E+01  0.14806813211E+02  0.51100000000E-03 0.  1.
        -12    1    3    3    0    0  0.37013217347E+01 -0.18644518968E+01  0.33582224921E+02  0.33836988550E+02  0.00000000000E+00 0.  1.
</event>
<event>
 7    1  0.2932676E-013  0.7246128E+02  0.7816164E-02  0.1226709E+00
        -11   -1    0    0    0    0  0.00000000000E+00  0.00000000000E+00  0.45593999997E+02  0.45594000000E+02  0.51100000000E-03 0. -1.
         11   -1    0    0    0    0 -0.00000000000E+00 -0.00000000000E+00 -0.45593999997E+02  0.45594000000E+02  0.51100000000E-03 0.  1.
    9900012    2    1    2    0    0 -0.44812688140E+01  0.14945127694E+02 -0.10356218403E+02  0.72461284549E+02  0.69999627763E+02 0.  0.
         12    1    1    2    0    0  0.44812688140E+01 -0.14945127694E+02  0.10356218403E+02  0.18726715451E+02  0.00000000000E+00 0. -1.
         11    1    3    3    0    0  0.90555374177E+01  0.16457544330E+01 -0.19915587958E+02  0.21939505682E+02  0.51100000000E-03 0. -1.
        -11    1    3    3    0    0 -0.77937072767E+01 -0.85892597191E+01 -0.13781160694E+02  0.18012152730E+02  0.51100000000E-03 0.  1.
         12    1    3    3    0    0 -0.57430989550E+01  0.21888632980E+02  0.23340530248E+02  0.32509626138E+02  0.00000000000E+00 0. -1.
</event>
<event>
 7    1  0.2932676E-013  0.7246152E+02  0.7816164E-02  0.1226708E+00
        -11   -1    0    0    0    0  0.00000000000E+00  0.00000000000E+00  0.45593999997E+02  0.45594000000E+02  0.51100000000E-03 0. -1.
         11   -1    0    0    0    0 -0.00000000000E+00 -0.00000000000E+00 -0.45593999997E+02  0.45594000000E+02  0.51100000000E-03 0.  1.
    9900012    2    1    2    0    0  0.31467704112E+00  0.10984454657E+02 -0.15163242969E+02  0.72461515997E+02  0.69999929268E+02 0.  0.
         12    1    1    2    0    0 -0.31467704112E+00 -0.10984454657E+02  0.15163242969E+02  0.18726484003E+02  0.00000000000E+00 0. -1.
         11    1    3    3    0    0 -0.11237567311E+02 -0.20745389403E+02 -0.19363485507E+02  0.30522101366E+02  0.51100000000E-03 0. -1.
        -11    1    3    3    0    0 -0.59593883442E+01  0.66325400110E+00 -0.24548657986E+00  0.60012064811E+01  0.51100000000E-03 0.  1.
        -12    1    3    3    0    0  0.17511632696E+02  0.31066590060E+02  0.44457291181E+01  0.35938208150E+02  0.00000000000E+00 0.  1.
</event>
<event>
 7    1  0.2932676E-013  0.7246083E+02  0.7816164E-02  0.1226710E+00
        -11   -1    0    0    0    0  0.00000000000E+00  0.00000000000E+00  0.45593999997E+02  0.45594000000E+02  0.51100000000E-03 0. -1.
         11   -1    0    0    0    0 -0.00000000000E+00 -0.00000000000E+00 -0.45593999997E+02  0.45594000000E+02  0.51100000000E-03 0.  1.
    9900012    2    1    2    0    0 -0.82507068246E+01 -0.16762860000E+02  0.12803975470E+01  0.72460825724E+02  0.69999030052E+02 0.  0.
         12    1    1    2    0    0  0.82507068246E+01  0.16762860000E+02 -0.12803975470E+01  0.18727174276E+02  0.00000000000E+00 0. -1.
         11    1    3    3    0    0 -0.13404961687E+02 -0.13792130277E+01  0.10036871385E+02  0.16802797799E+02  0.51100000000E-03 0. -1.
        -11    1    3    3    0    0  0.61250849235E+01 -0.16944396454E+02  0.19956297754E+02  0.26886484649E+02  0.51100000000E-03 0.  1.
         12    1    3    3    0    0 -0.97083006076E+00  0.15607494815E+01 -0.28712771592E+02  0.28771543276E+02  0.00000000000E+00 0. -1.
</event>
<event>
 7    1  0.2932676E-013  0.7246161E+02  0.7816164E-02  0.1226708E+00
        -11   -1    0    0    0    0  0.00000000000E+00  0.00000000000E+00  0.45593999997E+02  0.45594000000E+02  0.51100000000E-03 0. -1.
         11   -1    0    0    0    0 -0.00000000000E+00 -0.00000000000E+00 -0.45593999997E+02  0.45594000000E+02  0.51100000000E-03 0.  1.
    9900012    2    1    2    0    0 -0.75932279472E+01  0.15161546416E+02  0.79465786482E+01  0.72461609195E+02  0.70000050675E+02 0.  0.
         12    1    1    2    0    0  0.75932279472E+01 -0.15161546416E+02 -0.79465786482E+01  0.18726390805E+02  0.00000000000E+00 0. -1.
         11    1    3    3    0    0 -0.17850517323E+02  0.32649167548E+02  0.54064145902E+01  0.37601042928E+02  0.51100000000E-03 0. -1.
        -11    1    3    3    0    0  0.54794253565E+01 -0.30192817825E+01 -0.12168532109E+02  0.13682592542E+02  0.51100000000E-03 0.  1.
        -12    1    3    3    0    0  0.47778640193E+01 -0.14468339350E+02  0.14708696167E+02  0.21177973725E+02  0.00000000000E+00 0.  1.
</event>
<event>
 7    1  0.2932676E-013  0.7246162E+02  0.7816164E-02  0.1226708E+00
        -11   -1    0    0    0    0  0.00000000000E+00  0.00000000000E+00  0.45593999997E+02  0.45594000000E+02  0.51100000000E-03 0.  1.
         11   -1    0    0    0    0 -0.00000000000E+00 -0.00000000000E+00 -0.45593999997E+02  0.45594000000E+02  0.51100000000E-03 0. -1.
    9900012    2    1    2    0    0 -0.10079147804E+02  0.93057874322E+00  0.15755071046E+02  0.72461615915E+02  0.70000059429E+02 0.  0.
         12    1    1    2    0    0  0.10079147804E+02 -0.93057874322E+00 -0.15755071046E+02  0.18726384085E+02  0.00000000000E+00 0. -1.
         11    1    3    3    0    0  0.24859433740E+02  0.84675109069E+01  0.18169421699E+01  0.26324731071E+02  0.51100000000E-03 0. -1.
        -11    1    3    3    0    0 -0.24930423556E+01  0.48927701897E+01  0.96838720556E+01  0.11132467766E+02  0.51100000000E-03 0.  1.
        -12    1    3    3    0    0 -0.32445539189E+02 -0.12429702353E+02  0.42542568206E+01  0.35004417077E+02  0.00000000000E+00 0.  1.
</event>
<event>
 7    1  0.2932676E-013  0.7246173E+02  0.7816164E-02  0.1226708E+00
        -11   -1    0    0    0    0  0.00000000000E+00  0.00000000000E+00  0.45593999997E+02  0.45594000000E+02  0.51100000000E-03 0.  1.
         11   -1    0    0    0    0 -0.00000000000E+00 -0.00000000000E+00 -0.45593999997E+02  0.45594000000E+02  0.51100000000E-03 0. -1.
    9900012    2    1    2    0    0 -0.11853592796E+02 -0.11898517446E+02 -0.82819508725E+01  0.72461732624E+02  0.70000211465E+02 0.  0.
         12    1    1    2    0    0  0.11853592796E+02  0.11898517446E+02  0.82819508725E+01  0.18726267376E+02  0.00000000000E+00 0. -1.
         11    1    3    3    0    0 -0.13346288897E+02  0.13567015654E+00 -0.64265524598E+01  0.14813588711E+02  0.51100000000E-03 0. -1.
        -11    1    3    3    0    0  0.51503049619E+01 -0.90220543190E+01  0.26727346392E+02  0.28675323028E+02  0.51100000000E-03 0.  1.
         12    1    3    3    0    0 -0.36576088608E+01 -0.30121332833E+01 -0.28582744805E+02  0.28972820886E+02  0.00000000000E+00 0. -1.
</event>
<event>
 7    1  0.2932676E-013  0.7246103E+02  0.7816164E-02  0.1226709E+00
        -11   -1    0    0    0    0  0.00000000000E+00  0.00000000000E+00  0.45593999997E+02  0.45594000000E+02  0.51100000000E-03 0. -1.
         11   -1    0    0    0    0 -0.00000000000E+00 -0.00000000000E+00 -0.45593999997E+02  0.45594000000E+02  0.51100000000E-03 0.  1.
    9900012    2    1    2    0    0  0.48551517195E+01  0.13686954974E+02 -0.11823459225E+02  0.72461029538E+02  0.69999295560E+02 0.  0.
         12    1    1    2    0    0 -0.48551517195E+01 -0.13686954974E+02  0.11823459225E+02  0.18726970462E+02  0.00000000000E+00 0. -1.
         11    1    3    3    0    0 -0.10113604099E+02  0.17333395855E+02 -0.88380792686E+01  0.21928138205E+02  0.51100000000E-03 0. -1.
        -11    1    3    3    0    0 -0.17551008165E+02 -0.11471833430E+00  0.10009990875E+01  0.17579904646E+02  0.51100000000E-03 0.  1.
         12    1    3    3    0    0  0.32519763984E+02 -0.35317225467E+01 -0.39863790435E+01  0.32952986687E+02  0.00000000000E+00 0. -1.
</event>
<event>
 7    1  0.2932676E-013  0.7246163E+02  0.7816164E-02  0.1226708E+00
        -11   -1    0    0    0    0  0.00000000000E+00  0.00000000000E+00  0.45593999997E+02  0.45594000000E+02  0.51100000000E-03 0. -1.
         11   -1    0    0    0    0 -0.00000000000E+00 -0.00000000000E+00 -0.45593999997E+02  0.45594000000E+02  0.51100000000E-03 0.  1.
    9900012    2    1    2    0    0  0.11387327727E+02 -0.11082334634E+02 -0.99089702879E+01  0.72461626463E+02  0.70000073170E+02 0.  0.
         12    1    1    2    0    0 -0.11387327727E+02  0.11082334634E+02  0.99089702879E+01  0.18726373537E+02  0.00000000000E+00 0. -1.
         11    1    3    3    0    0  0.37363062002E+01  0.40855519527E+01 -0.94445787501E+01  0.10947684084E+02  0.51100000000E-03 0. -1.
        -11    1    3    3    0    0  0.14039745988E+02 -0.14113980700E+02 -0.27367681664E+02  0.33842413012E+02  0.51100000000E-03 0.  1.
         12    1    3    3    0    0 -0.63887244615E+01 -0.10539058867E+01  0.26903290126E+02  0.27671529366E+02  0.00000000000E+00 0. -1.
</event>
<event>
 7    1  0.2932676E-013  0.7246155E+02  0.7816164E-02  0.1226708E+00
        -11   -1    0    0    0    0  0.00000000000E+00  0.00000000000E+00  0.45593999997E+02  0.45594000000E+02  0.51100000000E-03 0.  1.
         11   -1    0    0    0    0 -0.00000000000E+00 -0.00000000000E+00 -0.45593999997E+02  0.45594000000E+02  0.51100000000E-03 0. -1.
    9900012    2    1    2    0    0 -0.41545050190E+00 -0.20412855666E+00  0.18720732025E+02  0.72461546114E+02  0.69999968501E+02 0.  0.
         12    1    1    2    0    0  0.41545050190E+00  0.20412855666E+00 -0.18720732025E+02  0.18726453886E+02  0.00000000000E+00 0. -1.
         11    1    3    3    0    0  0.21097955431E+02  0.13857998934E+02 -0.41398585185E+01  0.25579411382E+02  0.51100000000E-03 0. -1.
        -11    1    3    3    0    0 -0.45671198073E+01  0.81747251999E+00  0.23861345275E+02  0.24308242290E+02  0.51100000000E-03 0.  1.
        -12    1    3    3    0    0 -0.16946286126E+02 -0.14879600011E+02 -0.10007547315E+01  0.22573892442E+02  0.00000000000E+00 0.  1.
</event>
<event>
 7    1  0.2932676E-013  0.7246173E+02  0.7816164E-02  0.1226708E+00
        -11   -1    0    0    0    0  0.00000000000E+00  0.00000000000E+00  0.45593999997E+02  0.45594000000E+02  0.51100000000E-03 0. -1.
         11   -1    0    0    0    0 -0.00000000000E+00 -0.00000000000E+00 -0.45593999997E+02  0.45594000000E+02  0.51100000000E-03 0.  1.
    9900012    2    1    2    0    0  0.76493105454E+01 -0.62960065580E+01 -0.15890925855E+02  0.72461730352E+02  0.70000208504E+02 0.  0.
         12    1    1    2    0    0 -0.76493105454E+01  0.62960065580E+01  0.15890925855E+02  0.18726269648E+02  0.00000000000E+00 0. -1.
         11    1    3    3    0    0  0.25687441757E+02 -0.15789899774E+02 -0.39499559161E+01  0.30409994260E+02  0.51100000000E-03 0. -1.
        -11    1    3    3    0    0  0.79153873951E+01  0.82660903095E+01  0.33229585164E+01  0.11917368006E+02  0.51100000000E-03 0.  1.
        -12    1    3    3    0    0 -0.25953518607E+02  0.12278029061E+01 -0.15263928456E+02  0.30134368086E+02  0.00000000000E+00 0.  1.
</event>
<event>
 7    1  0.2932676E-013  0.7246158E+02  0.7816164E-02  0.1226708E+00
        -11   -1    0    0    0    0  0.00000000000E+00  0.00000000000E+00  0.45593999997E+02  0.45594000000E+02  0.51100000000E-03 0. -1.
         11   -1    0    0    0    0 -0.00000000000E+00 -0.00000000000E+00 -0.45593999997E+02  0.45594000000E+02  0.51100000000E-03 0.  1.
    9900012    2    1    2    0    0  0.80796250317E+01  0.15589977016E+02 -0.65077779844E+01  0.72461577536E+02  0.70000009433E+02 0.  0.
         12    1    1    2    0    0 -0.80796250317E+01 -0.15589977016E+02  0.65077779844E+01  0.18726422464E+02  0.00000000000E+00 0. -1.
         11    1    3    3    0    0 -0.45684669502E+01  0.12134125998E+01 -0.59135113364E+01  0.75705268640E+01  0.51100000000E-03 0. -1.
        -11    1    3    3    0    0  0.76493663326E+01  0.67042317183E+01 -0.31267394150E+02  0.32880229096E+02  0.51100000000E-03 0.  1.
         12    1    3    3    0    0  0.49987256493E+01  0.76723326983E+01  0.30673127502E+02  0.32010821575E+02  0.00000000000E+00 0. -1.
</event>
<event>
 7    1  0.2932676E-013  0.7246155E+02  0.7816164E-02  0.1226708E+00
        -11   -1    0    0    0    0  0.00000000000E+00  0.00000000000E+00  0.45593999997E+02  0.45594000000E+02  0.51100000000E-03 0. -1.
         11   -1    0    0    0    0 -0.00000000000E+00 -0.00000000000E+00 -0.45593999997E+02  0.45594000000E+02  0.51100000000E-03 0.  1.
    9900012    2    1    2    0    0  0.78837166429E+01 -0.55475904324E+01 -0.16054633022E+02  0.72461548409E+02  0.69999971490E+02 0.  0.
         12    1    1    2    0    0 -0.78837166429E+01  0.55475904324E+01  0.16054633022E+02  0.18726451591E+02  0.00000000000E+00 0. -1.
         11    1    3    3    0    0 -0.41374664945E+01 -0.53334608277E+01 -0.40446163738E+01  0.78691394234E+01  0.51100000000E-03 0. -1.
        -11    1    3    3    0    0  0.62997540873E+00 -0.18650499693E+02 -0.30731808951E+02  0.35953888378E+02  0.51100000000E-03 0.  1.
         12    1    3    3    0    0  0.11391207729E+02  0.18436370089E+02  0.18721792303E+02  0.28638520607E+02  0.00000000000E+00 0. -1.
</event>
<event>
 7    1  0.2932676E-013  0.7246154E+02  0.7816164E-02  0.1226708E+00
        -11   -1    0    0    0    0  0.00000000000E+00  0.00000000000E+00  0.45593999997E+02  0.45594000000E+02  0.51100000000E-03 0.  1.
         11   -1    0    0    0    0 -0.00000000000E+00 -0.00000000000E+00 -0.45593999997E+02  0.45594000000E+02  0.51100000000E-03 0. -1.
    9900012    2    1    2    0    0  0.83222850859E+01 -0.61690694161E+01  0.15600084532E+02  0.72461535200E+02  0.69999954283E+02 0.  0.
         12    1    1    2    0    0 -0.83222850859E+01  0.61690694161E+01 -0.15600084532E+02  0.18726464800E+02  0.00000000000E+00 0. -1.
         11    1    3    3    0    0  0.62383553563E+01  0.10745734825E+01  0.79159607328E+01  0.10135789082E+02  0.51100000000E-03 0. -1.
        -11    1    3    3    0    0 -0.98594131240E+00 -0.26465699991E+02  0.24891073180E+02  0.36345163098E+02  0.51100000000E-03 0.  1.
         12    1    3    3    0    0  0.30698710420E+01  0.19222057093E+02 -0.17206949381E+02  0.25980583020E+02  0.00000000000E+00 0. -1.
</event>
<event>
 7    1  0.2932676E-013  0.7246163E+02  0.7816164E-02  0.1226708E+00
        -11   -1    0    0    0    0  0.00000000000E+00  0.00000000000E+00  0.45593999997E+02  0.45594000000E+02  0.51100000000E-03 0. -1.
         11   -1    0    0    0    0 -0.00000000000E+00 -0.00000000000E+00 -0.45593999997E+02  0.45594000000E+02  0.51100000000E-03 0.  1.
    9900012    2    1    2    0    0  0.13539778038E+02 -0.12876957946E+02 -0.12390214669E+01  0.72461633309E+02  0.70000082088E+02 0.  0.
         12    1    1    2    0    0 -0.13539778038E+02  0.12876957946E+02  0.12390214669E+01  0.18726366691E+02  0.00000000000E+00 0. -1.
         11    1    3    3    0    0 -0.10813510041E+02 -0.26603912617E+02  0.22321894179E+01  0.28804215591E+02  0.51100000000E-03 0. -1.
        -11    1    3    3    0    0 -0.77555381589E+01  0.48660546541E+01  0.31772825951E+01  0.96913355623E+01  0.51100000000E-03 0.  1.
        -12    1    3    3    0    0  0.32108826238E+02  0.88609000172E+01 -0.66484934799E+01  0.33966082156E+02  0.00000000000E+00 0.  1.
</event>
<event>
 7    1  0.2932676E-013  0.7246156E+02  0.7816164E-02  0.1226708E+00
        -11   -1    0    0    0    0  0.00000000000E+00  0.00000000000E+00  0.45593999997E+02  0.45594000000E+02  0.51100000000E-03 0. -1.
         11   -1    0    0    0    0 -0.00000000000E+00 -0.00000000000E+00 -0.45593999997E+02  0.45594000000E+02  0.51100000000E-03 0.  1.
    9900012    2    1    2    0    0 -0.45754256368E+01 -0.73005895615E+01 -0.16626675473E+02  0.72461562405E+02  0.69999989723E+02 0.  0.
         12    1    1    2    0    0  0.45754256368E+01  0.73005895615E+01  0.16626675473E+02  0.18726437595E+02  0.00000000000E+00 0. -1.
         11    1    3    3    0    0 -0.58332291983E+01  0.99023038465E+01 -0.84448445896E+01  0.14261752513E+02  0.51100000000E-03 0. -1.
        -11    1    3    3    0    0 -0.25051907968E+02 -0.15664930676E+02 -0.11358464760E+02  0.31654428883E+02  0.51100000000E-03 0.  1.
        -12    1    3    3    0    0  0.26309711530E+02 -0.15379627316E+01  0.31766338762E+01  0.26545381009E+02  0.00000000000E+00 0.  1.
</event>
<event>
 7    1  0.2932676E-013  0.7246158E+02  0.7816164E-02  0.1226708E+00
        -11   -1    0    0    0    0  0.00000000000E+00  0.00000000000E+00  0.45593999997E+02  0.45594000000E+02  0.51100000000E-03 0. -1.
         11   -1    0    0    0    0 -0.00000000000E+00 -0.00000000000E+00 -0.45593999997E+02  0.45594000000E+02  0.51100000000E-03 0.  1.
    9900012    2    1    2    0    0 -0.40912327174E+01 -0.17917337841E+02 -0.35929823959E+01  0.72461582752E+02  0.70000016229E+02 0.  0.
         12    1    1    2    0    0  0.40912327174E+01  0.17917337841E+02  0.35929823959E+01  0.18726417248E+02  0.00000000000E+00 0. -1.
         11    1    3    3    0    0  0.45706283338E+01 -0.22978698525E+02  0.11028830343E+02  0.25894909312E+02  0.51100000000E-03 0. -1.
        -11    1    3    3    0    0 -0.29009160139E+01 -0.18818097982E+02 -0.25964387501E+01  0.19216597509E+02  0.51100000000E-03 0.  1.
         12    1    3    3    0    0 -0.57609450373E+01  0.23879458666E+02 -0.12025373989E+02  0.27350075932E+02  0.00000000000E+00 0. -1.
</event>
<event>
 7    1  0.2932676E-013  0.7246156E+02  0.7816164E-02  0.1226708E+00
        -11   -1    0    0    0    0  0.00000000000E+00  0.00000000000E+00  0.45593999997E+02  0.45594000000E+02  0.51100000000E-03 0. -1.
         11   -1    0    0    0    0 -0.00000000000E+00 -0.00000000000E+00 -0.45593999997E+02  0.45594000000E+02  0.51100000000E-03 0.  1.
    9900012    2    1    2    0    0  0.88334205713E+01 -0.91298643271E+01 -0.13758477350E+02  0.72461563056E+02  0.69999990571E+02 0.  0.
         12    1    1    2    0    0 -0.88334205713E+01  0.91298643271E+01  0.13758477350E+02  0.18726436944E+02  0.00000000000E+00 0. -1.
         11    1    3    3    0    0 -0.17113190244E+01  0.99849117685E+01 -0.26436920970E+01  0.10469774782E+02  0.51100000000E-03 0. -1.
        -11    1    3    3    0    0 -0.83912212021E+01 -0.11334565434E+02 -0.30622384746E+02  0.33713727392E+02  0.51100000000E-03 0.  1.
         12    1    3    3    0    0  0.18935960798E+02 -0.77802106611E+01  0.19507599493E+02  0.28278060882E+02  0.00000000000E+00 0. -1.
</event>
<event>
 7    1  0.2932676E-013  0.7246153E+02  0.7816164E-02  0.1226708E+00
        -11   -1    0    0    0    0  0.00000000000E+00  0.00000000000E+00  0.45593999997E+02  0.45594000000E+02  0.51100000000E-03 0. -1.
         11   -1    0    0    0    0 -0.00000000000E+00 -0.00000000000E+00 -0.45593999997E+02  0.45594000000E+02  0.51100000000E-03 0.  1.
    9900012    2    1    2    0    0  0.16233866441E+02  0.78458374865E+01  0.50581798149E+01  0.72461527601E+02  0.69999944384E+02 0.  0.
         12    1    1    2    0    0 -0.16233866441E+02 -0.78458374865E+01 -0.50581798149E+01  0.18726472399E+02  0.00000000000E+00 0. -1.
         11    1    3    3    0    0  0.63408128661E+01  0.11287614631E+02  0.32603368325E+02  0.35079848607E+02  0.51100000000E-03 0. -1.
        -11    1    3    3    0    0 -0.51618914617E+01  0.47745356534E+00  0.60478014200E+00  0.52190846564E+01  0.51100000000E-03 0.  1.
        -12    1    3    3    0    0  0.15054945036E+02 -0.39192307099E+01 -0.28149968652E+02  0.32162594338E+02  0.00000000000E+00 0.  1.
</event>
<event>
 7    1  0.2932676E-013  0.7246159E+02  0.7816164E-02  0.1226708E+00
        -11   -1    0    0    0    0  0.00000000000E+00  0.00000000000E+00  0.45593999997E+02  0.45594000000E+02  0.51100000000E-03 0.  1.
         11   -1    0    0    0    0 -0.00000000000E+00 -0.00000000000E+00 -0.45593999997E+02  0.45594000000E+02  0.51100000000E-03 0. -1.
    9900012    2    1    2    0    0  0.12589449639E+02 -0.65497467082E+00  0.13847572557E+02  0.72461588177E+02  0.70000023296E+02 0.  0.
         12    1    1    2    0    0 -0.12589449639E+02  0.65497467082E+00 -0.13847572557E+02  0.18726411823E+02  0.00000000000E+00 0. -1.
         11    1    3    3    0    0  0.13508494708E+02 -0.45464784546E+01  0.20107266162E+02  0.24646542321E+02  0.51100000000E-03 0. -1.
        -11    1    3    3    0    0  0.15963450116E+01  0.34107782187E+01  0.20545509682E+02  0.20887788150E+02  0.51100000000E-03 0.  1.
         12    1    3    3    0    0 -0.25153900807E+01  0.48072556511E+00 -0.26805203287E+02  0.26927257706E+02  0.00000000000E+00 0. -1.
</event>
<event>
 7    1  0.3670253E-013  0.7246162E+02  0.7816164E-02  0.1226708E+00
        -11   -1    0    0    0    0  0.00000000000E+00  0.00000000000E+00  0.45593999997E+02  0.45594000000E+02  0.51100000000E-03 0. -1.
         11   -1    0    0    0    0 -0.00000000000E+00 -0.00000000000E+00 -0.45593999997E+02  0.45594000000E+02  0.51100000000E-03 0.  1.
    9900012    2    1    2    0    0 -0.87112787244E+00 -0.76021482771E+01 -0.17091688761E+02  0.72461618959E+02  0.70000063394E+02 0.  0.
         12    1    1    2    0    0  0.87112787244E+00  0.76021482771E+01  0.17091688761E+02  0.18726381041E+02  0.00000000000E+00 0. -1.
         11    1    3    3    0    0  0.22391206083E+01  0.22455775386E+01  0.23932647854E+02  0.24141829117E+02  0.51100000000E-03 0. -1.
        -11    1    3    3    0    0  0.94119814966E+01 -0.23659689305E+01 -0.94831956834E+01  0.13568868977E+02  0.51100000000E-03 0.  1.
        -12    1    3    3    0    0 -0.12522229977E+02 -0.74817568853E+01 -0.31541140931E+02  0.34750920865E+02  0.00000000000E+00 0.  1.
</event>
<event>
 7    1  0.2932676E-013  0.7246161E+02  0.7816164E-02  0.1226708E+00
        -11   -1    0    0    0    0  0.00000000000E+00  0.00000000000E+00  0.45593999997E+02  0.45594000000E+02  0.51100000000E-03 0.  1.
         11   -1    0    0    0    0 -0.00000000000E+00 -0.00000000000E+00 -0.45593999997E+02  0.45594000000E+02  0.51100000000E-03 0. -1.
    9900012    2    1    2    0    0  0.87883645860E+01 -0.97707706649E+01  0.13340699713E+02  0.72461612726E+02  0.70000055275E+02 0.  0.
         12    1    1    2    0    0 -0.87883645860E+01  0.97707706649E+01 -0.13340699713E+02  0.18726387274E+02  0.00000000000E+00 0. -1.
         11    1    3    3    0    0  0.13730093094E+02 -0.88827947770E+00  0.49123754644E+01  0.14609446594E+02  0.51100000000E-03 0. -1.
        -11    1    3    3    0    0  0.16909423854E+02  0.16559495017E+02  0.25657630082E+01  0.23806062891E+02  0.51100000000E-03 0.  1.
         12    1    3    3    0    0 -0.21851152363E+02 -0.25441986205E+02  0.58625612407E+01  0.34046103241E+02  0.00000000000E+00 0. -1.
</event>
<event>
 7    1  0.2932676E-013  0.7246159E+02  0.7816164E-02  0.1226708E+00
        -11   -1    0    0    0    0  0.00000000000E+00  0.00000000000E+00  0.45593999997E+02  0.45594000000E+02  0.51100000000E-03 0.  1.
         11   -1    0    0    0    0 -0.00000000000E+00 -0.00000000000E+00 -0.45593999997E+02  0.45594000000E+02  0.51100000000E-03 0. -1.
    9900012    2    1    2    0    0  0.10089976573E+02 -0.14229260787E+02  0.68116638696E+01  0.72461594727E+02  0.70000031828E+02 0.  0.
         12    1    1    2    0    0 -0.10089976573E+02  0.14229260787E+02 -0.68116638696E+01  0.18726405273E+02  0.00000000000E+00 0. -1.
         11    1    3    3    0    0 -0.11748434029E+02 -0.70892454548E+01 -0.10754897992E+02  0.17434188663E+02  0.51100000000E-03 0. -1.
        -11    1    3    3    0    0  0.17639820768E+02 -0.22648013322E+02 -0.30737653203E+01  0.28871158925E+02  0.51100000000E-03 0.  1.
         12    1    3    3    0    0  0.41985898340E+01  0.15507997989E+02  0.20640327182E+02  0.26156247139E+02  0.00000000000E+00 0. -1.
</event>
<event>
 7    1  0.2932676E-013  0.7246158E+02  0.7816164E-02  0.1226708E+00
        -11   -1    0    0    0    0  0.00000000000E+00  0.00000000000E+00  0.45593999997E+02  0.45594000000E+02  0.51100000000E-03 0.  1.
         11   -1    0    0    0    0 -0.00000000000E+00 -0.00000000000E+00 -0.45593999997E+02  0.45594000000E+02  0.51100000000E-03 0. -1.
    9900012    2    1    2    0    0  0.10667463619E+02  0.13912306610E+02  0.65826848045E+01  0.72461580307E+02  0.70000013044E+02 0.  0.
         12    1    1    2    0    0 -0.10667463619E+02 -0.13912306610E+02 -0.65826848045E+01  0.18726419693E+02  0.00000000000E+00 0. -1.
         11    1    3    3    0    0 -0.26497579960E+01  0.28326456929E+02 -0.13906866978E+02  0.31667180628E+02  0.51100000000E-03 0.  1.
        -11    1    3    3    0    0 -0.52375516370E+01 -0.19930563386E+01  0.17366802616E+02  0.18248563069E+02  0.51100000000E-03 0. -1.
        -12    1    3    3    0    0  0.18554773252E+02 -0.12421093980E+02  0.31227491660E+01  0.22545836610E+02  0.00000000000E+00 0.  1.
</event>
<event>
 7    1  0.2932676E-013  0.7246157E+02  0.7816164E-02  0.1226708E+00
        -11   -1    0    0    0    0  0.00000000000E+00  0.00000000000E+00  0.45593999997E+02  0.45594000000E+02  0.51100000000E-03 0.  1.
         11   -1    0    0    0    0 -0.00000000000E+00 -0.00000000000E+00 -0.45593999997E+02  0.45594000000E+02  0.51100000000E-03 0. -1.
    9900012    2    1    2    0    0  0.24213409868E+01 -0.16748996385E+02  0.80179462164E+01  0.72461568583E+02  0.69999997771E+02 0.  0.
         12    1    1    2    0    0 -0.24213409868E+01  0.16748996385E+02 -0.80179462164E+01  0.18726431417E+02  0.00000000000E+00 0. -1.
         11    1    3    3    0    0  0.14255754543E+01 -0.20113224562E+02 -0.10880016127E+02  0.22911761583E+02  0.51100000000E-03 0. -1.
        -11    1    3    3    0    0  0.16470462529E+02  0.30630251434E+01  0.27230904469E+02  0.31971556380E+02  0.51100000000E-03 0.  1.
         12    1    3    3    0    0 -0.15474696996E+02  0.30120303365E+00 -0.83329421250E+01  0.17578250620E+02  0.00000000000E+00 0. -1.
</event>
<event>
 7    1  0.2932676E-013  0.7246177E+02  0.7816164E-02  0.1226707E+00
        -11   -1    0    0    0    0  0.00000000000E+00  0.00000000000E+00  0.45593999997E+02  0.45594000000E+02  0.51100000000E-03 0. -1.
         11   -1    0    0    0    0 -0.00000000000E+00 -0.00000000000E+00 -0.45593999997E+02  0.45594000000E+02  0.51100000000E-03 0.  1.
    9900012    2    1    2    0    0  0.11273137714E+02 -0.96184168376E+01 -0.11448760753E+02  0.72461769756E+02  0.70000259835E+02 0.  0.
         12    1    1    2    0    0 -0.11273137714E+02  0.96184168376E+01  0.11448760753E+02  0.18726230244E+02  0.00000000000E+00 0. -1.
         11    1    3    3    0    0 -0.54835124921E+01  0.87558961689E+01 -0.78883315160E+01  0.12998476885E+02  0.51100000000E-03 0. -1.
        -11    1    3    3    0    0  0.31115909233E+02  0.16298275867E+01  0.81346113972E+01  0.32202919870E+02  0.51100000000E-03 0.  1.
         12    1    3    3    0    0 -0.14359259027E+02 -0.20004140593E+02 -0.11695040634E+02  0.27260373000E+02  0.00000000000E+00 0. -1.
</event>
<event>
 7    1  0.2932676E-013  0.7246151E+02  0.7816164E-02  0.1226708E+00
        -11   -1    0    0    0    0  0.00000000000E+00  0.00000000000E+00  0.45593999997E+02  0.45594000000E+02  0.51100000000E-03 0.  1.
         11   -1    0    0    0    0 -0.00000000000E+00 -0.00000000000E+00 -0.45593999997E+02  0.45594000000E+02  0.51100000000E-03 0. -1.
    9900012    2    1    2    0    0 -0.16872962163E+02 -0.71819648171E+01 -0.37952513977E+01  0.72461510635E+02  0.69999922282E+02 0.  0.
         12    1    1    2    0    0  0.16872962163E+02  0.71819648171E+01  0.37952513977E+01  0.18726489365E+02  0.00000000000E+00 0. -1.
         11    1    3    3    0    0 -0.15908961228E+02 -0.17990856220E+02  0.15842205964E+02  0.28770496085E+02  0.51100000000E-03 0. -1.
        -11    1    3    3    0    0  0.79845419060E+01 -0.88488134512E+01  0.31154484908E+01  0.12319108267E+02  0.51100000000E-03 0.  1.
         12    1    3    3    0    0 -0.89485428402E+01  0.19657704854E+02 -0.22752905852E+02  0.31371906283E+02  0.00000000000E+00 0. -1.
</event>
<event>
 7    1  0.2932676E-013  0.7246154E+02  0.7816164E-02  0.1226708E+00
        -11   -1    0    0    0    0  0.00000000000E+00  0.00000000000E+00  0.45593999997E+02  0.45594000000E+02  0.51100000000E-03 0.  1.
         11   -1    0    0    0    0 -0.00000000000E+00 -0.00000000000E+00 -0.45593999997E+02  0.45594000000E+02  0.51100000000E-03 0. -1.
    9900012    2    1    2    0    0 -0.14516259178E+02  0.10115845942E+02  0.61341755272E+01  0.72461542005E+02  0.69999963148E+02 0.  0.
         12    1    1    2    0    0  0.14516259178E+02 -0.10115845942E+02 -0.61341755272E+01  0.18726457995E+02  0.00000000000E+00 0. -1.
         11    1    3    3    0    0  0.13403762623E+02 -0.19419816344E+02  0.11619249812E+02  0.26302035772E+02  0.51100000000E-03 0. -1.
        -11    1    3    3    0    0 -0.23344006697E+01 -0.19743359062E+01  0.34380200846E+01  0.46008054860E+01  0.51100000000E-03 0.  1.
        -12    1    3    3    0    0 -0.25585621131E+02  0.31509998192E+02 -0.89230943693E+01  0.41558700748E+02  0.00000000000E+00 0.  1.
</event>
<event>
 7    1  0.2932676E-013  0.7246161E+02  0.7816164E-02  0.1226708E+00
        -11   -1    0    0    0    0  0.00000000000E+00  0.00000000000E+00  0.45593999997E+02  0.45594000000E+02  0.51100000000E-03 0.  1.
         11   -1    0    0    0    0 -0.00000000000E+00 -0.00000000000E+00 -0.45593999997E+02  0.45594000000E+02  0.51100000000E-03 0. -1.
    9900012    2    1    2    0    0 -0.20979167874E+01  0.81613006255E+01  0.16723322403E+02  0.72461612336E+02  0.70000054767E+02 0.  0.
         12    1    1    2    0    0  0.20979167874E+01 -0.81613006255E+01 -0.16723322403E+02  0.18726387664E+02  0.00000000000E+00 0. -1.
         11    1    3    3    0    0 -0.13054162243E+02  0.33759306992E+01  0.17789469259E+02  0.22322035676E+02  0.51100000000E-03 0. -1.
        -11    1    3    3    0    0 -0.12560634743E+02  0.61658648554E+01  0.15846360667E+02  0.21139881296E+02  0.51100000000E-03 0.  1.
         12    1    3    3    0    0  0.23516880198E+02 -0.13804949292E+01 -0.16912507523E+02  0.28999695364E+02  0.00000000000E+00 0. -1.
</event>
<event>
 7    1  0.2932676E-013  0.7246158E+02  0.7816164E-02  0.1226708E+00
        -11   -1    0    0    0    0  0.00000000000E+00  0.00000000000E+00  0.45593999997E+02  0.45594000000E+02  0.51100000000E-03 0. -1.
         11   -1    0    0    0    0 -0.00000000000E+00 -0.00000000000E+00 -0.45593999997E+02  0.45594000000E+02  0.51100000000E-03 0.  1.
    9900012    2    1    2    0    0 -0.65317874106E+01 -0.40850493773E+01 -0.17068306667E+02  0.72461575684E+02  0.70000007021E+02 0.  0.
         12    1    1    2    0    0  0.65317874106E+01  0.40850493773E+01  0.17068306667E+02  0.18726424316E+02  0.00000000000E+00 0. -1.
         11    1    3    3    0    0 -0.19254193171E+02  0.93755910567E+01  0.90928854638E+01  0.23265988667E+02  0.51100000000E-03 0. -1.
        -11    1    3    3    0    0 -0.86167100542E+01  0.77299613751E+01 -0.78429921757E+01  0.13982579217E+02  0.51100000000E-03 0.  1.
        -12    1    3    3    0    0  0.21339115814E+02 -0.21190601809E+02 -0.18318199955E+02  0.35213007801E+02  0.00000000000E+00 0.  1.
</event>
<event>
 7    1  0.2932676E-013  0.7246155E+02  0.7816164E-02  0.1226708E+00
        -11   -1    0    0    0    0  0.00000000000E+00  0.00000000000E+00  0.45593999997E+02  0.45594000000E+02  0.51100000000E-03 0.  1.
         11   -1    0    0    0    0 -0.00000000000E+00 -0.00000000000E+00 -0.45593999997E+02  0.45594000000E+02  0.51100000000E-03 0. -1.
    9900012    2    1    2    0    0 -0.63980591656E+01  0.80721406658E+01  0.15639226876E+02  0.72461547231E+02  0.69999969956E+02 0.  0.
         12    1    1    2    0    0  0.63980591656E+01 -0.80721406658E+01 -0.15639226876E+02  0.18726452769E+02  0.00000000000E+00 0. -1.
         11    1    3    3    0    0 -0.10047249064E+01  0.13022868312E+02  0.50861527678E+01  0.14016901279E+02  0.51100000000E-03 0. -1.
        -11    1    3    3    0    0  0.53114633639E+01  0.14286656386E+02 -0.17224998213E+02  0.23000451245E+02  0.51100000000E-03 0.  1.
        -12    1    3    3    0    0 -0.10704797623E+02 -0.19237384032E+02  0.27778072322E+02  0.35444194708E+02  0.00000000000E+00 0.  1.
</event>
<event>
 7    1  0.2932676E-013  0.7246156E+02  0.7816164E-02  0.1226708E+00
        -11   -1    0    0    0    0  0.00000000000E+00  0.00000000000E+00  0.45593999997E+02  0.45594000000E+02  0.51100000000E-03 0. -1.
         11   -1    0    0    0    0 -0.00000000000E+00 -0.00000000000E+00 -0.45593999997E+02  0.45594000000E+02  0.51100000000E-03 0.  1.
    9900012    2    1    2    0    0  0.11517775083E+02  0.56497262085E+01 -0.13641877401E+02  0.72461564992E+02  0.69999993093E+02 0.  0.
         12    1    1    2    0    0 -0.11517775083E+02 -0.56497262085E+01  0.13641877401E+02  0.18726435008E+02  0.00000000000E+00 0. -1.
         11    1    3    3    0    0  0.16288251730E+02 -0.16534061654E+02  0.19136083471E+02  0.30081090905E+02  0.51100000000E-03 0. -1.
        -11    1    3    3    0    0 -0.71307616443E+00  0.21424538382E+01 -0.15344107848E+02  0.15509359496E+02  0.51100000000E-03 0.  1.
        -12    1    3    3    0    0 -0.40574004823E+01  0.20041334024E+02 -0.17433853024E+02  0.26871114591E+02  0.00000000000E+00 0.  1.
</event>
<event>
 7    1  0.2932676E-013  0.7246158E+02  0.7816164E-02  0.1226708E+00
        -11   -1    0    0    0    0  0.00000000000E+00  0.00000000000E+00  0.45593999997E+02  0.45594000000E+02  0.51100000000E-03 0. -1.
         11   -1    0    0    0    0 -0.00000000000E+00 -0.00000000000E+00 -0.45593999997E+02  0.45594000000E+02  0.51100000000E-03 0.  1.
    9900012    2    1    2    0    0  0.15683298425E+02 -0.79329006747E+01 -0.64638947415E+01  0.72461582889E+02  0.70000016407E+02 0.  0.
         12    1    1    2    0    0 -0.15683298425E+02  0.79329006747E+01  0.64638947415E+01  0.18726417111E+02  0.00000000000E+00 0. -1.
         11    1    3    3    0    0 -0.20396194080E+02  0.15377452120E+02  0.40234269987E+01  0.25858436375E+02  0.51100000000E-03 0. -1.
        -11    1    3    3    0    0  0.70930016975E+01 -0.12328967311E+02 -0.52788861768E+01  0.15171708789E+02  0.51100000000E-03 0.  1.
        -12    1    3    3    0    0  0.28986490807E+02 -0.10981385484E+02 -0.52084355634E+01  0.31431437725E+02  0.00000000000E+00 0.  1.
</event>
<event>
 7    1  0.2932676E-013  0.7246152E+02  0.7816164E-02  0.1226708E+00
        -11   -1    0    0    0    0  0.00000000000E+00  0.00000000000E+00  0.45593999997E+02  0.45594000000E+02  0.51100000000E-03 0.  1.
         11   -1    0    0    0    0 -0.00000000000E+00 -0.00000000000E+00 -0.45593999997E+02  0.45594000000E+02  0.51100000000E-03 0. -1.
    9900012    2    1    2    0    0  0.12745300624E+02 -0.13716800808E+02 -0.29641412678E+00  0.72461516781E+02  0.69999930289E+02 0.  0.
         12    1    1    2    0    0 -0.12745300624E+02  0.13716800808E+02  0.29641412678E+00  0.18726483219E+02  0.00000000000E+00 0. -1.
         11    1    3    3    0    0  0.33677280362E+00  0.25339685354E+02 -0.50849029838E+01  0.25847036743E+02  0.51100000000E-03 0. -1.
        -11    1    3    3    0    0 -0.40090849697E+01 -0.16492461385E+01 -0.26649180310E+01  0.50886701104E+01  0.51100000000E-03 0.  1.
        -12    1    3    3    0    0  0.16417612790E+02 -0.37407240024E+02  0.74534068880E+01  0.41525809928E+02  0.00000000000E+00 0.  1.
</event>
<event>
 7    1  0.2932676E-013  0.7246185E+02  0.7816164E-02  0.1226707E+00
        -11   -1    0    0    0    0  0.00000000000E+00  0.00000000000E+00  0.45593999997E+02  0.45594000000E+02  0.51100000000E-03 0.  1.
         11   -1    0    0    0    0 -0.00000000000E+00 -0.00000000000E+00 -0.45593999997E+02  0.45594000000E+02  0.51100000000E-03 0. -1.
    9900012    2    1    2    0    0 -0.19171631488E+01  0.18619977974E+02 -0.53798999311E+00  0.72461854441E+02  0.70000370152E+02 0.  0.
         12    1    1    2    0    0  0.19171631488E+01 -0.18619977974E+02  0.53798999311E+00  0.18726145559E+02  0.00000000000E+00 0. -1.
         11    1    3    3    0    0 -0.21599886008E+02  0.24173484829E+02 -0.59704596768E+01  0.32962991875E+02  0.51100000000E-03 0. -1.
        -11    1    3    3    0    0 -0.13728204487E+01 -0.52451497532E+01  0.15308423199E+02  0.16240198676E+02  0.51100000000E-03 0.  1.
        -12    1    3    3    0    0  0.21055543308E+02 -0.30835710236E+00 -0.98759535158E+01  0.23258663890E+02  0.00000000000E+00 0.  1.
</event>
<event>
 7    1  0.2932676E-013  0.7246155E+02  0.7816164E-02  0.1226708E+00
        -11   -1    0    0    0    0  0.00000000000E+00  0.00000000000E+00  0.45593999997E+02  0.45594000000E+02  0.51100000000E-03 0. -1.
         11   -1    0    0    0    0 -0.00000000000E+00 -0.00000000000E+00 -0.45593999997E+02  0.45594000000E+02  0.51100000000E-03 0.  1.
    9900012    2    1    2    0    0 -0.11660934905E+01 -0.11762573626E+02 -0.14524531303E+02  0.72461550205E+02  0.69999973830E+02 0.  0.
         12    1    1    2    0    0  0.11660934905E+01  0.11762573626E+02  0.14524531303E+02  0.18726449795E+02  0.00000000000E+00 0. -1.
         11    1    3    3    0    0  0.63431850540E+01  0.43327245542E+01  0.32241778733E+01  0.83308956248E+01  0.51100000000E-03 0. -1.
        -11    1    3    3    0    0  0.63420356683E+01 -0.18042297484E+02  0.17677503200E+02  0.26043041961E+02  0.51100000000E-03 0.  1.
        -12    1    3    3    0    0 -0.13851314213E+02  0.19469993040E+01 -0.35426212376E+02  0.38087612619E+02  0.00000000000E+00 0.  1.
</event>
<event>
 7    1  0.2932676E-013  0.7246155E+02  0.7816164E-02  0.1226708E+00
        -11   -1    0    0    0    0  0.00000000000E+00  0.00000000000E+00  0.45593999997E+02  0.45594000000E+02  0.51100000000E-03 0.  1.
         11   -1    0    0    0    0 -0.00000000000E+00 -0.00000000000E+00 -0.45593999997E+02  0.45594000000E+02  0.51100000000E-03 0. -1.
    9900012    2    1    2    0    0 -0.98901063215E+00 -0.10682291972E+02  0.15348955095E+02  0.72461550088E+02  0.69999973677E+02 0.  0.
         12    1    1    2    0    0  0.98901063215E+00  0.10682291972E+02 -0.15348955095E+02  0.18726449912E+02  0.00000000000E+00 0. -1.
         11    1    3    3    0    0 -0.41948308266E+01 -0.99323133555E+01  0.72064254842E+01  0.12968424067E+02  0.51100000000E-03 0. -1.
        -11    1    3    3    0    0  0.13971611029E+02 -0.25439736429E+02  0.13533485625E+02  0.32024074347E+02  0.51100000000E-03 0.  1.
         12    1    3    3    0    0 -0.10765790834E+02  0.24689757813E+02 -0.53909560141E+01  0.27469051675E+02  0.00000000000E+00 0. -1.
</event>
<event>
 7    1  0.2932676E-013  0.7246162E+02  0.7816164E-02  0.1226708E+00
        -11   -1    0    0    0    0  0.00000000000E+00  0.00000000000E+00  0.45593999997E+02  0.45594000000E+02  0.51100000000E-03 0. -1.
         11   -1    0    0    0    0 -0.00000000000E+00 -0.00000000000E+00 -0.45593999997E+02  0.45594000000E+02  0.51100000000E-03 0.  1.
    9900012    2    1    2    0    0  0.11131506145E+02 -0.12040778230E+02 -0.90435896581E+01  0.72461620656E+02  0.70000065605E+02 0.  0.
         12    1    1    2    0    0 -0.11131506145E+02  0.12040778230E+02  0.90435896581E+01  0.18726379344E+02  0.00000000000E+00 0. -1.
         11    1    3    3    0    0 -0.71642999513E+01 -0.78242751402E+01 -0.74261481084E+01  0.12949677650E+02  0.51100000000E-03 0. -1.
        -11    1    3    3    0    0 -0.13466584733E+02  0.12449195747E+02 -0.12304396771E+02  0.22084600048E+02  0.51100000000E-03 0.  1.
         12    1    3    3    0    0  0.31762390829E+02 -0.16665698837E+02  0.10686955222E+02  0.37427342957E+02  0.00000000000E+00 0. -1.
</event>
<event>
 7    1  0.2932676E-013  0.7246159E+02  0.7816164E-02  0.1226708E+00
        -11   -1    0    0    0    0  0.00000000000E+00  0.00000000000E+00  0.45593999997E+02  0.45594000000E+02  0.51100000000E-03 0. -1.
         11   -1    0    0    0    0 -0.00000000000E+00 -0.00000000000E+00 -0.45593999997E+02  0.45594000000E+02  0.51100000000E-03 0.  1.
    9900012    2    1    2    0    0 -0.48642146654E+01  0.48307320033E+01 -0.17426474724E+02  0.72461586107E+02  0.70000020599E+02 0.  0.
         12    1    1    2    0    0  0.48642146654E+01 -0.48307320033E+01  0.17426474724E+02  0.18726413893E+02  0.00000000000E+00 0. -1.
         11    1    3    3    0    0 -0.11847010334E+02  0.15049542406E+02 -0.15263535755E+02  0.24491139306E+02  0.51100000000E-03 0. -1.
        -11    1    3    3    0    0 -0.86543421111E+01 -0.14455905198E+02 -0.18458539361E+02  0.24991768807E+02  0.51100000000E-03 0.  1.
         12    1    3    3    0    0  0.15637137780E+02  0.42370947949E+01  0.16295600392E+02  0.22978677995E+02  0.00000000000E+00 0. -1.
</event>
<event>
 7    1  0.2932676E-013  0.7246160E+02  0.7816164E-02  0.1226708E+00
        -11   -1    0    0    0    0  0.00000000000E+00  0.00000000000E+00  0.45593999997E+02  0.45594000000E+02  0.51100000000E-03 0. -1.
         11   -1    0    0    0    0 -0.00000000000E+00 -0.00000000000E+00 -0.45593999997E+02  0.45594000000E+02  0.51100000000E-03 0.  1.
    9900012    2    1    2    0    0 -0.20455825268E+01 -0.18365876459E+02  0.30312270297E+01  0.72461597161E+02  0.70000034999E+02 0.  0.
         12    1    1    2    0    0  0.20455825268E+01  0.18365876459E+02 -0.30312270297E+01  0.18726402839E+02  0.00000000000E+00 0. -1.
         11    1    3    3    0    0 -0.14049700559E+02  0.36823540962E+01 -0.50682524740E+01  0.15383140151E+02  0.51100000000E-03 0. -1.
        -11    1    3    3    0    0  0.10251592228E+02  0.42235354619E+01 -0.17264893869E+02  0.20518527129E+02  0.51100000000E-03 0.  1.
         12    1    3    3    0    0  0.17525258046E+01 -0.26271766017E+02  0.25364373373E+02  0.36559929881E+02  0.00000000000E+00 0. -1.
</event>
<event>
 7    1  0.2932676E-013  0.7246159E+02  0.7816164E-02  0.1226708E+00
        -11   -1    0    0    0    0  0.00000000000E+00  0.00000000000E+00  0.45593999997E+02  0.45594000000E+02  0.51100000000E-03 0.  1.
         11   -1    0    0    0    0 -0.00000000000E+00 -0.00000000000E+00 -0.45593999997E+02  0.45594000000E+02  0.51100000000E-03 0. -1.
    9900012    2    1    2    0    0 -0.14116221346E+02  0.10560979456E+02  0.63147710961E+01  0.72461592812E+02  0.70000029333E+02 0.  0.
         12    1    1    2    0    0  0.14116221346E+02 -0.10560979456E+02 -0.63147710961E+01  0.18726407188E+02  0.00000000000E+00 0. -1.
         11    1    3    3    0    0  0.79543512036E+01 -0.10180289272E+02  0.24816440054E+02  0.27977950067E+02  0.51100000000E-03 0. -1.
        -11    1    3    3    0    0 -0.87307454898E+01  0.13663188354E+01  0.58720577710E+01  0.10610080428E+02  0.51100000000E-03 0.  1.
         12    1    3    3    0    0 -0.13339827060E+02  0.19374949893E+02 -0.24373726729E+02  0.33873562317E+02  0.00000000000E+00 0. -1.
</event>
<event>
 7    1  0.2932676E-013  0.7246089E+02  0.7816164E-02  0.1226710E+00
        -11   -1    0    0    0    0  0.00000000000E+00  0.00000000000E+00  0.45593999997E+02  0.45594000000E+02  0.51100000000E-03 0.  1.
         11   -1    0    0    0    0 -0.00000000000E+00 -0.00000000000E+00 -0.45593999997E+02  0.45594000000E+02  0.51100000000E-03 0. -1.
    9900012    2    1    2    0    0 -0.13711279691E+02 -0.56205261184E+01  0.11450550028E+02  0.72460891292E+02  0.69999115468E+02 0.  0.
         12    1    1    2    0    0  0.13711279691E+02  0.56205261184E+01 -0.11450550028E+02  0.18727108708E+02  0.00000000000E+00 0. -1.
         11    1    3    3    0    0  0.85714394005E+01  0.64407430985E+00 -0.18927156843E+02  0.20787536447E+02  0.51100000000E-03 0. -1.
        -11    1    3    3    0    0 -0.65601640383E+01 -0.94033056207E+01 -0.52455307933E+01  0.12608469470E+02  0.51100000000E-03 0.  1.
        -12    1    3    3    0    0 -0.15722555053E+02  0.31387051925E+01  0.35623237665E+02  0.39064885375E+02  0.00000000000E+00 0.  1.
</event>
<event>
 7    1  0.2932676E-013  0.7246155E+02  0.7816164E-02  0.1226708E+00
        -11   -1    0    0    0    0  0.00000000000E+00  0.00000000000E+00  0.45593999997E+02  0.45594000000E+02  0.51100000000E-03 0. -1.
         11   -1    0    0    0    0 -0.00000000000E+00 -0.00000000000E+00 -0.45593999997E+02  0.45594000000E+02  0.51100000000E-03 0.  1.
    9900012    2    1    2    0    0 -0.17071457027E+02 -0.61797578043E+01  0.45886723339E+01  0.72461549046E+02  0.69999972320E+02 0.  0.
         12    1    1    2    0    0  0.17071457027E+02  0.61797578043E+01 -0.45886723339E+01  0.18726450954E+02  0.00000000000E+00 0. -1.
         11    1    3    3    0    0 -0.20461577731E+02 -0.15114980913E+01  0.19331217085E+02  0.28189656684E+02  0.51100000000E-03 0. -1.
        -11    1    3    3    0    0 -0.78687518352E+01  0.16128489803E+02 -0.45062490405E+01  0.18502748970E+02  0.51100000000E-03 0.  1.
         12    1    3    3    0    0  0.11258872539E+02 -0.20796749516E+02 -0.10236295711E+02  0.25769143392E+02  0.00000000000E+00 0. -1.
</event>
<event>
 7    1  0.2932676E-013  0.7246155E+02  0.7816164E-02  0.1226708E+00
        -11   -1    0    0    0    0  0.00000000000E+00  0.00000000000E+00  0.45593999997E+02  0.45594000000E+02  0.51100000000E-03 0. -1.
         11   -1    0    0    0    0 -0.00000000000E+00 -0.00000000000E+00 -0.45593999997E+02  0.45594000000E+02  0.51100000000E-03 0.  1.
    9900012    2    1    2    0    0 -0.14024599306E+02 -0.73754406254E+01 -0.99796529327E+01  0.72461548580E+02  0.69999971713E+02 0.  0.
         12    1    1    2    0    0  0.14024599306E+02  0.73754406254E+01  0.99796529327E+01  0.18726451420E+02  0.00000000000E+00 0. -1.
         11    1    3    3    0    0  0.58495804499E+01 -0.23932102642E+02  0.10211105668E+01  0.24657773528E+02  0.51100000000E-03 0. -1.
        -11    1    3    3    0    0 -0.82226866551E+01 -0.75811239828E+01 -0.16989252941E+02  0.20340126165E+02  0.51100000000E-03 0.  1.
        -12    1    3    3    0    0 -0.11651493101E+02  0.24137785999E+02  0.59884894410E+01  0.27463648887E+02  0.00000000000E+00 0.  1.
</event>
<event>
 7    1  0.2932676E-013  0.7246157E+02  0.7816164E-02  0.1226708E+00
        -11   -1    0    0    0    0  0.00000000000E+00  0.00000000000E+00  0.45593999997E+02  0.45594000000E+02  0.51100000000E-03 0. -1.
         11   -1    0    0    0    0 -0.00000000000E+00 -0.00000000000E+00 -0.45593999997E+02  0.45594000000E+02  0.51100000000E-03 0.  1.
    9900012    2    1    2    0    0 -0.14711563235E+02  0.63059128598E+01  0.97203113422E+01  0.72461572620E+02  0.70000003030E+02 0.  0.
         12    1    1    2    0    0  0.14711563235E+02 -0.63059128598E+01 -0.97203113422E+01  0.18726427380E+02  0.00000000000E+00 0. -1.
         11    1    3    3    0    0 -0.36132393625E+01 -0.16497999416E+02  0.30630108720E+01  0.17164542501E+02  0.51100000000E-03 0. -1.
        -11    1    3    3    0    0  0.59083149968E+01  0.10450265375E+02 -0.18785895414E+02  0.22294082158E+02  0.51100000000E-03 0.  1.
         12    1    3    3    0    0 -0.17006638869E+02  0.12353646901E+02  0.25443195884E+02  0.33002947961E+02  0.00000000000E+00 0. -1.
</event>
<event>
 7    1  0.2932676E-013  0.7246154E+02  0.7816164E-02  0.1226708E+00
        -11   -1    0    0    0    0  0.00000000000E+00  0.00000000000E+00  0.45593999997E+02  0.45594000000E+02  0.51100000000E-03 0. -1.
         11   -1    0    0    0    0 -0.00000000000E+00 -0.00000000000E+00 -0.45593999997E+02  0.45594000000E+02  0.51100000000E-03 0.  1.
    9900012    2    1    2    0    0 -0.97444691012E+01  0.64345405141E+01 -0.14639746676E+02  0.72461543517E+02  0.69999965117E+02 0.  0.
         12    1    1    2    0    0  0.97444691012E+01 -0.64345405141E+01  0.14639746676E+02  0.18726456483E+02  0.00000000000E+00 0. -1.
         11    1    3    3    0    0  0.59791949033E+00  0.11626275681E+02  0.79636165495E+01  0.14104856707E+02  0.51100000000E-03 0. -1.
        -11    1    3    3    0    0  0.17055475435E+02  0.88503939158E+01 -0.19561101826E+02  0.27419982124E+02  0.51100000000E-03 0.  1.
        -12    1    3    3    0    0 -0.27397864027E+02 -0.14042129082E+02 -0.30422613996E+01  0.30936704686E+02  0.00000000000E+00 0.  1.
</event>
<event>
 7    1  0.2932676E-013  0.7246156E+02  0.7816164E-02  0.1226708E+00
        -11   -1    0    0    0    0  0.00000000000E+00  0.00000000000E+00  0.45593999997E+02  0.45594000000E+02  0.51100000000E-03 0.  1.
         11   -1    0    0    0    0 -0.00000000000E+00 -0.00000000000E+00 -0.45593999997E+02  0.45594000000E+02  0.51100000000E-03 0. -1.
    9900012    2    1    2    0    0  0.67552255854E+01  0.13337681504E+02  0.11276198392E+02  0.72461562251E+02  0.69999989522E+02 0.  0.
         12    1    1    2    0    0 -0.67552255854E+01 -0.13337681504E+02 -0.11276198392E+02  0.18726437749E+02  0.00000000000E+00 0. -1.
         11    1    3    3    0    0  0.14909328661E+02  0.12352058622E+02  0.60955540901E+01  0.20298207144E+02  0.51100000000E-03 0. -1.
        -11    1    3    3    0    0 -0.16871220079E+01  0.20923658810E+02  0.17949772820E+02  0.27619562328E+02  0.51100000000E-03 0.  1.
         12    1    3    3    0    0 -0.64669810677E+01 -0.19938035929E+02 -0.12769128518E+02  0.24543792779E+02  0.00000000000E+00 0. -1.
</event>
<event>
 7    1  0.2932676E-013  0.7246157E+02  0.7816164E-02  0.1226708E+00
        -11   -1    0    0    0    0  0.00000000000E+00  0.00000000000E+00  0.45593999997E+02  0.45594000000E+02  0.51100000000E-03 0.  1.
         11   -1    0    0    0    0 -0.00000000000E+00 -0.00000000000E+00 -0.45593999997E+02  0.45594000000E+02  0.51100000000E-03 0. -1.
    9900012    2    1    2    0    0 -0.14284369907E+02 -0.67542172629E+01  0.10050700202E+02  0.72461568172E+02  0.69999997235E+02 0.  0.
         12    1    1    2    0    0  0.14284369907E+02  0.67542172629E+01 -0.10050700202E+02  0.18726431828E+02  0.00000000000E+00 0. -1.
         11    1    3    3    0    0 -0.11813940813E+01 -0.13488784360E+02 -0.54407697428E+01  0.14592634140E+02  0.51100000000E-03 0. -1.
        -11    1    3    3    0    0  0.17691480805E+02 -0.84392579606E+01  0.12849376404E+02  0.23437492234E+02  0.51100000000E-03 0.  1.
         12    1    3    3    0    0 -0.30794456630E+02  0.15173825057E+02  0.26420935407E+01  0.34431441798E+02  0.00000000000E+00 0. -1.
</event>
<event>
 7    1  0.2932676E-013  0.7246149E+02  0.7816164E-02  0.1226708E+00
        -11   -1    0    0    0    0  0.00000000000E+00  0.00000000000E+00  0.45593999997E+02  0.45594000000E+02  0.51100000000E-03 0.  1.
         11   -1    0    0    0    0 -0.00000000000E+00 -0.00000000000E+00 -0.45593999997E+02  0.45594000000E+02  0.51100000000E-03 0. -1.
    9900012    2    1    2    0    0 -0.69595624051E+01  0.15531640758E+02  0.78112088231E+01  0.72461485194E+02  0.69999889141E+02 0.  0.
         12    1    1    2    0    0  0.69595624051E+01 -0.15531640758E+02 -0.78112088231E+01  0.18726514806E+02  0.00000000000E+00 0. -1.
         11    1    3    3    0    0  0.77664159005E+01 -0.36457700665E+01 -0.23701543999E+02  0.25206587304E+02  0.51100000000E-03 0. -1.
        -11    1    3    3    0    0 -0.22603526279E+01 -0.58740045206E+01  0.20432022067E+01  0.66172349686E+01  0.51100000000E-03 0.  1.
        -12    1    3    3    0    0 -0.12465625678E+02  0.25051415345E+02  0.29469550615E+02  0.40637662922E+02  0.00000000000E+00 0.  1.
</event>
<event>
 7    1  0.2932676E-013  0.7246153E+02  0.7816164E-02  0.1226708E+00
        -11   -1    0    0    0    0  0.00000000000E+00  0.00000000000E+00  0.45593999997E+02  0.45594000000E+02  0.51100000000E-03 0.  1.
         11   -1    0    0    0    0 -0.00000000000E+00 -0.00000000000E+00 -0.45593999997E+02  0.45594000000E+02  0.51100000000E-03 0. -1.
    9900012    2    1    2    0    0  0.10836263641E+02  0.13040892903E+02  0.79492933542E+01  0.72461527768E+02  0.69999944602E+02 0.  0.
         12    1    1    2    0    0 -0.10836263641E+02 -0.13040892903E+02 -0.79492933542E+01  0.18726472232E+02  0.00000000000E+00 0. -1.
         11    1    3    3    0    0 -0.51345295452E+01 -0.20267285712E+01 -0.74853344357E+01  0.93006050463E+01  0.51100000000E-03 0. -1.
        -11    1    3    3    0    0 -0.14267887042E+02  0.18597995168E+02  0.21853687184E+02  0.32047490834E+02  0.51100000000E-03 0.  1.
         12    1    3    3    0    0  0.30238680228E+02 -0.35303736942E+01 -0.64190593945E+01  0.31113431889E+02  0.00000000000E+00 0. -1.
</event>
<event>
 7    1  0.2932676E-013  0.7246157E+02  0.7816164E-02  0.1226708E+00
        -11   -1    0    0    0    0  0.00000000000E+00  0.00000000000E+00  0.45593999997E+02  0.45594000000E+02  0.51100000000E-03 0.  1.
         11   -1    0    0    0    0 -0.00000000000E+00 -0.00000000000E+00 -0.45593999997E+02  0.45594000000E+02  0.51100000000E-03 0. -1.
    9900012    2    1    2    0    0  0.16846871690E+01 -0.40601021785E+01  0.18203205488E+02  0.72461567062E+02  0.69999995789E+02 0.  0.
         12    1    1    2    0    0 -0.16846871690E+01  0.40601021785E+01 -0.18203205488E+02  0.18726432938E+02  0.00000000000E+00 0. -1.
         11    1    3    3    0    0 -0.84432132018E+01 -0.18390044096E+02  0.54896278626E+01  0.20967059531E+02  0.51100000000E-03 0. -1.
        -11    1    3    3    0    0 -0.67475207981E+01 -0.12486432286E+02 -0.51775306378E+01  0.15107840743E+02  0.51100000000E-03 0.  1.
         12    1    3    3    0    0  0.16875421169E+02  0.26816374204E+02  0.17891108263E+02  0.36386666788E+02  0.00000000000E+00 0. -1.
</event>
<event>
 7    1  0.2932676E-013  0.7246155E+02  0.7816164E-02  0.1226708E+00
        -11   -1    0    0    0    0  0.00000000000E+00  0.00000000000E+00  0.45593999997E+02  0.45594000000E+02  0.51100000000E-03 0.  1.
         11   -1    0    0    0    0 -0.00000000000E+00 -0.00000000000E+00 -0.45593999997E+02  0.45594000000E+02  0.51100000000E-03 0. -1.
    9900012    2    1    2    0    0  0.61734604116E+01  0.16627026251E+02  0.60091838338E+01  0.72461550637E+02  0.69999974393E+02 0.  0.
         12    1    1    2    0    0 -0.61734604116E+01 -0.16627026251E+02 -0.60091838338E+01  0.18726449363E+02  0.00000000000E+00 0. -1.
         11    1    3    3    0    0  0.64229767420E+01 -0.32981513198E+01 -0.11923509719E+02  0.13939243761E+02  0.51100000000E-03 0. -1.
        -11    1    3    3    0    0  0.33250595411E+01 -0.17354285077E+02  0.97756135487E+01  0.20193807269E+02  0.51100000000E-03 0.  1.
         12    1    3    3    0    0 -0.35745758716E+01  0.37279462648E+02  0.81570800038E+01  0.38328499607E+02  0.00000000000E+00 0. -1.
</event>
<event>
 7    1  0.2932676E-013  0.7246144E+02  0.7816164E-02  0.1226708E+00
        -11   -1    0    0    0    0  0.00000000000E+00  0.00000000000E+00  0.45593999997E+02  0.45594000000E+02  0.51100000000E-03 0. -1.
         11   -1    0    0    0    0 -0.00000000000E+00 -0.00000000000E+00 -0.45593999997E+02  0.45594000000E+02  0.51100000000E-03 0.  1.
    9900012    2    1    2    0    0  0.57744631129E+01 -0.17611494898E+02 -0.26786261934E+01  0.72461435577E+02  0.69999824506E+02 0.  0.
         12    1    1    2    0    0 -0.57744631129E+01  0.17611494898E+02  0.26786261934E+01  0.18726564423E+02  0.00000000000E+00 0. -1.
         11    1    3    3    0    0 -0.18978696147E+02  0.23169650116E+01  0.38209364054E+00  0.19123420984E+02  0.51100000000E-03 0. -1.
        -11    1    3    3    0    0  0.86245897926E+01  0.93299909826E+01 -0.13301208279E+02  0.18394412814E+02  0.51100000000E-03 0.  1.
         12    1    3    3    0    0  0.16128569468E+02 -0.29258450893E+02  0.10240488445E+02  0.34943601779E+02  0.00000000000E+00 0. -1.
</event>
<event>
 7    1  0.2932676E-013  0.7246160E+02  0.7816164E-02  0.1226708E+00
        -11   -1    0    0    0    0  0.00000000000E+00  0.00000000000E+00  0.45593999997E+02  0.45594000000E+02  0.51100000000E-03 0. -1.
         11   -1    0    0    0    0 -0.00000000000E+00 -0.00000000000E+00 -0.45593999997E+02  0.45594000000E+02  0.51100000000E-03 0.  1.
    9900012    2    1    2    0    0 -0.12450725770E+02  0.69262657073E+01 -0.12152550891E+02  0.72461595593E+02  0.70000032957E+02 0.  0.
         12    1    1    2    0    0  0.12450725770E+02 -0.69262657073E+01  0.12152550891E+02  0.18726404407E+02  0.00000000000E+00 0. -1.
         11    1    3    3    0    0  0.95192186781E+01  0.14604145715E+01  0.20192305812E+02  0.22371355552E+02  0.51100000000E-03 0. -1.
        -11    1    3    3    0    0  0.78082490025E+01  0.26681415337E+01 -0.56496330861E+01  0.10000304295E+02  0.51100000000E-03 0.  1.
        -12    1    3    3    0    0 -0.29778193450E+02  0.27977096020E+01 -0.26695223617E+02  0.40089935746E+02  0.00000000000E+00 0.  1.
</event>
<event>
 7    1  0.2932676E-013  0.7246161E+02  0.7816164E-02  0.1226708E+00
        -11   -1    0    0    0    0  0.00000000000E+00  0.00000000000E+00  0.45593999997E+02  0.45594000000E+02  0.51100000000E-03 0.  1.
         11   -1    0    0    0    0 -0.00000000000E+00 -0.00000000000E+00 -0.45593999997E+02  0.45594000000E+02  0.51100000000E-03 0. -1.
    9900012    2    1    2    0    0  0.49267576278E+01 -0.16335151057E+02  0.77179962182E+01  0.72461613098E+02  0.70000055760E+02 0.  0.
         12    1    1    2    0    0 -0.49267576278E+01  0.16335151057E+02 -0.77179962182E+01  0.18726386902E+02  0.00000000000E+00 0. -1.
         11    1    3    3    0    0  0.64760266543E+01  0.15859278112E+02  0.15666267290E+02  0.23213951722E+02  0.51100000000E-03 0.  1.
        -11    1    3    3    0    0  0.41601306702E+01  0.70228405713E+01 -0.48530945824E+01  0.94962889684E+01  0.51100000000E-03 0. -1.
        -12    1    3    3    0    0 -0.57093996967E+01 -0.39217269741E+02 -0.30951764898E+01  0.39751372408E+02  0.00000000000E+00 0.  1.
</event>
<event>
 7    1  0.2932676E-013  0.7246159E+02  0.7816164E-02  0.1226708E+00
        -11   -1    0    0    0    0  0.00000000000E+00  0.00000000000E+00  0.45593999997E+02  0.45594000000E+02  0.51100000000E-03 0.  1.
         11   -1    0    0    0    0 -0.00000000000E+00 -0.00000000000E+00 -0.45593999997E+02  0.45594000000E+02  0.51100000000E-03 0. -1.
    9900012    2    1    2    0    0 -0.28810308749E+01  0.47261024425E+01  0.17889715773E+02  0.72461593147E+02  0.70000029770E+02 0.  0.
         12    1    1    2    0    0  0.28810308749E+01 -0.47261024425E+01 -0.17889715773E+02  0.18726406853E+02  0.00000000000E+00 0. -1.
         11    1    3    3    0    0  0.13303771279E+02  0.93648897950E+01  0.59413883128E+01  0.17320265196E+02  0.51100000000E-03 0. -1.
        -11    1    3    3    0    0  0.11752391102E+02  0.12552378121E+02 -0.54132934559E+01  0.18027330346E+02  0.51100000000E-03 0.  1.
        -12    1    3    3    0    0 -0.27937193256E+02 -0.17191165474E+02  0.17361620916E+02  0.37113997605E+02  0.00000000000E+00 0.  1.
</event>
<event>
 7    1  0.2932676E-013  0.7246158E+02  0.7816164E-02  0.1226708E+00
        -11   -1    0    0    0    0  0.00000000000E+00  0.00000000000E+00  0.45593999997E+02  0.45594000000E+02  0.51100000000E-03 0.  1.
         11   -1    0    0    0    0 -0.00000000000E+00 -0.00000000000E+00 -0.45593999997E+02  0.45594000000E+02  0.51100000000E-03 0. -1.
    9900012    2    1    2    0    0 -0.10050941418E+02 -0.14678887246E+02  0.58470327281E+01  0.72461576265E+02  0.70000007778E+02 0.  0.
         12    1    1    2    0    0  0.10050941418E+02  0.14678887246E+02 -0.58470327281E+01  0.18726423735E+02  0.00000000000E+00 0. -1.
         11    1    3    3    0    0  0.18774560923E+02 -0.17071198623E+02 -0.74561286046E+01  0.26448134420E+02  0.51100000000E-03 0. -1.
        -11    1    3    3    0    0 -0.14490077049E+02 -0.10336111984E+02  0.18979899488E+02  0.26019879490E+02  0.51100000000E-03 0.  1.
        -12    1    3    3    0    0 -0.14335425292E+02  0.12728423361E+02 -0.56767381555E+01  0.19993562355E+02  0.00000000000E+00 0.  1.
</event>
<event>
 7    1  0.2932676E-013  0.7246202E+02  0.7816164E-02  0.1226707E+00
        -11   -1    0    0    0    0  0.00000000000E+00  0.00000000000E+00  0.45593999997E+02  0.45594000000E+02  0.51100000000E-03 0. -1.
         11   -1    0    0    0    0 -0.00000000000E+00 -0.00000000000E+00 -0.45593999997E+02  0.45594000000E+02  0.51100000000E-03 0.  1.
    9900012    2    1    2    0    0 -0.14495374342E+02  0.60134854868E+01 -0.10216879473E+02  0.72462015081E+02  0.70000579415E+02 0.  0.
         12    1    1    2    0    0  0.14495374342E+02 -0.60134854868E+01  0.10216879473E+02  0.18725984919E+02  0.00000000000E+00 0. -1.
         11    1    3    3    0    0 -0.25402203797E+02 -0.12713874853E+01  0.18324218709E+02  0.31347493925E+02  0.51100000000E-03 0. -1.
        -11    1    3    3    0    0 -0.88057685294E+01  0.11883556063E+01 -0.72801723219E+01  0.11487151855E+02  0.51100000000E-03 0.  1.
         12    1    3    3    0    0  0.19712597984E+02  0.60965173658E+01 -0.21260925860E+02  0.29627369301E+02  0.00000000000E+00 0. -1.
</event>
<event>
 7    1  0.2932676E-013  0.7246171E+02  0.7816164E-02  0.1226708E+00
        -11   -1    0    0    0    0  0.00000000000E+00  0.00000000000E+00  0.45593999997E+02  0.45594000000E+02  0.51100000000E-03 0. -1.
         11   -1    0    0    0    0 -0.00000000000E+00 -0.00000000000E+00 -0.45593999997E+02  0.45594000000E+02  0.51100000000E-03 0.  1.
    9900012    2    1    2    0    0  0.33628983946E+01  0.18293743829E+02 -0.21688340917E+01  0.72461708584E+02  0.70000180147E+02 0.  0.
         12    1    1    2    0    0 -0.33628983946E+01 -0.18293743829E+02  0.21688340917E+01  0.18726291416E+02  0.00000000000E+00 0. -1.
         11    1    3    3    0    0  0.40090328222E+00  0.33754242700E+02  0.33473000031E+01  0.33922176246E+02  0.51100000000E-03 0. -1.
        -11    1    3    3    0    0 -0.24124590152E+01  0.31258831687E+01  0.11881235121E+02  0.12520177808E+02  0.51100000000E-03 0.  1.
        -12    1    3    3    0    0  0.53744541276E+01 -0.18586382040E+02 -0.17397369216E+02  0.26019354529E+02  0.00000000000E+00 0.  1.
</event>
<event>
 7    1  0.2932676E-013  0.7246151E+02  0.7816164E-02  0.1226708E+00
        -11   -1    0    0    0    0  0.00000000000E+00  0.00000000000E+00  0.45593999997E+02  0.45594000000E+02  0.51100000000E-03 0. -1.
         11   -1    0    0    0    0 -0.00000000000E+00 -0.00000000000E+00 -0.45593999997E+02  0.45594000000E+02  0.51100000000E-03 0.  1.
    9900012    2    1    2    0    0  0.13185280440E+02 -0.83898206207E+01 -0.10317004420E+02  0.72461513663E+02  0.69999926227E+02 0.  0.
         12    1    1    2    0    0 -0.13185280440E+02  0.83898206207E+01  0.10317004420E+02  0.18726486337E+02  0.00000000000E+00 0. -1.
         11    1    3    3    0    0 -0.16177376031E+02 -0.11562607977E+02 -0.24442667229E+02  0.31509449059E+02  0.51100000000E-03 0. -1.
        -11    1    3    3    0    0 -0.43203398520E+01 -0.28939691399E+00  0.18452851257E+00  0.43339517814E+01  0.51100000000E-03 0.  1.
         12    1    3    3    0    0  0.33682996323E+02  0.34621842707E+01  0.13941134296E+02  0.36618112822E+02  0.00000000000E+00 0. -1.
</event>
<event>
 7    1  0.2932676E-013  0.7246152E+02  0.7816164E-02  0.1226708E+00
        -11   -1    0    0    0    0  0.00000000000E+00  0.00000000000E+00  0.45593999997E+02  0.45594000000E+02  0.51100000000E-03 0. -1.
         11   -1    0    0    0    0 -0.00000000000E+00 -0.00000000000E+00 -0.45593999997E+02  0.45594000000E+02  0.51100000000E-03 0.  1.
    9900012    2    1    2    0    0  0.15039287696E+02 -0.57636406475E+01 -0.95541251498E+01  0.72461520478E+02  0.69999935105E+02 0.  0.
         12    1    1    2    0    0 -0.15039287696E+02  0.57636406475E+01  0.95541251498E+01  0.18726479522E+02  0.00000000000E+00 0. -1.
         11    1    3    3    0    0  0.31921154589E+02  0.17496783951E+01 -0.20295517531E+02  0.37867261809E+02  0.51100000000E-03 0.  1.
        -11    1    3    3    0    0 -0.12996128077E+02 -0.13344518141E+02 -0.32851885407E+01  0.18914755441E+02  0.51100000000E-03 0. -1.
        -12    1    3    3    0    0 -0.38857388167E+01  0.58311990982E+01  0.14026580922E+02  0.15679503227E+02  0.00000000000E+00 0.  1.
</event>
<event>
 7    1  0.2932676E-013  0.7246168E+02  0.7816164E-02  0.1226708E+00
        -11   -1    0    0    0    0  0.00000000000E+00  0.00000000000E+00  0.45593999997E+02  0.45594000000E+02  0.51100000000E-03 0.  1.
         11   -1    0    0    0    0 -0.00000000000E+00 -0.00000000000E+00 -0.45593999997E+02  0.45594000000E+02  0.51100000000E-03 0. -1.
    9900012    2    1    2    0    0 -0.61751837667E+01 -0.17239454071E+02  0.39170451431E+01  0.72461683922E+02  0.70000148021E+02 0.  0.
         12    1    1    2    0    0  0.61751837667E+01  0.17239454071E+02 -0.39170451431E+01  0.18726316078E+02  0.00000000000E+00 0. -1.
         11    1    3    3    0    0  0.43057223164E+00 -0.14072798709E+02 -0.14523288936E+02  0.20227579630E+02  0.51100000000E-03 0. -1.
        -11    1    3    3    0    0 -0.15588319026E+01 -0.15365340975E+02 -0.11669598794E+02  0.19357251779E+02  0.51100000000E-03 0.  1.
        -12    1    3    3    0    0 -0.50469240958E+01  0.12198685613E+02  0.30109932873E+02  0.32876852512E+02  0.00000000000E+00 0.  1.
</event>
<event>
 7    1  0.2932676E-013  0.7246155E+02  0.7816164E-02  0.1226708E+00
        -11   -1    0    0    0    0  0.00000000000E+00  0.00000000000E+00  0.45593999997E+02  0.45594000000E+02  0.51100000000E-03 0. -1.
         11   -1    0    0    0    0 -0.00000000000E+00 -0.00000000000E+00 -0.45593999997E+02  0.45594000000E+02  0.51100000000E-03 0.  1.
    9900012    2    1    2    0    0 -0.15436897704E+01  0.18392728234E+02  0.31629896438E+01  0.72461549896E+02  0.69999973427E+02 0.  0.
         12    1    1    2    0    0  0.15436897704E+01 -0.18392728234E+02 -0.31629896438E+01  0.18726450104E+02  0.00000000000E+00 0. -1.
         11    1    3    3    0    0 -0.42178072721E+01  0.78939965649E+01  0.11829837790E+01  0.90279859789E+01  0.51100000000E-03 0. -1.
        -11    1    3    3    0    0 -0.17457855709E+02  0.30419131497E+02  0.16016402632E+01  0.35109336917E+02  0.51100000000E-03 0.  1.
         12    1    3    3    0    0  0.20131973211E+02 -0.19920399827E+02  0.37836560158E+00  0.28324227000E+02  0.00000000000E+00 0. -1.
</event>
<event>
 7    1  0.2932676E-013  0.7246155E+02  0.7816164E-02  0.1226708E+00
        -11   -1    0    0    0    0  0.00000000000E+00  0.00000000000E+00  0.45593999997E+02  0.45594000000E+02  0.51100000000E-03 0.  1.
         11   -1    0    0    0    0 -0.00000000000E+00 -0.00000000000E+00 -0.45593999997E+02  0.45594000000E+02  0.51100000000E-03 0. -1.
    9900012    2    1    2    0    0  0.38341732487E+01  0.24287576777E+01  0.18168108409E+02  0.72461550483E+02  0.69999974192E+02 0.  0.
         12    1    1    2    0    0 -0.38341732487E+01 -0.24287576777E+01 -0.18168108409E+02  0.18726449517E+02  0.00000000000E+00 0. -1.
         11    1    3    3    0    0  0.80293472431E+01  0.35551672607E+01 -0.67899547515E+01  0.11100140413E+02  0.51100000000E-03 0. -1.
        -11    1    3    3    0    0  0.15446697072E+02 -0.15520729465E+02  0.29348389238E+02  0.36617228796E+02  0.51100000000E-03 0.  1.
         12    1    3    3    0    0 -0.19641871066E+02  0.14394319882E+02 -0.43903260772E+01  0.24744181274E+02  0.00000000000E+00 0. -1.
</event>
<event>
 7    1  0.2932676E-013  0.7246145E+02  0.7816164E-02  0.1226708E+00
        -11   -1    0    0    0    0  0.00000000000E+00  0.00000000000E+00  0.45593999997E+02  0.45594000000E+02  0.51100000000E-03 0.  1.
         11   -1    0    0    0    0 -0.00000000000E+00 -0.00000000000E+00 -0.45593999997E+02  0.45594000000E+02  0.51100000000E-03 0. -1.
    9900012    2    1    2    0    0  0.84105047866E+01  0.13272381706E+02  0.10187779423E+02  0.72461453162E+02  0.69999847413E+02 0.  0.
         12    1    1    2    0    0 -0.84105047866E+01 -0.13272381706E+02 -0.10187779423E+02  0.18726546838E+02  0.00000000000E+00 0. -1.
         11    1    3    3    0    0 -0.19268982055E+01 -0.18390547736E+00  0.43250346725E+01  0.47384262259E+01  0.51100000000E-03 0. -1.
        -11    1    3    3    0    0 -0.74321215339E+01 -0.74848035665E+01  0.29599425688E+02  0.31422678375E+02  0.51100000000E-03 0.  1.
         12    1    3    3    0    0  0.17769524526E+02  0.20941090750E+02 -0.23736680938E+02  0.36300348561E+02  0.00000000000E+00 0. -1.
</event>
<event>
 7    1  0.2932676E-013  0.7246156E+02  0.7816164E-02  0.1226708E+00
        -11   -1    0    0    0    0  0.00000000000E+00  0.00000000000E+00  0.45593999997E+02  0.45594000000E+02  0.51100000000E-03 0. -1.
         11   -1    0    0    0    0 -0.00000000000E+00 -0.00000000000E+00 -0.45593999997E+02  0.45594000000E+02  0.51100000000E-03 0.  1.
    9900012    2    1    2    0    0 -0.11176540005E+02 -0.13526869365E+02 -0.65412646470E+01  0.72461564555E+02  0.69999992523E+02 0.  0.
         12    1    1    2    0    0  0.11176540005E+02  0.13526869365E+02  0.65412646470E+01  0.18726435445E+02  0.00000000000E+00 0. -1.
         11    1    3    3    0    0 -0.11916333412E+02  0.13517636490E+02 -0.13853838965E+02  0.22730031953E+02  0.51100000000E-03 0. -1.
        -11    1    3    3    0    0  0.10453048818E+02  0.69646495344E+01  0.69611839994E+01  0.14360733117E+02  0.51100000000E-03 0.  1.
        -12    1    3    3    0    0 -0.97132554108E+01 -0.34009155390E+02  0.35139031865E+00  0.35370799484E+02  0.00000000000E+00 0.  1.
</event>
<event>
 7    1  0.2932676E-013  0.7246165E+02  0.7816164E-02  0.1226708E+00
        -11   -1    0    0    0    0  0.00000000000E+00  0.00000000000E+00  0.45593999997E+02  0.45594000000E+02  0.51100000000E-03 0.  1.
         11   -1    0    0    0    0 -0.00000000000E+00 -0.00000000000E+00 -0.45593999997E+02  0.45594000000E+02  0.51100000000E-03 0. -1.
    9900012    2    1    2    0    0  0.57176218093E+01 -0.54047306823E+01  0.16993348000E+02  0.72461649871E+02  0.70000103663E+02 0.  0.
         12    1    1    2    0    0 -0.57176218093E+01  0.54047306823E+01 -0.16993348000E+02  0.18726350129E+02  0.00000000000E+00 0. -1.
         11    1    3    3    0    0  0.17441488972E+02  0.14587164281E+01  0.38324105668E+01  0.17917052274E+02  0.51100000000E-03 0. -1.
        -11    1    3    3    0    0  0.11976866512E+02  0.10464012545E+02  0.18825084747E+02  0.24643958813E+02  0.51100000000E-03 0.  1.
         12    1    3    3    0    0 -0.23700733675E+02 -0.17327459655E+02 -0.56641473141E+01  0.29900638783E+02  0.00000000000E+00 0. -1.
</event>
<event>
 7    1  0.2932676E-013  0.7246159E+02  0.7816164E-02  0.1226708E+00
        -11   -1    0    0    0    0  0.00000000000E+00  0.00000000000E+00  0.45593999997E+02  0.45594000000E+02  0.51100000000E-03 0. -1.
         11   -1    0    0    0    0 -0.00000000000E+00 -0.00000000000E+00 -0.45593999997E+02  0.45594000000E+02  0.51100000000E-03 0.  1.
    9900012    2    1    2    0    0 -0.95687333937E+01  0.12059803762E+02 -0.10662027073E+02  0.72461592260E+02  0.70000028615E+02 0.  0.
         12    1    1    2    0    0  0.95687333937E+01 -0.12059803762E+02  0.10662027073E+02  0.18726407740E+02  0.00000000000E+00 0. -1.
         11    1    3    3    0    0  0.13420841491E+02  0.33077093431E+01 -0.26120362851E+02  0.29552212830E+02  0.51100000000E-03 0. -1.
        -11    1    3    3    0    0 -0.18231188611E+02  0.14075113877E+02 -0.28975555116E+01  0.23213808327E+02  0.51100000000E-03 0.  1.
        -12    1    3    3    0    0 -0.47583862739E+01 -0.53230194585E+01  0.18355891289E+02  0.19695571104E+02  0.00000000000E+00 0.  1.
</event>
<event>
 7    1  0.2932676E-013  0.7246146E+02  0.7816164E-02  0.1226708E+00
        -11   -1    0    0    0    0  0.00000000000E+00  0.00000000000E+00  0.45593999997E+02  0.45594000000E+02  0.51100000000E-03 0. -1.
         11   -1    0    0    0    0 -0.00000000000E+00 -0.00000000000E+00 -0.45593999997E+02  0.45594000000E+02  0.51100000000E-03 0.  1.
    9900012    2    1    2    0    0  0.14597242228E+02 -0.11378572652E+01 -0.11675144088E+02  0.72461462966E+02  0.69999860184E+02 0.  0.
         12    1    1    2    0    0 -0.14597242228E+02  0.11378572652E+01  0.11675144088E+02  0.18726537034E+02  0.00000000000E+00 0. -1.
         11    1    3    3    0    0  0.77545748422E+01  0.70529912048E+01  0.14463296731E+02  0.17862392575E+02  0.51100000000E-03 0. -1.
        -11    1    3    3    0    0 -0.16382937435E+02 -0.20272966745E+01  0.30548196067E+01  0.16788165293E+02  0.51100000000E-03 0.  1.
        -12    1    3    3    0    0  0.23225604821E+02 -0.61635517956E+01 -0.29193260426E+02  0.37810905098E+02  0.00000000000E+00 0.  1.
</event>
<event>
 7    1  0.2932676E-013  0.7246159E+02  0.7816164E-02  0.1226708E+00
        -11   -1    0    0    0    0  0.00000000000E+00  0.00000000000E+00  0.45593999997E+02  0.45594000000E+02  0.51100000000E-03 0.  1.
         11   -1    0    0    0    0 -0.00000000000E+00 -0.00000000000E+00 -0.45593999997E+02  0.45594000000E+02  0.51100000000E-03 0. -1.
    9900012    2    1    2    0    0  0.11617548373E+02  0.10194453115E+02  0.10572792485E+02  0.72461594968E+02  0.70000032141E+02 0.  0.
         12    1    1    2    0    0 -0.11617548373E+02 -0.10194453115E+02 -0.10572792485E+02  0.18726405032E+02  0.00000000000E+00 0. -1.
         11    1    3    3    0    0 -0.17140994581E+02 -0.33966635065E+01 -0.83468121402E+01  0.19365440645E+02  0.51100000000E-03 0. -1.
        -11    1    3    3    0    0  0.64393357279E+00 -0.41268050877E+01 -0.88518989149E+01  0.97878131030E+01  0.51100000000E-03 0.  1.
        -12    1    3    3    0    0  0.28114609381E+02  0.17717921709E+02  0.27771503540E+02  0.43308341220E+02  0.00000000000E+00 0.  1.
</event>
<event>
 7    1  0.2932676E-013  0.7246162E+02  0.7816164E-02  0.1226708E+00
        -11   -1    0    0    0    0  0.00000000000E+00  0.00000000000E+00  0.45593999997E+02  0.45594000000E+02  0.51100000000E-03 0. -1.
         11   -1    0    0    0    0 -0.00000000000E+00 -0.00000000000E+00 -0.45593999997E+02  0.45594000000E+02  0.51100000000E-03 0.  1.
    9900012    2    1    2    0    0 -0.37112105138E+00 -0.17682315099E+02 -0.61542837824E+01  0.72461622695E+02  0.70000068261E+02 0.  0.
         12    1    1    2    0    0  0.37112105138E+00  0.17682315099E+02  0.61542837824E+01  0.18726377305E+02  0.00000000000E+00 0. -1.
         11    1    3    3    0    0 -0.17147552235E+02 -0.23235921388E+02 -0.15842472338E+02  0.32938283508E+02  0.51100000000E-03 0. -1.
        -11    1    3    3    0    0  0.89279611604E+01 -0.94980980955E+01  0.16675997473E+02  0.21166276241E+02  0.51100000000E-03 0.  1.
        -12    1    3    3    0    0  0.78484700233E+01  0.15051704384E+02 -0.69878089174E+01  0.18357062946E+02  0.00000000000E+00 0.  1.
</event>
<event>
 7    1  0.2932676E-013  0.7246182E+02  0.7816164E-02  0.1226707E+00
        -11   -1    0    0    0    0  0.00000000000E+00  0.00000000000E+00  0.45593999997E+02  0.45594000000E+02  0.51100000000E-03 0.  1.
         11   -1    0    0    0    0 -0.00000000000E+00 -0.00000000000E+00 -0.45593999997E+02  0.45594000000E+02  0.51100000000E-03 0. -1.
    9900012    2    1    2    0    0  0.12781186182E+02  0.11065674798E+02 -0.80536884553E+01  0.72461821086E+02  0.70000326702E+02 0.  0.
         12    1    1    2    0    0 -0.12781186182E+02 -0.11065674798E+02  0.80536884553E+01  0.18726178914E+02  0.00000000000E+00 0. -1.
         11    1    3    3    0    0  0.24442932314E+01  0.71683485794E+01 -0.17799612357E+02  0.19343887693E+02  0.51100000000E-03 0. -1.
        -11    1    3    3    0    0 -0.17312805902E+02  0.12261252435E+02  0.11585824336E+02  0.24172357876E+02  0.51100000000E-03 0.  1.
        -12    1    3    3    0    0  0.27649698853E+02 -0.83639262158E+01 -0.18399004351E+01  0.28945575517E+02  0.00000000000E+00 0.  1.
</event>
<event>
 7    1  0.2932676E-013  0.7246173E+02  0.7816164E-02  0.1226708E+00
        -11   -1    0    0    0    0  0.00000000000E+00  0.00000000000E+00  0.45593999997E+02  0.45594000000E+02  0.51100000000E-03 0.  1.
         11   -1    0    0    0    0 -0.00000000000E+00 -0.00000000000E+00 -0.45593999997E+02  0.45594000000E+02  0.51100000000E-03 0. -1.
    9900012    2    1    2    0    0 -0.51334372034E+00  0.94585277740E+01  0.16153817739E+02  0.72461732434E+02  0.70000211216E+02 0.  0.
         12    1    1    2    0    0  0.51334372034E+00 -0.94585277740E+01 -0.16153817739E+02  0.18726267566E+02  0.00000000000E+00 0. -1.
         11    1    3    3    0    0 -0.43000753761E+01 -0.46670398519E+01  0.62693381909E+01  0.89205667327E+01  0.51100000000E-03 0. -1.
        -11    1    3    3    0    0  0.67135273118E+01  0.36648213074E+02  0.15160453171E+02  0.40224399449E+02  0.51100000000E-03 0.  1.
         12    1    3    3    0    0 -0.29267956560E+01 -0.22522645448E+02 -0.52759736228E+01  0.23316766252E+02  0.00000000000E+00 0. -1.
</event>
<event>
 7    1  0.2932676E-013  0.7246157E+02  0.7816164E-02  0.1226708E+00
        -11   -1    0    0    0    0  0.00000000000E+00  0.00000000000E+00  0.45593999997E+02  0.45594000000E+02  0.51100000000E-03 0.  1.
         11   -1    0    0    0    0 -0.00000000000E+00 -0.00000000000E+00 -0.45593999997E+02  0.45594000000E+02  0.51100000000E-03 0. -1.
    9900012    2    1    2    0    0  0.36644102276E+01  0.20434791243E+01  0.18250352880E+02  0.72461572431E+02  0.70000002783E+02 0.  0.
         12    1    1    2    0    0 -0.36644102276E+01 -0.20434791243E+01 -0.18250352880E+02  0.18726427569E+02  0.00000000000E+00 0. -1.
         11    1    3    3    0    0 -0.83446591309E+01 -0.63222717522E+01 -0.80742114256E+01  0.13221094755E+02  0.51100000000E-03 0. -1.
        -11    1    3    3    0    0 -0.10506517513E+02 -0.16014728366E+02  0.14451312677E+02  0.23993725705E+02  0.51100000000E-03 0.  1.
         12    1    3    3    0    0  0.22515586871E+02  0.24380479242E+02  0.11873251629E+02  0.35246751971E+02  0.00000000000E+00 0. -1.
</event>
<event>
 7    1  0.2932676E-013  0.7246158E+02  0.7816164E-02  0.1226708E+00
        -11   -1    0    0    0    0  0.00000000000E+00  0.00000000000E+00  0.45593999997E+02  0.45594000000E+02  0.51100000000E-03 0.  1.
         11   -1    0    0    0    0 -0.00000000000E+00 -0.00000000000E+00 -0.45593999997E+02  0.45594000000E+02  0.51100000000E-03 0. -1.
    9900012    2    1    2    0    0  0.14499373132E+02 -0.11734596444E+02 -0.16571670173E+01  0.72461580763E+02  0.70000013638E+02 0.  0.
         12    1    1    2    0    0 -0.14499373132E+02  0.11734596444E+02  0.16571670173E+01  0.18726419237E+02  0.00000000000E+00 0. -1.
         11    1    3    3    0    0  0.30508177707E+02  0.72006297122E+00 -0.11915359434E+02  0.32760390541E+02  0.51100000000E-03 0. -1.
        -11    1    3    3    0    0  0.71848171073E+01  0.24874617642E+01  0.94103816303E+01  0.12098113307E+02  0.51100000000E-03 0.  1.
        -12    1    3    3    0    0 -0.23193621683E+02 -0.14942121179E+02  0.84781078631E+00  0.27603076916E+02  0.00000000000E+00 0.  1.
</event>
<event>
 7    1  0.2932676E-013  0.7246148E+02  0.7816164E-02  0.1226708E+00
        -11   -1    0    0    0    0  0.00000000000E+00  0.00000000000E+00  0.45593999997E+02  0.45594000000E+02  0.51100000000E-03 0. -1.
         11   -1    0    0    0    0 -0.00000000000E+00 -0.00000000000E+00 -0.45593999997E+02  0.45594000000E+02  0.51100000000E-03 0.  1.
    9900012    2    1    2    0    0  0.47786426541E+01  0.12264431743E+02 -0.13320315215E+02  0.72461481129E+02  0.69999883846E+02 0.  0.
         12    1    1    2    0    0 -0.47786426541E+01 -0.12264431743E+02  0.13320315215E+02  0.18726518871E+02  0.00000000000E+00 0. -1.
         11    1    3    3    0    0 -0.35282501538E+01  0.17941129619E+02  0.63704685440E+01  0.19362736142E+02  0.51100000000E-03 0. -1.
        -11    1    3    3    0    0  0.10131995685E+02  0.19170037024E+02 -0.17906962283E+02  0.28121290058E+02  0.51100000000E-03 0.  1.
        -12    1    3    3    0    0 -0.18251028767E+01 -0.24846734900E+02 -0.17838214758E+01  0.24977454930E+02  0.00000000000E+00 0.  1.
</event>
<event>
 7    1  0.2932676E-013  0.7246153E+02  0.7816164E-02  0.1226708E+00
        -11   -1    0    0    0    0  0.00000000000E+00  0.00000000000E+00  0.45593999997E+02  0.45594000000E+02  0.51100000000E-03 0.  1.
         11   -1    0    0    0    0 -0.00000000000E+00 -0.00000000000E+00 -0.45593999997E+02  0.45594000000E+02  0.51100000000E-03 0. -1.
    9900012    2    1    2    0    0 -0.11222169537E+02  0.93554107269E+00  0.14962231612E+02  0.72461529402E+02  0.69999946731E+02 0.  0.
         12    1    1    2    0    0  0.11222169537E+02 -0.93554107269E+00 -0.14962231612E+02  0.18726470598E+02  0.00000000000E+00 0. -1.
         11    1    3    3    0    0 -0.60556920519E+00  0.17359635830E+02 -0.14771598249E+01  0.17432890512E+02  0.51100000000E-03 0. -1.
        -11    1    3    3    0    0  0.16867136276E+02  0.48730221277E+01  0.77396464147E+01  0.19187202967E+02  0.51100000000E-03 0.  1.
         12    1    3    3    0    0 -0.27483736608E+02 -0.21297116885E+02  0.86997450228E+01  0.35841435923E+02  0.00000000000E+00 0. -1.
</event>
<event>
 7    1  0.2932676E-013  0.7246156E+02  0.7816164E-02  0.1226708E+00
        -11   -1    0    0    0    0  0.00000000000E+00  0.00000000000E+00  0.45593999997E+02  0.45594000000E+02  0.51100000000E-03 0.  1.
         11   -1    0    0    0    0 -0.00000000000E+00 -0.00000000000E+00 -0.45593999997E+02  0.45594000000E+02  0.51100000000E-03 0. -1.
    9900012    2    1    2    0    0  0.19785693435E+01  0.18362101377E+02 -0.30980824417E+01  0.72461558308E+02  0.69999984385E+02 0.  0.
         12    1    1    2    0    0 -0.19785693435E+01 -0.18362101377E+02  0.30980824417E+01  0.18726441692E+02  0.00000000000E+00 0. -1.
         11    1    3    3    0    0 -0.42343529633E+01  0.11764695044E+02 -0.36412234078E+00  0.12508812087E+02  0.51100000000E-03 0. -1.
        -11    1    3    3    0    0 -0.14638910894E+02  0.26925236966E+02  0.51118930560E+00  0.30651711414E+02  0.51100000000E-03 0.  1.
         12    1    3    3    0    0  0.20851833201E+02 -0.20327830633E+02 -0.32451494065E+01  0.29301034807E+02  0.00000000000E+00 0. -1.
</event>
<event>
 7    1  0.2932676E-013  0.7246158E+02  0.7816164E-02  0.1226708E+00
        -11   -1    0    0    0    0  0.00000000000E+00  0.00000000000E+00  0.45593999997E+02  0.45594000000E+02  0.51100000000E-03 0.  1.
         11   -1    0    0    0    0 -0.00000000000E+00 -0.00000000000E+00 -0.45593999997E+02  0.45594000000E+02  0.51100000000E-03 0. -1.
    9900012    2    1    2    0    0  0.22054805999E+01 -0.42097119782E+01  0.18113342412E+02  0.72461575009E+02  0.70000006141E+02 0.  0.
         12    1    1    2    0    0 -0.22054805999E+01  0.42097119782E+01 -0.18113342412E+02  0.18726424991E+02  0.00000000000E+00 0. -1.
         11    1    3    3    0    0  0.21933270763E+02 -0.29140786732E+01  0.16619210356E+02  0.27672339511E+02  0.51100000000E-03 0. -1.
        -11    1    3    3    0    0  0.53631777312E+01 -0.12080036942E+02  0.95605868393E+01  0.16312442763E+02  0.51100000000E-03 0.  1.
         12    1    3    3    0    0 -0.25090967895E+02  0.10784403637E+02 -0.80664547836E+01  0.28476792735E+02  0.00000000000E+00 0. -1.
</event>
<event>
 7    1  0.2932676E-013  0.7246150E+02  0.7816164E-02  0.1226708E+00
        -11   -1    0    0    0    0  0.00000000000E+00  0.00000000000E+00  0.45593999997E+02  0.45594000000E+02  0.51100000000E-03 0.  1.
         11   -1    0    0    0    0 -0.00000000000E+00 -0.00000000000E+00 -0.45593999997E+02  0.45594000000E+02  0.51100000000E-03 0. -1.
    9900012    2    1    2    0    0 -0.61640029256E+01  0.16988103664E+02  0.49082744909E+01  0.72461501218E+02  0.69999910015E+02 0.  0.
         12    1    1    2    0    0  0.61640029256E+01 -0.16988103664E+02 -0.49082744909E+01  0.18726498782E+02  0.00000000000E+00 0. -1.
         11    1    3    3    0    0 -0.76556800329E+01 -0.14918027171E+02 -0.13011052290E+02  0.21223676718E+02  0.51100000000E-03 0. -1.
        -11    1    3    3    0    0 -0.15406836454E+02  0.69274915919E+01  0.11411501722E+02  0.20385855908E+02  0.51100000000E-03 0.  1.
        -12    1    3    3    0    0  0.16898513562E+02  0.24978639243E+02  0.65078250590E+01  0.30851968592E+02  0.00000000000E+00 0.  1.
</event>
<event>
 7    1  0.2932676E-013  0.7246156E+02  0.7816164E-02  0.1226708E+00
        -11   -1    0    0    0    0  0.00000000000E+00  0.00000000000E+00  0.45593999997E+02  0.45594000000E+02  0.51100000000E-03 0.  1.
         11   -1    0    0    0    0 -0.00000000000E+00 -0.00000000000E+00 -0.45593999997E+02  0.45594000000E+02  0.51100000000E-03 0. -1.
    9900012    2    1    2    0    0  0.10069013444E+02 -0.13574279038E+02  0.80643344670E+01  0.72461559507E+02  0.69999985947E+02 0.  0.
         12    1    1    2    0    0 -0.10069013444E+02  0.13574279038E+02 -0.80643344670E+01  0.18726440493E+02  0.00000000000E+00 0. -1.
         11    1    3    3    0    0  0.30961214566E+01  0.12246533176E+02  0.82191211648E+01  0.15070417907E+02  0.51100000000E-03 0. -1.
        -11    1    3    3    0    0  0.25233951884E+02 -0.28788379099E+02  0.38073408062E+01  0.38471014324E+02  0.51100000000E-03 0.  1.
         12    1    3    3    0    0 -0.18261059897E+02  0.29675668847E+01 -0.39621275041E+01  0.18920127275E+02  0.00000000000E+00 0. -1.
</event>
<event>
 7    1  0.2932676E-013  0.7246214E+02  0.7816164E-02  0.1226706E+00
        -11   -1    0    0    0    0  0.00000000000E+00  0.00000000000E+00  0.45593999997E+02  0.45594000000E+02  0.51100000000E-03 0. -1.
         11   -1    0    0    0    0 -0.00000000000E+00 -0.00000000000E+00 -0.45593999997E+02  0.45594000000E+02  0.51100000000E-03 0.  1.
    9900012    2    1    2    0    0 -0.17772993539E+02  0.44387982901E+01 -0.38827089143E+01  0.72462144662E+02  0.70000748217E+02 0.  0.
         12    1    1    2    0    0  0.17772993539E+02 -0.44387982901E+01  0.38827089143E+01  0.18725855338E+02  0.00000000000E+00 0. -1.
         11    1    3    3    0    0 -0.28552690302E+02  0.74873721790E+01  0.13120507754E+02  0.32302702513E+02  0.51100000000E-03 0. -1.
        -11    1    3    3    0    0 -0.12041746814E+02  0.31942021057E+01 -0.36048852192E+01  0.12969263322E+02  0.51100000000E-03 0.  1.
        -12    1    3    3    0    0  0.22821443577E+02 -0.62427759946E+01 -0.13398331449E+02  0.27190178827E+02  0.00000000000E+00 0.  1.
</event>
<event>
 7    1  0.2932676E-013  0.7246156E+02  0.7816164E-02  0.1226708E+00
        -11   -1    0    0    0    0  0.00000000000E+00  0.00000000000E+00  0.45593999997E+02  0.45594000000E+02  0.51100000000E-03 0.  1.
         11   -1    0    0    0    0 -0.00000000000E+00 -0.00000000000E+00 -0.45593999997E+02  0.45594000000E+02  0.51100000000E-03 0. -1.
    9900012    2    1    2    0    0 -0.25869368923E+01  0.18363765024E+02  0.25998770052E+01  0.72461562304E+02  0.69999989591E+02 0.  0.
         12    1    1    2    0    0  0.25869368923E+01 -0.18363765024E+02 -0.25998770052E+01  0.18726437696E+02  0.00000000000E+00 0. -1.
         11    1    3    3    0    0  0.77768214227E+01  0.13743076697E+02 -0.58913529962E+01  0.16854054377E+02  0.51100000000E-03 0.  1.
        -11    1    3    3    0    0 -0.31413702313E+00  0.97402497264E+01 -0.21478420185E+02  0.23585878841E+02  0.51100000000E-03 0. -1.
        -12    1    3    3    0    0 -0.10049621292E+02 -0.51195613998E+01  0.29969650186E+02  0.32021629086E+02  0.00000000000E+00 0.  1.
</event>
<event>
 7    1  0.2932676E-013  0.7246163E+02  0.7816164E-02  0.1226708E+00
        -11   -1    0    0    0    0  0.00000000000E+00  0.00000000000E+00  0.45593999997E+02  0.45594000000E+02  0.51100000000E-03 0.  1.
         11   -1    0    0    0    0 -0.00000000000E+00 -0.00000000000E+00 -0.45593999997E+02  0.45594000000E+02  0.51100000000E-03 0. -1.
    9900012    2    1    2    0    0  0.90992573783E-01 -0.18529644565E+02 -0.27057553836E+01  0.72461625029E+02  0.70000071302E+02 0.  0.
         12    1    1    2    0    0 -0.90992573783E-01  0.18529644565E+02  0.27057553836E+01  0.18726374971E+02  0.00000000000E+00 0. -1.
         11    1    3    3    0    0 -0.15734212244E+02  0.13531808539E+02 -0.10353118932E+02  0.23191859545E+02  0.51100000000E-03 0. -1.
        -11    1    3    3    0    0 -0.63730553331E+01 -0.17259256314E+02  0.12375521305E+02  0.22173211103E+02  0.51100000000E-03 0.  1.
        -12    1    3    3    0    0  0.22198260151E+02 -0.14802196790E+02 -0.47281577568E+01  0.27096554381E+02  0.00000000000E+00 0.  1.
</event>
<event>
 7    1  0.2932676E-013  0.7246162E+02  0.7816164E-02  0.1226708E+00
        -11   -1    0    0    0    0  0.00000000000E+00  0.00000000000E+00  0.45593999997E+02  0.45594000000E+02  0.51100000000E-03 0.  1.
         11   -1    0    0    0    0 -0.00000000000E+00 -0.00000000000E+00 -0.45593999997E+02  0.45594000000E+02  0.51100000000E-03 0. -1.
    9900012    2    1    2    0    0 -0.18704791154E+02  0.75991786776E+00 -0.48016658178E+00  0.72461621620E+02  0.70000066861E+02 0.  0.
         12    1    1    2    0    0  0.18704791154E+02 -0.75991786776E+00  0.48016658178E+00  0.18726378380E+02  0.00000000000E+00 0. -1.
         11    1    3    3    0    0  0.11753131028E+02  0.27208861927E+01  0.20518825165E+01  0.12237219160E+02  0.51100000000E-03 0. -1.
        -11    1    3    3    0    0  0.99206771279E+01 -0.14780804913E+02 -0.10983040741E+01  0.17835310500E+02  0.51100000000E-03 0.  1.
        -12    1    3    3    0    0 -0.40378599310E+02  0.12819836588E+02 -0.14337450241E+01  0.42389091960E+02  0.00000000000E+00 0.  1.
</event>
<event>
 7    1  0.2932676E-013  0.7246152E+02  0.7816164E-02  0.1226708E+00
        -11   -1    0    0    0    0  0.00000000000E+00  0.00000000000E+00  0.45593999997E+02  0.45594000000E+02  0.51100000000E-03 0. -1.
         11   -1    0    0    0    0 -0.00000000000E+00 -0.00000000000E+00 -0.45593999997E+02  0.45594000000E+02  0.51100000000E-03 0.  1.
    9900012    2    1    2    0    0  0.12746704600E+02 -0.10286163223E+02 -0.90773029392E+01  0.72461519800E+02  0.69999934222E+02 0.  0.
         12    1    1    2    0    0 -0.12746704600E+02  0.10286163223E+02  0.90773029392E+01  0.18726480200E+02  0.00000000000E+00 0. -1.
         11    1    3    3    0    0  0.42177853623E+00  0.11945660214E+02  0.13568937438E+02  0.18082941091E+02  0.51100000000E-03 0. -1.
        -11    1    3    3    0    0 -0.83609529359E+01 -0.24895438489E+02 -0.43209937477E+01  0.26615021675E+02  0.51100000000E-03 0.  1.
        -12    1    3    3    0    0  0.20685879000E+02  0.26636150519E+01 -0.18325246629E+02  0.27763557034E+02  0.00000000000E+00 0.  1.
</event>
<event>
 7    1  0.2932676E-013  0.7246235E+02  0.7816164E-02  0.1226706E+00
        -11   -1    0    0    0    0  0.00000000000E+00  0.00000000000E+00  0.45593999997E+02  0.45594000000E+02  0.51100000000E-03 0. -1.
         11   -1    0    0    0    0 -0.00000000000E+00 -0.00000000000E+00 -0.45593999997E+02  0.45594000000E+02  0.51100000000E-03 0.  1.
    9900012    2    1    2    0    0 -0.10060834826E+02 -0.10027966261E+02 -0.12201207038E+02  0.72462350267E+02  0.70001016052E+02 0.  0.
         12    1    1    2    0    0  0.10060834826E+02  0.10027966261E+02  0.12201207038E+02  0.18725649733E+02  0.00000000000E+00 0. -1.
         11    1    3    3    0    0 -0.44657317772E+01 -0.71465934194E+01  0.37010004832E+00  0.84352553082E+01  0.51100000000E-03 0. -1.
        -11    1    3    3    0    0  0.45878049743E+01 -0.31138808658E+02 -0.22745432589E-01  0.31474972228E+02  0.51100000000E-03 0.  1.
         12    1    3    3    0    0 -0.10182908023E+02  0.28257435817E+02 -0.12548561654E+02  0.32552122731E+02  0.00000000000E+00 0. -1.
</event>
<event>
 7    1  0.2932676E-013  0.7246156E+02  0.7816164E-02  0.1226708E+00
        -11   -1    0    0    0    0  0.00000000000E+00  0.00000000000E+00  0.45593999997E+02  0.45594000000E+02  0.51100000000E-03 0.  1.
         11   -1    0    0    0    0 -0.00000000000E+00 -0.00000000000E+00 -0.45593999997E+02  0.45594000000E+02  0.51100000000E-03 0. -1.
    9900012    2    1    2    0    0 -0.18146827655E+02  0.44346294522E+01 -0.13063043510E+01  0.72461555506E+02  0.69999980735E+02 0.  0.
         12    1    1    2    0    0  0.18146827655E+02 -0.44346294522E+01  0.13063043510E+01  0.18726444494E+02  0.00000000000E+00 0. -1.
         11    1    3    3    0    0 -0.21935018102E+02  0.66395223551E+01 -0.20621267205E+02  0.30829611377E+02  0.51100000000E-03 0. -1.
        -11    1    3    3    0    0 -0.12162618447E+02  0.21718859047E+01 -0.40527039103E+01  0.13002722220E+02  0.51100000000E-03 0.  1.
        -12    1    3    3    0    0  0.15950808894E+02 -0.43767788076E+01  0.23367666765E+02  0.28629221909E+02  0.00000000000E+00 0.  1.
</event>
<event>
 7    1  0.2932676E-013  0.7246119E+02  0.7816164E-02  0.1226709E+00
        -11   -1    0    0    0    0  0.00000000000E+00  0.00000000000E+00  0.45593999997E+02  0.45594000000E+02  0.51100000000E-03 0. -1.
         11   -1    0    0    0    0 -0.00000000000E+00 -0.00000000000E+00 -0.45593999997E+02  0.45594000000E+02  0.51100000000E-03 0.  1.
    9900012    2    1    2    0    0 -0.47220200688E+01 -0.18113297058E+02  0.55170741207E+00  0.72461190744E+02  0.69999505563E+02 0.  0.
         12    1    1    2    0    0  0.47220200688E+01  0.18113297058E+02 -0.55170741207E+00  0.18726809256E+02  0.00000000000E+00 0. -1.
         11    1    3    3    0    0 -0.18602279002E+02 -0.12084229342E+02  0.59241422125E+01  0.22960157754E+02  0.51100000000E-03 0. -1.
        -11    1    3    3    0    0 -0.95191758557E+01 -0.23154060936E+01  0.15226670494E+02  0.18106002014E+02  0.51100000000E-03 0.  1.
        -12    1    3    3    0    0  0.23399434789E+02 -0.37136616224E+01 -0.20599105294E+02  0.31395030976E+02  0.00000000000E+00 0.  1.
</event>
<event>
 7    1  0.2932676E-013  0.7246154E+02  0.7816164E-02  0.1226708E+00
        -11   -1    0    0    0    0  0.00000000000E+00  0.00000000000E+00  0.45593999997E+02  0.45594000000E+02  0.51100000000E-03 0. -1.
         11   -1    0    0    0    0 -0.00000000000E+00 -0.00000000000E+00 -0.45593999997E+02  0.45594000000E+02  0.51100000000E-03 0.  1.
    9900012    2    1    2    0    0 -0.17555422263E+01 -0.14024618329E+02 -0.12284484005E+02  0.72461537572E+02  0.69999957373E+02 0.  0.
         12    1    1    2    0    0  0.17555422263E+01  0.14024618329E+02  0.12284484005E+02  0.18726462428E+02  0.00000000000E+00 0. -1.
         11    1    3    3    0    0 -0.17741226409E+01 -0.23168371657E+02 -0.16428326793E+02  0.28457176211E+02  0.51100000000E-03 0. -1.
        -11    1    3    3    0    0  0.10063113818E+02  0.37004182478E-01 -0.16487987181E+02  0.19316349308E+02  0.51100000000E-03 0.  1.
         12    1    3    3    0    0 -0.10044533404E+02  0.91067491455E+01  0.20631829969E+02  0.24688012054E+02  0.00000000000E+00 0. -1.
</event>
<event>
 7    1  0.2932676E-013  0.7246121E+02  0.7816164E-02  0.1226709E+00
        -11   -1    0    0    0    0  0.00000000000E+00  0.00000000000E+00  0.45593999997E+02  0.45594000000E+02  0.51100000000E-03 0. -1.
         11   -1    0    0    0    0 -0.00000000000E+00 -0.00000000000E+00 -0.45593999997E+02  0.45594000000E+02  0.51100000000E-03 0.  1.
    9900012    2    1    2    0    0  0.10404141059E+02  0.15570532970E+02 -0.70308401781E-01  0.72461211930E+02  0.69999533162E+02 0.  0.
         12    1    1    2    0    0 -0.10404141059E+02 -0.15570532970E+02  0.70308401781E-01  0.18726788070E+02  0.00000000000E+00 0. -1.
         11    1    3    3    0    0 -0.28528594715E+01  0.21446205846E+02 -0.85939590033E+01  0.23279490629E+02  0.51100000000E-03 0. -1.
        -11    1    3    3    0    0 -0.11630312654E+02 -0.61719830189E+01 -0.11309482392E+02  0.17356898889E+02  0.51100000000E-03 0.  1.
         12    1    3    3    0    0  0.24887313184E+02  0.29631014333E+00  0.19833132994E+02  0.31824822412E+02  0.00000000000E+00 0. -1.
</event>
<event>
 7    1  0.2932676E-013  0.7246136E+02  0.7816164E-02  0.1226709E+00
        -11   -1    0    0    0    0  0.00000000000E+00  0.00000000000E+00  0.45593999997E+02  0.45594000000E+02  0.51100000000E-03 0.  1.
         11   -1    0    0    0    0 -0.00000000000E+00 -0.00000000000E+00 -0.45593999997E+02  0.45594000000E+02  0.51100000000E-03 0. -1.
    9900012    2    1    2    0    0 -0.69483823246E+01 -0.50384955212E+01  0.16643933008E+02  0.72461362288E+02  0.69999729032E+02 0.  0.
         12    1    1    2    0    0  0.69483823246E+01  0.50384955212E+01 -0.16643933008E+02  0.18726637712E+02  0.00000000000E+00 0. -1.
         11    1    3    3    0    0  0.65857614985E+01 -0.28112463684E+02  0.23970039503E+02  0.37526599406E+02  0.51100000000E-03 0. -1.
        -11    1    3    3    0    0  0.21900200106E+01 -0.26624849765E+01 -0.27915588043E+01  0.44359682952E+01  0.51100000000E-03 0.  1.
        -12    1    3    3    0    0 -0.15724163834E+02  0.25736453140E+02 -0.45345476911E+01  0.30498794587E+02  0.00000000000E+00 0.  1.
</event>
<event>
 7    1  0.2932676E-013  0.7246160E+02  0.7816164E-02  0.1226708E+00
        -11   -1    0    0    0    0  0.00000000000E+00  0.00000000000E+00  0.45593999997E+02  0.45594000000E+02  0.51100000000E-03 0.  1.
         11   -1    0    0    0    0 -0.00000000000E+00 -0.00000000000E+00 -0.45593999997E+02  0.45594000000E+02  0.51100000000E-03 0. -1.
    9900012    2    1    2    0    0 -0.26348604285E+01 -0.18477504700E+02  0.15222527122E+01  0.72461603584E+02  0.70000043366E+02 0.  0.
         12    1    1    2    0    0  0.26348604285E+01  0.18477504700E+02 -0.15222527122E+01  0.18726396416E+02  0.00000000000E+00 0. -1.
         11    1    3    3    0    0 -0.25919415239E+02 -0.25711989535E+02 -0.16399308039E+02  0.40023240705E+02  0.51100000000E-03 0. -1.
        -11    1    3    3    0    0  0.58650855020E+01 -0.17810847628E+01  0.90033782971E+01  0.10891846120E+02  0.51100000000E-03 0.  1.
        -12    1    3    3    0    0  0.17419469308E+02  0.90155695974E+01  0.89181824541E+01  0.21546516759E+02  0.00000000000E+00 0.  1.
</event>
<event>
 7    1  0.2932676E-013  0.7246162E+02  0.7816164E-02  0.1226708E+00
        -11   -1    0    0    0    0  0.00000000000E+00  0.00000000000E+00  0.45593999997E+02  0.45594000000E+02  0.51100000000E-03 0.  1.
         11   -1    0    0    0    0 -0.00000000000E+00 -0.00000000000E+00 -0.45593999997E+02  0.45594000000E+02  0.51100000000E-03 0. -1.
    9900012    2    1    2    0    0 -0.73670443347E+01 -0.13456141354E+02  0.10739476534E+02  0.72461616510E+02  0.70000060205E+02 0.  0.
         12    1    1    2    0    0  0.73670443347E+01  0.13456141354E+02 -0.10739476534E+02  0.18726383490E+02  0.00000000000E+00 0. -1.
         11    1    3    3    0    0  0.72203630873E+01  0.12754241563E+02 -0.42487238633E+01  0.15259619120E+02  0.51100000000E-03 0. -1.
        -11    1    3    3    0    0 -0.15162539221E+01  0.10115396205E+02  0.15525928617E+02  0.18592329763E+02  0.51100000000E-03 0.  1.
        -12    1    3    3    0    0 -0.13071153500E+02 -0.36325779122E+02 -0.53772821970E+00  0.38609667627E+02  0.00000000000E+00 0.  1.
</event>
<event>
 7    1  0.2932676E-013  0.7246158E+02  0.7816164E-02  0.1226708E+00
        -11   -1    0    0    0    0  0.00000000000E+00  0.00000000000E+00  0.45593999997E+02  0.45594000000E+02  0.51100000000E-03 0.  1.
         11   -1    0    0    0    0 -0.00000000000E+00 -0.00000000000E+00 -0.45593999997E+02  0.45594000000E+02  0.51100000000E-03 0. -1.
    9900012    2    1    2    0    0  0.12159694133E+02 -0.20170578321E+01  0.14097953262E+02  0.72461575625E+02  0.70000006944E+02 0.  0.
         12    1    1    2    0    0 -0.12159694133E+02  0.20170578321E+01 -0.14097953262E+02  0.18726424375E+02  0.00000000000E+00 0. -1.
         11    1    3    3    0    0 -0.13376406031E+02  0.46410873762E+00 -0.89918837687E+00  0.13414625423E+02  0.51100000000E-03 0. -1.
        -11    1    3    3    0    0 -0.65955367624E+01 -0.16773191651E+01  0.24581927461E+02  0.25506580773E+02  0.51100000000E-03 0.  1.
         12    1    3    3    0    0  0.32131636926E+02 -0.80384740460E+00 -0.95847858223E+01  0.33540369429E+02  0.00000000000E+00 0. -1.
</event>
<event>
 7    1  0.2932676E-013  0.7246190E+02  0.7816164E-02  0.1226707E+00
        -11   -1    0    0    0    0  0.00000000000E+00  0.00000000000E+00  0.45593999997E+02  0.45594000000E+02  0.51100000000E-03 0.  1.
         11   -1    0    0    0    0 -0.00000000000E+00 -0.00000000000E+00 -0.45593999997E+02  0.45594000000E+02  0.51100000000E-03 0. -1.
    9900012    2    1    2    0    0  0.13687434657E+02  0.36157316851E+00  0.12774593908E+02  0.72461899173E+02  0.70000428424E+02 0.  0.
         12    1    1    2    0    0 -0.13687434657E+02 -0.36157316851E+00 -0.12774593908E+02  0.18726100827E+02  0.00000000000E+00 0. -1.
         11    1    3    3    0    0  0.15686950895E+00 -0.38549695218E+01  0.25130061165E+01  0.46044107180E+01  0.51100000000E-03 0. -1.
        -11    1    3    3    0    0  0.70341941574E+01  0.65375616735E+01  0.38040965009E+02  0.39234355088E+02  0.51100000000E-03 0.  1.
         12    1    3    3    0    0  0.64963709909E+01 -0.23210189831E+01 -0.27779377217E+02  0.28623133367E+02  0.00000000000E+00 0. -1.
</event>
<event>
 7    1  0.2932676E-013  0.7246160E+02  0.7816164E-02  0.1226708E+00
        -11   -1    0    0    0    0  0.00000000000E+00  0.00000000000E+00  0.45593999997E+02  0.45594000000E+02  0.51100000000E-03 0. -1.
         11   -1    0    0    0    0 -0.00000000000E+00 -0.00000000000E+00 -0.45593999997E+02  0.45594000000E+02  0.51100000000E-03 0.  1.
    9900012    2    1    2    0    0  0.30423860620E+01  0.17363986900E+02 -0.63177538087E+01  0.72461597056E+02  0.70000034863E+02 0.  0.
         12    1    1    2    0    0 -0.30423860620E+01 -0.17363986900E+02  0.63177538087E+01  0.18726402944E+02  0.00000000000E+00 0. -1.
         11    1    3    3    0    0 -0.68617271711E+01 -0.55787242033E+01  0.23860081143E+01  0.91596123548E+01  0.51100000000E-03 0. -1.
        -11    1    3    3    0    0 -0.16714397866E+02 -0.74159092789E+01 -0.13377630807E+02  0.22656738793E+02  0.51100000000E-03 0.  1.
         12    1    3    3    0    0  0.26618511099E+02  0.30358620382E+02  0.46738688840E+01  0.40645245909E+02  0.00000000000E+00 0. -1.
</event>
<event>
 7    1  0.2932676E-013  0.7246155E+02  0.7816164E-02  0.1226708E+00
        -11   -1    0    0    0    0  0.00000000000E+00  0.00000000000E+00  0.45593999997E+02  0.45594000000E+02  0.51100000000E-03 0.  1.
         11   -1    0    0    0    0 -0.00000000000E+00 -0.00000000000E+00 -0.45593999997E+02  0.45594000000E+02  0.51100000000E-03 0. -1.
    9900012    2    1    2    0    0  0.15445112029E+02 -0.95115621596E+01  0.46538744204E+01  0.72461552194E+02  0.69999976421E+02 0.  0.
         12    1    1    2    0    0 -0.15445112029E+02  0.95115621596E+01 -0.46538744204E+01  0.18726447806E+02  0.00000000000E+00 0. -1.
         11    1    3    3    0    0 -0.13117481496E+02  0.59282250763E+00 -0.26592412085E+01  0.13397437195E+02  0.51100000000E-03 0. -1.
        -11    1    3    3    0    0 -0.12301297834E+02  0.47271647164E+01  0.83115767478E+01  0.15580446815E+02  0.51100000000E-03 0.  1.
         12    1    3    3    0    0  0.40863891359E+02 -0.14831549384E+02 -0.99846111891E+00  0.43483668184E+02  0.00000000000E+00 0. -1.
</event>
<event>
 7    1  0.2932676E-013  0.7246155E+02  0.7816164E-02  0.1226708E+00
        -11   -1    0    0    0    0  0.00000000000E+00  0.00000000000E+00  0.45593999997E+02  0.45594000000E+02  0.51100000000E-03 0.  1.
         11   -1    0    0    0    0 -0.00000000000E+00 -0.00000000000E+00 -0.45593999997E+02  0.45594000000E+02  0.51100000000E-03 0. -1.
    9900012    2    1    2    0    0 -0.79267809600E+00 -0.17342398822E+02  0.70208883417E+01  0.72461547891E+02  0.69999970816E+02 0.  0.
         12    1    1    2    0    0  0.79267809600E+00  0.17342398822E+02 -0.70208883417E+01  0.18726452109E+02  0.00000000000E+00 0. -1.
         11    1    3    3    0    0  0.54677178282E+01  0.22202965983E+01  0.35581678911E+01  0.68910241790E+01  0.51100000000E-03 0. -1.
        -11    1    3    3    0    0  0.14207515985E+02  0.17339564286E+02 -0.38443187666E+01  0.22744071472E+02  0.51100000000E-03 0.  1.
         12    1    3    3    0    0 -0.20467911909E+02 -0.36902259706E+02  0.73070392173E+01  0.42826452240E+02  0.00000000000E+00 0. -1.
</event>
<event>
 7    1  0.2932676E-013  0.7246146E+02  0.7816164E-02  0.1226708E+00
        -11   -1    0    0    0    0  0.00000000000E+00  0.00000000000E+00  0.45593999997E+02  0.45594000000E+02  0.51100000000E-03 0.  1.
         11   -1    0    0    0    0 -0.00000000000E+00 -0.00000000000E+00 -0.45593999997E+02  0.45594000000E+02  0.51100000000E-03 0. -1.
    9900012    2    1    2    0    0  0.11920733304E+02  0.12567520854E+02  0.71159570833E+01  0.72461459793E+02  0.69999856051E+02 0.  0.
         12    1    1    2    0    0 -0.11920733304E+02 -0.12567520854E+02 -0.71159570833E+01  0.18726540207E+02  0.00000000000E+00 0. -1.
         11    1    3    3    0    0 -0.37288319733E+01  0.88951435179E+01 -0.18743666299E+02  0.21079677244E+02  0.51100000000E-03 0. -1.
        -11    1    3    3    0    0  0.19050241418E+01  0.21619765361E+02  0.14309215328E+02  0.25996096146E+02  0.51100000000E-03 0.  1.
        -12    1    3    3    0    0  0.13744541136E+02 -0.17947388025E+02  0.11550408054E+02  0.25385686404E+02  0.00000000000E+00 0.  1.
</event>
<event>
 7    1  0.2932676E-013  0.7246156E+02  0.7816164E-02  0.1226708E+00
        -11   -1    0    0    0    0  0.00000000000E+00  0.00000000000E+00  0.45593999997E+02  0.45594000000E+02  0.51100000000E-03 0.  1.
         11   -1    0    0    0    0 -0.00000000000E+00 -0.00000000000E+00 -0.45593999997E+02  0.45594000000E+02  0.51100000000E-03 0. -1.
    9900012    2    1    2    0    0  0.10472453901E+02 -0.24242766397E+01  0.15333957922E+02  0.72461556838E+02  0.69999982470E+02 0.  0.
         12    1    1    2    0    0 -0.10472453901E+02  0.24242766397E+01 -0.15333957922E+02  0.18726443162E+02  0.00000000000E+00 0. -1.
         11    1    3    3    0    0  0.14837801387E+02 -0.96014970515E+01 -0.18753294819E+02  0.25768879728E+02  0.51100000000E-03 0. -1.
        -11    1    3    3    0    0  0.36903741852E+00 -0.84337765787E+01 -0.49455353752E+00  0.84563206809E+01  0.51100000000E-03 0.  1.
        -12    1    3    3    0    0 -0.47343849038E+01  0.15610996991E+02  0.34581806279E+02  0.38236356429E+02  0.00000000000E+00 0.  1.
</event>
<event>
 7    1  0.2932676E-013  0.7246157E+02  0.7816164E-02  0.1226708E+00
        -11   -1    0    0    0    0  0.00000000000E+00  0.00000000000E+00  0.45593999997E+02  0.45594000000E+02  0.51100000000E-03 0. -1.
         11   -1    0    0    0    0 -0.00000000000E+00 -0.00000000000E+00 -0.45593999997E+02  0.45594000000E+02  0.51100000000E-03 0.  1.
    9900012    2    1    2    0    0 -0.12829405880E+02 -0.99183514447E+01 -0.93654595892E+01  0.72461569910E+02  0.69999999499E+02 0.  0.
         12    1    1    2    0    0  0.12829405880E+02  0.99183514447E+01  0.93654595892E+01  0.18726430090E+02  0.00000000000E+00 0. -1.
         11    1    3    3    0    0 -0.33712402840E+01  0.33010284218E+01  0.89093414564E+01  0.10081587928E+02  0.51100000000E-03 0. -1.
        -11    1    3    3    0    0  0.85251359786E+01  0.19950940337E+02 -0.92409272816E+01  0.23582041919E+02  0.51100000000E-03 0.  1.
         12    1    3    3    0    0 -0.17983301575E+02 -0.33170320204E+02 -0.90338737640E+01  0.38797940063E+02  0.00000000000E+00 0. -1.
</event>
<event>
 7    1  0.2932676E-013  0.7246160E+02  0.7816164E-02  0.1226708E+00
        -11   -1    0    0    0    0  0.00000000000E+00  0.00000000000E+00  0.45593999997E+02  0.45594000000E+02  0.51100000000E-03 0.  1.
         11   -1    0    0    0    0 -0.00000000000E+00 -0.00000000000E+00 -0.45593999997E+02  0.45594000000E+02  0.51100000000E-03 0. -1.
    9900012    2    1    2    0    0 -0.32205623536E+01 -0.14972328665E+02  0.10776610994E+02  0.72461601733E+02  0.70000040955E+02 0.  0.
         12    1    1    2    0    0  0.32205623536E+01  0.14972328665E+02 -0.10776610994E+02  0.18726398267E+02  0.00000000000E+00 0. -1.
         11    1    3    3    0    0 -0.35216802211E+02 -0.54048905125E+01  0.54131000217E+01  0.36038002880E+02  0.51100000000E-03 0.  1.
        -11    1    3    3    0    0  0.13535390899E+02 -0.43699748313E+00 -0.35224968317E+01  0.13993061058E+02  0.51100000000E-03 0. -1.
        -12    1    3    3    0    0  0.18460848959E+02 -0.91304406698E+01  0.88860078036E+01  0.22430537795E+02  0.00000000000E+00 0.  1.
</event>
<event>
 7    1  0.2932676E-013  0.7246160E+02  0.7816164E-02  0.1226708E+00
        -11   -1    0    0    0    0  0.00000000000E+00  0.00000000000E+00  0.45593999997E+02  0.45594000000E+02  0.51100000000E-03 0.  1.
         11   -1    0    0    0    0 -0.00000000000E+00 -0.00000000000E+00 -0.45593999997E+02  0.45594000000E+02  0.51100000000E-03 0. -1.
    9900012    2    1    2    0    0 -0.37556127192E+01 -0.13382795909E+01  0.18297058581E+02  0.72461602272E+02  0.70000041656E+02 0.  0.
         12    1    1    2    0    0  0.37556127192E+01  0.13382795909E+01 -0.18297058581E+02  0.18726397728E+02  0.00000000000E+00 0. -1.
         11    1    3    3    0    0 -0.56836320992E+01  0.99985979474E+01 -0.20952425792E+02  0.23901459821E+02  0.51100000000E-03 0. -1.
        -11    1    3    3    0    0  0.76526712325E+01  0.57126846967E+01  0.77960880559E+01  0.12327900578E+02  0.51100000000E-03 0.  1.
        -12    1    3    3    0    0 -0.57246518525E+01 -0.17049562235E+02  0.31453396317E+02  0.36232241872E+02  0.00000000000E+00 0.  1.
</event>
<event>
 7    1  0.2932676E-013  0.7246158E+02  0.7816164E-02  0.1226708E+00
        -11   -1    0    0    0    0  0.00000000000E+00  0.00000000000E+00  0.45593999997E+02  0.45594000000E+02  0.51100000000E-03 0.  1.
         11   -1    0    0    0    0 -0.00000000000E+00 -0.00000000000E+00 -0.45593999997E+02  0.45594000000E+02  0.51100000000E-03 0. -1.
    9900012    2    1    2    0    0  0.16539841933E+02 -0.65250617235E+01  0.58767232777E+01  0.72461583414E+02  0.70000017091E+02 0.  0.
         12    1    1    2    0    0 -0.16539841933E+02  0.65250617235E+01 -0.58767232777E+01  0.18726416586E+02  0.00000000000E+00 0. -1.
         11    1    3    3    0    0  0.21126925956E+02 -0.16969779106E+02  0.18397921576E+02  0.32753685622E+02  0.51100000000E-03 0.  1.
        -11    1    3    3    0    0 -0.82433961618E+01  0.18930485818E+02  0.37604440857E+01  0.20987086829E+02  0.51100000000E-03 0. -1.
         12    1    3    3    0    0  0.36563121393E+01 -0.84857684354E+01 -0.16281642384E+02  0.18720810963E+02  0.00000000000E+00 0. -1.
</event>
<event>
 7    1  0.2932676E-013  0.7246157E+02  0.7816164E-02  0.1226708E+00
        -11   -1    0    0    0    0  0.00000000000E+00  0.00000000000E+00  0.45593999997E+02  0.45594000000E+02  0.51100000000E-03 0.  1.
         11   -1    0    0    0    0 -0.00000000000E+00 -0.00000000000E+00 -0.45593999997E+02  0.45594000000E+02  0.51100000000E-03 0. -1.
    9900012    2    1    2    0    0  0.98854385654E+00 -0.13977023252E+02  0.12423561905E+02  0.72461567122E+02  0.69999995867E+02 0.  0.
         12    1    1    2    0    0 -0.98854385654E+00  0.13977023252E+02 -0.12423561905E+02  0.18726432878E+02  0.00000000000E+00 0. -1.
         11    1    3    3    0    0  0.54478307647E+01 -0.18705685310E+01  0.16232015083E+02  0.17223710419E+02  0.51100000000E-03 0. -1.
        -11    1    3    3    0    0 -0.72951381377E+01 -0.14076835762E+02  0.23150161642E+02  0.28058979487E+02  0.51100000000E-03 0.  1.
         12    1    3    3    0    0  0.28358512296E+01  0.19703810409E+01 -0.26958614821E+02  0.27178877216E+02  0.00000000000E+00 0. -1.
</event>
<event>
 7    1  0.2932676E-013  0.7246150E+02  0.7816164E-02  0.1226708E+00
        -11   -1    0    0    0    0  0.00000000000E+00  0.00000000000E+00  0.45593999997E+02  0.45594000000E+02  0.51100000000E-03 0.  1.
         11   -1    0    0    0    0 -0.00000000000E+00 -0.00000000000E+00 -0.45593999997E+02  0.45594000000E+02  0.51100000000E-03 0. -1.
    9900012    2    1    2    0    0  0.52080369556E+01  0.39355739006E+00  0.17983417977E+02  0.72461498498E+02  0.69999906472E+02 0.  0.
         12    1    1    2    0    0 -0.52080369556E+01 -0.39355739006E+00 -0.17983417977E+02  0.18726501502E+02  0.00000000000E+00 0. -1.
         11    1    3    3    0    0  0.24566128824E+01  0.21737165546E+00  0.14186825433E+02  0.14399590738E+02  0.51100000000E-03 0. -1.
        -11    1    3    3    0    0 -0.19844344494E+02  0.19773589642E+02  0.12173838142E+01  0.28040593420E+02  0.51100000000E-03 0.  1.
         12    1    3    3    0    0  0.22595768567E+02 -0.19597403908E+02  0.25792087296E+01  0.30021314340E+02  0.00000000000E+00 0. -1.
</event>
<event>
 7    1  0.2932676E-013  0.7246165E+02  0.7816164E-02  0.1226708E+00
        -11   -1    0    0    0    0  0.00000000000E+00  0.00000000000E+00  0.45593999997E+02  0.45594000000E+02  0.51100000000E-03 0. -1.
         11   -1    0    0    0    0 -0.00000000000E+00 -0.00000000000E+00 -0.45593999997E+02  0.45594000000E+02  0.51100000000E-03 0.  1.
    9900012    2    1    2    0    0 -0.84322732601E+01  0.16554284870E+02 -0.23512611573E+01  0.72461654684E+02  0.70000109933E+02 0.  0.
         12    1    1    2    0    0  0.84322732601E+01 -0.16554284870E+02  0.23512611573E+01  0.18726345316E+02  0.00000000000E+00 0. -1.
         11    1    3    3    0    0  0.43991300742E+01 -0.86410349512E+01 -0.45504973555E+01  0.10711062360E+02  0.51100000000E-03 0. -1.
        -11    1    3    3    0    0 -0.19731864489E+02 -0.11995770615E+02  0.56330226620E+01  0.23769222398E+02  0.51100000000E-03 0.  1.
         12    1    3    3    0    0  0.69004611544E+01  0.37191090436E+02 -0.34337864638E+01  0.37981369925E+02  0.00000000000E+00 0. -1.
</event>
<event>
 7    1  0.2932676E-013  0.7246150E+02  0.7816164E-02  0.1226708E+00
        -11   -1    0    0    0    0  0.00000000000E+00  0.00000000000E+00  0.45593999997E+02  0.45594000000E+02  0.51100000000E-03 0. -1.
         11   -1    0    0    0    0 -0.00000000000E+00 -0.00000000000E+00 -0.45593999997E+02  0.45594000000E+02  0.51100000000E-03 0.  1.
    9900012    2    1    2    0    0 -0.89550774703E+01 -0.15001103553E+02 -0.67420524669E+01  0.72461500280E+02  0.69999908793E+02 0.  0.
         12    1    1    2    0    0  0.89550774703E+01  0.15001103553E+02  0.67420524669E+01  0.18726499720E+02  0.00000000000E+00 0. -1.
         11    1    3    3    0    0  0.44169489468E+00  0.73045335231E+01 -0.29135386988E+02  0.30040340870E+02  0.51100000000E-03 0.  1.
        -11    1    3    3    0    0 -0.15528844358E+02 -0.31276259071E+01  0.11015541470E+02  0.19294279076E+02  0.51100000000E-03 0. -1.
        -12    1    3    3    0    0  0.61320719929E+01 -0.19178011169E+02  0.11377793051E+02  0.23126880335E+02  0.00000000000E+00 0.  1.
</event>
<event>
 7    1  0.2932676E-013  0.7246157E+02  0.7816164E-02  0.1226708E+00
        -11   -1    0    0    0    0  0.00000000000E+00  0.00000000000E+00  0.45593999997E+02  0.45594000000E+02  0.51100000000E-03 0.  1.
         11   -1    0    0    0    0 -0.00000000000E+00 -0.00000000000E+00 -0.45593999997E+02  0.45594000000E+02  0.51100000000E-03 0. -1.
    9900012    2    1    2    0    0  0.64491008585E+01  0.14429262349E+02  0.10044128066E+02  0.72461574222E+02  0.70000005116E+02 0.  0.
         12    1    1    2    0    0 -0.64491008585E+01 -0.14429262349E+02 -0.10044128066E+02  0.18726425778E+02  0.00000000000E+00 0. -1.
         11    1    3    3    0    0 -0.88620754863E+01 -0.10639625189E+02 -0.17443686836E+02  0.22271511327E+02  0.51100000000E-03 0. -1.
        -11    1    3    3    0    0  0.15814144046E+02  0.39515627310E+00  0.17435921361E+02  0.23542613583E+02  0.51100000000E-03 0.  1.
        -12    1    3    3    0    0 -0.50296770080E+00  0.24673731265E+02  0.10051893541E+02  0.26647449311E+02  0.00000000000E+00 0.  1.
</event>
<event>
 7    1  0.2932676E-013  0.7246153E+02  0.7816164E-02  0.1226708E+00
        -11   -1    0    0    0    0  0.00000000000E+00  0.00000000000E+00  0.45593999997E+02  0.45594000000E+02  0.51100000000E-03 0. -1.
         11   -1    0    0    0    0 -0.00000000000E+00 -0.00000000000E+00 -0.45593999997E+02  0.45594000000E+02  0.51100000000E-03 0.  1.
    9900012    2    1    2    0    0  0.89186863520E+01 -0.16464486643E+02  0.24156547127E+00  0.72461531018E+02  0.69999948835E+02 0.  0.
         12    1    1    2    0    0 -0.89186863520E+01  0.16464486643E+02 -0.24156547127E+00  0.18726468982E+02  0.00000000000E+00 0. -1.
         11    1    3    3    0    0  0.13886926123E+02  0.27134891939E+01  0.16249379204E+02  0.21546509358E+02  0.51100000000E-03 0. -1.
        -11    1    3    3    0    0  0.12022062509E+02  0.78183732945E+01  0.16841418331E+01  0.14439296448E+02  0.51100000000E-03 0.  1.
        -12    1    3    3    0    0 -0.16990302280E+02 -0.26996349132E+02 -0.17691955565E+02  0.36475725212E+02  0.00000000000E+00 0.  1.
</event>
<event>
 7    1  0.2932676E-013  0.7246153E+02  0.7816164E-02  0.1226708E+00
        -11   -1    0    0    0    0  0.00000000000E+00  0.00000000000E+00  0.45593999997E+02  0.45594000000E+02  0.51100000000E-03 0. -1.
         11   -1    0    0    0    0 -0.00000000000E+00 -0.00000000000E+00 -0.45593999997E+02  0.45594000000E+02  0.51100000000E-03 0.  1.
    9900012    2    1    2    0    0 -0.40806963792E+01  0.16176083510E+02 -0.85066299804E+01  0.72461534389E+02  0.69999953227E+02 0.  0.
         12    1    1    2    0    0  0.40806963792E+01 -0.16176083510E+02  0.85066299804E+01  0.18726465611E+02  0.00000000000E+00 0. -1.
         11    1    3    3    0    0  0.18082554597E+02 -0.16130509369E+02 -0.49929685056E+01  0.24740692149E+02  0.51100000000E-03 0. -1.
        -11    1    3    3    0    0  0.53739035766E+01  0.10573285563E+01  0.17237316909E+01  0.57417797353E+01  0.51100000000E-03 0.  1.
        -12    1    3    3    0    0 -0.27537154553E+02  0.31249264323E+02 -0.52373931656E+01  0.41979062504E+02  0.00000000000E+00 0.  1.
</event>
<event>
 7    1  0.2932676E-013  0.7246170E+02  0.7816164E-02  0.1226708E+00
        -11   -1    0    0    0    0  0.00000000000E+00  0.00000000000E+00  0.45593999997E+02  0.45594000000E+02  0.51100000000E-03 0.  1.
         11   -1    0    0    0    0 -0.00000000000E+00 -0.00000000000E+00 -0.45593999997E+02  0.45594000000E+02  0.51100000000E-03 0. -1.
    9900012    2    1    2    0    0 -0.53586123547E+01 -0.14121882004E+02 -0.11069426706E+02  0.72461695364E+02  0.70000162927E+02 0.  0.
         12    1    1    2    0    0  0.53586123547E+01  0.14121882004E+02  0.11069426706E+02  0.18726304636E+02  0.00000000000E+00 0. -1.
         11    1    3    3    0    0 -0.13102700198E+02 -0.10140936837E+02  0.12982739535E+02  0.21049248882E+02  0.51100000000E-03 0. -1.
        -11    1    3    3    0    0  0.68082022178E+01  0.11787659757E+02  0.79214668052E+01  0.15749608776E+02  0.51100000000E-03 0.  1.
         12    1    3    3    0    0  0.93588562583E+00 -0.15768604924E+02 -0.31973633046E+02  0.35662837707E+02  0.00000000000E+00 0. -1.
</event>
<event>
 7    1  0.2932676E-013  0.7246159E+02  0.7816164E-02  0.1226708E+00
        -11   -1    0    0    0    0  0.00000000000E+00  0.00000000000E+00  0.45593999997E+02  0.45594000000E+02  0.51100000000E-03 0.  1.
         11   -1    0    0    0    0 -0.00000000000E+00 -0.00000000000E+00 -0.45593999997E+02  0.45594000000E+02  0.51100000000E-03 0. -1.
    9900012    2    1    2    0    0 -0.14222740253E+02 -0.78808097379E+01  0.92889693690E+01  0.72461589389E+02  0.70000024875E+02 0.  0.
         12    1    1    2    0    0  0.14222740253E+02  0.78808097379E+01 -0.92889693690E+01  0.18726410611E+02  0.00000000000E+00 0. -1.
         11    1    3    3    0    0 -0.17345146458E+02  0.12513514550E+02  0.38377066756E+01  0.21729476405E+02  0.51100000000E-03 0. -1.
        -11    1    3    3    0    0  0.14714916058E+02 -0.10916164910E+02  0.21856775828E+02  0.28520344682E+02  0.51100000000E-03 0.  1.
         12    1    3    3    0    0 -0.11592509853E+02 -0.94781593784E+01 -0.16405513134E+02  0.22211768302E+02  0.00000000000E+00 0. -1.
</event>
<event>
 7    1  0.2932676E-013  0.7246157E+02  0.7816164E-02  0.1226708E+00
        -11   -1    0    0    0    0  0.00000000000E+00  0.00000000000E+00  0.45593999997E+02  0.45594000000E+02  0.51100000000E-03 0.  1.
         11   -1    0    0    0    0 -0.00000000000E+00 -0.00000000000E+00 -0.45593999997E+02  0.45594000000E+02  0.51100000000E-03 0. -1.
    9900012    2    1    2    0    0  0.54968219246E+01 -0.54953961633E+00  0.17893076595E+02  0.72461568544E+02  0.69999997719E+02 0.  0.
         12    1    1    2    0    0 -0.54968219246E+01  0.54953961633E+00 -0.17893076595E+02  0.18726431456E+02  0.00000000000E+00 0. -1.
         11    1    3    3    0    0  0.16880260494E+02 -0.82471094614E+01 -0.14528332586E+02  0.23749325397E+02  0.51100000000E-03 0. -1.
        -11    1    3    3    0    0  0.12102466093E+01 -0.12433970607E+02  0.93541388005E+01  0.15606672768E+02  0.51100000000E-03 0.  1.
        -12    1    3    3    0    0 -0.12593685179E+02  0.20131540452E+02  0.23067270380E+02  0.33105570379E+02  0.00000000000E+00 0.  1.
</event>
<event>
 7    1  0.2932676E-013  0.7246159E+02  0.7816164E-02  0.1226708E+00
        -11   -1    0    0    0    0  0.00000000000E+00  0.00000000000E+00  0.45593999997E+02  0.45594000000E+02  0.51100000000E-03 0. -1.
         11   -1    0    0    0    0 -0.00000000000E+00 -0.00000000000E+00 -0.45593999997E+02  0.45594000000E+02  0.51100000000E-03 0.  1.
    9900012    2    1    2    0    0  0.12332801078E+02  0.92875657077E+01 -0.10598181837E+02  0.72461593045E+02  0.70000029637E+02 0.  0.
         12    1    1    2    0    0 -0.12332801078E+02 -0.92875657077E+01  0.10598181837E+02  0.18726406955E+02  0.00000000000E+00 0. -1.
         11    1    3    3    0    0 -0.44448928751E+01  0.35696663729E+00 -0.45196929823E+01  0.63491828424E+01  0.51100000000E-03 0. -1.
        -11    1    3    3    0    0 -0.14350743442E+02  0.15318711460E+02 -0.22138304573E+02  0.30507561157E+02  0.51100000000E-03 0.  1.
         12    1    3    3    0    0  0.31128437395E+02 -0.63881123893E+01  0.16059815719E+02  0.35604849045E+02  0.00000000000E+00 0. -1.
</event>
<event>
 7    1  0.2932676E-013  0.7246156E+02  0.7816164E-02  0.1226708E+00
        -11   -1    0    0    0    0  0.00000000000E+00  0.00000000000E+00  0.45593999997E+02  0.45594000000E+02  0.51100000000E-03 0.  1.
         11   -1    0    0    0    0 -0.00000000000E+00 -0.00000000000E+00 -0.45593999997E+02  0.45594000000E+02  0.51100000000E-03 0. -1.
    9900012    2    1    2    0    0  0.46585796950E+01  0.10655385720E+02  0.14677876914E+02  0.72461556656E+02  0.69999982234E+02 0.  0.
         12    1    1    2    0    0 -0.46585796950E+01 -0.10655385720E+02 -0.14677876914E+02  0.18726443344E+02  0.00000000000E+00 0. -1.
         11    1    3    3    0    0  0.28530191486E+02  0.10970365488E+02  0.24341387456E+02  0.39074593904E+02  0.51100000000E-03 0. -1.
        -11    1    3    3    0    0 -0.20427526759E+01 -0.67763474056E+01  0.25863593126E+01  0.75353153491E+01  0.51100000000E-03 0.  1.
        -12    1    3    3    0    0 -0.21828859115E+02  0.64613676369E+01 -0.12249869855E+02  0.25851647403E+02  0.00000000000E+00 0.  1.
</event>
<event>
 7    1  0.2932676E-013  0.7246173E+02  0.7816164E-02  0.1226708E+00
        -11   -1    0    0    0    0  0.00000000000E+00  0.00000000000E+00  0.45593999997E+02  0.45594000000E+02  0.51100000000E-03 0.  1.
         11   -1    0    0    0    0 -0.00000000000E+00 -0.00000000000E+00 -0.45593999997E+02  0.45594000000E+02  0.51100000000E-03 0. -1.
    9900012    2    1    2    0    0 -0.10747368445E+02 -0.17537665295E+01  0.15234549152E+02  0.72461731995E+02  0.70000210645E+02 0.  0.
         12    1    1    2    0    0  0.10747368445E+02  0.17537665295E+01 -0.15234549152E+02  0.18726268005E+02  0.00000000000E+00 0. -1.
         11    1    3    3    0    0 -0.26630504561E+01 -0.10849936755E+01  0.47659696794E+01  0.55662838819E+01  0.51100000000E-03 0. -1.
        -11    1    3    3    0    0  0.11043014697E+02 -0.17079352493E+02  0.29135995455E+02  0.35532501834E+02  0.51100000000E-03 0.  1.
         12    1    3    3    0    0 -0.19127332686E+02  0.16410579640E+02 -0.18667415983E+02  0.31362946278E+02  0.00000000000E+00 0. -1.
</event>
<event>
 7    1  0.2932676E-013  0.7246161E+02  0.7816164E-02  0.1226708E+00
        -11   -1    0    0    0    0  0.00000000000E+00  0.00000000000E+00  0.45593999997E+02  0.45594000000E+02  0.51100000000E-03 0.  1.
         11   -1    0    0    0    0 -0.00000000000E+00 -0.00000000000E+00 -0.45593999997E+02  0.45594000000E+02  0.51100000000E-03 0. -1.
    9900012    2    1    2    0    0 -0.16551461484E+02 -0.74750443917E+01 -0.45662310763E+01  0.72461611342E+02  0.70000053472E+02 0.  0.
         12    1    1    2    0    0  0.16551461484E+02  0.74750443917E+01  0.45662310763E+01  0.18726388658E+02  0.00000000000E+00 0. -1.
         11    1    3    3    0    0 -0.10227731805E+02 -0.20013611505E+02 -0.14836435690E+02  0.26930855307E+02  0.51100000000E-03 0. -1.
        -11    1    3    3    0    0 -0.16222233726E+02 -0.73295540715E+01  0.14468946731E+02  0.22939783122E+02  0.51100000000E-03 0.  1.
         12    1    3    3    0    0  0.98985040461E+01  0.19868121185E+02 -0.41987421173E+01  0.22590972912E+02  0.00000000000E+00 0. -1.
</event>
<event>
 7    1  0.2932676E-013  0.7246161E+02  0.7816164E-02  0.1226708E+00
        -11   -1    0    0    0    0  0.00000000000E+00  0.00000000000E+00  0.45593999997E+02  0.45594000000E+02  0.51100000000E-03 0. -1.
         11   -1    0    0    0    0 -0.00000000000E+00 -0.00000000000E+00 -0.45593999997E+02  0.45594000000E+02  0.51100000000E-03 0.  1.
    9900012    2    1    2    0    0 -0.78369081393E+01 -0.14733243089E+02 -0.84965871353E+01  0.72461612894E+02  0.70000055493E+02 0.  0.
         12    1    1    2    0    0  0.78369081393E+01  0.14733243089E+02  0.84965871353E+01  0.18726387106E+02  0.00000000000E+00 0. -1.
         11    1    3    3    0    0  0.28669479968E+01 -0.22175198957E+01 -0.31918101577E+01  0.48295380367E+01  0.51100000000E-03 0. -1.
        -11    1    3    3    0    0  0.26965674709E+01 -0.38239386809E+02 -0.46958157370E+01  0.38620886387E+02  0.51100000000E-03 0.  1.
         12    1    3    3    0    0 -0.13400423607E+02  0.25723663615E+02 -0.60896124066E+00  0.29011188470E+02  0.00000000000E+00 0. -1.
</event>
<event>
 7    1  0.2932676E-013  0.7246146E+02  0.7816164E-02  0.1226708E+00
        -11   -1    0    0    0    0  0.00000000000E+00  0.00000000000E+00  0.45593999997E+02  0.45594000000E+02  0.51100000000E-03 0. -1.
         11   -1    0    0    0    0 -0.00000000000E+00 -0.00000000000E+00 -0.45593999997E+02  0.45594000000E+02  0.51100000000E-03 0.  1.
    9900012    2    1    2    0    0  0.12296984853E+02  0.19710537233E+00 -0.14121919053E+02  0.72461460418E+02  0.69999856865E+02 0.  0.
         12    1    1    2    0    0 -0.12296984853E+02 -0.19710537233E+00  0.14121919053E+02  0.18726539582E+02  0.00000000000E+00 0. -1.
         11    1    3    3    0    0 -0.12393537743E+02  0.18021677774E+02  0.91744835676E+00  0.21891147967E+02  0.51100000000E-03 0. -1.
        -11    1    3    3    0    0  0.14427316572E+02  0.40423743360E+01 -0.20898215573E+02  0.25714269738E+02  0.51100000000E-03 0.  1.
         12    1    3    3    0    0  0.10263206024E+02 -0.21866946738E+02  0.58588481632E+01  0.24856042712E+02  0.00000000000E+00 0. -1.
</event>
<event>
 7    1  0.2932676E-013  0.7246153E+02  0.7816164E-02  0.1226708E+00
        -11   -1    0    0    0    0  0.00000000000E+00  0.00000000000E+00  0.45593999997E+02  0.45594000000E+02  0.51100000000E-03 0. -1.
         11   -1    0    0    0    0 -0.00000000000E+00 -0.00000000000E+00 -0.45593999997E+02  0.45594000000E+02  0.51100000000E-03 0.  1.
    9900012    2    1    2    0    0 -0.81506354377E+01 -0.98645598254E+01 -0.13672538790E+02  0.72461529015E+02  0.69999946226E+02 0.  0.
         12    1    1    2    0    0  0.81506354377E+01  0.98645598254E+01  0.13672538790E+02  0.18726470985E+02  0.00000000000E+00 0. -1.
         11    1    3    3    0    0  0.31494578953E+00 -0.38031168861E+01 -0.61072830565E+01  0.72015134169E+01  0.51100000000E-03 0. -1.
        -11    1    3    3    0    0 -0.44546477661E+01 -0.19861025051E+02 -0.31404762749E+02  0.37424100876E+02  0.51100000000E-03 0.  1.
         12    1    3    3    0    0 -0.40109334611E+01  0.13799582112E+02  0.23839507016E+02  0.27835914722E+02  0.00000000000E+00 0. -1.
</event>
<event>
 7    1  0.2932676E-013  0.7246156E+02  0.7816164E-02  0.1226708E+00
        -11   -1    0    0    0    0  0.00000000000E+00  0.00000000000E+00  0.45593999997E+02  0.45594000000E+02  0.51100000000E-03 0.  1.
         11   -1    0    0    0    0 -0.00000000000E+00 -0.00000000000E+00 -0.45593999997E+02  0.45594000000E+02  0.51100000000E-03 0. -1.
    9900012    2    1    2    0    0  0.14521564426E+02  0.81687631431E+01  0.85483948472E+01  0.72461559357E+02  0.69999985753E+02 0.  0.
         12    1    1    2    0    0 -0.14521564426E+02 -0.81687631431E+01 -0.85483948472E+01  0.18726440643E+02  0.00000000000E+00 0. -1.
         11    1    3    3    0    0  0.11913449425E+02  0.32697271466E+02 -0.97998619454E+01  0.36153549383E+02  0.51100000000E-03 0. -1.
        -11    1    3    3    0    0  0.25641184239E+01 -0.64309591988E+01  0.16768589491E+02  0.18141596768E+02  0.51100000000E-03 0.  1.
        -12    1    3    3    0    0  0.43996577891E-01 -0.18097549125E+02  0.15796673013E+01  0.18166413207E+02  0.00000000000E+00 0.  1.
</event>
<event>
 7    1  0.2932676E-013  0.7246167E+02  0.7816164E-02  0.1226708E+00
        -11   -1    0    0    0    0  0.00000000000E+00  0.00000000000E+00  0.45593999997E+02  0.45594000000E+02  0.51100000000E-03 0. -1.
         11   -1    0    0    0    0 -0.00000000000E+00 -0.00000000000E+00 -0.45593999997E+02  0.45594000000E+02  0.51100000000E-03 0.  1.
    9900012    2    1    2    0    0 -0.25638803755E+01 -0.15473900337E+02 -0.10230370668E+02  0.72461666717E+02  0.70000125608E+02 0.  0.
         12    1    1    2    0    0  0.25638803755E+01  0.15473900337E+02  0.10230370668E+02  0.18726333283E+02  0.00000000000E+00 0. -1.
         11    1    3    3    0    0 -0.13741913693E+02 -0.33938687423E+02 -0.20611044541E+02  0.42017732605E+02  0.51100000000E-03 0. -1.
        -11    1    3    3    0    0 -0.35426506917E+01  0.97950773379E+01  0.81280504621E+01  0.13212082294E+02  0.51100000000E-03 0.  1.
        -12    1    3    3    0    0  0.14720684009E+02  0.86697097483E+01  0.22526234110E+01  0.17231851817E+02  0.00000000000E+00 0.  1.
</event>
<event>
 7    1  0.2932676E-013  0.7246142E+02  0.7816164E-02  0.1226708E+00
        -11   -1    0    0    0    0  0.00000000000E+00  0.00000000000E+00  0.45593999997E+02  0.45594000000E+02  0.51100000000E-03 0. -1.
         11   -1    0    0    0    0 -0.00000000000E+00 -0.00000000000E+00 -0.45593999997E+02  0.45594000000E+02  0.51100000000E-03 0.  1.
    9900012    2    1    2    0    0 -0.96893392778E+01 -0.12596077006E+01 -0.15975449753E+02  0.72461417236E+02  0.69999800613E+02 0.  0.
         12    1    1    2    0    0  0.96893392778E+01  0.12596077006E+01  0.15975449753E+02  0.18726582764E+02  0.00000000000E+00 0. -1.
         11    1    3    3    0    0  0.14167909174E+02  0.19328901186E+02 -0.18690913398E+02  0.30392208135E+02  0.51100000000E-03 0. -1.
        -11    1    3    3    0    0 -0.27455278082E+00 -0.84880696403E+01 -0.96210347318E+01  0.12833043872E+02  0.51100000000E-03 0.  1.
         12    1    3    3    0    0 -0.23582695671E+02 -0.12100439246E+02  0.12336498377E+02  0.29236165229E+02  0.00000000000E+00 0. -1.
</event>
<event>
 7    1  0.2932676E-013  0.7246158E+02  0.7816164E-02  0.1226708E+00
        -11   -1    0    0    0    0  0.00000000000E+00  0.00000000000E+00  0.45593999997E+02  0.45594000000E+02  0.51100000000E-03 0. -1.
         11   -1    0    0    0    0 -0.00000000000E+00 -0.00000000000E+00 -0.45593999997E+02  0.45594000000E+02  0.51100000000E-03 0.  1.
    9900012    2    1    2    0    0 -0.17719209423E+02  0.51061578330E+01 -0.32612281202E+01  0.72461579113E+02  0.70000011488E+02 0.  0.
         12    1    1    2    0    0  0.17719209423E+02 -0.51061578330E+01  0.32612281202E+01  0.18726420887E+02  0.00000000000E+00 0. -1.
         11    1    3    3    0    0  0.19670574156E+02  0.12752366822E+02  0.87323259645E+01  0.25016152066E+02  0.51100000000E-03 0. -1.
        -11    1    3    3    0    0  0.41064758679E+00 -0.18844043358E+01 -0.88742079281E+01  0.90813643112E+01  0.51100000000E-03 0.  1.
        -12    1    3    3    0    0 -0.37800431165E+02 -0.57618046537E+01 -0.31193461566E+01  0.38364062736E+02  0.00000000000E+00 0.  1.
</event>
<event>
 7    1  0.2932676E-013  0.7246161E+02  0.7816164E-02  0.1226708E+00
        -11   -1    0    0    0    0  0.00000000000E+00  0.00000000000E+00  0.45593999997E+02  0.45594000000E+02  0.51100000000E-03 0.  1.
         11   -1    0    0    0    0 -0.00000000000E+00 -0.00000000000E+00 -0.45593999997E+02  0.45594000000E+02  0.51100000000E-03 0. -1.
    9900012    2    1    2    0    0  0.15237063464E+02  0.85620398661E+01 -0.67231766951E+01  0.72461608609E+02  0.70000049912E+02 0.  0.
         12    1    1    2    0    0 -0.15237063464E+02 -0.85620398661E+01  0.67231766951E+01  0.18726391391E+02  0.00000000000E+00 0. -1.
         11    1    3    3    0    0  0.25802671036E+02 -0.20347318818E+02  0.19811406114E+01  0.32919844077E+02  0.51100000000E-03 0. -1.
        -11    1    3    3    0    0  0.45084330309E+01  0.81798086932E+01 -0.10246490363E+02  0.13864552054E+02  0.51100000000E-03 0.  1.
        -12    1    3    3    0    0 -0.15074040603E+02  0.20729549990E+02  0.15421730562E+01  0.25677212478E+02  0.00000000000E+00 0.  1.
</event>
<event>
 7    1  0.2932676E-013  0.7246153E+02  0.7816164E-02  0.1226708E+00
        -11   -1    0    0    0    0  0.00000000000E+00  0.00000000000E+00  0.45593999997E+02  0.45594000000E+02  0.51100000000E-03 0.  1.
         11   -1    0    0    0    0 -0.00000000000E+00 -0.00000000000E+00 -0.45593999997E+02  0.45594000000E+02  0.51100000000E-03 0. -1.
    9900012    2    1    2    0    0  0.14540520264E+02 -0.52610058808E+01  0.10562939010E+02  0.72461532288E+02  0.69999950490E+02 0.  0.
         12    1    1    2    0    0 -0.14540520264E+02  0.52610058808E+01 -0.10562939010E+02  0.18726467712E+02  0.00000000000E+00 0. -1.
         11    1    3    3    0    0  0.78811641209E+01 -0.14075474413E+02  0.14833003298E+02  0.21914600498E+02  0.51100000000E-03 0. -1.
        -11    1    3    3    0    0 -0.64780913085E+01 -0.18713440593E+02 -0.46542985904E+00  0.19808461602E+02  0.51100000000E-03 0.  1.
         12    1    3    3    0    0  0.13137447452E+02  0.27527909126E+02 -0.38046344292E+01  0.30738470188E+02  0.00000000000E+00 0. -1.
</event>
<event>
 7    1  0.2932676E-013  0.7246160E+02  0.7816164E-02  0.1226708E+00
        -11   -1    0    0    0    0  0.00000000000E+00  0.00000000000E+00  0.45593999997E+02  0.45594000000E+02  0.51100000000E-03 0. -1.
         11   -1    0    0    0    0 -0.00000000000E+00 -0.00000000000E+00 -0.45593999997E+02  0.45594000000E+02  0.51100000000E-03 0.  1.
    9900012    2    1    2    0    0 -0.12502876825E+02 -0.11877926260E+02  0.72986938754E+01  0.72461601697E+02  0.70000040908E+02 0.  0.
         12    1    1    2    0    0  0.12502876825E+02  0.11877926260E+02 -0.72986938754E+01  0.18726398303E+02  0.00000000000E+00 0. -1.
         11    1    3    3    0    0  0.85196530635E+01  0.16393488614E+02  0.15827133219E+01  0.18542813675E+02  0.51100000000E-03 0. -1.
        -11    1    3    3    0    0 -0.97159730966E+01  0.90769030969E+01  0.66899169839E+01  0.14884397622E+02  0.51100000000E-03 0.  1.
        -12    1    3    3    0    0 -0.11306556792E+02 -0.37348317971E+02 -0.97393643052E+00  0.39034390400E+02  0.00000000000E+00 0.  1.
</event>
<event>
 7    1  0.2932676E-013  0.7246159E+02  0.7816164E-02  0.1226708E+00
        -11   -1    0    0    0    0  0.00000000000E+00  0.00000000000E+00  0.45593999997E+02  0.45594000000E+02  0.51100000000E-03 0.  1.
         11   -1    0    0    0    0 -0.00000000000E+00 -0.00000000000E+00 -0.45593999997E+02  0.45594000000E+02  0.51100000000E-03 0. -1.
    9900012    2    1    2    0    0 -0.17794522642E+02 -0.55366876202E+01 -0.18380819484E+01  0.72461588408E+02  0.70000023597E+02 0.  0.
         12    1    1    2    0    0  0.17794522642E+02  0.55366876202E+01  0.18380819484E+01  0.18726411592E+02  0.00000000000E+00 0. -1.
         11    1    3    3    0    0 -0.32330278804E+01 -0.17885484128E+02  0.69470165786E+01  0.19457750419E+02  0.51100000000E-03 0. -1.
        -11    1    3    3    0    0  0.90343847518E+01  0.23826963490E+02 -0.49922721560E+00  0.25487124692E+02  0.51100000000E-03 0.  1.
         12    1    3    3    0    0 -0.23595879513E+02 -0.11478166982E+02 -0.82858713114E+01  0.27516713297E+02  0.00000000000E+00 0. -1.
</event>
<event>
 7    1  0.2932676E-013  0.7246153E+02  0.7816164E-02  0.1226708E+00
        -11   -1    0    0    0    0  0.00000000000E+00  0.00000000000E+00  0.45593999997E+02  0.45594000000E+02  0.51100000000E-03 0.  1.
         11   -1    0    0    0    0 -0.00000000000E+00 -0.00000000000E+00 -0.45593999997E+02  0.45594000000E+02  0.51100000000E-03 0. -1.
    9900012    2    1    2    0    0 -0.94111004175E+01  0.10751745864E+02  0.12104207182E+02  0.72461529919E+02  0.69999947404E+02 0.  0.
         12    1    1    2    0    0  0.94111004175E+01 -0.10751745864E+02 -0.12104207182E+02  0.18726470081E+02  0.00000000000E+00 0. -1.
         11    1    3    3    0    0  0.83157880521E+01 -0.10331594610E+02  0.93795550819E+00  0.13295636085E+02  0.51100000000E-03 0. -1.
        -11    1    3    3    0    0  0.11444326763E+02 -0.72122461869E+00  0.18737135854E+02  0.21967545158E+02  0.51100000000E-03 0.  1.
         12    1    3    3    0    0 -0.29171215232E+02  0.21804565093E+02 -0.75708841799E+01  0.37198348676E+02  0.00000000000E+00 0. -1.
</event>
<event>
 7    1  0.2932676E-013  0.7246182E+02  0.7816164E-02  0.1226707E+00
        -11   -1    0    0    0    0  0.00000000000E+00  0.00000000000E+00  0.45593999997E+02  0.45594000000E+02  0.51100000000E-03 0. -1.
         11   -1    0    0    0    0 -0.00000000000E+00 -0.00000000000E+00 -0.45593999997E+02  0.45594000000E+02  0.51100000000E-03 0.  1.
    9900012    2    1    2    0    0  0.17962946099E+01  0.61751374161E+01 -0.17587232708E+02  0.72461821779E+02  0.70000327605E+02 0.  0.
         12    1    1    2    0    0 -0.17962946099E+01 -0.61751374161E+01  0.17587232708E+02  0.18726178221E+02  0.00000000000E+00 0. -1.
         11    1    3    3    0    0 -0.19550889384E+02 -0.42110642599E+01 -0.67435972363E+01  0.21105602144E+02  0.51100000000E-03 0. -1.
        -11    1    3    3    0    0  0.16845670858E+00 -0.90632659608E+01 -0.19351565355E+02  0.21369470033E+02  0.51100000000E-03 0.  1.
         12    1    3    3    0    0  0.21178727285E+02  0.19449467637E+02  0.85079298835E+01  0.29986749602E+02  0.00000000000E+00 0. -1.
</event>
<event>
 7    1  0.2932676E-013  0.7246160E+02  0.7816164E-02  0.1226708E+00
        -11   -1    0    0    0    0  0.00000000000E+00  0.00000000000E+00  0.45593999997E+02  0.45594000000E+02  0.51100000000E-03 0.  1.
         11   -1    0    0    0    0 -0.00000000000E+00 -0.00000000000E+00 -0.45593999997E+02  0.45594000000E+02  0.51100000000E-03 0. -1.
    9900012    2    1    2    0    0  0.10199213789E+02 -0.10969964194E+02  0.11238947609E+02  0.72461600996E+02  0.70000039994E+02 0.  0.
         12    1    1    2    0    0 -0.10199213789E+02  0.10969964194E+02 -0.11238947609E+02  0.18726399004E+02  0.00000000000E+00 0. -1.
         11    1    3    3    0    0  0.15678653912E+02  0.12319053564E+02 -0.59275529904E+01  0.20801806506E+02  0.51100000000E-03 0. -1.
        -11    1    3    3    0    0  0.99829445254E+01  0.85937296061E+01  0.62652668865E+01  0.14586464252E+02  0.51100000000E-03 0.  1.
        -12    1    3    3    0    0 -0.15462384649E+02 -0.31882747363E+02  0.10901233713E+02  0.37073330238E+02  0.00000000000E+00 0.  1.
</event>
<event>
 7    1  0.2932676E-013  0.7246159E+02  0.7816164E-02  0.1226708E+00
        -11   -1    0    0    0    0  0.00000000000E+00  0.00000000000E+00  0.45593999997E+02  0.45594000000E+02  0.51100000000E-03 0.  1.
         11   -1    0    0    0    0 -0.00000000000E+00 -0.00000000000E+00 -0.45593999997E+02  0.45594000000E+02  0.51100000000E-03 0. -1.
    9900012    2    1    2    0    0  0.16069373887E+02  0.94311051390E+01  0.18729572351E+01  0.72461588436E+02  0.70000023633E+02 0.  0.
         12    1    1    2    0    0 -0.16069373887E+02 -0.94311051390E+01 -0.18729572351E+01  0.18726411564E+02  0.00000000000E+00 0. -1.
         11    1    3    3    0    0  0.38052964390E+01  0.10642144946E+01 -0.42569491071E+01  0.58081364861E+01  0.51100000000E-03 0. -1.
        -11    1    3    3    0    0  0.65718374874E+01 -0.28344554940E+02  0.66919345789E+00  0.29104134807E+02  0.51100000000E-03 0.  1.
         12    1    3    3    0    0  0.56922399605E+01  0.36711445585E+02  0.54607128843E+01  0.37549317143E+02  0.00000000000E+00 0. -1.
</event>
<event>
 7    1  0.2932676E-013  0.7246147E+02  0.7816164E-02  0.1226708E+00
        -11   -1    0    0    0    0  0.00000000000E+00  0.00000000000E+00  0.45593999997E+02  0.45594000000E+02  0.51100000000E-03 0. -1.
         11   -1    0    0    0    0 -0.00000000000E+00 -0.00000000000E+00 -0.45593999997E+02  0.45594000000E+02  0.51100000000E-03 0.  1.
    9900012    2    1    2    0    0 -0.10137288489E+02 -0.15735849191E+02 -0.54908495652E+00  0.72461466365E+02  0.69999864613E+02 0.  0.
         12    1    1    2    0    0  0.10137288489E+02  0.15735849191E+02  0.54908495652E+00  0.18726533635E+02  0.00000000000E+00 0. -1.
         11    1    3    3    0    0 -0.21538154553E+02  0.24930798477E+01  0.21186999156E+02  0.30314954762E+02  0.51100000000E-03 0. -1.
        -11    1    3    3    0    0 -0.75892038119E+01  0.43294699879E+00  0.26714896998E+00  0.76062360228E+01  0.51100000000E-03 0.  1.
        -12    1    3    3    0    0  0.18990069876E+02 -0.18661876037E+02 -0.22003233083E+02  0.34540275581E+02  0.00000000000E+00 0.  1.
</event>
<event>
 7    1  0.2932676E-013  0.7246156E+02  0.7816164E-02  0.1226708E+00
        -11   -1    0    0    0    0  0.00000000000E+00  0.00000000000E+00  0.45593999997E+02  0.45594000000E+02  0.51100000000E-03 0.  1.
         11   -1    0    0    0    0 -0.00000000000E+00 -0.00000000000E+00 -0.45593999997E+02  0.45594000000E+02  0.51100000000E-03 0. -1.
    9900012    2    1    2    0    0 -0.91989169465E+01 -0.17916293820E+01  0.16212631547E+02  0.72461563326E+02  0.69999990922E+02 0.  0.
         12    1    1    2    0    0  0.91989169465E+01  0.17916293820E+01 -0.16212631547E+02  0.18726436674E+02  0.00000000000E+00 0. -1.
         11    1    3    3    0    0 -0.43475302678E+01  0.69498619924E+01  0.64372599539E+01  0.10423047401E+02  0.51100000000E-03 0. -1.
        -11    1    3    3    0    0  0.21556650309E+02  0.13792363924E+02  0.95708528739E+01  0.27322512698E+02  0.51100000000E-03 0.  1.
         12    1    3    3    0    0 -0.26408036987E+02 -0.22533855299E+02  0.20451871932E+00  0.34716003227E+02  0.00000000000E+00 0. -1.
</event>
<event>
 7    1  0.2932676E-013  0.7246155E+02  0.7816164E-02  0.1226708E+00
        -11   -1    0    0    0    0  0.00000000000E+00  0.00000000000E+00  0.45593999997E+02  0.45594000000E+02  0.51100000000E-03 0.  1.
         11   -1    0    0    0    0 -0.00000000000E+00 -0.00000000000E+00 -0.45593999997E+02  0.45594000000E+02  0.51100000000E-03 0. -1.
    9900012    2    1    2    0    0 -0.13767073931E+02  0.83388656802E+01  0.95713602037E+01  0.72461549680E+02  0.69999973145E+02 0.  0.
         12    1    1    2    0    0  0.13767073931E+02 -0.83388656802E+01 -0.95713602037E+01  0.18726450320E+02  0.00000000000E+00 0. -1.
         11    1    3    3    0    0 -0.11464578775E+02  0.12204312788E+02 -0.15636254884E+02  0.22910134966E+02  0.51100000000E-03 0. -1.
        -11    1    3    3    0    0 -0.55835971820E+01  0.18249963797E+02  0.58038746625E+01  0.19947999835E+02  0.51100000000E-03 0.  1.
        -12    1    3    3    0    0  0.32811020259E+01 -0.22115410904E+02  0.19403740425E+02  0.29603414878E+02  0.00000000000E+00 0.  1.
</event>
<event>
 7    1  0.2932676E-013  0.7246155E+02  0.7816164E-02  0.1226708E+00
        -11   -1    0    0    0    0  0.00000000000E+00  0.00000000000E+00  0.45593999997E+02  0.45594000000E+02  0.51100000000E-03 0. -1.
         11   -1    0    0    0    0 -0.00000000000E+00 -0.00000000000E+00 -0.45593999997E+02  0.45594000000E+02  0.51100000000E-03 0.  1.
    9900012    2    1    2    0    0  0.18711289193E+02  0.61483434808E+00 -0.43530811240E+00  0.72461551920E+02  0.69999976064E+02 0.  0.
         12    1    1    2    0    0 -0.18711289193E+02 -0.61483434808E+00  0.43530811240E+00  0.18726448080E+02  0.00000000000E+00 0. -1.
         11    1    3    3    0    0  0.25532603312E+01  0.52680254204E+00  0.89453607199E+01  0.93175177975E+01  0.51100000000E-03 0. -1.
        -11    1    3    3    0    0 -0.13482441874E+02 -0.16236621941E+02  0.10838382259E+02  0.23724979689E+02  0.51100000000E-03 0.  1.
         12    1    3    3    0    0  0.29640470736E+02  0.16324653748E+02 -0.20219051092E+02  0.39419054434E+02  0.00000000000E+00 0. -1.
</event>
<event>
 7    1  0.2932676E-013  0.7246115E+02  0.7816164E-02  0.1226709E+00
        -11   -1    0    0    0    0  0.00000000000E+00  0.00000000000E+00  0.45593999997E+02  0.45594000000E+02  0.51100000000E-03 0.  1.
         11   -1    0    0    0    0 -0.00000000000E+00 -0.00000000000E+00 -0.45593999997E+02  0.45594000000E+02  0.51100000000E-03 0. -1.
    9900012    2    1    2    0    0  0.30379402948E+01  0.13152511650E+02  0.12979886200E+02  0.72461145227E+02  0.69999446269E+02 0.  0.
         12    1    1    2    0    0 -0.30379402948E+01 -0.13152511650E+02 -0.12979886200E+02  0.18726854773E+02  0.00000000000E+00 0. -1.
         11    1    3    3    0    0 -0.77889836446E+01  0.65882438480E+01 -0.14175177243E+02  0.17464503238E+02  0.51100000000E-03 0. -1.
        -11    1    3    3    0    0 -0.10710231881E+02  0.18562030909E+02  0.53600810709E+01  0.22090462371E+02  0.51100000000E-03 0.  1.
        -12    1    3    3    0    0  0.21537155821E+02 -0.11997763108E+02  0.21794982372E+02  0.32906179618E+02  0.00000000000E+00 0.  1.
</event>
<event>
 7    1  0.2932676E-013  0.7246161E+02  0.7816164E-02  0.1226708E+00
        -11   -1    0    0    0    0  0.00000000000E+00  0.00000000000E+00  0.45593999997E+02  0.45594000000E+02  0.51100000000E-03 0.  1.
         11   -1    0    0    0    0 -0.00000000000E+00 -0.00000000000E+00 -0.45593999997E+02  0.45594000000E+02  0.51100000000E-03 0. -1.
    9900012    2    1    2    0    0 -0.11555277981E+02 -0.11333729047E+02  0.94180611847E+01  0.72461608468E+02  0.70000049729E+02 0.  0.
         12    1    1    2    0    0  0.11555277981E+02  0.11333729047E+02 -0.94180611847E+01  0.18726391532E+02  0.00000000000E+00 0. -1.
         11    1    3    3    0    0 -0.33317419109E+01 -0.31967488781E+01 -0.42351066110E+01  0.62654477748E+01  0.51100000000E-03 0. -1.
        -11    1    3    3    0    0 -0.33605185326E+00  0.18254673244E+02 -0.17026845181E+02  0.24965165394E+02  0.51100000000E-03 0.  1.
        -12    1    3    3    0    0 -0.78874842169E+01 -0.26391653412E+02  0.30680012977E+02  0.41230995299E+02  0.00000000000E+00 0.  1.
</event>
<event>
 7    1  0.2932676E-013  0.7246149E+02  0.7816164E-02  0.1226708E+00
        -11   -1    0    0    0    0  0.00000000000E+00  0.00000000000E+00  0.45593999997E+02  0.45594000000E+02  0.51100000000E-03 0.  1.
         11   -1    0    0    0    0 -0.00000000000E+00 -0.00000000000E+00 -0.45593999997E+02  0.45594000000E+02  0.51100000000E-03 0. -1.
    9900012    2    1    2    0    0  0.16502986631E+02 -0.71277815135E+01 -0.52467536227E+01  0.72461487762E+02  0.69999892486E+02 0.  0.
         12    1    1    2    0    0 -0.16502986631E+02  0.71277815135E+01  0.52467536227E+01  0.18726512238E+02  0.00000000000E+00 0. -1.
         11    1    3    3    0    0  0.61196815289E+01 -0.10996293092E+02  0.10726158852E+02  0.16535399837E+02  0.51100000000E-03 0. -1.
        -11    1    3    3    0    0  0.28723319526E+02  0.11184415633E+02 -0.47942832903E+00  0.30827748693E+02  0.51100000000E-03 0.  1.
         12    1    3    3    0    0 -0.18340014425E+02 -0.73159040550E+01 -0.15493484146E+02  0.25098339232E+02  0.00000000000E+00 0. -1.
</event>
<event>
 7    1  0.2932676E-013  0.7246152E+02  0.7816164E-02  0.1226708E+00
        -11   -1    0    0    0    0  0.00000000000E+00  0.00000000000E+00  0.45593999997E+02  0.45594000000E+02  0.51100000000E-03 0.  1.
         11   -1    0    0    0    0 -0.00000000000E+00 -0.00000000000E+00 -0.45593999997E+02  0.45594000000E+02  0.51100000000E-03 0. -1.
    9900012    2    1    2    0    0 -0.13650304305E+02  0.12446991975E+02  0.30696308506E+01  0.72461520074E+02  0.69999934579E+02 0.  0.
         12    1    1    2    0    0  0.13650304305E+02 -0.12446991975E+02 -0.30696308506E+01  0.18726479926E+02  0.00000000000E+00 0. -1.
         11    1    3    3    0    0 -0.15332699653E+02  0.37102517447E+02 -0.88145256130E+01  0.41102120890E+02  0.51100000000E-03 0. -1.
        -11    1    3    3    0    0  0.23962733513E+01  0.10552528538E+01 -0.72130980325E+00  0.27158741968E+01  0.51100000000E-03 0.  1.
        -12    1    3    3    0    0 -0.71387800289E+00 -0.25710778326E+02  0.12605466267E+02  0.28643524988E+02  0.00000000000E+00 0.  1.
</event>
<event>
 7    1  0.2932676E-013  0.7246152E+02  0.7816164E-02  0.1226708E+00
        -11   -1    0    0    0    0  0.00000000000E+00  0.00000000000E+00  0.45593999997E+02  0.45594000000E+02  0.51100000000E-03 0. -1.
         11   -1    0    0    0    0 -0.00000000000E+00 -0.00000000000E+00 -0.45593999997E+02  0.45594000000E+02  0.51100000000E-03 0.  1.
    9900012    2    1    2    0    0  0.55435624143E+01 -0.51867411631E+01 -0.17118637940E+02  0.72461517867E+02  0.69999931704E+02 0.  0.
         12    1    1    2    0    0 -0.55435624143E+01  0.51867411631E+01  0.17118637940E+02  0.18726482133E+02  0.00000000000E+00 0. -1.
         11    1    3    3    0    0  0.71064912633E+00  0.42267451108E+00  0.90945132776E+01  0.91320232118E+01  0.51100000000E-03 0. -1.
        -11    1    3    3    0    0  0.20007105053E+02  0.14039694614E+02 -0.29474136720E+02  0.38289972749E+02  0.51100000000E-03 0.  1.
         12    1    3    3    0    0 -0.15174191765E+02 -0.19649110288E+02  0.32609855027E+01  0.25039521906E+02  0.00000000000E+00 0. -1.
</event>
<event>
 7    1  0.2932676E-013  0.7246157E+02  0.7816164E-02  0.1226708E+00
        -11   -1    0    0    0    0  0.00000000000E+00  0.00000000000E+00  0.45593999997E+02  0.45594000000E+02  0.51100000000E-03 0.  1.
         11   -1    0    0    0    0 -0.00000000000E+00 -0.00000000000E+00 -0.45593999997E+02  0.45594000000E+02  0.51100000000E-03 0. -1.
    9900012    2    1    2    0    0  0.18719045541E+02  0.48317883186E+00  0.20763954940E+00  0.72461568361E+02  0.69999997482E+02 0.  0.
         12    1    1    2    0    0 -0.18719045541E+02 -0.48317883186E+00 -0.20763954940E+00  0.18726431639E+02  0.00000000000E+00 0. -1.
         11    1    3    3    0    0 -0.16662102133E+02 -0.55037655253E+01 -0.16592849221E+02  0.24150356684E+02  0.51100000000E-03 0.  1.
        -11    1    3    3    0    0  0.14400898906E+02 -0.71227760514E+01 -0.33406954380E+01  0.16409755459E+02  0.51100000000E-03 0. -1.
        -12    1    3    3    0    0  0.20980248768E+02  0.13109720409E+02  0.20141184208E+02  0.31901456218E+02  0.00000000000E+00 0.  1.
</event>
<event>
 7    1  0.2932676E-013  0.7246151E+02  0.7816164E-02  0.1226708E+00
        -11   -1    0    0    0    0  0.00000000000E+00  0.00000000000E+00  0.45593999997E+02  0.45594000000E+02  0.51100000000E-03 0.  1.
         11   -1    0    0    0    0 -0.00000000000E+00 -0.00000000000E+00 -0.45593999997E+02  0.45594000000E+02  0.51100000000E-03 0. -1.
    9900012    2    1    2    0    0  0.18437213051E+01 -0.17372939970E+02  0.67426274574E+01  0.72461511368E+02  0.69999923238E+02 0.  0.
         12    1    1    2    0    0 -0.18437213051E+01  0.17372939970E+02 -0.67426274574E+01  0.18726488632E+02  0.00000000000E+00 0. -1.
         11    1    3    3    0    0 -0.65970504755E+00 -0.50997005956E+01  0.13012630441E+01  0.53042853134E+01  0.51100000000E-03 0. -1.
        -11    1    3    3    0    0 -0.47334361982E+01 -0.37811884637E+02  0.11742880051E+02  0.39875296490E+02  0.51100000000E-03 0.  1.
         12    1    3    3    0    0  0.72368625509E+01  0.25538645263E+02 -0.63015156381E+01  0.27281929565E+02  0.00000000000E+00 0. -1.
</event>
<event>
 7    1  0.2932676E-013  0.7246175E+02  0.7816164E-02  0.1226708E+00
        -11   -1    0    0    0    0  0.00000000000E+00  0.00000000000E+00  0.45593999997E+02  0.45594000000E+02  0.51100000000E-03 0. -1.
         11   -1    0    0    0    0 -0.00000000000E+00 -0.00000000000E+00 -0.45593999997E+02  0.45594000000E+02  0.51100000000E-03 0.  1.
    9900012    2    1    2    0    0 -0.10429892084E+02  0.78087697602E+01 -0.13450385853E+02  0.72461750679E+02  0.70000234983E+02 0.  0.
         12    1    1    2    0    0  0.10429892084E+02 -0.78087697602E+01  0.13450385853E+02  0.18726249321E+02  0.00000000000E+00 0. -1.
         11    1    3    3    0    0 -0.21971656831E+02 -0.10206807756E+02 -0.39507816626E+01  0.24546716776E+02  0.51100000000E-03 0.  1.
        -11    1    3    3    0    0  0.80459190018E+01  0.13603975666E+02 -0.26029945405E+02  0.30452635757E+02  0.51100000000E-03 0. -1.
         12    1    3    3    0    0  0.34958457451E+01  0.44116018498E+01  0.16530341214E+02  0.17462398146E+02  0.00000000000E+00 0. -1.
</event>
<event>
 7    1  0.2932676E-013  0.7246083E+02  0.7816164E-02  0.1226710E+00
        -11   -1    0    0    0    0  0.00000000000E+00  0.00000000000E+00  0.45593999997E+02  0.45594000000E+02  0.51100000000E-03 0. -1.
         11   -1    0    0    0    0 -0.00000000000E+00 -0.00000000000E+00 -0.45593999997E+02  0.45594000000E+02  0.51100000000E-03 0.  1.
    9900012    2    1    2    0    0  0.67933785129E+01  0.11492497906E+02 -0.13133142757E+02  0.72460828873E+02  0.69999034154E+02 0.  0.
         12    1    1    2    0    0 -0.67933785129E+01 -0.11492497906E+02  0.13133142757E+02  0.18727171127E+02  0.00000000000E+00 0. -1.
         11    1    3    3    0    0  0.13402210451E+02 -0.70150912215E+01  0.39191475175E+01  0.15626594873E+02  0.51100000000E-03 0.  1.
        -11    1    3    3    0    0  0.63076023164E+01  0.33292456921E+02 -0.63508408142E+01  0.34474725730E+02  0.51100000000E-03 0. -1.
         12    1    3    3    0    0 -0.12916434254E+02 -0.14784867793E+02 -0.10701449461E+02  0.22359508270E+02  0.00000000000E+00 0. -1.
</event>
<event>
 7    1  0.2932676E-013  0.7246169E+02  0.7816164E-02  0.1226708E+00
        -11   -1    0    0    0    0  0.00000000000E+00  0.00000000000E+00  0.45593999997E+02  0.45594000000E+02  0.51100000000E-03 0. -1.
         11   -1    0    0    0    0 -0.00000000000E+00 -0.00000000000E+00 -0.45593999997E+02  0.45594000000E+02  0.51100000000E-03 0.  1.
    9900012    2    1    2    0    0 -0.36844804529E+01 -0.15766655760E+02 -0.94080758876E+01  0.72461689045E+02  0.70000154695E+02 0.  0.
         12    1    1    2    0    0  0.36844804529E+01  0.15766655760E+02  0.94080758876E+01  0.18726310955E+02  0.00000000000E+00 0. -1.
         11    1    3    3    0    0  0.29116620577E+01  0.13816421625E+02 -0.15408662418E+02  0.20899716750E+02  0.51100000000E-03 0. -1.
        -11    1    3    3    0    0 -0.88109047780E+01  0.79786687796E+00 -0.12952423687E+02  0.15685468249E+02  0.51100000000E-03 0.  1.
         12    1    3    3    0    0  0.22147622673E+01 -0.30380944263E+02  0.18953010218E+02  0.35876504046E+02  0.00000000000E+00 0. -1.
</event>
<event>
 7    1  0.2932676E-013  0.7246141E+02  0.7816164E-02  0.1226708E+00
        -11   -1    0    0    0    0  0.00000000000E+00  0.00000000000E+00  0.45593999997E+02  0.45594000000E+02  0.51100000000E-03 0.  1.
         11   -1    0    0    0    0 -0.00000000000E+00 -0.00000000000E+00 -0.45593999997E+02  0.45594000000E+02  0.51100000000E-03 0. -1.
    9900012    2    1    2    0    0  0.10779407273E+01  0.17036130596E+02 -0.77002196667E+01  0.72461412356E+02  0.69999794255E+02 0.  0.
         12    1    1    2    0    0 -0.10779407273E+01 -0.17036130596E+02  0.77002196667E+01  0.18726587644E+02  0.00000000000E+00 0. -1.
         11    1    3    3    0    0 -0.13901352185E+01  0.12078346101E+02 -0.35861999607E+00  0.12163368326E+02  0.51100000000E-03 0. -1.
        -11    1    3    3    0    0 -0.14005698000E+02  0.19643813100E+02  0.15389300215E+02  0.28615896473E+02  0.51100000000E-03 0.  1.
         12    1    3    3    0    0  0.16473773946E+02 -0.14686028605E+02 -0.22730899886E+02  0.31682147557E+02  0.00000000000E+00 0. -1.
</event>
<event>
 7    1  0.2932676E-013  0.7246163E+02  0.7816164E-02  0.1226708E+00
        -11   -1    0    0    0    0  0.00000000000E+00  0.00000000000E+00  0.45593999997E+02  0.45594000000E+02  0.51100000000E-03 0.  1.
         11   -1    0    0    0    0 -0.00000000000E+00 -0.00000000000E+00 -0.45593999997E+02  0.45594000000E+02  0.51100000000E-03 0. -1.
    9900012    2    1    2    0    0  0.61487948499E+01  0.12936291857E+02  0.12063240812E+02  0.72461625444E+02  0.70000071843E+02 0.  0.
         12    1    1    2    0    0 -0.61487948499E+01 -0.12936291857E+02 -0.12063240812E+02  0.18726374556E+02  0.00000000000E+00 0. -1.
         11    1    3    3    0    0  0.47096833274E+01 -0.31727715519E+00  0.56471732438E+00  0.47540180643E+01  0.51100000000E-03 0. -1.
        -11    1    3    3    0    0 -0.30289260441E+01 -0.11065273134E+02  0.33002005176E+02  0.34939190151E+02  0.51100000000E-03 0.  1.
         12    1    3    3    0    0  0.44680375666E+01  0.24318842146E+02 -0.21503481688E+02  0.32768417229E+02  0.00000000000E+00 0. -1.
</event>
<event>
 7    1  0.2932676E-013  0.7246157E+02  0.7816164E-02  0.1226708E+00
        -11   -1    0    0    0    0  0.00000000000E+00  0.00000000000E+00  0.45593999997E+02  0.45594000000E+02  0.51100000000E-03 0. -1.
         11   -1    0    0    0    0 -0.00000000000E+00 -0.00000000000E+00 -0.45593999997E+02  0.45594000000E+02  0.51100000000E-03 0.  1.
    9900012    2    1    2    0    0  0.74174210882E+00  0.69023685534E+01 -0.17392129772E+02  0.72461573459E+02  0.70000004122E+02 0.  0.
         12    1    1    2    0    0 -0.74174210882E+00 -0.69023685534E+01  0.17392129772E+02  0.18726426541E+02  0.00000000000E+00 0. -1.
         11    1    3    3    0    0  0.81859807747E+01 -0.51442030511E+01 -0.13203069168E+02  0.16364416946E+02  0.51100000000E-03 0. -1.
        -11    1    3    3    0    0  0.60609169736E+01  0.20295124039E+02 -0.23164983990E+02  0.31388584833E+02  0.51100000000E-03 0.  1.
         12    1    3    3    0    0 -0.13505155640E+02 -0.82485524348E+01  0.18975923385E+02  0.24708571679E+02  0.00000000000E+00 0. -1.
</event>
<event>
 7    1  0.2932676E-013  0.7246160E+02  0.7816164E-02  0.1226708E+00
        -11   -1    0    0    0    0  0.00000000000E+00  0.00000000000E+00  0.45593999997E+02  0.45594000000E+02  0.51100000000E-03 0. -1.
         11   -1    0    0    0    0 -0.00000000000E+00 -0.00000000000E+00 -0.45593999997E+02  0.45594000000E+02  0.51100000000E-03 0.  1.
    9900012    2    1    2    0    0  0.16362240280E+02  0.14966677216E+01 -0.89841587922E+01  0.72461600708E+02  0.70000039619E+02 0.  0.
         12    1    1    2    0    0 -0.16362240280E+02 -0.14966677216E+01  0.89841587922E+01  0.18726399292E+02  0.00000000000E+00 0. -1.
         11    1    3    3    0    0  0.16275441871E+02  0.94408105053E+01 -0.13594488977E+02  0.23212691397E+02  0.51100000000E-03 0. -1.
        -11    1    3    3    0    0  0.69941397955E+01 -0.24469716803E+02  0.13978426021E+02  0.29035864481E+02  0.51100000000E-03 0.  1.
         12    1    3    3    0    0 -0.69073413861E+01  0.16525574019E+02 -0.93680958362E+01  0.20213044830E+02  0.00000000000E+00 0. -1.
</event>
<event>
 7    1  0.2932676E-013  0.7246155E+02  0.7816164E-02  0.1226708E+00
        -11   -1    0    0    0    0  0.00000000000E+00  0.00000000000E+00  0.45593999997E+02  0.45594000000E+02  0.51100000000E-03 0. -1.
         11   -1    0    0    0    0 -0.00000000000E+00 -0.00000000000E+00 -0.45593999997E+02  0.45594000000E+02  0.51100000000E-03 0.  1.
    9900012    2    1    2    0    0 -0.11817366324E+02 -0.79119014361E+00 -0.14505306280E+02  0.72461547081E+02  0.69999969760E+02 0.  0.
         12    1    1    2    0    0  0.11817366324E+02  0.79119014361E+00  0.14505306280E+02  0.18726452919E+02  0.00000000000E+00 0. -1.
         11    1    3    3    0    0 -0.32669499437E+02  0.11075144213E+02 -0.85708004909E+01  0.35544530299E+02  0.51100000000E-03 0. -1.
        -11    1    3    3    0    0 -0.18127405069E+00 -0.12844823293E+02  0.42450167717E+01  0.13529320506E+02  0.51100000000E-03 0.  1.
        -12    1    3    3    0    0  0.21033407164E+02  0.97848893630E+00 -0.10179522560E+02  0.23387696276E+02  0.00000000000E+00 0.  1.
</event>
<event>
 7    1  0.2932676E-013  0.7246159E+02  0.7816164E-02  0.1226708E+00
        -11   -1    0    0    0    0  0.00000000000E+00  0.00000000000E+00  0.45593999997E+02  0.45594000000E+02  0.51100000000E-03 0. -1.
         11   -1    0    0    0    0 -0.00000000000E+00 -0.00000000000E+00 -0.45593999997E+02  0.45594000000E+02  0.51100000000E-03 0.  1.
    9900012    2    1    2    0    0 -0.45849817425E+01  0.16874712027E+02 -0.67007900273E+01  0.72461586821E+02  0.70000021528E+02 0.  0.
         12    1    1    2    0    0  0.45849817425E+01 -0.16874712027E+02  0.67007900273E+01  0.18726413179E+02  0.00000000000E+00 0. -1.
         11    1    3    3    0    0 -0.13069590257E+01  0.53144671868E+01  0.67798550264E+01  0.87131015037E+01  0.51100000000E-03 0. -1.
        -11    1    3    3    0    0  0.16108537759E+02 -0.18639349982E+02  0.18914419655E+01  0.24708053534E+02  0.51100000000E-03 0.  1.
         12    1    3    3    0    0 -0.19386560475E+02  0.30199594822E+02 -0.15372087019E+02  0.39040431783E+02  0.00000000000E+00 0. -1.
</event>
<event>
 7    1  0.2932676E-013  0.7246134E+02  0.7816164E-02  0.1226709E+00
        -11   -1    0    0    0    0  0.00000000000E+00  0.00000000000E+00  0.45593999997E+02  0.45594000000E+02  0.51100000000E-03 0. -1.
         11   -1    0    0    0    0 -0.00000000000E+00 -0.00000000000E+00 -0.45593999997E+02  0.45594000000E+02  0.51100000000E-03 0.  1.
    9900012    2    1    2    0    0  0.35095543738E+01 -0.15288075122E+01 -0.18331223559E+02  0.72461335014E+02  0.69999693503E+02 0.  0.
         12    1    1    2    0    0 -0.35095543738E+01  0.15288075122E+01  0.18331223559E+02  0.18726664986E+02  0.00000000000E+00 0. -1.
         11    1    3    3    0    0 -0.13281594953E+02 -0.13420580609E+02 -0.16955309917E+02  0.25377062143E+02  0.51100000000E-03 0. -1.
        -11    1    3    3    0    0  0.29085254413E+02 -0.50008578648E+00  0.25217896946E+01  0.29198656366E+02  0.51100000000E-03 0.  1.
         12    1    3    3    0    0 -0.12294105086E+02  0.12391858884E+02 -0.38977033371E+01  0.17885616505E+02  0.00000000000E+00 0. -1.
</event>
<event>
 7    1  0.2932676E-013  0.7246171E+02  0.7816164E-02  0.1226708E+00
        -11   -1    0    0    0    0  0.00000000000E+00  0.00000000000E+00  0.45593999997E+02  0.45594000000E+02  0.51100000000E-03 0.  1.
         11   -1    0    0    0    0 -0.00000000000E+00 -0.00000000000E+00 -0.45593999997E+02  0.45594000000E+02  0.51100000000E-03 0. -1.
    9900012    2    1    2    0    0  0.17351814506E+02  0.22682927228E+01  0.66665711212E+01  0.72461713955E+02  0.70000187144E+02 0.  0.
         12    1    1    2    0    0 -0.17351814506E+02 -0.22682927228E+01 -0.66665711212E+01  0.18726286045E+02  0.00000000000E+00 0. -1.
         11    1    3    3    0    0 -0.74862714055E+01 -0.14947634006E+02  0.16136401998E+02  0.23234876622E+02  0.51100000000E-03 0. -1.
        -11    1    3    3    0    0  0.79982568863E+01  0.20531260703E+02  0.91902326122E+01  0.23873943014E+02  0.51100000000E-03 0.  1.
         12    1    3    3    0    0  0.16839829026E+02 -0.33153339746E+01 -0.18660063489E+02  0.25352894319E+02  0.00000000000E+00 0. -1.
</event>
<event>
 7    1  0.2932676E-013  0.7246152E+02  0.7816164E-02  0.1226708E+00
        -11   -1    0    0    0    0  0.00000000000E+00  0.00000000000E+00  0.45593999997E+02  0.45594000000E+02  0.51100000000E-03 0.  1.
         11   -1    0    0    0    0 -0.00000000000E+00 -0.00000000000E+00 -0.45593999997E+02  0.45594000000E+02  0.51100000000E-03 0. -1.
    9900012    2    1    2    0    0 -0.60093426828E+00 -0.13087634367E+01  0.18671019965E+02  0.72461522214E+02  0.69999937366E+02 0.  0.
         12    1    1    2    0    0  0.60093426828E+00  0.13087634367E+01 -0.18671019965E+02  0.18726477786E+02  0.00000000000E+00 0. -1.
         11    1    3    3    0    0 -0.72280624364E+01  0.24871367284E+02  0.15922510638E+02  0.30403225855E+02  0.51100000000E-03 0. -1.
        -11    1    3    3    0    0 -0.11475678538E+02 -0.87675961756E+01  0.78356517907E+01  0.16430440647E+02  0.51100000000E-03 0.  1.
         12    1    3    3    0    0  0.18102806706E+02 -0.17412534545E+02 -0.50871424631E+01  0.25627855711E+02  0.00000000000E+00 0. -1.
</event>
<event>
 7    1  0.2932676E-013  0.7246164E+02  0.7816164E-02  0.1226708E+00
        -11   -1    0    0    0    0  0.00000000000E+00  0.00000000000E+00  0.45593999997E+02  0.45594000000E+02  0.51100000000E-03 0.  1.
         11   -1    0    0    0    0 -0.00000000000E+00 -0.00000000000E+00 -0.45593999997E+02  0.45594000000E+02  0.51100000000E-03 0. -1.
    9900012    2    1    2    0    0  0.11078958904E+02 -0.11909433885E+02  0.92789301509E+01  0.72461641822E+02  0.70000093178E+02 0.  0.
         12    1    1    2    0    0 -0.11078958904E+02  0.11909433885E+02 -0.92789301509E+01  0.18726358178E+02  0.00000000000E+00 0. -1.
         11    1    3    3    0    0 -0.48909936387E+01 -0.13438638178E+02  0.23117427125E+02  0.27183345121E+02  0.51100000000E-03 0.  1.
        -11    1    3    3    0    0 -0.11395046798E+02  0.13732427933E+01 -0.13752548017E+02  0.17912717954E+02  0.51100000000E-03 0. -1.
         12    1    3    3    0    0  0.27364999341E+02  0.15596149908E+00 -0.85948957340E-01  0.27365578746E+02  0.00000000000E+00 0. -1.
</event>
<event>
 7    1  0.2932676E-013  0.7246156E+02  0.7816164E-02  0.1226708E+00
        -11   -1    0    0    0    0  0.00000000000E+00  0.00000000000E+00  0.45593999997E+02  0.45594000000E+02  0.51100000000E-03 0. -1.
         11   -1    0    0    0    0 -0.00000000000E+00 -0.00000000000E+00 -0.45593999997E+02  0.45594000000E+02  0.51100000000E-03 0.  1.
    9900012    2    1    2    0    0  0.57284248178E+01  0.17766002408E+02  0.14946031555E+01  0.72461560642E+02  0.69999987426E+02 0.  0.
         12    1    1    2    0    0 -0.57284248178E+01 -0.17766002408E+02 -0.14946031555E+01  0.18726439358E+02  0.00000000000E+00 0. -1.
         11    1    3    3    0    0  0.16742933372E+02  0.99906722647E+01 -0.15429582451E+02  0.24863856601E+02  0.51100000000E-03 0. -1.
        -11    1    3    3    0    0 -0.54234493804E+01  0.19407424812E+02 -0.62278612550E+01  0.21091424728E+02  0.51100000000E-03 0.  1.
         12    1    3    3    0    0 -0.55910591741E+01 -0.11632094669E+02  0.23152046862E+02  0.26506279312E+02  0.00000000000E+00 0. -1.
</event>
<event>
 7    1  0.2932676E-013  0.7246156E+02  0.7816164E-02  0.1226708E+00
        -11   -1    0    0    0    0  0.00000000000E+00  0.00000000000E+00  0.45593999997E+02  0.45594000000E+02  0.51100000000E-03 0. -1.
         11   -1    0    0    0    0 -0.00000000000E+00 -0.00000000000E+00 -0.45593999997E+02  0.45594000000E+02  0.51100000000E-03 0.  1.
    9900012    2    1    2    0    0 -0.13450535653E+02  0.10503931392E+02 -0.77090951574E+01  0.72461557941E+02  0.69999983908E+02 0.  0.
         12    1    1    2    0    0  0.13450535653E+02 -0.10503931392E+02  0.77090951574E+01  0.18726442059E+02  0.00000000000E+00 0. -1.
         11    1    3    3    0    0  0.12418270011E+02 -0.86325707117E+01 -0.12947697654E+02  0.19909233585E+02  0.51100000000E-03 0. -1.
        -11    1    3    3    0    0  0.71432580253E+01  0.99219189071E+01 -0.92610684889E+01  0.15337470451E+02  0.51100000000E-03 0.  1.
         12    1    3    3    0    0 -0.33012063688E+02  0.92145831970E+01  0.14499670986E+02  0.37214853905E+02  0.00000000000E+00 0. -1.
</event>
<event>
 7    1  0.2932676E-013  0.7246160E+02  0.7816164E-02  0.1226708E+00
        -11   -1    0    0    0    0  0.00000000000E+00  0.00000000000E+00  0.45593999997E+02  0.45594000000E+02  0.51100000000E-03 0.  1.
         11   -1    0    0    0    0 -0.00000000000E+00 -0.00000000000E+00 -0.45593999997E+02  0.45594000000E+02  0.51100000000E-03 0. -1.
    9900012    2    1    2    0    0  0.61592466384E+01  0.35971992843E+01  0.17314788510E+02  0.72461599839E+02  0.70000038487E+02 0.  0.
         12    1    1    2    0    0 -0.61592466384E+01 -0.35971992843E+01 -0.17314788510E+02  0.18726400161E+02  0.00000000000E+00 0. -1.
         11    1    3    3    0    0  0.15684084085E+02  0.12138344811E+02  0.33463398883E+02  0.38898958513E+02  0.51100000000E-03 0. -1.
        -11    1    3    3    0    0 -0.35995567483E+01 -0.15525258088E+02 -0.11370368223E+01  0.15977587442E+02  0.51100000000E-03 0.  1.
        -12    1    3    3    0    0 -0.59252806982E+01  0.69841125610E+01 -0.15011573551E+02  0.17585053884E+02  0.00000000000E+00 0.  1.
</event>
<event>
 7    1  0.2932676E-013  0.7246159E+02  0.7816164E-02  0.1226708E+00
        -11   -1    0    0    0    0  0.00000000000E+00  0.00000000000E+00  0.45593999997E+02  0.45594000000E+02  0.51100000000E-03 0.  1.
         11   -1    0    0    0    0 -0.00000000000E+00 -0.00000000000E+00 -0.45593999997E+02  0.45594000000E+02  0.51100000000E-03 0. -1.
    9900012    2    1    2    0    0  0.14488622279E+02  0.17321548451E+01  0.11737032062E+02  0.72461589303E+02  0.70000024763E+02 0.  0.
         12    1    1    2    0    0 -0.14488622279E+02 -0.17321548451E+01 -0.11737032062E+02  0.18726410697E+02  0.00000000000E+00 0. -1.
         11    1    3    3    0    0  0.13746856700E+02  0.15666120789E+02 -0.32553105189E+01  0.21095033931E+02  0.51100000000E-03 0. -1.
        -11    1    3    3    0    0 -0.17593911174E+01  0.79235154414E+01 -0.13267224984E+02  0.15553032280E+02  0.51100000000E-03 0.  1.
        -12    1    3    3    0    0  0.25011566968E+01 -0.21857481386E+02  0.28259567565E+02  0.35813523093E+02  0.00000000000E+00 0.  1.
</event>
<event>
 7    1  0.2932676E-013  0.7246152E+02  0.7816164E-02  0.1226708E+00
        -11   -1    0    0    0    0  0.00000000000E+00  0.00000000000E+00  0.45593999997E+02  0.45594000000E+02  0.51100000000E-03 0.  1.
         11   -1    0    0    0    0 -0.00000000000E+00 -0.00000000000E+00 -0.45593999997E+02  0.45594000000E+02  0.51100000000E-03 0. -1.
    9900012    2    1    2    0    0  0.18529595430E+02 -0.23248664969E+01 -0.13892649551E+01  0.72461522271E+02  0.69999937441E+02 0.  0.
         12    1    1    2    0    0 -0.18529595430E+02  0.23248664969E+01  0.13892649551E+01  0.18726477729E+02  0.00000000000E+00 0. -1.
         11    1    3    3    0    0  0.74326995533E+01 -0.23572754542E+02  0.43639111300E+00  0.24720643536E+02  0.51100000000E-03 0. -1.
        -11    1    3    3    0    0  0.15689129822E+02 -0.61778202640E+01  0.74402947271E+01  0.18430199230E+02  0.51100000000E-03 0.  1.
        -12    1    3    3    0    0 -0.45922339455E+01  0.27425708310E+02 -0.92659507951E+01  0.29310679505E+02  0.00000000000E+00 0.  1.
</event>
<event>
 7    1  0.2932676E-013  0.7246170E+02  0.7816164E-02  0.1226708E+00
        -11   -1    0    0    0    0  0.00000000000E+00  0.00000000000E+00  0.45593999997E+02  0.45594000000E+02  0.51100000000E-03 0.  1.
         11   -1    0    0    0    0 -0.00000000000E+00 -0.00000000000E+00 -0.45593999997E+02  0.45594000000E+02  0.51100000000E-03 0. -1.
    9900012    2    1    2    0    0  0.13749391775E+02 -0.85172275610E+01  0.94385082354E+01  0.72461698250E+02  0.70000166686E+02 0.  0.
         12    1    1    2    0    0 -0.13749391775E+02  0.85172275610E+01 -0.94385082354E+01  0.18726301750E+02  0.00000000000E+00 0. -1.
         11    1    3    3    0    0  0.22731038932E+00 -0.14929512278E+01  0.36514671345E+01  0.39514283338E+01  0.51100000000E-03 0. -1.
        -11    1    3    3    0    0 -0.19972896179E+02 -0.22411253790E+02  0.94414584240E+01  0.31469382194E+02  0.51100000000E-03 0.  1.
         12    1    3    3    0    0  0.33494977565E+02  0.15386977457E+02 -0.36544173232E+01  0.37040887723E+02  0.00000000000E+00 0. -1.
</event>
<event>
 7    1  0.2932676E-013  0.7246180E+02  0.7816164E-02  0.1226707E+00
        -11   -1    0    0    0    0  0.00000000000E+00  0.00000000000E+00  0.45593999997E+02  0.45594000000E+02  0.51100000000E-03 0. -1.
         11   -1    0    0    0    0 -0.00000000000E+00 -0.00000000000E+00 -0.45593999997E+02  0.45594000000E+02  0.51100000000E-03 0.  1.
    9900012    2    1    2    0    0  0.84838968189E+01  0.30805364616E+01 -0.16407453493E+02  0.72461795359E+02  0.70000293188E+02 0.  0.
         12    1    1    2    0    0 -0.84838968189E+01 -0.30805364616E+01  0.16407453493E+02  0.18726204641E+02  0.00000000000E+00 0. -1.
         11    1    3    3    0    0  0.12522117613E+02 -0.88442860606E+00 -0.13178912436E+01  0.12622300942E+02  0.51100000000E-03 0. -1.
        -11    1    3    3    0    0 -0.11003216481E+02  0.25234526244E+02 -0.23233546446E+02  0.36022906162E+02  0.51100000000E-03 0.  1.
         12    1    3    3    0    0  0.69649956867E+01 -0.21269561176E+02  0.81439841964E+01  0.23816588255E+02  0.00000000000E+00 0. -1.
</event>
<event>
 7    1  0.2932676E-013  0.7246161E+02  0.7816164E-02  0.1226708E+00
        -11   -1    0    0    0    0  0.00000000000E+00  0.00000000000E+00  0.45593999997E+02  0.45594000000E+02  0.51100000000E-03 0.  1.
         11   -1    0    0    0    0 -0.00000000000E+00 -0.00000000000E+00 -0.45593999997E+02  0.45594000000E+02  0.51100000000E-03 0. -1.
    9900012    2    1    2    0    0  0.99424534939E+01 -0.11102602365E+02  0.11338313443E+02  0.72461614538E+02  0.70000057635E+02 0.  0.
         12    1    1    2    0    0 -0.99424534939E+01  0.11102602365E+02 -0.11338313443E+02  0.18726385462E+02  0.00000000000E+00 0. -1.
         11    1    3    3    0    0  0.17096057746E+02 -0.26591114155E+01 -0.21829193582E+02  0.27854259219E+02  0.51100000000E-03 0. -1.
        -11    1    3    3    0    0  0.16501215588E+01 -0.79949643783E+01 -0.19560059926E+01  0.83945408614E+01  0.51100000000E-03 0.  1.
        -12    1    3    3    0    0 -0.88037258105E+01 -0.44852657133E+00  0.35123513017E+02  0.36212814457E+02  0.00000000000E+00 0.  1.
</event>
<event>
 7    1  0.2932676E-013  0.7246161E+02  0.7816164E-02  0.1226708E+00
        -11   -1    0    0    0    0  0.00000000000E+00  0.00000000000E+00  0.45593999997E+02  0.45594000000E+02  0.51100000000E-03 0.  1.
         11   -1    0    0    0    0 -0.00000000000E+00 -0.00000000000E+00 -0.45593999997E+02  0.45594000000E+02  0.51100000000E-03 0. -1.
    9900012    2    1    2    0    0  0.15825928834E+02 -0.67142029090E+01 -0.74254274792E+01  0.72461614406E+02  0.70000057464E+02 0.  0.
         12    1    1    2    0    0 -0.15825928834E+02  0.67142029090E+01  0.74254274792E+01  0.18726385594E+02  0.00000000000E+00 0. -1.
         11    1    3    3    0    0 -0.41264194504E+01  0.18200568021E+02  0.14614267289E+02  0.23703687950E+02  0.51100000000E-03 0. -1.
        -11    1    3    3    0    0  0.94571838048E+01 -0.19712030155E+01  0.57351854174E+01  0.11234603637E+02  0.51100000000E-03 0.  1.
         12    1    3    3    0    0  0.10495164479E+02 -0.22943567915E+02 -0.27774880185E+02  0.37523322819E+02  0.00000000000E+00 0. -1.
</event>
<event>
 7    1  0.2932676E-013  0.7246162E+02  0.7816164E-02  0.1226708E+00
        -11   -1    0    0    0    0  0.00000000000E+00  0.00000000000E+00  0.45593999997E+02  0.45594000000E+02  0.51100000000E-03 0.  1.
         11   -1    0    0    0    0 -0.00000000000E+00 -0.00000000000E+00 -0.45593999997E+02  0.45594000000E+02  0.51100000000E-03 0. -1.
    9900012    2    1    2    0    0 -0.14328996649E+02  0.44503271749E+01  0.11204984320E+02  0.72461622066E+02  0.70000067442E+02 0.  0.
         12    1    1    2    0    0  0.14328996649E+02 -0.44503271749E+01 -0.11204984320E+02  0.18726377934E+02  0.00000000000E+00 0. -1.
         11    1    3    3    0    0  0.60686715990E+01  0.22867958166E+01 -0.15810966495E+02  0.17089320403E+02  0.51100000000E-03 0. -1.
        -11    1    3    3    0    0  0.13287648971E+02 -0.37148823055E+01  0.48630905925E+01  0.14629135863E+02  0.51100000000E-03 0.  1.
        -12    1    3    3    0    0 -0.33685317219E+02  0.58784136638E+01  0.22152860222E+02  0.40743165800E+02  0.00000000000E+00 0.  1.
</event>
<event>
 7    1  0.2932676E-013  0.7246177E+02  0.7816164E-02  0.1226707E+00
        -11   -1    0    0    0    0  0.00000000000E+00  0.00000000000E+00  0.45593999997E+02  0.45594000000E+02  0.51100000000E-03 0.  1.
         11   -1    0    0    0    0 -0.00000000000E+00 -0.00000000000E+00 -0.45593999997E+02  0.45594000000E+02  0.51100000000E-03 0. -1.
    9900012    2    1    2    0    0 -0.25088420250E+01 -0.17372499743E+02 -0.65248457383E+01  0.72461771134E+02  0.70000261631E+02 0.  0.
         12    1    1    2    0    0  0.25088420250E+01  0.17372499743E+02  0.65248457383E+01  0.18726228866E+02  0.00000000000E+00 0. -1.
         11    1    3    3    0    0  0.15660249484E+02 -0.56329317706E+01  0.54534366441E+01  0.17513232304E+02  0.51100000000E-03 0. -1.
        -11    1    3    3    0    0  0.20616094300E+01 -0.85580640988E+00 -0.27264003264E+02  0.27355228244E+02  0.51100000000E-03 0.  1.
        -12    1    3    3    0    0 -0.20230700939E+02 -0.10883761562E+02  0.15285720881E+02  0.27593310586E+02  0.00000000000E+00 0.  1.
</event>
<event>
 7    1  0.2932676E-013  0.7246159E+02  0.7816164E-02  0.1226708E+00
        -11   -1    0    0    0    0  0.00000000000E+00  0.00000000000E+00  0.45593999997E+02  0.45594000000E+02  0.51100000000E-03 0. -1.
         11   -1    0    0    0    0 -0.00000000000E+00 -0.00000000000E+00 -0.45593999997E+02  0.45594000000E+02  0.51100000000E-03 0.  1.
    9900012    2    1    2    0    0 -0.17925861745E+02 -0.36226649954E+01 -0.40271898837E+01  0.72461588723E+02  0.70000024007E+02 0.  0.
         12    1    1    2    0    0  0.17925861745E+02  0.36226649954E+01  0.40271898837E+01  0.18726411277E+02  0.00000000000E+00 0. -1.
         11    1    3    3    0    0 -0.12334575031E+02 -0.20324679767E+02  0.82365748307E+01  0.25160991913E+02  0.51100000000E-03 0.  1.
        -11    1    3    3    0    0  0.65237737456E+01 -0.35589250517E+01  0.11572358521E+02  0.13753001615E+02  0.51100000000E-03 0. -1.
         12    1    3    3    0    0 -0.12115060459E+02  0.20260939824E+02 -0.23836123236E+02  0.33547595195E+02  0.00000000000E+00 0. -1.
</event>
<event>
 7    1  0.2932676E-013  0.7246147E+02  0.7816164E-02  0.1226708E+00
        -11   -1    0    0    0    0  0.00000000000E+00  0.00000000000E+00  0.45593999997E+02  0.45594000000E+02  0.51100000000E-03 0.  1.
         11   -1    0    0    0    0 -0.00000000000E+00 -0.00000000000E+00 -0.45593999997E+02  0.45594000000E+02  0.51100000000E-03 0. -1.
    9900012    2    1    2    0    0 -0.16957038746E+02  0.77940008163E+01  0.15476483210E+01  0.72461472637E+02  0.69999872783E+02 0.  0.
         12    1    1    2    0    0  0.16957038746E+02 -0.77940008163E+01 -0.15476483210E+01  0.18726527363E+02  0.00000000000E+00 0. -1.
         11    1    3    3    0    0 -0.15597575762E+02  0.28890102254E+01  0.26435633091E+02  0.30829749381E+02  0.51100000000E-03 0. -1.
        -11    1    3    3    0    0 -0.54324654875E+00  0.70541460990E+01  0.68280283791E+01  0.98325004859E+01  0.51100000000E-03 0.  1.
         12    1    3    3    0    0 -0.81621643516E+00 -0.21491555081E+01 -0.31716013149E+02  0.31799222770E+02  0.00000000000E+00 0. -1.
</event>
<event>
 7    1  0.2932676E-013  0.7246155E+02  0.7816164E-02  0.1226708E+00
        -11   -1    0    0    0    0  0.00000000000E+00  0.00000000000E+00  0.45593999997E+02  0.45594000000E+02  0.51100000000E-03 0.  1.
         11   -1    0    0    0    0 -0.00000000000E+00 -0.00000000000E+00 -0.45593999997E+02  0.45594000000E+02  0.51100000000E-03 0. -1.
    9900012    2    1    2    0    0 -0.52538980413E+01  0.76243270927E+01  0.16277166951E+02  0.72461548862E+02  0.69999972081E+02 0.  0.
         12    1    1    2    0    0  0.52538980413E+01 -0.76243270927E+01 -0.16277166951E+02  0.18726451138E+02  0.00000000000E+00 0. -1.
         11    1    3    3    0    0  0.26200533867E+02  0.12670822048E+02 -0.30578040173E+00  0.29105174938E+02  0.51100000000E-03 0. -1.
        -11    1    3    3    0    0  0.35440728300E+01  0.12497773887E+00  0.50001014618E+01  0.61300152161E+01  0.51100000000E-03 0.  1.
        -12    1    3    3    0    0 -0.34998504738E+02 -0.51714726942E+01  0.11582845891E+02  0.37226358708E+02  0.00000000000E+00 0.  1.
</event>
<event>
 7    1  0.2932676E-013  0.7246198E+02  0.7816164E-02  0.1226707E+00
        -11   -1    0    0    0    0  0.00000000000E+00  0.00000000000E+00  0.45593999997E+02  0.45594000000E+02  0.51100000000E-03 0.  1.
         11   -1    0    0    0    0 -0.00000000000E+00 -0.00000000000E+00 -0.45593999997E+02  0.45594000000E+02  0.51100000000E-03 0. -1.
    9900012    2    1    2    0    0  0.15921580931E+02 -0.40962690603E+01  0.89659268880E+01  0.72461975208E+02  0.70000527473E+02 0.  0.
         12    1    1    2    0    0 -0.15921580931E+02  0.40962690603E+01 -0.89659268880E+01  0.18726024792E+02  0.00000000000E+00 0. -1.
         11    1    3    3    0    0  0.14026749845E+01 -0.25709909117E+02  0.15703404676E+01  0.25795985993E+02  0.51100000000E-03 0. -1.
        -11    1    3    3    0    0 -0.37556444250E+01 -0.87677996271E+01  0.58267677545E+01  0.11177226761E+02  0.51100000000E-03 0.  1.
        -12    1    3    3    0    0  0.18274550371E+02  0.30381439683E+02  0.15688186659E+01  0.35488762454E+02  0.00000000000E+00 0.  1.
</event>
<event>
 7    1  0.2932676E-013  0.7246159E+02  0.7816164E-02  0.1226708E+00
        -11   -1    0    0    0    0  0.00000000000E+00  0.00000000000E+00  0.45593999997E+02  0.45594000000E+02  0.51100000000E-03 0. -1.
         11   -1    0    0    0    0 -0.00000000000E+00 -0.00000000000E+00 -0.45593999997E+02  0.45594000000E+02  0.51100000000E-03 0.  1.
    9900012    2    1    2    0    0  0.18364255859E+02  0.14132791105E+01  0.33816018584E+01  0.72461588645E+02  0.70000023905E+02 0.  0.
         12    1    1    2    0    0 -0.18364255859E+02 -0.14132791105E+01 -0.33816018584E+01  0.18726411355E+02  0.00000000000E+00 0. -1.
         11    1    3    3    0    0  0.20189837975E+02  0.71578579157E+01 -0.27273602394E+01  0.21594049679E+02  0.51100000000E-03 0. -1.
        -11    1    3    3    0    0  0.31616465688E+01  0.25289116686E+01 -0.21364712289E+02  0.21744938140E+02  0.51100000000E-03 0.  1.
         12    1    3    3    0    0 -0.49872286845E+01 -0.82734904739E+01  0.27473674387E+02  0.29122600826E+02  0.00000000000E+00 0. -1.
</event>
<event>
 7    1  0.2932676E-013  0.7246165E+02  0.7816164E-02  0.1226708E+00
        -11   -1    0    0    0    0  0.00000000000E+00  0.00000000000E+00  0.45593999997E+02  0.45594000000E+02  0.51100000000E-03 0. -1.
         11   -1    0    0    0    0 -0.00000000000E+00 -0.00000000000E+00 -0.45593999997E+02  0.45594000000E+02  0.51100000000E-03 0.  1.
    9900012    2    1    2    0    0 -0.13941182946E+02  0.11457680910E+02  0.50041058426E+01  0.72461652010E+02  0.70000106450E+02 0.  0.
         12    1    1    2    0    0  0.13941182946E+02 -0.11457680910E+02 -0.50041058426E+01  0.18726347990E+02  0.00000000000E+00 0. -1.
         11    1    3    3    0    0  0.18406803349E+02  0.28787153368E+02 -0.17549941158E+01  0.34213895031E+02  0.51100000000E-03 0. -1.
        -11    1    3    3    0    0 -0.17763718601E+01 -0.34264671167E+01 -0.48792426403E+00  0.38902755990E+01  0.51100000000E-03 0.  1.
        -12    1    3    3    0    0 -0.30571614435E+02 -0.13903005342E+02  0.72470242225E+01  0.34357481380E+02  0.00000000000E+00 0.  1.
</event>
<event>
 7    1  0.2932676E-013  0.7246157E+02  0.7816164E-02  0.1226708E+00
        -11   -1    0    0    0    0  0.00000000000E+00  0.00000000000E+00  0.45593999997E+02  0.45594000000E+02  0.51100000000E-03 0.  1.
         11   -1    0    0    0    0 -0.00000000000E+00 -0.00000000000E+00 -0.45593999997E+02  0.45594000000E+02  0.51100000000E-03 0. -1.
    9900012    2    1    2    0    0  0.18464619021E+02  0.13133458208E+01  0.28305445126E+01  0.72461574418E+02  0.70000005372E+02 0.  0.
         12    1    1    2    0    0 -0.18464619021E+02 -0.13133458208E+01 -0.28305445126E+01  0.18726425582E+02  0.00000000000E+00 0. -1.
         11    1    3    3    0    0 -0.87104350005E+01  0.10025651954E+02  0.41783832431E+00  0.13287586844E+02  0.51100000000E-03 0. -1.
        -11    1    3    3    0    0  0.21215646945E+02 -0.28382297632E+02  0.10696442606E+02  0.37014488769E+02  0.51100000000E-03 0.  1.
         12    1    3    3    0    0  0.59594070768E+01  0.19669991498E+02 -0.82837364175E+01  0.22159498805E+02  0.00000000000E+00 0. -1.
</event>
<event>
 7    1  0.2932676E-013  0.7246157E+02  0.7816164E-02  0.1226708E+00
        -11   -1    0    0    0    0  0.00000000000E+00  0.00000000000E+00  0.45593999997E+02  0.45594000000E+02  0.51100000000E-03 0.  1.
         11   -1    0    0    0    0 -0.00000000000E+00 -0.00000000000E+00 -0.45593999997E+02  0.45594000000E+02  0.51100000000E-03 0. -1.
    9900012    2    1    2    0    0 -0.42731941002E+01  0.68570840131E+01  0.16893767038E+02  0.72461570716E+02  0.70000000549E+02 0.  0.
         12    1    1    2    0    0  0.42731941002E+01 -0.68570840131E+01 -0.16893767038E+02  0.18726429284E+02  0.00000000000E+00 0. -1.
         11    1    3    3    0    0  0.19552587218E+02 -0.11697679747E+02 -0.60955899307E+00  0.22792782647E+02  0.51100000000E-03 0. -1.
        -11    1    3    3    0    0 -0.24753166194E+00  0.52213844414E+01  0.21644647413E+02  0.22266901206E+02  0.51100000000E-03 0.  1.
         12    1    3    3    0    0 -0.23578249656E+02  0.13333379319E+02 -0.41413213816E+01  0.27401886863E+02  0.00000000000E+00 0. -1.
</event>
<event>
 7    1  0.2932676E-013  0.7246157E+02  0.7816164E-02  0.1226708E+00
        -11   -1    0    0    0    0  0.00000000000E+00  0.00000000000E+00  0.45593999997E+02  0.45594000000E+02  0.51100000000E-03 0.  1.
         11   -1    0    0    0    0 -0.00000000000E+00 -0.00000000000E+00 -0.45593999997E+02  0.45594000000E+02  0.51100000000E-03 0. -1.
    9900012    2    1    2    0    0 -0.37579656254E+01 -0.15385018482E+02  0.99929016113E+01  0.72461569963E+02  0.69999999568E+02 0.  0.
         12    1    1    2    0    0  0.37579656254E+01  0.15385018482E+02 -0.99929016113E+01  0.18726430037E+02  0.00000000000E+00 0. -1.
         11    1    3    3    0    0  0.24314632195E+02 -0.18527642158E+02  0.96596969020E+01  0.32059079949E+02  0.51100000000E-03 0. -1.
        -11    1    3    3    0    0 -0.13401184069E+02  0.10717584880E+02  0.11331249604E+02  0.20563452482E+02  0.51100000000E-03 0.  1.
        -12    1    3    3    0    0 -0.14671413751E+02 -0.75749612037E+01 -0.10998044895E+02  0.19839037532E+02  0.00000000000E+00 0.  1.
</event>
<event>
 7    1  0.2932676E-013  0.7246157E+02  0.7816164E-02  0.1226708E+00
        -11   -1    0    0    0    0  0.00000000000E+00  0.00000000000E+00  0.45593999997E+02  0.45594000000E+02  0.51100000000E-03 0. -1.
         11   -1    0    0    0    0 -0.00000000000E+00 -0.00000000000E+00 -0.45593999997E+02  0.45594000000E+02  0.51100000000E-03 0.  1.
    9900012    2    1    2    0    0  0.16026932129E+02  0.53819635654E+01  0.80530074255E+01  0.72461574450E+02  0.70000005413E+02 0.  0.
         12    1    1    2    0    0 -0.16026932129E+02 -0.53819635654E+01 -0.80530074255E+01  0.18726425550E+02  0.00000000000E+00 0. -1.
         11    1    3    3    0    0 -0.77532558220E+01 -0.51648158328E+01 -0.40494811283E+01  0.10158080335E+02  0.51100000000E-03 0. -1.
        -11    1    3    3    0    0 -0.35761282153E+01 -0.19467159907E+02 -0.44800090447E+00  0.19797972445E+02  0.51100000000E-03 0.  1.
         12    1    3    3    0    0  0.27356316166E+02  0.30013939305E+02  0.12550489458E+02  0.42505521670E+02  0.00000000000E+00 0. -1.
</event>
<event>
 7    1  0.2932676E-013  0.7246154E+02  0.7816164E-02  0.1226708E+00
        -11   -1    0    0    0    0  0.00000000000E+00  0.00000000000E+00  0.45593999997E+02  0.45594000000E+02  0.51100000000E-03 0. -1.
         11   -1    0    0    0    0 -0.00000000000E+00 -0.00000000000E+00 -0.45593999997E+02  0.45594000000E+02  0.51100000000E-03 0.  1.
    9900012    2    1    2    0    0 -0.39815085786E+01 -0.17501653515E+02 -0.53404064926E+01  0.72461542037E+02  0.69999963190E+02 0.  0.
         12    1    1    2    0    0  0.39815085786E+01  0.17501653515E+02  0.53404064926E+01  0.18726457963E+02  0.00000000000E+00 0. -1.
         11    1    3    3    0    0 -0.15628502214E+02 -0.97820935449E+00 -0.27176179974E+02  0.31364816805E+02  0.51100000000E-03 0. -1.
        -11    1    3    3    0    0 -0.62757264791E+01  0.16317374317E+01 -0.13498933263E+01  0.66234071398E+01  0.51100000000E-03 0.  1.
        -12    1    3    3    0    0  0.17922720114E+02 -0.18155181592E+02  0.23185666808E+02  0.34473318092E+02  0.00000000000E+00 0.  1.
</event>
<event>
 7    1  0.2932676E-013  0.7246155E+02  0.7816164E-02  0.1226708E+00
        -11   -1    0    0    0    0  0.00000000000E+00  0.00000000000E+00  0.45593999997E+02  0.45594000000E+02  0.51100000000E-03 0.  1.
         11   -1    0    0    0    0 -0.00000000000E+00 -0.00000000000E+00 -0.45593999997E+02  0.45594000000E+02  0.51100000000E-03 0. -1.
    9900012    2    1    2    0    0  0.17869598025E+02 -0.47106072586E+01 -0.30277956724E+01  0.72461550765E+02  0.69999974559E+02 0.  0.
         12    1    1    2    0    0 -0.17869598025E+02  0.47106072586E+01  0.30277956724E+01  0.18726449235E+02  0.00000000000E+00 0. -1.
         11    1    3    3    0    0  0.93543728875E+01 -0.12286472152E+02 -0.17345801132E+02  0.23223662657E+02  0.51100000000E-03 0. -1.
        -11    1    3    3    0    0 -0.50546190934E+01 -0.16154598441E+02 -0.25474143009E+01  0.17117521575E+02  0.51100000000E-03 0.  1.
        -12    1    3    3    0    0  0.13569844231E+02  0.23730463334E+02  0.16865419760E+02  0.32120366533E+02  0.00000000000E+00 0.  1.
</event>
<event>
 7    1  0.2932676E-013  0.7246138E+02  0.7816164E-02  0.1226709E+00
        -11   -1    0    0    0    0  0.00000000000E+00  0.00000000000E+00  0.45593999997E+02  0.45594000000E+02  0.51100000000E-03 0.  1.
         11   -1    0    0    0    0 -0.00000000000E+00 -0.00000000000E+00 -0.45593999997E+02  0.45594000000E+02  0.51100000000E-03 0. -1.
    9900012    2    1    2    0    0  0.26783491790E+01  0.11166539821E+02  0.14792608656E+02  0.72461376258E+02  0.69999747232E+02 0.  0.
         12    1    1    2    0    0 -0.26783491790E+01 -0.11166539821E+02 -0.14792608656E+02  0.18726623742E+02  0.00000000000E+00 0. -1.
         11    1    3    3    0    0 -0.53697185982E+01  0.11695519186E+02 -0.70480003888E+01  0.14672878266E+02  0.51100000000E-03 0. -1.
        -11    1    3    3    0    0 -0.15877203093E+02 -0.12132256583E+02  0.23859361371E+02  0.31121477361E+02  0.51100000000E-03 0.  1.
        -12    1    3    3    0    0  0.23925270870E+02  0.11603277218E+02 -0.20187523263E+01  0.26667020631E+02  0.00000000000E+00 0.  1.
</event>
<event>
 7    1  0.2932676E-013  0.7246155E+02  0.7816164E-02  0.1226708E+00
        -11   -1    0    0    0    0  0.00000000000E+00  0.00000000000E+00  0.45593999997E+02  0.45594000000E+02  0.51100000000E-03 0. -1.
         11   -1    0    0    0    0 -0.00000000000E+00 -0.00000000000E+00 -0.45593999997E+02  0.45594000000E+02  0.51100000000E-03 0.  1.
    9900012    2    1    2    0    0 -0.91165105318E+01  0.10872438717E+01 -0.16321369080E+02  0.72461549398E+02  0.69999972778E+02 0.  0.
         12    1    1    2    0    0  0.91165105318E+01 -0.10872438717E+01  0.16321369080E+02  0.18726450602E+02  0.00000000000E+00 0. -1.
         11    1    3    3    0    0 -0.29523600703E+01  0.76981698669E+01  0.30785527579E+01  0.88008940812E+01  0.51100000000E-03 0. -1.
        -11    1    3    3    0    0 -0.30071906465E+02 -0.52813189385E+01 -0.24538510740E+02  0.39170785003E+02  0.51100000000E-03 0.  1.
         12    1    3    3    0    0  0.23907756004E+02 -0.13296070566E+01  0.51385889017E+01  0.24489870313E+02  0.00000000000E+00 0. -1.
</event>
<event>
 7    1  0.2932676E-013  0.7246158E+02  0.7816164E-02  0.1226708E+00
        -11   -1    0    0    0    0  0.00000000000E+00  0.00000000000E+00  0.45593999997E+02  0.45594000000E+02  0.51100000000E-03 0.  1.
         11   -1    0    0    0    0 -0.00000000000E+00 -0.00000000000E+00 -0.45593999997E+02  0.45594000000E+02  0.51100000000E-03 0. -1.
    9900012    2    1    2    0    0 -0.61812989073E+01  0.17675752788E+02 -0.19563180394E+00  0.72461575765E+02  0.70000007127E+02 0.  0.
         12    1    1    2    0    0  0.61812989073E+01 -0.17675752788E+02  0.19563180394E+00  0.18726424235E+02  0.00000000000E+00 0. -1.
         11    1    3    3    0    0 -0.36735611581E+01  0.62236617257E+01 -0.83109014679E+01  0.11013632477E+02  0.51100000000E-03 0. -1.
        -11    1    3    3    0    0  0.20173093898E+02  0.24236985985E+02 -0.55892432790E+01  0.32025378183E+02  0.51100000000E-03 0.  1.
         12    1    3    3    0    0 -0.22680831648E+02 -0.12784894923E+02  0.13704512943E+02  0.29422565106E+02  0.00000000000E+00 0. -1.
</event>
<event>
 7    1  0.2932676E-013  0.7246165E+02  0.7816164E-02  0.1226708E+00
        -11   -1    0    0    0    0  0.00000000000E+00  0.00000000000E+00  0.45593999997E+02  0.45594000000E+02  0.51100000000E-03 0. -1.
         11   -1    0    0    0    0 -0.00000000000E+00 -0.00000000000E+00 -0.45593999997E+02  0.45594000000E+02  0.51100000000E-03 0.  1.
    9900012    2    1    2    0    0  0.67062183610E+01 -0.11939656278E+02 -0.12772923160E+02  0.72461646303E+02  0.70000099015E+02 0.  0.
         12    1    1    2    0    0 -0.67062183610E+01  0.11939656278E+02  0.12772923160E+02  0.18726353697E+02  0.00000000000E+00 0. -1.
         11    1    3    3    0    0  0.15745464767E+02 -0.27800853722E+02  0.56144311713E+01  0.32439620312E+02  0.51100000000E-03 0. -1.
        -11    1    3    3    0    0  0.72071967752E+01 -0.47698390812E+01 -0.80172543660E+01  0.11788613915E+02  0.51100000000E-03 0.  1.
        -12    1    3    3    0    0 -0.16246443181E+02  0.20631036525E+02 -0.10370099965E+02  0.28233412075E+02  0.00000000000E+00 0.  1.
</event>
<event>
 7    1  0.2932676E-013  0.7246150E+02  0.7816164E-02  0.1226708E+00
        -11   -1    0    0    0    0  0.00000000000E+00  0.00000000000E+00  0.45593999997E+02  0.45594000000E+02  0.51100000000E-03 0. -1.
         11   -1    0    0    0    0 -0.00000000000E+00 -0.00000000000E+00 -0.45593999997E+02  0.45594000000E+02  0.51100000000E-03 0.  1.
    9900012    2    1    2    0    0  0.50368586322E+01  0.19701308377E+01 -0.17928478134E+02  0.72461503035E+02  0.69999912382E+02 0.  0.
         12    1    1    2    0    0 -0.50368586322E+01 -0.19701308377E+01  0.17928478134E+02  0.18726496965E+02  0.00000000000E+00 0. -1.
         11    1    3    3    0    0 -0.15537873451E+02  0.82873806889E+01 -0.49499731125E+01  0.18292305053E+02  0.51100000000E-03 0. -1.
        -11    1    3    3    0    0 -0.25877495287E+01  0.13397547982E+02 -0.18770391573E+02  0.23205997923E+02  0.51100000000E-03 0.  1.
        -12    1    3    3    0    0  0.23162481612E+02 -0.19714797833E+02  0.57918865519E+01  0.30963200059E+02  0.00000000000E+00 0.  1.
</event>
<event>
 7    1  0.2932676E-013  0.7246159E+02  0.7816164E-02  0.1226708E+00
        -11   -1    0    0    0    0  0.00000000000E+00  0.00000000000E+00  0.45593999997E+02  0.45594000000E+02  0.51100000000E-03 0. -1.
         11   -1    0    0    0    0 -0.00000000000E+00 -0.00000000000E+00 -0.45593999997E+02  0.45594000000E+02  0.51100000000E-03 0.  1.
    9900012    2    1    2    0    0 -0.11808094294E+02  0.92901150474E+01 -0.11177700910E+02  0.72461592814E+02  0.70000029336E+02 0.  0.
         12    1    1    2    0    0  0.11808094294E+02 -0.92901150474E+01  0.11177700910E+02  0.18726407186E+02  0.00000000000E+00 0. -1.
         11    1    3    3    0    0 -0.61047318190E+01 -0.66359102565E+00  0.91269816439E+01  0.11000449892E+02  0.51100000000E-03 0. -1.
        -11    1    3    3    0    0 -0.42000001782E+01 -0.16587983645E+02  0.11037987826E+02  0.20362671201E+02  0.51100000000E-03 0.  1.
         12    1    3    3    0    0 -0.15033622970E+01  0.26541689718E+02 -0.31342670380E+02  0.41098471722E+02  0.00000000000E+00 0. -1.
</event>
<event>
 7    1  0.2932676E-013  0.7246143E+02  0.7816164E-02  0.1226708E+00
        -11   -1    0    0    0    0  0.00000000000E+00  0.00000000000E+00  0.45593999997E+02  0.45594000000E+02  0.51100000000E-03 0.  1.
         11   -1    0    0    0    0 -0.00000000000E+00 -0.00000000000E+00 -0.45593999997E+02  0.45594000000E+02  0.51100000000E-03 0. -1.
    9900012    2    1    2    0    0  0.17458081615E+02 -0.31842381674E+01  0.59800124761E+01  0.72461427020E+02  0.69999813358E+02 0.  0.
         12    1    1    2    0    0 -0.17458081615E+02  0.31842381674E+01 -0.59800124761E+01  0.18726572980E+02  0.00000000000E+00 0. -1.
         11    1    3    3    0    0  0.26415986063E+02  0.21397126197E+01 -0.22590197369E+02  0.34823838203E+02  0.51100000000E-03 0. -1.
        -11    1    3    3    0    0  0.28845342111E+00  0.79374628538E+01  0.12726666546E+02  0.15001818675E+02  0.51100000000E-03 0.  1.
        -12    1    3    3    0    0 -0.92463578693E+01 -0.13261413641E+02  0.15843543300E+02  0.22635770141E+02  0.00000000000E+00 0.  1.
</event>
<event>
 7    1  0.2932676E-013  0.7246160E+02  0.7816164E-02  0.1226708E+00
        -11   -1    0    0    0    0  0.00000000000E+00  0.00000000000E+00  0.45593999997E+02  0.45594000000E+02  0.51100000000E-03 0.  1.
         11   -1    0    0    0    0 -0.00000000000E+00 -0.00000000000E+00 -0.45593999997E+02  0.45594000000E+02  0.51100000000E-03 0. -1.
    9900012    2    1    2    0    0  0.87548092114E+01  0.70462390348E+01  0.14979376818E+02  0.72461604225E+02  0.70000044201E+02 0.  0.
         12    1    1    2    0    0 -0.87548092114E+01 -0.70462390348E+01 -0.14979376818E+02  0.18726395775E+02  0.00000000000E+00 0. -1.
         11    1    3    3    0    0 -0.76065057278E+01  0.61274723451E+01 -0.78344952017E+01  0.12521348252E+02  0.51100000000E-03 0. -1.
        -11    1    3    3    0    0  0.21402115076E+02 -0.22535399474E+02  0.94727427498E+01  0.32490423430E+02  0.51100000000E-03 0.  1.
         12    1    3    3    0    0 -0.50408001363E+01  0.23454166164E+02  0.13341129270E+02  0.27449832543E+02  0.00000000000E+00 0. -1.
</event>
<event>
 7    1  0.2932676E-013  0.7246081E+02  0.7816164E-02  0.1226710E+00
        -11   -1    0    0    0    0  0.00000000000E+00  0.00000000000E+00  0.45593999997E+02  0.45594000000E+02  0.51100000000E-03 0.  1.
         11   -1    0    0    0    0 -0.00000000000E+00 -0.00000000000E+00 -0.45593999997E+02  0.45594000000E+02  0.51100000000E-03 0. -1.
    9900012    2    1    2    0    0 -0.47931167164E+01 -0.46845264199E+01  0.17486823483E+02  0.72460807173E+02  0.69999005886E+02 0.  0.
         12    1    1    2    0    0  0.47931167164E+01  0.46845264199E+01 -0.17486823483E+02  0.18727192827E+02  0.00000000000E+00 0. -1.
         11    1    3    3    0    0  0.41113660373E+01 -0.26180925688E+02 -0.52735618223E+01  0.27021374042E+02  0.51100000000E-03 0. -1.
        -11    1    3    3    0    0 -0.11811495072E+02  0.75440239756E+01 -0.44651016821E+01  0.14709209594E+02  0.51100000000E-03 0.  1.
        -12    1    3    3    0    0  0.29070123187E+01  0.13952375292E+02  0.27225486988E+02  0.30730223537E+02  0.00000000000E+00 0.  1.
</event>
<event>
 7    1  0.2932676E-013  0.7246139E+02  0.7816164E-02  0.1226708E+00
        -11   -1    0    0    0    0  0.00000000000E+00  0.00000000000E+00  0.45593999997E+02  0.45594000000E+02  0.51100000000E-03 0. -1.
         11   -1    0    0    0    0 -0.00000000000E+00 -0.00000000000E+00 -0.45593999997E+02  0.45594000000E+02  0.51100000000E-03 0.  1.
    9900012    2    1    2    0    0 -0.10694559351E+02 -0.14820463724E+02 -0.40824100303E+01  0.72461392823E+02  0.69999768810E+02 0.  0.
         12    1    1    2    0    0  0.10694559351E+02  0.14820463724E+02  0.40824100303E+01  0.18726607177E+02  0.00000000000E+00 0. -1.
         11    1    3    3    0    0  0.13200785177E+02  0.95624387421E+01  0.11345353245E+02  0.19859959831E+02  0.51100000000E-03 0. -1.
        -11    1    3    3    0    0  0.65735556374E+01 -0.11299894607E+02 -0.14368423461E+02  0.19425520453E+02  0.51100000000E-03 0.  1.
        -12    1    3    3    0    0 -0.30468900165E+02 -0.13083007859E+02 -0.10593398144E+01  0.33175912539E+02  0.00000000000E+00 0.  1.
</event>
<event>
 7    1  0.2932676E-013  0.7246156E+02  0.7816164E-02  0.1226708E+00
        -11   -1    0    0    0    0  0.00000000000E+00  0.00000000000E+00  0.45593999997E+02  0.45594000000E+02  0.51100000000E-03 0.  1.
         11   -1    0    0    0    0 -0.00000000000E+00 -0.00000000000E+00 -0.45593999997E+02  0.45594000000E+02  0.51100000000E-03 0. -1.
    9900012    2    1    2    0    0 -0.48266122682E+01 -0.11633525096E+02  0.13858007404E+02  0.72461562503E+02  0.69999989850E+02 0.  0.
         12    1    1    2    0    0  0.48266122682E+01  0.11633525096E+02 -0.13858007404E+02  0.18726437497E+02  0.00000000000E+00 0. -1.
         11    1    3    3    0    0  0.45198093016E+01 -0.10519271601E+02 -0.15927056841E+02  0.19615169921E+02  0.51100000000E-03 0. -1.
        -11    1    3    3    0    0  0.32696664206E+00  0.93061346147E+01 -0.81246645441E+01  0.12358042841E+02  0.51100000000E-03 0.  1.
        -12    1    3    3    0    0 -0.96733882119E+01 -0.10420388109E+02  0.37909728789E+02  0.40488349741E+02  0.00000000000E+00 0.  1.
</event>
<event>
 7    1  0.2932676E-013  0.7246156E+02  0.7816164E-02  0.1226708E+00
        -11   -1    0    0    0    0  0.00000000000E+00  0.00000000000E+00  0.45593999997E+02  0.45594000000E+02  0.51100000000E-03 0. -1.
         11   -1    0    0    0    0 -0.00000000000E+00 -0.00000000000E+00 -0.45593999997E+02  0.45594000000E+02  0.51100000000E-03 0.  1.
    9900012    2    1    2    0    0  0.10658208429E+02 -0.92241491150E+01 -0.12328711276E+02  0.72461562658E+02  0.69999990052E+02 0.  0.
         12    1    1    2    0    0 -0.10658208429E+02  0.92241491150E+01  0.12328711276E+02  0.18726437342E+02  0.00000000000E+00 0. -1.
         11    1    3    3    0    0 -0.17364971226E+02 -0.24109051107E+02 -0.17117570112E+02  0.34289936975E+02  0.51100000000E-03 0. -1.
        -11    1    3    3    0    0 -0.80025110954E+00 -0.34121856171E+01  0.16894926977E+01  0.38907323682E+01  0.51100000000E-03 0.  1.
        -12    1    3    3    0    0  0.28823430764E+02  0.18297087609E+02  0.30993661387E+01  0.34280893315E+02  0.00000000000E+00 0.  1.
</event>
<event>
 7    1  0.2932676E-013  0.7246162E+02  0.7816164E-02  0.1226708E+00
        -11   -1    0    0    0    0  0.00000000000E+00  0.00000000000E+00  0.45593999997E+02  0.45594000000E+02  0.51100000000E-03 0.  1.
         11   -1    0    0    0    0 -0.00000000000E+00 -0.00000000000E+00 -0.45593999997E+02  0.45594000000E+02  0.51100000000E-03 0. -1.
    9900012    2    1    2    0    0 -0.99529382727E+01 -0.73459980165E+01  0.14058897354E+02  0.72461621227E+02  0.70000066350E+02 0.  0.
         12    1    1    2    0    0  0.99529382727E+01  0.73459980165E+01 -0.14058897354E+02  0.18726378773E+02  0.00000000000E+00 0. -1.
         11    1    3    3    0    0  0.69465819486E+00  0.20728437983E+01 -0.81426262567E+01  0.84309900983E+01  0.51100000000E-03 0. -1.
        -11    1    3    3    0    0 -0.17710607961E+02  0.11128868372E+01 -0.15929423857E+02  0.23846397970E+02  0.51100000000E-03 0.  1.
        -12    1    3    3    0    0  0.70630114939E+01 -0.10531728652E+02  0.38130947468E+02  0.40184233159E+02  0.00000000000E+00 0.  1.
</event>
<event>
 7    1  0.2932676E-013  0.7246160E+02  0.7816164E-02  0.1226708E+00
        -11   -1    0    0    0    0  0.00000000000E+00  0.00000000000E+00  0.45593999997E+02  0.45594000000E+02  0.51100000000E-03 0.  1.
         11   -1    0    0    0    0 -0.00000000000E+00 -0.00000000000E+00 -0.45593999997E+02  0.45594000000E+02  0.51100000000E-03 0. -1.
    9900012    2    1    2    0    0 -0.12249726547E+02  0.60601056856E+01  0.12802246392E+02  0.72461596339E+02  0.70000033928E+02 0.  0.
         12    1    1    2    0    0  0.12249726547E+02 -0.60601056856E+01 -0.12802246392E+02  0.18726403661E+02  0.00000000000E+00 0. -1.
         11    1    3    3    0    0  0.17418543544E+02  0.14443096471E+02  0.75085664811E+01  0.23840873845E+02  0.51100000000E-03 0. -1.
        -11    1    3    3    0    0 -0.17819837031E+02  0.14215056094E+02  0.32100946475E+01  0.23019972186E+02  0.51100000000E-03 0.  1.
         12    1    3    3    0    0 -0.11848433060E+02 -0.22598046880E+02  0.20835852638E+01  0.25600750307E+02  0.00000000000E+00 0. -1.
</event>
<event>
 7    1  0.2932676E-013  0.7246155E+02  0.7816164E-02  0.1226708E+00
        -11   -1    0    0    0    0  0.00000000000E+00  0.00000000000E+00  0.45593999997E+02  0.45594000000E+02  0.51100000000E-03 0.  1.
         11   -1    0    0    0    0 -0.00000000000E+00 -0.00000000000E+00 -0.45593999997E+02  0.45594000000E+02  0.51100000000E-03 0. -1.
    9900012    2    1    2    0    0  0.16354173021E+01 -0.13661430197E+02 -0.12703181378E+02  0.72461545934E+02  0.69999968265E+02 0.  0.
         12    1    1    2    0    0 -0.16354173021E+01  0.13661430197E+02  0.12703181378E+02  0.18726454066E+02  0.00000000000E+00 0. -1.
         11    1    3    3    0    0 -0.47323732357E+00 -0.20203351033E+02 -0.19804969938E+02  0.28295515211E+02  0.51100000000E-03 0. -1.
        -11    1    3    3    0    0  0.66302833565E+01 -0.15846362878E+02 -0.55548520163E+01  0.18053372400E+02  0.51100000000E-03 0.  1.
        -12    1    3    3    0    0 -0.45216287309E+01  0.22388283713E+02  0.12656640577E+02  0.26112658323E+02  0.00000000000E+00 0.  1.
</event>
<event>
 7    1  0.2932676E-013  0.7246156E+02  0.7816164E-02  0.1226708E+00
        -11   -1    0    0    0    0  0.00000000000E+00  0.00000000000E+00  0.45593999997E+02  0.45594000000E+02  0.51100000000E-03 0.  1.
         11   -1    0    0    0    0 -0.00000000000E+00 -0.00000000000E+00 -0.45593999997E+02  0.45594000000E+02  0.51100000000E-03 0. -1.
    9900012    2    1    2    0    0 -0.18281353903E+02  0.24050535197E+01  0.32691528690E+01  0.72461560311E+02  0.69999986994E+02 0.  0.
         12    1    1    2    0    0  0.18281353903E+02 -0.24050535197E+01 -0.32691528690E+01  0.18726439689E+02  0.00000000000E+00 0. -1.
         11    1    3    3    0    0  0.15660572650E+01  0.80867378711E+00  0.33241622385E+01  0.37625182392E+01  0.51100000000E-03 0. -1.
        -11    1    3    3    0    0 -0.20945836839E+02  0.24125120038E+02  0.20682430529E+02  0.38059327774E+02  0.51100000000E-03 0.  1.
         12    1    3    3    0    0  0.10984256705E+01 -0.22528740306E+02 -0.20737439898E+02  0.30639714298E+02  0.00000000000E+00 0. -1.
</event>
<event>
 7    1  0.2932676E-013  0.7246147E+02  0.7816164E-02  0.1226708E+00
        -11   -1    0    0    0    0  0.00000000000E+00  0.00000000000E+00  0.45593999997E+02  0.45594000000E+02  0.51100000000E-03 0.  1.
         11   -1    0    0    0    0 -0.00000000000E+00 -0.00000000000E+00 -0.45593999997E+02  0.45594000000E+02  0.51100000000E-03 0. -1.
    9900012    2    1    2    0    0  0.14715773353E+02 -0.57139616657E+01  0.10073707521E+02  0.72461469982E+02  0.69999869325E+02 0.  0.
         12    1    1    2    0    0 -0.14715773353E+02  0.57139616657E+01 -0.10073707521E+02  0.18726530018E+02  0.00000000000E+00 0. -1.
         11    1    3    3    0    0 -0.38314463857E+01  0.82435662759E+01 -0.71746431520E+01  0.11580667985E+02  0.51100000000E-03 0. -1.
        -11    1    3    3    0    0  0.21267485832E+01  0.85201071560E+01 -0.15552352318E+02  0.17860317700E+02  0.51100000000E-03 0.  1.
         12    1    3    3    0    0  0.16420471155E+02 -0.22477635098E+02  0.32800702990E+02  0.43020484297E+02  0.00000000000E+00 0. -1.
</event>
<event>
 7    1  0.2932676E-013  0.7246152E+02  0.7816164E-02  0.1226708E+00
        -11   -1    0    0    0    0  0.00000000000E+00  0.00000000000E+00  0.45593999997E+02  0.45594000000E+02  0.51100000000E-03 0. -1.
         11   -1    0    0    0    0 -0.00000000000E+00 -0.00000000000E+00 -0.45593999997E+02  0.45594000000E+02  0.51100000000E-03 0.  1.
    9900012    2    1    2    0    0  0.18419094898E+02  0.21501371053E+01  0.26066852159E+01  0.72461522641E+02  0.69999937923E+02 0.  0.
         12    1    1    2    0    0 -0.18419094898E+02 -0.21501371053E+01 -0.26066852159E+01  0.18726477359E+02  0.00000000000E+00 0. -1.
         11    1    3    3    0    0  0.36659435676E+02  0.51747525409E+01  0.11060930573E+02  0.38639830141E+02  0.51100000000E-03 0.  1.
        -11    1    3    3    0    0  0.19748789343E+00  0.37786730636E+01  0.75706313609E+01  0.84635590063E+01  0.51100000000E-03 0. -1.
        -12    1    3    3    0    0 -0.18437828671E+02 -0.68032884993E+01 -0.16024876718E+02  0.25358133494E+02  0.00000000000E+00 0.  1.
</event>
<event>
 7    1  0.2932676E-013  0.7246149E+02  0.7816164E-02  0.1226708E+00
        -11   -1    0    0    0    0  0.00000000000E+00  0.00000000000E+00  0.45593999997E+02  0.45594000000E+02  0.51100000000E-03 0. -1.
         11   -1    0    0    0    0 -0.00000000000E+00 -0.00000000000E+00 -0.45593999997E+02  0.45594000000E+02  0.51100000000E-03 0.  1.
    9900012    2    1    2    0    0  0.14266697879E+02  0.12100265653E+02  0.85258968302E+00  0.72461494549E+02  0.69999901328E+02 0.  0.
         12    1    1    2    0    0 -0.14266697879E+02 -0.12100265653E+02 -0.85258968302E+00  0.18726505451E+02  0.00000000000E+00 0. -1.
         11    1    3    3    0    0 -0.13192857053E+02  0.46017388918E+00 -0.17931886587E+02  0.22266921522E+02  0.51100000000E-03 0. -1.
        -11    1    3    3    0    0 -0.85894368226E+01  0.21436555093E+01  0.63569450150E+01  0.10898827187E+02  0.51100000000E-03 0.  1.
        -12    1    3    3    0    0  0.36048991754E+02  0.94964362542E+01  0.12427531255E+02  0.39295745840E+02  0.00000000000E+00 0.  1.
</event>
<event>
 7    1  0.2932676E-013  0.7246155E+02  0.7816164E-02  0.1226708E+00
        -11   -1    0    0    0    0  0.00000000000E+00  0.00000000000E+00  0.45593999997E+02  0.45594000000E+02  0.51100000000E-03 0. -1.
         11   -1    0    0    0    0 -0.00000000000E+00 -0.00000000000E+00 -0.45593999997E+02  0.45594000000E+02  0.51100000000E-03 0.  1.
    9900012    2    1    2    0    0 -0.70531999595E+01 -0.33246454005E+01 -0.17025830636E+02  0.72461553312E+02  0.69999977877E+02 0.  0.
         12    1    1    2    0    0  0.70531999595E+01  0.33246454005E+01  0.17025830636E+02  0.18726446688E+02  0.00000000000E+00 0. -1.
         11    1    3    3    0    0  0.95526296668E+01 -0.10475969540E+02 -0.66023164051E+01  0.15639349524E+02  0.51100000000E-03 0. -1.
        -11    1    3    3    0    0 -0.98013501425E+01  0.28725889220E+02 -0.14819877926E+02  0.33776796150E+02  0.51100000000E-03 0.  1.
         12    1    3    3    0    0 -0.68044794838E+01 -0.21574565081E+02  0.43963636949E+01  0.23045407638E+02  0.00000000000E+00 0. -1.
</event>
<event>
 7    1  0.2932676E-013  0.7246129E+02  0.7816164E-02  0.1226709E+00
        -11   -1    0    0    0    0  0.00000000000E+00  0.00000000000E+00  0.45593999997E+02  0.45594000000E+02  0.51100000000E-03 0. -1.
         11   -1    0    0    0    0 -0.00000000000E+00 -0.00000000000E+00 -0.45593999997E+02  0.45594000000E+02  0.51100000000E-03 0.  1.
    9900012    2    1    2    0    0  0.16854623715E+02 -0.70735512970E+01 -0.40713695959E+01  0.72461293965E+02  0.69999640029E+02 0.  0.
         12    1    1    2    0    0 -0.16854623715E+02  0.70735512970E+01  0.40713695959E+01  0.18726706035E+02  0.00000000000E+00 0. -1.
         11    1    3    3    0    0 -0.51091730373E+01  0.15875164465E+01  0.14244931256E+02  0.15216501712E+02  0.51100000000E-03 0. -1.
        -11    1    3    3    0    0  0.28430310469E+02 -0.17755839110E+02  0.25140492427E+01  0.33613580882E+02  0.51100000000E-03 0.  1.
        -12    1    3    3    0    0 -0.64665137165E+01  0.90947713662E+01 -0.20830350095E+02  0.23631211372E+02  0.00000000000E+00 0.  1.
</event>
<event>
 7    1  0.2932676E-013  0.7246157E+02  0.7816164E-02  0.1226708E+00
        -11   -1    0    0    0    0  0.00000000000E+00  0.00000000000E+00  0.45593999997E+02  0.45594000000E+02  0.51100000000E-03 0.  1.
         11   -1    0    0    0    0 -0.00000000000E+00 -0.00000000000E+00 -0.45593999997E+02  0.45594000000E+02  0.51100000000E-03 0. -1.
    9900012    2    1    2    0    0  0.37989577062E+01 -0.87557933827E+01 -0.16111589179E+02  0.72461566723E+02  0.69999995348E+02 0.  0.
         12    1    1    2    0    0 -0.37989577062E+01  0.87557933827E+01  0.16111589179E+02  0.18726433277E+02  0.00000000000E+00 0. -1.
         11    1    3    3    0    0 -0.14144352985E+02  0.99119175418E+01 -0.12364952154E+02  0.21241489419E+02  0.51100000000E-03 0. -1.
        -11    1    3    3    0    0 -0.11476592673E+02 -0.16054923871E+02 -0.81617838498E+01  0.21356204620E+02  0.51100000000E-03 0.  1.
        -12    1    3    3    0    0  0.29419903365E+02 -0.26127870536E+01  0.44151468250E+01  0.29863872684E+02  0.00000000000E+00 0.  1.
</event>
<event>
 7    1  0.2932676E-013  0.7246159E+02  0.7816164E-02  0.1226708E+00
        -11   -1    0    0    0    0  0.00000000000E+00  0.00000000000E+00  0.45593999997E+02  0.45594000000E+02  0.51100000000E-03 0.  1.
         11   -1    0    0    0    0 -0.00000000000E+00 -0.00000000000E+00 -0.45593999997E+02  0.45594000000E+02  0.51100000000E-03 0. -1.
    9900012    2    1    2    0    0 -0.15801788112E+02  0.99725418948E+01  0.12369956875E+01  0.72461594640E+02  0.70000031715E+02 0.  0.
         12    1    1    2    0    0  0.15801788112E+02 -0.99725418948E+01 -0.12369956875E+01  0.18726405360E+02  0.00000000000E+00 0. -1.
         11    1    3    3    0    0  0.74176487950E+01 -0.63390772187E+01 -0.23620449611E+02  0.25556428814E+02  0.51100000000E-03 0. -1.
        -11    1    3    3    0    0  0.29295572446E+01  0.36146181949E+01 -0.38585550801E+01  0.60445196593E+01  0.51100000000E-03 0.  1.
        -12    1    3    3    0    0 -0.26148994151E+02  0.12697000919E+02  0.28716000379E+02  0.40860646167E+02  0.00000000000E+00 0.  1.
</event>
<event>
 7    1  0.2932676E-013  0.7246162E+02  0.7816164E-02  0.1226708E+00
        -11   -1    0    0    0    0  0.00000000000E+00  0.00000000000E+00  0.45593999997E+02  0.45594000000E+02  0.51100000000E-03 0.  1.
         11   -1    0    0    0    0 -0.00000000000E+00 -0.00000000000E+00 -0.45593999997E+02  0.45594000000E+02  0.51100000000E-03 0. -1.
    9900012    2    1    2    0    0  0.83034808194E+01  0.16254299443E+02  0.41865465452E+01  0.72461622452E+02  0.70000067945E+02 0.  0.
         12    1    1    2    0    0 -0.83034808194E+01 -0.16254299443E+02 -0.41865465452E+01  0.18726377548E+02  0.00000000000E+00 0. -1.
         11    1    3    3    0    0  0.91631397064E+01 -0.12908449017E+01  0.26464005585E+01  0.96245958884E+01  0.51100000000E-03 0. -1.
        -11    1    3    3    0    0  0.17326427608E+02  0.25817681182E+02 -0.17123921135E+02  0.35496287560E+02  0.51100000000E-03 0.  1.
         12    1    3    3    0    0 -0.18186086495E+02 -0.82725368372E+01  0.18664067121E+02  0.27340739003E+02  0.00000000000E+00 0. -1.
</event>
<event>
 7    1  0.2932676E-013  0.7246156E+02  0.7816164E-02  0.1226708E+00
        -11   -1    0    0    0    0  0.00000000000E+00  0.00000000000E+00  0.45593999997E+02  0.45594000000E+02  0.51100000000E-03 0. -1.
         11   -1    0    0    0    0 -0.00000000000E+00 -0.00000000000E+00 -0.45593999997E+02  0.45594000000E+02  0.51100000000E-03 0.  1.
    9900012    2    1    2    0    0  0.43064773898E+01 -0.77350170275E+01 -0.16501620089E+02  0.72461556091E+02  0.69999981498E+02 0.  0.
         12    1    1    2    0    0 -0.43064773898E+01  0.77350170275E+01  0.16501620089E+02  0.18726443909E+02  0.00000000000E+00 0. -1.
         11    1    3    3    0    0  0.17563836840E+02 -0.22744743708E+02  0.88058052338E+01  0.30055846969E+02  0.51100000000E-03 0. -1.
        -11    1    3    3    0    0  0.74420179142E+01  0.48285399824E+01 -0.10532083037E+01  0.89335142575E+01  0.51100000000E-03 0.  1.
        -12    1    3    3    0    0 -0.20699377365E+02  0.10181186699E+02 -0.24254217019E+02  0.33472194865E+02  0.00000000000E+00 0.  1.
</event>
<event>
 7    1  0.2932676E-013  0.7246158E+02  0.7816164E-02  0.1226708E+00
        -11   -1    0    0    0    0  0.00000000000E+00  0.00000000000E+00  0.45593999997E+02  0.45594000000E+02  0.51100000000E-03 0.  1.
         11   -1    0    0    0    0 -0.00000000000E+00 -0.00000000000E+00 -0.45593999997E+02  0.45594000000E+02  0.51100000000E-03 0. -1.
    9900012    2    1    2    0    0 -0.13050671003E+02  0.11389185905E+02  0.71165557211E+01  0.72461576568E+02  0.70000008173E+02 0.  0.
         12    1    1    2    0    0  0.13050671003E+02 -0.11389185905E+02 -0.71165557211E+01  0.18726423432E+02  0.00000000000E+00 0. -1.
         11    1    3    3    0    0  0.10295564668E+02  0.57232570698E+00 -0.45992332997E+01  0.11290666754E+02  0.51100000000E-03 0. -1.
        -11    1    3    3    0    0  0.36947730419E+01  0.32507475878E+01 -0.18957530602E+02  0.19585879467E+02  0.51100000000E-03 0.  1.
        -12    1    3    3    0    0 -0.27041008713E+02  0.75661126101E+01  0.30673319623E+02  0.41585030347E+02  0.00000000000E+00 0.  1.
</event>
<event>
 7    1  0.2932676E-013  0.7246152E+02  0.7816164E-02  0.1226708E+00
        -11   -1    0    0    0    0  0.00000000000E+00  0.00000000000E+00  0.45593999997E+02  0.45594000000E+02  0.51100000000E-03 0.  1.
         11   -1    0    0    0    0 -0.00000000000E+00 -0.00000000000E+00 -0.45593999997E+02  0.45594000000E+02  0.51100000000E-03 0. -1.
    9900012    2    1    2    0    0  0.99917407108E+01 -0.15540336423E+02  0.30568124440E+01  0.72461520329E+02  0.69999934910E+02 0.  0.
         12    1    1    2    0    0 -0.99917407108E+01  0.15540336423E+02 -0.30568124440E+01  0.18726479671E+02  0.00000000000E+00 0. -1.
         11    1    3    3    0    0  0.28882179947E+01 -0.29795763044E+02 -0.15690639607E+02  0.33798305728E+02  0.51100000000E-03 0. -1.
        -11    1    3    3    0    0 -0.45204350868E+01 -0.48550266930E+01 -0.31654883467E+01  0.73502336220E+01  0.51100000000E-03 0.  1.
        -12    1    3    3    0    0  0.11623957803E+02  0.19110453314E+02  0.21912940398E+02  0.31312980978E+02  0.00000000000E+00 0.  1.
</event>
<event>
 7    1  0.2932676E-013  0.7246152E+02  0.7816164E-02  0.1226708E+00
        -11   -1    0    0    0    0  0.00000000000E+00  0.00000000000E+00  0.45593999997E+02  0.45594000000E+02  0.51100000000E-03 0.  1.
         11   -1    0    0    0    0 -0.00000000000E+00 -0.00000000000E+00 -0.45593999997E+02  0.45594000000E+02  0.51100000000E-03 0. -1.
    9900012    2    1    2    0    0 -0.62759825363E+01 -0.15745157052E+02  0.79613442041E+01  0.72461523318E+02  0.69999938804E+02 0.  0.
         12    1    1    2    0    0  0.62759825363E+01  0.15745157052E+02 -0.79613442041E+01  0.18726476682E+02  0.00000000000E+00 0. -1.
         11    1    3    3    0    0 -0.80111973073E+01 -0.21700212980E+02  0.12195424972E+02  0.26149702028E+02  0.51100000000E-03 0. -1.
        -11    1    3    3    0    0  0.28977732737E+01  0.21726713652E+02  0.10849693412E+02  0.24457371556E+02  0.51100000000E-03 0.  1.
         12    1    3    3    0    0 -0.11625585027E+01 -0.15771657724E+02 -0.15083774179E+02  0.21854449733E+02  0.00000000000E+00 0. -1.
</event>
<event>
 7    1  0.2932676E-013  0.7246162E+02  0.7816164E-02  0.1226708E+00
        -11   -1    0    0    0    0  0.00000000000E+00  0.00000000000E+00  0.45593999997E+02  0.45594000000E+02  0.51100000000E-03 0.  1.
         11   -1    0    0    0    0 -0.00000000000E+00 -0.00000000000E+00 -0.45593999997E+02  0.45594000000E+02  0.51100000000E-03 0. -1.
    9900012    2    1    2    0    0  0.16861502471E+02 -0.79518721760E+01 -0.17705646122E+01  0.72461616587E+02  0.70000060305E+02 0.  0.
         12    1    1    2    0    0 -0.16861502471E+02  0.79518721760E+01  0.17705646122E+01  0.18726383413E+02  0.00000000000E+00 0. -1.
         11    1    3    3    0    0  0.34946444856E+01 -0.42993910615E+01  0.13591147043E+01  0.57047784025E+01  0.51100000000E-03 0. -1.
        -11    1    3    3    0    0 -0.19661564221E+02 -0.17698788165E+02  0.10365430322E+02  0.28412433126E+02  0.51100000000E-03 0.  1.
         12    1    3    3    0    0  0.33028422206E+02  0.14046307051E+02 -0.13495109639E+02  0.38344405059E+02  0.00000000000E+00 0. -1.
</event>
<event>
 7    1  0.2932676E-013  0.7246156E+02  0.7816164E-02  0.1226708E+00
        -11   -1    0    0    0    0  0.00000000000E+00  0.00000000000E+00  0.45593999997E+02  0.45594000000E+02  0.51100000000E-03 0. -1.
         11   -1    0    0    0    0 -0.00000000000E+00 -0.00000000000E+00 -0.45593999997E+02  0.45594000000E+02  0.51100000000E-03 0.  1.
    9900012    2    1    2    0    0 -0.11617030852E+02  0.13443939455E+02  0.59147848246E+01  0.72461558976E+02  0.69999985256E+02 0.  0.
         12    1    1    2    0    0  0.11617030852E+02 -0.13443939455E+02 -0.59147848246E+01  0.18726441024E+02  0.00000000000E+00 0. -1.
         11    1    3    3    0    0 -0.12719127472E+01  0.79729670901E+01 -0.85514433463E+00  0.81189431794E+01  0.51100000000E-03 0. -1.
        -11    1    3    3    0    0 -0.17282295551E+02  0.18375587222E+02 -0.21079953335E+02  0.32874068476E+02  0.51100000000E-03 0.  1.
         12    1    3    3    0    0  0.69371774459E+01 -0.12904614857E+02  0.27849882495E+02  0.31468547321E+02  0.00000000000E+00 0. -1.
</event>
<event>
 7    1  0.2932676E-013  0.7246142E+02  0.7816164E-02  0.1226708E+00
        -11   -1    0    0    0    0  0.00000000000E+00  0.00000000000E+00  0.45593999997E+02  0.45594000000E+02  0.51100000000E-03 0.  1.
         11   -1    0    0    0    0 -0.00000000000E+00 -0.00000000000E+00 -0.45593999997E+02  0.45594000000E+02  0.51100000000E-03 0. -1.
    9900012    2    1    2    0    0  0.68875240922E+01  0.11934672687E+02  0.12681105187E+02  0.72461419185E+02  0.69999803152E+02 0.  0.
         12    1    1    2    0    0 -0.68875240922E+01 -0.11934672687E+02 -0.12681105187E+02  0.18726580815E+02  0.00000000000E+00 0. -1.
         11    1    3    3    0    0  0.13318673482E+02  0.29089043898E+02  0.10656576898E+02  0.33721242113E+02  0.51100000000E-03 0. -1.
        -11    1    3    3    0    0  0.95914582961E+01 -0.75860314951E+01 -0.10620980507E+02  0.16197196464E+02  0.51100000000E-03 0.  1.
        -12    1    3    3    0    0 -0.16022607685E+02 -0.95683397165E+01  0.12645508796E+02  0.22542980608E+02  0.00000000000E+00 0.  1.
</event>
<event>
 7    1  0.2932676E-013  0.7246150E+02  0.7816164E-02  0.1226708E+00
        -11   -1    0    0    0    0  0.00000000000E+00  0.00000000000E+00  0.45593999997E+02  0.45594000000E+02  0.51100000000E-03 0.  1.
         11   -1    0    0    0    0 -0.00000000000E+00 -0.00000000000E+00 -0.45593999997E+02  0.45594000000E+02  0.51100000000E-03 0. -1.
    9900012    2    1    2    0    0  0.11314097041E+02  0.12570561005E+02 -0.80407760751E+01  0.72461498038E+02  0.69999905873E+02 0.  0.
         12    1    1    2    0    0 -0.11314097041E+02 -0.12570561005E+02  0.80407760751E+01  0.18726501962E+02  0.00000000000E+00 0. -1.
         11    1    3    3    0    0  0.10609854895E+02  0.11096602864E+02 -0.56182972104E+01  0.16348360157E+02  0.51100000000E-03 0. -1.
        -11    1    3    3    0    0  0.21083299973E+02  0.58799748576E+01 -0.19382548624E+02  0.29236327292E+02  0.51100000000E-03 0.  1.
         12    1    3    3    0    0 -0.20379057827E+02 -0.44060167168E+01  0.16960069759E+02  0.26876810589E+02  0.00000000000E+00 0. -1.
</event>
<event>
 7    1  0.2932676E-013  0.7246158E+02  0.7816164E-02  0.1226708E+00
        -11   -1    0    0    0    0  0.00000000000E+00  0.00000000000E+00  0.45593999997E+02  0.45594000000E+02  0.51100000000E-03 0.  1.
         11   -1    0    0    0    0 -0.00000000000E+00 -0.00000000000E+00 -0.45593999997E+02  0.45594000000E+02  0.51100000000E-03 0. -1.
    9900012    2    1    2    0    0  0.67206741539E+01 -0.13374710323E+02  0.11252928018E+02  0.72461582129E+02  0.70000015416E+02 0.  0.
         12    1    1    2    0    0 -0.67206741539E+01  0.13374710323E+02 -0.11252928018E+02  0.18726417871E+02  0.00000000000E+00 0. -1.
         11    1    3    3    0    0  0.12662490627E+02 -0.14096746469E+01  0.18273083263E+02  0.22276252460E+02  0.51100000000E-03 0. -1.
        -11    1    3    3    0    0  0.93786375030E+01  0.75505658883E+01 -0.19109172823E+02  0.22586065901E+02  0.51100000000E-03 0.  1.
         12    1    3    3    0    0 -0.15320453976E+02 -0.19515601565E+02  0.12089017578E+02  0.27599263767E+02  0.00000000000E+00 0. -1.
</event>
<event>
 7    1  0.2932676E-013  0.7246161E+02  0.7816164E-02  0.1226708E+00
        -11   -1    0    0    0    0  0.00000000000E+00  0.00000000000E+00  0.45593999997E+02  0.45594000000E+02  0.51100000000E-03 0.  1.
         11   -1    0    0    0    0 -0.00000000000E+00 -0.00000000000E+00 -0.45593999997E+02  0.45594000000E+02  0.51100000000E-03 0. -1.
    9900012    2    1    2    0    0 -0.40866738339E+01  0.45845338029E+01  0.17690641329E+02  0.72461611030E+02  0.70000053065E+02 0.  0.
         12    1    1    2    0    0  0.40866738339E+01 -0.45845338029E+01 -0.17690641329E+02  0.18726388970E+02  0.00000000000E+00 0. -1.
         11    1    3    3    0    0 -0.51597047734E+01 -0.30770890976E+01 -0.24800540209E+02  0.25517794293E+02  0.51100000000E-03 0. -1.
        -11    1    3    3    0    0  0.49876184384E+01  0.41055873570E+01  0.30397526269E+01  0.71394874835E+01  0.51100000000E-03 0.  1.
        -12    1    3    3    0    0 -0.39145874989E+01  0.35560355435E+01  0.39451428912E+02  0.39804329253E+02  0.00000000000E+00 0.  1.
</event>
<event>
 7    1  0.2932676E-013  0.7246162E+02  0.7816164E-02  0.1226708E+00
        -11   -1    0    0    0    0  0.00000000000E+00  0.00000000000E+00  0.45593999997E+02  0.45594000000E+02  0.51100000000E-03 0.  1.
         11   -1    0    0    0    0 -0.00000000000E+00 -0.00000000000E+00 -0.45593999997E+02  0.45594000000E+02  0.51100000000E-03 0. -1.
    9900012    2    1    2    0    0  0.20215261490E+01 -0.15304433711E+02  0.10600245461E+02  0.72461615859E+02  0.70000059356E+02 0.  0.
         12    1    1    2    0    0 -0.20215261490E+01  0.15304433711E+02 -0.10600245461E+02  0.18726384141E+02  0.00000000000E+00 0. -1.
         11    1    3    3    0    0  0.17049321580E+01 -0.15357585664E+02 -0.45723554206E+01  0.16114237972E+02  0.51100000000E-03 0. -1.
        -11    1    3    3    0    0  0.92026001288E+01 -0.13462623169E+02  0.30166226720E+02  0.34291854813E+02  0.51100000000E-03 0.  1.
         12    1    3    3    0    0 -0.88860061379E+01  0.13515775122E+02 -0.14993625839E+02  0.22055523073E+02  0.00000000000E+00 0. -1.
</event>
<event>
 7    1  0.2932676E-013  0.7246155E+02  0.7816164E-02  0.1226708E+00
        -11   -1    0    0    0    0  0.00000000000E+00  0.00000000000E+00  0.45593999997E+02  0.45594000000E+02  0.51100000000E-03 0.  1.
         11   -1    0    0    0    0 -0.00000000000E+00 -0.00000000000E+00 -0.45593999997E+02  0.45594000000E+02  0.51100000000E-03 0. -1.
    9900012    2    1    2    0    0  0.42769975446E-01 -0.17508722922E+02 -0.66424801493E+01  0.72461554792E+02  0.69999979805E+02 0.  0.
         12    1    1    2    0    0 -0.42769975446E-01  0.17508722922E+02  0.66424801493E+01  0.18726445208E+02  0.00000000000E+00 0. -1.
         11    1    3    3    0    0 -0.10251401360E+02 -0.99452480849E+00  0.10275687795E+02  0.14548885502E+02  0.51100000000E-03 0. -1.
        -11    1    3    3    0    0  0.24642391479E+02  0.58316939964E+01  0.18555716171E+01  0.25390928675E+02  0.51100000000E-03 0.  1.
         12    1    3    3    0    0 -0.14348220144E+02 -0.22345892109E+02 -0.18773739562E+02  0.32521740614E+02  0.00000000000E+00 0. -1.
</event>
<event>
 7    1  0.2932676E-013  0.7246160E+02  0.7816164E-02  0.1226708E+00
        -11   -1    0    0    0    0  0.00000000000E+00  0.00000000000E+00  0.45593999997E+02  0.45594000000E+02  0.51100000000E-03 0. -1.
         11   -1    0    0    0    0 -0.00000000000E+00 -0.00000000000E+00 -0.45593999997E+02  0.45594000000E+02  0.51100000000E-03 0.  1.
    9900012    2    1    2    0    0 -0.14976972254E+02 -0.67372022755E+01 -0.89988049674E+01  0.72461599298E+02  0.70000037783E+02 0.  0.
         12    1    1    2    0    0  0.14976972254E+02  0.67372022755E+01  0.89988049674E+01  0.18726400702E+02  0.00000000000E+00 0. -1.
         11    1    3    3    0    0  0.12920298206E+02  0.79900958390E+01  0.42949275338E+01  0.15786771045E+02  0.51100000000E-03 0. -1.
        -11    1    3    3    0    0  0.84929819841E+01  0.13640022574E+01 -0.14508862224E+02  0.16867078243E+02  0.51100000000E-03 0.  1.
         12    1    3    3    0    0 -0.36390252444E+02 -0.16091300372E+02  0.12151297232E+01  0.39807750010E+02  0.00000000000E+00 0. -1.
</event>
<event>
 7    1  0.2932676E-013  0.7246158E+02  0.7816164E-02  0.1226708E+00
        -11   -1    0    0    0    0  0.00000000000E+00  0.00000000000E+00  0.45593999997E+02  0.45594000000E+02  0.51100000000E-03 0.  1.
         11   -1    0    0    0    0 -0.00000000000E+00 -0.00000000000E+00 -0.45593999997E+02  0.45594000000E+02  0.51100000000E-03 0. -1.
    9900012    2    1    2    0    0  0.86039150737E+01 -0.11081553437E+02  0.12403651894E+02  0.72461581189E+02  0.70000014192E+02 0.  0.
         12    1    1    2    0    0 -0.86039150737E+01  0.11081553437E+02 -0.12403651894E+02  0.18726418811E+02  0.00000000000E+00 0. -1.
         11    1    3    3    0    0  0.99641260748E+01 -0.55594048408E+01  0.24798617607E+02  0.27297659718E+02  0.51100000000E-03 0.  1.
        -11    1    3    3    0    0  0.11805871263E+02 -0.14446255477E+02  0.71367770473E+01  0.19975146569E+02  0.51100000000E-03 0. -1.
         12    1    3    3    0    0 -0.13166082264E+02  0.89241068803E+01 -0.19531742760E+02  0.25188774902E+02  0.00000000000E+00 0. -1.
</event>
<event>
 7    1  0.2932676E-013  0.7246150E+02  0.7816164E-02  0.1226708E+00
        -11   -1    0    0    0    0  0.00000000000E+00  0.00000000000E+00  0.45593999997E+02  0.45594000000E+02  0.51100000000E-03 0. -1.
         11   -1    0    0    0    0 -0.00000000000E+00 -0.00000000000E+00 -0.45593999997E+02  0.45594000000E+02  0.51100000000E-03 0.  1.
    9900012    2    1    2    0    0 -0.69083538264E+01  0.16809751073E+02 -0.45153869395E+01  0.72461499982E+02  0.69999908405E+02 0.  0.
         12    1    1    2    0    0  0.69083538264E+01 -0.16809751073E+02  0.45153869395E+01  0.18726500018E+02  0.00000000000E+00 0. -1.
         11    1    3    3    0    0 -0.15552159224E+02  0.14623057720E+02  0.18522179391E+02  0.28262600787E+02  0.51100000000E-03 0. -1.
        -11    1    3    3    0    0  0.24264587898E+00 -0.11995426781E+02  0.39019865794E+01  0.12616443247E+02  0.51100000000E-03 0.  1.
        -12    1    3    3    0    0  0.84011595182E+01  0.14182120134E+02 -0.26939552910E+02  0.31582455948E+02  0.00000000000E+00 0.  1.
</event>
<event>
 7    1  0.2932676E-013  0.7246156E+02  0.7816164E-02  0.1226708E+00
        -11   -1    0    0    0    0  0.00000000000E+00  0.00000000000E+00  0.45593999997E+02  0.45594000000E+02  0.51100000000E-03 0.  1.
         11   -1    0    0    0    0 -0.00000000000E+00 -0.00000000000E+00 -0.45593999997E+02  0.45594000000E+02  0.51100000000E-03 0. -1.
    9900012    2    1    2    0    0 -0.15862634823E+02 -0.22963113217E+01  0.96841854434E+01  0.72461556747E+02  0.69999982352E+02 0.  0.
         12    1    1    2    0    0  0.15862634823E+02  0.22963113217E+01 -0.96841854434E+01  0.18726443253E+02  0.00000000000E+00 0. -1.
         11    1    3    3    0    0  0.13864551421E+02  0.90152096034E+01 -0.13241597653E+01  0.16590756150E+02  0.51100000000E-03 0. -1.
        -11    1    3    3    0    0  0.10585457164E+02  0.36374631843E+01 -0.97938784657E+00  0.11235757322E+02  0.51100000000E-03 0.  1.
        -12    1    3    3    0    0 -0.40312643407E+02 -0.14948984109E+02  0.11987733055E+02  0.44635043275E+02  0.00000000000E+00 0.  1.
</event>
<event>
 7    1  0.2932676E-013  0.7246157E+02  0.7816164E-02  0.1226708E+00
        -11   -1    0    0    0    0  0.00000000000E+00  0.00000000000E+00  0.45593999997E+02  0.45594000000E+02  0.51100000000E-03 0.  1.
         11   -1    0    0    0    0 -0.00000000000E+00 -0.00000000000E+00 -0.45593999997E+02  0.45594000000E+02  0.51100000000E-03 0. -1.
    9900012    2    1    2    0    0 -0.18479727484E+02  0.20080236045E+01 -0.22686554130E+01  0.72461567236E+02  0.69999996016E+02 0.  0.
         12    1    1    2    0    0  0.18479727484E+02 -0.20080236045E+01  0.22686554130E+01  0.18726432764E+02  0.00000000000E+00 0. -1.
         11    1    3    3    0    0  0.83434502339E+01  0.19959009655E+02 -0.14668079048E+02  0.26136713095E+02  0.51100000000E-03 0. -1.
        -11    1    3    3    0    0  0.42643408921E+01 -0.10703415113E+02  0.81708633262E+01  0.14124825878E+02  0.51100000000E-03 0.  1.
        -12    1    3    3    0    0 -0.31087518610E+02 -0.72475709369E+01  0.42285603093E+01  0.32200028263E+02  0.00000000000E+00 0.  1.
</event>
<event>
 7    1  0.2932676E-013  0.7246169E+02  0.7816164E-02  0.1226708E+00
        -11   -1    0    0    0    0  0.00000000000E+00  0.00000000000E+00  0.45593999997E+02  0.45594000000E+02  0.51100000000E-03 0. -1.
         11   -1    0    0    0    0 -0.00000000000E+00 -0.00000000000E+00 -0.45593999997E+02  0.45594000000E+02  0.51100000000E-03 0.  1.
    9900012    2    1    2    0    0 -0.86085706778E+01 -0.15820135734E+02  0.51274392718E+01  0.72461686501E+02  0.70000151381E+02 0.  0.
         12    1    1    2    0    0  0.86085706778E+01  0.15820135734E+02 -0.51274392718E+01  0.18726313499E+02  0.00000000000E+00 0. -1.
         11    1    3    3    0    0  0.25971031632E+02  0.40540373522E+01  0.55825238866E+01  0.26871811924E+02  0.51100000000E-03 0. -1.
        -11    1    3    3    0    0 -0.85597211567E+01 -0.16902171412E+02 -0.33548263346E+01  0.19240766220E+02  0.51100000000E-03 0.  1.
        -12    1    3    3    0    0 -0.26019881153E+02 -0.29720016742E+01  0.28997417198E+01  0.26349108357E+02  0.00000000000E+00 0.  1.
</event>
<event>
 7    1  0.2932676E-013  0.7246159E+02  0.7816164E-02  0.1226708E+00
        -11   -1    0    0    0    0  0.00000000000E+00  0.00000000000E+00  0.45593999997E+02  0.45594000000E+02  0.51100000000E-03 0.  1.
         11   -1    0    0    0    0 -0.00000000000E+00 -0.00000000000E+00 -0.45593999997E+02  0.45594000000E+02  0.51100000000E-03 0. -1.
    9900012    2    1    2    0    0 -0.17645999068E+02 -0.58817463119E+01 -0.21684974632E+01  0.72461585393E+02  0.70000019669E+02 0.  0.
         12    1    1    2    0    0  0.17645999068E+02  0.58817463119E+01  0.21684974632E+01  0.18726414607E+02  0.00000000000E+00 0. -1.
         11    1    3    3    0    0  0.15145937632E+01 -0.21873448404E+01  0.85586962528E+01  0.89626867360E+01  0.51100000000E-03 0. -1.
        -11    1    3    3    0    0 -0.26028758254E+02 -0.25249555699E+01  0.19409823531E+02  0.32567052471E+02  0.51100000000E-03 0.  1.
         12    1    3    3    0    0  0.68681654229E+01 -0.11694459016E+01 -0.30137017247E+02  0.30931846187E+02  0.00000000000E+00 0. -1.
</event>
<event>
 7    1  0.2932676E-013  0.7246175E+02  0.7816164E-02  0.1226708E+00
        -11   -1    0    0    0    0  0.00000000000E+00  0.00000000000E+00  0.45593999997E+02  0.45594000000E+02  0.51100000000E-03 0. -1.
         11   -1    0    0    0    0 -0.00000000000E+00 -0.00000000000E+00 -0.45593999997E+02  0.45594000000E+02  0.51100000000E-03 0.  1.
    9900012    2    1    2    0    0 -0.14197563204E+02 -0.12068882288E+02 -0.18557630043E+01  0.72461746319E+02  0.70000229304E+02 0.  0.
         12    1    1    2    0    0  0.14197563204E+02  0.12068882288E+02  0.18557630043E+01  0.18726253681E+02  0.00000000000E+00 0. -1.
         11    1    3    3    0    0 -0.92788113539E+01  0.41580968005E+01 -0.82131838438E+01  0.13070673214E+02  0.51100000000E-03 0. -1.
        -11    1    3    3    0    0  0.37885542125E+01  0.19547843776E+02 -0.55909909803E+01  0.20681646929E+02  0.51100000000E-03 0.  1.
         12    1    3    3    0    0 -0.87073060624E+01 -0.35774822864E+02  0.11948411820E+02  0.38709426176E+02  0.00000000000E+00 0. -1.
</event>
<event>
 7    1  0.2932676E-013  0.7246155E+02  0.7816164E-02  0.1226708E+00
        -11   -1    0    0    0    0  0.00000000000E+00  0.00000000000E+00  0.45593999997E+02  0.45594000000E+02  0.51100000000E-03 0.  1.
         11   -1    0    0    0    0 -0.00000000000E+00 -0.00000000000E+00 -0.45593999997E+02  0.45594000000E+02  0.51100000000E-03 0. -1.
    9900012    2    1    2    0    0 -0.52886948132E+01 -0.53018929937E+01  0.17163899528E+02  0.72461553216E+02  0.69999977752E+02 0.  0.
         12    1    1    2    0    0  0.52886948132E+01  0.53018929937E+01 -0.17163899528E+02  0.18726446784E+02  0.00000000000E+00 0. -1.
         11    1    3    3    0    0  0.30074195616E+00  0.15168321646E+02  0.44733771980E+01  0.15817064554E+02  0.51100000000E-03 0. -1.
        -11    1    3    3    0    0 -0.28009779330E+02 -0.77337492116E+01  0.99483132139E+01  0.30713637867E+02  0.51100000000E-03 0.  1.
        -12    1    3    3    0    0  0.22420342560E+02 -0.12736465428E+02  0.27422091161E+01  0.25930850795E+02  0.00000000000E+00 0.  1.
</event>
<event>
 7    1  0.2932676E-013  0.7246159E+02  0.7816164E-02  0.1226708E+00
        -11   -1    0    0    0    0  0.00000000000E+00  0.00000000000E+00  0.45593999997E+02  0.45594000000E+02  0.51100000000E-03 0.  1.
         11   -1    0    0    0    0 -0.00000000000E+00 -0.00000000000E+00 -0.45593999997E+02  0.45594000000E+02  0.51100000000E-03 0. -1.
    9900012    2    1    2    0    0  0.40638705376E+01 -0.14720159629E+02  0.10838840405E+02  0.72461585378E+02  0.70000019650E+02 0.  0.
         12    1    1    2    0    0 -0.40638705376E+01  0.14720159629E+02 -0.10838840405E+02  0.18726414622E+02  0.00000000000E+00 0. -1.
         11    1    3    3    0    0 -0.86253234200E+01  0.16823065736E+02  0.50392079469E+01  0.19565412387E+02  0.51100000000E-03 0. -1.
        -11    1    3    3    0    0 -0.37511440200E+01 -0.57311053916E+01  0.18526524443E+02  0.19752183643E+02  0.51100000000E-03 0.  1.
         12    1    3    3    0    0  0.16440337978E+02 -0.25812119974E+02 -0.12726891985E+02  0.33143989349E+02  0.00000000000E+00 0. -1.
</event>
<event>
 7    1  0.2932676E-013  0.7246155E+02  0.7816164E-02  0.1226708E+00
        -11   -1    0    0    0    0  0.00000000000E+00  0.00000000000E+00  0.45593999997E+02  0.45594000000E+02  0.51100000000E-03 0.  1.
         11   -1    0    0    0    0 -0.00000000000E+00 -0.00000000000E+00 -0.45593999997E+02  0.45594000000E+02  0.51100000000E-03 0. -1.
    9900012    2    1    2    0    0  0.95381423891E+01 -0.26092418508E+01  0.15902690066E+02  0.72461552002E+02  0.69999976171E+02 0.  0.
         12    1    1    2    0    0 -0.95381423891E+01  0.26092418508E+01 -0.15902690066E+02  0.18726447998E+02  0.00000000000E+00 0. -1.
         11    1    3    3    0    0  0.22088169568E+02 -0.22531625007E+01  0.16563607337E+02  0.27700488523E+02  0.51100000000E-03 0.  1.
        -11    1    3    3    0    0  0.96853534804E+01  0.92753638308E+01 -0.12011014044E+02  0.18002858241E+02  0.51100000000E-03 0. -1.
        -12    1    3    3    0    0 -0.22235380659E+02 -0.96314431809E+01  0.11350096773E+02  0.26758205238E+02  0.00000000000E+00 0.  1.
</event>
<event>
 7    1  0.2932676E-013  0.7246156E+02  0.7816164E-02  0.1226708E+00
        -11   -1    0    0    0    0  0.00000000000E+00  0.00000000000E+00  0.45593999997E+02  0.45594000000E+02  0.51100000000E-03 0.  1.
         11   -1    0    0    0    0 -0.00000000000E+00 -0.00000000000E+00 -0.45593999997E+02  0.45594000000E+02  0.51100000000E-03 0. -1.
    9900012    2    1    2    0    0  0.10350601811E+02  0.13552658697E+02  0.77375741291E+01  0.72461559628E+02  0.69999986105E+02 0.  0.
         12    1    1    2    0    0 -0.10350601811E+02 -0.13552658697E+02 -0.77375741291E+01  0.18726440372E+02  0.00000000000E+00 0. -1.
         11    1    3    3    0    0 -0.19757296270E+02  0.46946547698E+01  0.21535129501E+02  0.29599870645E+02  0.51100000000E-03 0. -1.
        -11    1    3    3    0    0  0.22214265682E+01 -0.57997998754E+01 -0.90881281882E+01  0.11007565072E+02  0.51100000000E-03 0.  1.
        -12    1    3    3    0    0  0.27886471513E+02  0.14657803802E+02 -0.47094271835E+01  0.31854123911E+02  0.00000000000E+00 0.  1.
</event>
<event>
 7    1  0.2932676E-013  0.7246161E+02  0.7816164E-02  0.1226708E+00
        -11   -1    0    0    0    0  0.00000000000E+00  0.00000000000E+00  0.45593999997E+02  0.45594000000E+02  0.51100000000E-03 0. -1.
         11   -1    0    0    0    0 -0.00000000000E+00 -0.00000000000E+00 -0.45593999997E+02  0.45594000000E+02  0.51100000000E-03 0.  1.
    9900012    2    1    2    0    0  0.83416490059E+00  0.17480735759E+02 -0.66637734212E+01  0.72461606060E+02  0.70000046592E+02 0.  0.
         12    1    1    2    0    0 -0.83416490059E+00 -0.17480735759E+02  0.66637734212E+01  0.18726393940E+02  0.00000000000E+00 0. -1.
         11    1    3    3    0    0 -0.20334651995E+01 -0.15162723761E+02  0.12321069929E+02  0.19643114240E+02  0.51100000000E-03 0. -1.
        -11    1    3    3    0    0  0.17767457271E+01  0.27212645257E+02  0.54105314477E+01  0.27802135495E+02  0.51100000000E-03 0.  1.
        -12    1    3    3    0    0  0.10908843730E+01  0.54308142634E+01 -0.24395374798E+02  0.25016356326E+02  0.00000000000E+00 0.  1.
</event>
<event>
 7    1  0.2932676E-013  0.7246156E+02  0.7816164E-02  0.1226708E+00
        -11   -1    0    0    0    0  0.00000000000E+00  0.00000000000E+00  0.45593999997E+02  0.45594000000E+02  0.51100000000E-03 0.  1.
         11   -1    0    0    0    0 -0.00000000000E+00 -0.00000000000E+00 -0.45593999997E+02  0.45594000000E+02  0.51100000000E-03 0. -1.
    9900012    2    1    2    0    0  0.80572459529E+01  0.13822065931E+02  0.97319458146E+01  0.72461561783E+02  0.69999988912E+02 0.  0.
         12    1    1    2    0    0 -0.80572459529E+01 -0.13822065931E+02 -0.97319458146E+01  0.18726438217E+02  0.00000000000E+00 0. -1.
         11    1    3    3    0    0  0.83059176768E+01 -0.10421181996E+02 -0.73098594584E+01  0.15199452234E+02  0.51100000000E-03 0. -1.
        -11    1    3    3    0    0 -0.42428123663E+01  0.86627812881E+01 -0.17037078438E+02  0.19578234813E+02  0.51100000000E-03 0.  1.
        -12    1    3    3    0    0  0.39941406424E+01  0.15580466639E+02  0.34078883711E+02  0.37683874736E+02  0.00000000000E+00 0.  1.
</event>
<event>
 7    1  0.2932676E-013  0.7246163E+02  0.7816164E-02  0.1226708E+00
        -11   -1    0    0    0    0  0.00000000000E+00  0.00000000000E+00  0.45593999997E+02  0.45594000000E+02  0.51100000000E-03 0. -1.
         11   -1    0    0    0    0 -0.00000000000E+00 -0.00000000000E+00 -0.45593999997E+02  0.45594000000E+02  0.51100000000E-03 0.  1.
    9900012    2    1    2    0    0  0.17680807302E+02  0.14232272793E+01  0.60033544606E+01  0.72461633895E+02  0.70000082851E+02 0.  0.
         12    1    1    2    0    0 -0.17680807302E+02 -0.14232272793E+01 -0.60033544606E+01  0.18726366105E+02  0.00000000000E+00 0. -1.
         11    1    3    3    0    0  0.38694343295E+01  0.12180800855E+02  0.19865248637E+01  0.12934091108E+02  0.51100000000E-03 0.  1.
        -11    1    3    3    0    0  0.16450140182E+01  0.23188364776E+02  0.22331799700E-01  0.23246652040E+02  0.51100000000E-03 0. -1.
         12    1    3    3    0    0  0.12166358954E+02 -0.33945938351E+02  0.39944977972E+01  0.36280890747E+02  0.00000000000E+00 0. -1.
</event>
<event>
 7    1  0.2932676E-013  0.7246168E+02  0.7816164E-02  0.1226708E+00
        -11   -1    0    0    0    0  0.00000000000E+00  0.00000000000E+00  0.45593999997E+02  0.45594000000E+02  0.51100000000E-03 0. -1.
         11   -1    0    0    0    0 -0.00000000000E+00 -0.00000000000E+00 -0.45593999997E+02  0.45594000000E+02  0.51100000000E-03 0.  1.
    9900012    2    1    2    0    0  0.60669256144E+01 -0.12735332931E+02  0.12315790154E+02  0.72461682199E+02  0.70000145776E+02 0.  0.
         12    1    1    2    0    0 -0.60669256144E+01  0.12735332931E+02 -0.12315790154E+02  0.18726317801E+02  0.00000000000E+00 0. -1.
         11    1    3    3    0    0 -0.15234539149E+02 -0.15654849707E+02 -0.10204278579E+02  0.24110014600E+02  0.51100000000E-03 0. -1.
        -11    1    3    3    0    0 -0.71313956107E+00 -0.11122432353E+02 -0.33063299775E+01  0.11625355378E+02  0.51100000000E-03 0.  1.
        -12    1    3    3    0    0  0.22014604325E+02  0.14041949130E+02  0.25826398711E+02  0.36726312220E+02  0.00000000000E+00 0.  1.
</event>
<event>
 7    1  0.2932676E-013  0.7246154E+02  0.7816164E-02  0.1226708E+00
        -11   -1    0    0    0    0  0.00000000000E+00  0.00000000000E+00  0.45593999997E+02  0.45594000000E+02  0.51100000000E-03 0.  1.
         11   -1    0    0    0    0 -0.00000000000E+00 -0.00000000000E+00 -0.45593999997E+02  0.45594000000E+02  0.51100000000E-03 0. -1.
    9900012    2    1    2    0    0 -0.11676624982E+02 -0.57558820150E+01  0.13461302394E+02  0.72461537149E+02  0.69999956822E+02 0.  0.
         12    1    1    2    0    0  0.11676624982E+02  0.57558820150E+01 -0.13461302394E+02  0.18726462851E+02  0.00000000000E+00 0. -1.
         11    1    3    3    0    0 -0.14077380834E+02 -0.33867441921E+01 -0.92828814817E+01  0.17199260921E+02  0.51100000000E-03 0. -1.
        -11    1    3    3    0    0 -0.17220427569E+02  0.57410577713E+01  0.28019412869E+02  0.33385481392E+02  0.51100000000E-03 0.  1.
         12    1    3    3    0    0  0.19621183420E+02 -0.81101955941E+01 -0.52752289933E+01  0.21876794836E+02  0.00000000000E+00 0. -1.
</event>
<event>
 7    1  0.2932676E-013  0.7246164E+02  0.7816164E-02  0.1226708E+00
        -11   -1    0    0    0    0  0.00000000000E+00  0.00000000000E+00  0.45593999997E+02  0.45594000000E+02  0.51100000000E-03 0. -1.
         11   -1    0    0    0    0 -0.00000000000E+00 -0.00000000000E+00 -0.45593999997E+02  0.45594000000E+02  0.51100000000E-03 0.  1.
    9900012    2    1    2    0    0 -0.60604012277E+01  0.79208035413E+01 -0.15849577133E+02  0.72461636576E+02  0.70000086344E+02 0.  0.
         12    1    1    2    0    0  0.60604012277E+01 -0.79208035413E+01  0.15849577133E+02  0.18726363424E+02  0.00000000000E+00 0. -1.
         11    1    3    3    0    0  0.13934116761E+02  0.10564959681E+02  0.48754209354E+01  0.18153449053E+02  0.51100000000E-03 0. -1.
        -11    1    3    3    0    0 -0.17651712178E+02  0.30897965119E+00 -0.35184548727E+02  0.39365351270E+02  0.51100000000E-03 0.  1.
         12    1    3    3    0    0 -0.23428058108E+01 -0.29531357905E+01  0.14459550658E+02  0.14942836254E+02  0.00000000000E+00 0. -1.
</event>
<event>
 7    1  0.2932676E-013  0.7246156E+02  0.7816164E-02  0.1226708E+00
        -11   -1    0    0    0    0  0.00000000000E+00  0.00000000000E+00  0.45593999997E+02  0.45594000000E+02  0.51100000000E-03 0.  1.
         11   -1    0    0    0    0 -0.00000000000E+00 -0.00000000000E+00 -0.45593999997E+02  0.45594000000E+02  0.51100000000E-03 0. -1.
    9900012    2    1    2    0    0  0.15020528716E+02 -0.89006087646E+01 -0.67706937283E+01  0.72461563797E+02  0.69999991536E+02 0.  0.
         12    1    1    2    0    0 -0.15020528716E+02  0.89006087646E+01  0.67706937283E+01  0.18726436203E+02  0.00000000000E+00 0. -1.
         11    1    3    3    0    0  0.62253889864E+01  0.12754494247E+01 -0.41278780557E+01  0.75777052444E+01  0.51100000000E-03 0. -1.
        -11    1    3    3    0    0 -0.27578592855E+02 -0.37937107324E+01 -0.25439468025E+01  0.27954296460E+02  0.51100000000E-03 0.  1.
         12    1    3    3    0    0  0.36373732585E+02 -0.63823474569E+01 -0.98868870138E-01  0.36929562092E+02  0.00000000000E+00 0. -1.
</event>
<event>
 7    1  0.2932676E-013  0.7246138E+02  0.7816164E-02  0.1226709E+00
        -11   -1    0    0    0    0  0.00000000000E+00  0.00000000000E+00  0.45593999997E+02  0.45594000000E+02  0.51100000000E-03 0. -1.
         11   -1    0    0    0    0 -0.00000000000E+00 -0.00000000000E+00 -0.45593999997E+02  0.45594000000E+02  0.51100000000E-03 0.  1.
    9900012    2    1    2    0    0  0.59618063063E+01 -0.94601467110E+01 -0.15021610840E+02  0.72461379844E+02  0.69999751903E+02 0.  0.
         12    1    1    2    0    0 -0.59618063063E+01  0.94601467110E+01  0.15021610840E+02  0.18726620156E+02  0.00000000000E+00 0. -1.
         11    1    3    3    0    0 -0.46959578331E+01  0.36531249113E+01 -0.18170919296E+01  0.62208652878E+01  0.51100000000E-03 0. -1.
        -11    1    3    3    0    0  0.59532784565E+01 -0.38109964225E+02 -0.25273817765E+01  0.38654864591E+02  0.51100000000E-03 0.  1.
         12    1    3    3    0    0  0.47044856828E+01  0.24996692603E+02 -0.10677137134E+02  0.27585649965E+02  0.00000000000E+00 0. -1.
</event>
<event>
 7    1  0.2932676E-013  0.7246156E+02  0.7816164E-02  0.1226708E+00
        -11   -1    0    0    0    0  0.00000000000E+00  0.00000000000E+00  0.45593999997E+02  0.45594000000E+02  0.51100000000E-03 0.  1.
         11   -1    0    0    0    0 -0.00000000000E+00 -0.00000000000E+00 -0.45593999997E+02  0.45594000000E+02  0.51100000000E-03 0. -1.
    9900012    2    1    2    0    0 -0.12266964201E+02 -0.13113220359E+02  0.53145813066E+01  0.72461555240E+02  0.69999980389E+02 0.  0.
         12    1    1    2    0    0  0.12266964201E+02  0.13113220359E+02 -0.53145813066E+01  0.18726444760E+02  0.00000000000E+00 0. -1.
         11    1    3    3    0    0 -0.11478584261E+02  0.20495844871E+01  0.12885632644E+02  0.17378096044E+02  0.51100000000E-03 0. -1.
        -11    1    3    3    0    0 -0.25678687629E+02 -0.58178112090E+00 -0.44574530245E+01  0.26069184017E+02  0.51100000000E-03 0.  1.
        -12    1    3    3    0    0  0.24890307688E+02 -0.14581023725E+02 -0.31135983129E+01  0.29014275179E+02  0.00000000000E+00 0.  1.
</event>
<event>
 7    1  0.2932676E-013  0.7246171E+02  0.7816164E-02  0.1226708E+00
        -11   -1    0    0    0    0  0.00000000000E+00  0.00000000000E+00  0.45593999997E+02  0.45594000000E+02  0.51100000000E-03 0. -1.
         11   -1    0    0    0    0 -0.00000000000E+00 -0.00000000000E+00 -0.45593999997E+02  0.45594000000E+02  0.51100000000E-03 0.  1.
    9900012    2    1    2    0    0 -0.10622153795E+02  0.10084580949E+02 -0.11668123536E+02  0.72461707494E+02  0.70000178728E+02 0.  0.
         12    1    1    2    0    0  0.10622153795E+02 -0.10084580949E+02  0.11668123536E+02  0.18726292506E+02  0.00000000000E+00 0. -1.
         11    1    3    3    0    0 -0.18702493023E+02  0.28695581889E+01  0.42928634270E+01  0.19402223742E+02  0.51100000000E-03 0. -1.
        -11    1    3    3    0    0 -0.11336957851E+02 -0.64317015253E+01 -0.24569861092E+02  0.27813152863E+02  0.51100000000E-03 0.  1.
         12    1    3    3    0    0  0.19417297078E+02  0.13646724286E+02  0.86088741297E+01  0.25246330889E+02  0.00000000000E+00 0. -1.
</event>
<event>
 7    1  0.2932676E-013  0.7246156E+02  0.7816164E-02  0.1226708E+00
        -11   -1    0    0    0    0  0.00000000000E+00  0.00000000000E+00  0.45593999997E+02  0.45594000000E+02  0.51100000000E-03 0.  1.
         11   -1    0    0    0    0 -0.00000000000E+00 -0.00000000000E+00 -0.45593999997E+02  0.45594000000E+02  0.51100000000E-03 0. -1.
    9900012    2    1    2    0    0 -0.82232046564E+00  0.19945391683E+00  0.18707313805E+02  0.72461559265E+02  0.69999985632E+02 0.  0.
         12    1    1    2    0    0  0.82232046564E+00 -0.19945391683E+00 -0.18707313805E+02  0.18726440735E+02  0.00000000000E+00 0. -1.
         11    1    3    3    0    0  0.62744714560E+00  0.58103542834E+01  0.59946029274E+01  0.83719275760E+01  0.51100000000E-03 0. -1.
        -11    1    3    3    0    0  0.81691491001E+01  0.18306043825E+02  0.27759498630E+02  0.34240852822E+02  0.51100000000E-03 0.  1.
         12    1    3    3    0    0 -0.96189167113E+01 -0.23916944192E+02 -0.15046787753E+02  0.29848778867E+02  0.00000000000E+00 0. -1.
</event>
<event>
 7    1  0.2932676E-013  0.7246171E+02  0.7816164E-02  0.1226708E+00
        -11   -1    0    0    0    0  0.00000000000E+00  0.00000000000E+00  0.45593999997E+02  0.45594000000E+02  0.51100000000E-03 0. -1.
         11   -1    0    0    0    0 -0.00000000000E+00 -0.00000000000E+00 -0.45593999997E+02  0.45594000000E+02  0.51100000000E-03 0.  1.
    9900012    2    1    2    0    0 -0.15739482793E+01  0.51253291809E+01 -0.17942345732E+02  0.72461706113E+02  0.70000176928E+02 0.  0.
         12    1    1    2    0    0  0.15739482793E+01 -0.51253291809E+01  0.17942345732E+02  0.18726293887E+02  0.00000000000E+00 0. -1.
         11    1    3    3    0    0 -0.70984197662E+01  0.62992893967E+01  0.25881680146E+02  0.27566827484E+02  0.51100000000E-03 0. -1.
        -11    1    3    3    0    0  0.43071701783E+01  0.12982452562E+01 -0.10077068437E+02  0.11035599858E+02  0.51100000000E-03 0.  1.
        -12    1    3    3    0    0  0.12173013085E+01 -0.24722054720E+01 -0.33746957441E+02  0.33859278771E+02  0.00000000000E+00 0.  1.
</event>
<event>
 7    1  0.2932676E-013  0.7246158E+02  0.7816164E-02  0.1226708E+00
        -11   -1    0    0    0    0  0.00000000000E+00  0.00000000000E+00  0.45593999997E+02  0.45594000000E+02  0.51100000000E-03 0. -1.
         11   -1    0    0    0    0 -0.00000000000E+00 -0.00000000000E+00 -0.45593999997E+02  0.45594000000E+02  0.51100000000E-03 0.  1.
    9900012    2    1    2    0    0 -0.55437090061E-01 -0.18188883195E+02 -0.44542299582E+01  0.72461582572E+02  0.70000015994E+02 0.  0.
         12    1    1    2    0    0  0.55437090061E-01  0.18188883195E+02  0.44542299582E+01  0.18726417428E+02  0.00000000000E+00 0. -1.
         11    1    3    3    0    0  0.28966200964E+01 -0.25855695105E+01  0.27983114967E+02  0.28251199996E+02  0.51100000000E-03 0. -1.
        -11    1    3    3    0    0 -0.70670265975E+01 -0.13572067772E+01  0.13414365477E+01  0.73201316544E+01  0.51100000000E-03 0.  1.
        -12    1    3    3    0    0  0.41149694110E+01 -0.14246106907E+02 -0.33778781473E+02  0.36890250922E+02  0.00000000000E+00 0.  1.
</event>
<event>
 7    1  0.2932676E-013  0.7246156E+02  0.7816164E-02  0.1226708E+00
        -11   -1    0    0    0    0  0.00000000000E+00  0.00000000000E+00  0.45593999997E+02  0.45594000000E+02  0.51100000000E-03 0. -1.
         11   -1    0    0    0    0 -0.00000000000E+00 -0.00000000000E+00 -0.45593999997E+02  0.45594000000E+02  0.51100000000E-03 0.  1.
    9900012    2    1    2    0    0 -0.90227321363E+01  0.10792127507E+02 -0.12361228693E+02  0.72461556501E+02  0.69999982031E+02 0.  0.
         12    1    1    2    0    0  0.90227321363E+01 -0.10792127507E+02  0.12361228693E+02  0.18726443499E+02  0.00000000000E+00 0. -1.
         11    1    3    3    0    0  0.10723066296E+02  0.48880151063E+01 -0.44937830743E+01  0.12612332419E+02  0.51100000000E-03 0. -1.
        -11    1    3    3    0    0 -0.19082693229E+01  0.22146157796E+02 -0.22504787961E+02  0.31631618333E+02  0.51100000000E-03 0.  1.
         12    1    3    3    0    0 -0.17837529109E+02 -0.16242045395E+02  0.14637342342E+02  0.28217605749E+02  0.00000000000E+00 0. -1.
</event>
<event>
 7    1  0.2932676E-013  0.7246159E+02  0.7816164E-02  0.1226708E+00
        -11   -1    0    0    0    0  0.00000000000E+00  0.00000000000E+00  0.45593999997E+02  0.45594000000E+02  0.51100000000E-03 0.  1.
         11   -1    0    0    0    0 -0.00000000000E+00 -0.00000000000E+00 -0.45593999997E+02  0.45594000000E+02  0.51100000000E-03 0. -1.
    9900012    2    1    2    0    0  0.79427669276E+01  0.56569230412E+01  0.15987191178E+02  0.72461585326E+02  0.70000019582E+02 0.  0.
         12    1    1    2    0    0 -0.79427669276E+01 -0.56569230412E+01 -0.15987191178E+02  0.18726414674E+02  0.00000000000E+00 0. -1.
         11    1    3    3    0    0 -0.11787072406E+02  0.30027723569E+02  0.11739746756E+02  0.34328135877E+02  0.51100000000E-03 0. -1.
        -11    1    3    3    0    0  0.41582489542E+01 -0.43792208365E+01  0.10427813327E+02  0.12050224086E+02  0.51100000000E-03 0.  1.
        -12    1    3    3    0    0  0.15571590379E+02 -0.19991579691E+02 -0.61803689047E+01  0.26083225362E+02  0.00000000000E+00 0.  1.
</event>
<event>
 7    1  0.2932676E-013  0.7246158E+02  0.7816164E-02  0.1226708E+00
        -11   -1    0    0    0    0  0.00000000000E+00  0.00000000000E+00  0.45593999997E+02  0.45594000000E+02  0.51100000000E-03 0. -1.
         11   -1    0    0    0    0 -0.00000000000E+00 -0.00000000000E+00 -0.45593999997E+02  0.45594000000E+02  0.51100000000E-03 0.  1.
    9900012    2    1    2    0    0 -0.86287678510E+01  0.16512823946E+02  0.18840504671E+01  0.72461584554E+02  0.70000018576E+02 0.  0.
         12    1    1    2    0    0  0.86287678510E+01 -0.16512823946E+02 -0.18840504671E+01  0.18726415446E+02  0.00000000000E+00 0. -1.
         11    1    3    3    0    0  0.11252588083E+02  0.38814957705E+01  0.71057365628E+00  0.11924414583E+02  0.51100000000E-03 0.  1.
        -11    1    3    3    0    0 -0.57381188597E+01  0.31569756972E+02 -0.11037862751E+02  0.33932432534E+02  0.51100000000E-03 0. -1.
         12    1    3    3    0    0 -0.14143237074E+02 -0.18938428796E+02  0.12211339562E+02  0.26604737437E+02  0.00000000000E+00 0. -1.
</event>
<event>
 7    1  0.2932676E-013  0.7246086E+02  0.7816164E-02  0.1226710E+00
        -11   -1    0    0    0    0  0.00000000000E+00  0.00000000000E+00  0.45593999997E+02  0.45594000000E+02  0.51100000000E-03 0. -1.
         11   -1    0    0    0    0 -0.00000000000E+00 -0.00000000000E+00 -0.45593999997E+02  0.45594000000E+02  0.51100000000E-03 0.  1.
    9900012    2    1    2    0    0 -0.14112090231E+02 -0.81641568275E+01 -0.92141896601E+01  0.72460858240E+02  0.69999072411E+02 0.  0.
         12    1    1    2    0    0  0.14112090231E+02  0.81641568275E+01  0.92141896601E+01  0.18727141760E+02  0.00000000000E+00 0. -1.
         11    1    3    3    0    0 -0.15039647964E+02  0.63044221447E+01  0.56311348371E+01  0.17252432561E+02  0.51100000000E-03 0. -1.
        -11    1    3    3    0    0 -0.46122221068E+01  0.15591904125E+02  0.69337384306E+01  0.17676447491E+02  0.51100000000E-03 0.  1.
        -12    1    3    3    0    0  0.55397798403E+01 -0.30060483097E+02 -0.21779062928E+02  0.37531978188E+02  0.00000000000E+00 0.  1.
</event>
<event>
 7    1  0.2932676E-013  0.7246156E+02  0.7816164E-02  0.1226708E+00
        -11   -1    0    0    0    0  0.00000000000E+00  0.00000000000E+00  0.45593999997E+02  0.45594000000E+02  0.51100000000E-03 0. -1.
         11   -1    0    0    0    0 -0.00000000000E+00 -0.00000000000E+00 -0.45593999997E+02  0.45594000000E+02  0.51100000000E-03 0.  1.
    9900012    2    1    2    0    0  0.15642673544E+02 -0.75805926552E+01  0.69656915744E+01  0.72461562012E+02  0.69999989211E+02 0.  0.
         12    1    1    2    0    0 -0.15642673544E+02  0.75805926552E+01 -0.69656915744E+01  0.18726437988E+02  0.00000000000E+00 0. -1.
         11    1    3    3    0    0 -0.52757983445E+01  0.11153404431E+02 -0.20232777214E+02  0.23698053773E+02  0.51100000000E-03 0. -1.
        -11    1    3    3    0    0  0.37547284019E+01  0.17693725094E+01 -0.52658404389E+01  0.67050533360E+01  0.51100000000E-03 0.  1.
        -12    1    3    3    0    0  0.17163743486E+02 -0.20503369595E+02  0.32464309228E+02  0.42058454903E+02  0.00000000000E+00 0.  1.
</event>
<event>
 7    1  0.2932676E-013  0.7246150E+02  0.7816164E-02  0.1226708E+00
        -11   -1    0    0    0    0  0.00000000000E+00  0.00000000000E+00  0.45593999997E+02  0.45594000000E+02  0.51100000000E-03 0.  1.
         11   -1    0    0    0    0 -0.00000000000E+00 -0.00000000000E+00 -0.45593999997E+02  0.45594000000E+02  0.51100000000E-03 0. -1.
    9900012    2    1    2    0    0 -0.44261054715E+01 -0.34021965203E+01 -0.17875018874E+02  0.72461504050E+02  0.69999913705E+02 0.  0.
         12    1    1    2    0    0  0.44261054715E+01  0.34021965203E+01  0.17875018874E+02  0.18726495950E+02  0.00000000000E+00 0. -1.
         11    1    3    3    0    0  0.77555603234E+01  0.53663649706E+01  0.43809042311E+01  0.10398986060E+02  0.51100000000E-03 0. -1.
        -11    1    3    3    0    0 -0.13714457431E+02  0.88935952537E+01  0.14117710950E+02  0.21598429153E+02  0.51100000000E-03 0.  1.
        -12    1    3    3    0    0  0.15327916360E+01 -0.17662156745E+02 -0.36373634055E+02  0.40464088837E+02  0.00000000000E+00 0.  1.
</event>
<event>
 7    1  0.2932676E-013  0.7246210E+02  0.7816164E-02  0.1226707E+00
        -11   -1    0    0    0    0  0.00000000000E+00  0.00000000000E+00  0.45593999997E+02  0.45594000000E+02  0.51100000000E-03 0.  1.
         11   -1    0    0    0    0 -0.00000000000E+00 -0.00000000000E+00 -0.45593999997E+02  0.45594000000E+02  0.51100000000E-03 0. -1.
    9900012    2    1    2    0    0 -0.16641436624E+02  0.74592692892E+01 -0.42522195294E+01  0.72462095959E+02  0.70000684773E+02 0.  0.
         12    1    1    2    0    0  0.16641436624E+02 -0.74592692892E+01  0.42522195294E+01  0.18725904041E+02  0.00000000000E+00 0. -1.
         11    1    3    3    0    0  0.12206047072E+02  0.14304325239E+02 -0.15108121224E+01  0.18864884288E+02  0.51100000000E-03 0. -1.
        -11    1    3    3    0    0 -0.60920782382E+00 -0.13621233782E+02  0.14436122390E+02  0.19857259979E+02  0.51100000000E-03 0.  1.
        -12    1    3    3    0    0 -0.28238275872E+02  0.67761778323E+01 -0.17177529797E+02  0.33739951692E+02  0.00000000000E+00 0.  1.
</event>
<event>
 7    1  0.2932676E-013  0.7246158E+02  0.7816164E-02  0.1226708E+00
        -11   -1    0    0    0    0  0.00000000000E+00  0.00000000000E+00  0.45593999997E+02  0.45594000000E+02  0.51100000000E-03 0.  1.
         11   -1    0    0    0    0 -0.00000000000E+00 -0.00000000000E+00 -0.45593999997E+02  0.45594000000E+02  0.51100000000E-03 0. -1.
    9900012    2    1    2    0    0 -0.40392524285E+01 -0.17106756671E+01  0.18205403506E+02  0.72461583145E+02  0.70000016740E+02 0.  0.
         12    1    1    2    0    0  0.40392524285E+01  0.17106756671E+01 -0.18205403506E+02  0.18726416855E+02  0.00000000000E+00 0. -1.
         11    1    3    3    0    0 -0.54369291733E+01  0.23636570168E+02  0.11899526024E+02  0.27015668935E+02  0.51100000000E-03 0. -1.
        -11    1    3    3    0    0  0.27881571253E+01  0.12461760838E+01  0.16612757997E+02  0.16891136833E+02  0.51100000000E-03 0.  1.
        -12    1    3    3    0    0 -0.13904803805E+01 -0.26593421919E+02 -0.10306880515E+02  0.28554777376E+02  0.00000000000E+00 0.  1.
</event>
<event>
 7    1  0.2932676E-013  0.7246155E+02  0.7816164E-02  0.1226708E+00
        -11   -1    0    0    0    0  0.00000000000E+00  0.00000000000E+00  0.45593999997E+02  0.45594000000E+02  0.51100000000E-03 0.  1.
         11   -1    0    0    0    0 -0.00000000000E+00 -0.00000000000E+00 -0.45593999997E+02  0.45594000000E+02  0.51100000000E-03 0. -1.
    9900012    2    1    2    0    0  0.17024998955E+02 -0.45064757367E+01  0.63656202738E+01  0.72461547200E+02  0.69999969916E+02 0.  0.
         12    1    1    2    0    0 -0.17024998955E+02  0.45064757367E+01 -0.63656202738E+01  0.18726452800E+02  0.00000000000E+00 0. -1.
         11    1    3    3    0    0  0.12888237416E+02  0.13967530142E+02  0.64009893650E+01  0.20054207216E+02  0.51100000000E-03 0. -1.
        -11    1    3    3    0    0  0.57498554560E+01  0.16410902831E+02 -0.15065907553E+01  0.17454179599E+02  0.51100000000E-03 0.  1.
         12    1    3    3    0    0 -0.16130939166E+01 -0.34884908710E+02  0.14712216642E+01  0.34953160385E+02  0.00000000000E+00 0. -1.
</event>
<event>
 7    1  0.2932676E-013  0.7246166E+02  0.7816164E-02  0.1226708E+00
        -11   -1    0    0    0    0  0.00000000000E+00  0.00000000000E+00  0.45593999997E+02  0.45594000000E+02  0.51100000000E-03 0. -1.
         11   -1    0    0    0    0 -0.00000000000E+00 -0.00000000000E+00 -0.45593999997E+02  0.45594000000E+02  0.51100000000E-03 0.  1.
    9900012    2    1    2    0    0 -0.57780946617E+01 -0.14777439990E+02 -0.99456891568E+01  0.72461659103E+02  0.70000115690E+02 0.  0.
         12    1    1    2    0    0  0.57780946617E+01  0.14777439990E+02  0.99456891568E+01  0.18726340897E+02  0.00000000000E+00 0. -1.
         11    1    3    3    0    0 -0.26443777142E+01 -0.98320232080E+01  0.12851863533E+02  0.16396091314E+02  0.51100000000E-03 0.  1.
        -11    1    3    3    0    0 -0.85147402969E+00  0.19643523534E+02  0.35218659964E+01  0.19974898378E+02  0.51100000000E-03 0. -1.
        -12    1    3    3    0    0 -0.22822429178E+01 -0.24588940316E+02 -0.26319418686E+02  0.36090669411E+02  0.00000000000E+00 0.  1.
</event>
<event>
 7    1  0.2932676E-013  0.7246160E+02  0.7816164E-02  0.1226708E+00
        -11   -1    0    0    0    0  0.00000000000E+00  0.00000000000E+00  0.45593999997E+02  0.45594000000E+02  0.51100000000E-03 0.  1.
         11   -1    0    0    0    0 -0.00000000000E+00 -0.00000000000E+00 -0.45593999997E+02  0.45594000000E+02  0.51100000000E-03 0. -1.
    9900012    2    1    2    0    0  0.14907968202E+02  0.10475722303E+02  0.43231740007E+01  0.72461598661E+02  0.70000036953E+02 0.  0.
         12    1    1    2    0    0 -0.14907968202E+02 -0.10475722303E+02 -0.43231740007E+01  0.18726401339E+02  0.00000000000E+00 0. -1.
         11    1    3    3    0    0 -0.23033583459E+02  0.51577054037E+01  0.12434549669E+02  0.26678941465E+02  0.51100000000E-03 0. -1.
        -11    1    3    3    0    0 -0.29764949783E+01 -0.14814075809E+01 -0.19331531364E+01  0.38459292878E+01  0.51100000000E-03 0.  1.
        -12    1    3    3    0    0  0.40918046639E+02  0.67994244804E+01 -0.61782225316E+01  0.41936727908E+02  0.00000000000E+00 0.  1.
</event>
<event>
 7    1  0.2932676E-013  0.7246158E+02  0.7816164E-02  0.1226708E+00
        -11   -1    0    0    0    0  0.00000000000E+00  0.00000000000E+00  0.45593999997E+02  0.45594000000E+02  0.51100000000E-03 0.  1.
         11   -1    0    0    0    0 -0.00000000000E+00 -0.00000000000E+00 -0.45593999997E+02  0.45594000000E+02  0.51100000000E-03 0. -1.
    9900012    2    1    2    0    0  0.56057918205E+01 -0.15275810545E+02  0.92684171823E+01  0.72461578911E+02  0.70000011224E+02 0.  0.
         12    1    1    2    0    0 -0.56057918205E+01  0.15275810545E+02 -0.92684171823E+01  0.18726421089E+02  0.00000000000E+00 0. -1.
         11    1    3    3    0    0 -0.49226482848E+01  0.94041057941E+01 -0.19865372591E+02  0.22523381193E+02  0.51100000000E-03 0. -1.
        -11    1    3    3    0    0 -0.45292422960E+01  0.30307786398E+01  0.13867668293E+02  0.14900063056E+02  0.51100000000E-03 0.  1.
        -12    1    3    3    0    0  0.15057682401E+02 -0.27710694979E+02  0.15266121480E+02  0.35038134662E+02  0.00000000000E+00 0.  1.
</event>
<event>
 7    1  0.2932676E-013  0.7246175E+02  0.7816164E-02  0.1226708E+00
        -11   -1    0    0    0    0  0.00000000000E+00  0.00000000000E+00  0.45593999997E+02  0.45594000000E+02  0.51100000000E-03 0.  1.
         11   -1    0    0    0    0 -0.00000000000E+00 -0.00000000000E+00 -0.45593999997E+02  0.45594000000E+02  0.51100000000E-03 0. -1.
    9900012    2    1    2    0    0  0.72796788087E+01  0.14859484081E+02  0.87678177181E+01  0.72461745215E+02  0.70000227867E+02 0.  0.
         12    1    1    2    0    0 -0.72796788087E+01 -0.14859484081E+02 -0.87678177181E+01  0.18726254785E+02  0.00000000000E+00 0. -1.
         11    1    3    3    0    0 -0.61915434173E+01  0.14698729822E+02  0.26642276900E+02  0.31051550475E+02  0.51100000000E-03 0. -1.
        -11    1    3    3    0    0  0.12414285567E+02 -0.46963123056E+01  0.77083906971E+01  0.15348912756E+02  0.51100000000E-03 0.  1.
         12    1    3    3    0    0  0.10569366595E+01  0.48570665655E+01 -0.25582849879E+02  0.26061281984E+02  0.00000000000E+00 0. -1.
</event>
<event>
 7    1  0.2932676E-013  0.7246160E+02  0.7816164E-02  0.1226708E+00
        -11   -1    0    0    0    0  0.00000000000E+00  0.00000000000E+00  0.45593999997E+02  0.45594000000E+02  0.51100000000E-03 0. -1.
         11   -1    0    0    0    0 -0.00000000000E+00 -0.00000000000E+00 -0.45593999997E+02  0.45594000000E+02  0.51100000000E-03 0.  1.
    9900012    2    1    2    0    0 -0.18262222994E+02 -0.32711321608E+01  0.25434056771E+01  0.72461601341E+02  0.70000040444E+02 0.  0.
         12    1    1    2    0    0  0.18262222994E+02  0.32711321608E+01 -0.25434056771E+01  0.18726398659E+02  0.00000000000E+00 0. -1.
         11    1    3    3    0    0 -0.83697460684E+01  0.31745979800E+01  0.24616178990E+02  0.26193262300E+02  0.51100000000E-03 0. -1.
        -11    1    3    3    0    0  0.27901834685E+01  0.62815559602E+01  0.84239388215E+01  0.10872249749E+02  0.51100000000E-03 0.  1.
        -12    1    3    3    0    0 -0.12682660394E+02 -0.12727286101E+02 -0.30496712135E+02  0.35396089292E+02  0.00000000000E+00 0.  1.
</event>
<event>
 7    1  0.2932676E-013  0.7246156E+02  0.7816164E-02  0.1226708E+00
        -11   -1    0    0    0    0  0.00000000000E+00  0.00000000000E+00  0.45593999997E+02  0.45594000000E+02  0.51100000000E-03 0. -1.
         11   -1    0    0    0    0 -0.00000000000E+00 -0.00000000000E+00 -0.45593999997E+02  0.45594000000E+02  0.51100000000E-03 0.  1.
    9900012    2    1    2    0    0  0.65438748704E+01  0.12937119825E+02 -0.11852763539E+02  0.72461564909E+02  0.69999992985E+02 0.  0.
         12    1    1    2    0    0 -0.65438748704E+01 -0.12937119825E+02  0.11852763539E+02  0.18726435091E+02  0.00000000000E+00 0. -1.
         11    1    3    3    0    0  0.78478668787E+01 -0.40578864314E+01  0.22229782631E+02  0.23921093054E+02  0.51100000000E-03 0. -1.
        -11    1    3    3    0    0 -0.12625385111E+02  0.12809517520E+02 -0.77714790883E+01  0.19592855223E+02  0.51100000000E-03 0.  1.
        -12    1    3    3    0    0  0.11321393103E+02  0.41854887363E+01 -0.26311067081E+02  0.28947616633E+02  0.00000000000E+00 0.  1.
</event>
<event>
 7    1  0.2932676E-013  0.7246161E+02  0.7816164E-02  0.1226708E+00
        -11   -1    0    0    0    0  0.00000000000E+00  0.00000000000E+00  0.45593999997E+02  0.45594000000E+02  0.51100000000E-03 0.  1.
         11   -1    0    0    0    0 -0.00000000000E+00 -0.00000000000E+00 -0.45593999997E+02  0.45594000000E+02  0.51100000000E-03 0. -1.
    9900012    2    1    2    0    0 -0.36737615857E+01 -0.91076457807E+01  0.15944655172E+02  0.72461607811E+02  0.70000048872E+02 0.  0.
         12    1    1    2    0    0  0.36737615857E+01  0.91076457807E+01 -0.15944655172E+02  0.18726392189E+02  0.00000000000E+00 0. -1.
         11    1    3    3    0    0  0.88355464036E+01 -0.40660096255E+01 -0.75484251919E+00  0.97554652382E+01  0.51100000000E-03 0. -1.
        -11    1    3    3    0    0 -0.15411251915E+02 -0.30842135410E+02  0.94372415625E+01  0.35746405845E+02  0.51100000000E-03 0.  1.
         12    1    3    3    0    0  0.29019439255E+01  0.25800499255E+02  0.72622561290E+01  0.26959736728E+02  0.00000000000E+00 0. -1.
</event>
<event>
 7    1  0.2932676E-013  0.7246157E+02  0.7816164E-02  0.1226708E+00
        -11   -1    0    0    0    0  0.00000000000E+00  0.00000000000E+00  0.45593999997E+02  0.45594000000E+02  0.51100000000E-03 0. -1.
         11   -1    0    0    0    0 -0.00000000000E+00 -0.00000000000E+00 -0.45593999997E+02  0.45594000000E+02  0.51100000000E-03 0.  1.
    9900012    2    1    2    0    0  0.48691294406E+01  0.16239051867E+02 -0.79538602738E+01  0.72461571609E+02  0.70000001712E+02 0.  0.
         12    1    1    2    0    0 -0.48691294406E+01 -0.16239051867E+02  0.79538602738E+01  0.18726428391E+02  0.00000000000E+00 0. -1.
         11    1    3    3    0    0 -0.14230444386E+02 -0.18036812121E+02 -0.65608320392E+01  0.23893025263E+02  0.51100000000E-03 0. -1.
        -11    1    3    3    0    0  0.11232326693E+02  0.58637738237E+01 -0.11790144184E+02  0.17307700787E+02  0.51100000000E-03 0.  1.
        -12    1    3    3    0    0  0.78672471335E+01  0.28412090164E+02  0.10397115950E+02  0.31260845558E+02  0.00000000000E+00 0.  1.
</event>
<event>
 7    1  0.2932676E-013  0.7246174E+02  0.7816164E-02  0.1226708E+00
        -11   -1    0    0    0    0  0.00000000000E+00  0.00000000000E+00  0.45593999997E+02  0.45594000000E+02  0.51100000000E-03 0. -1.
         11   -1    0    0    0    0 -0.00000000000E+00 -0.00000000000E+00 -0.45593999997E+02  0.45594000000E+02  0.51100000000E-03 0.  1.
    9900012    2    1    2    0    0 -0.62354957493E+01  0.14758428788E+02 -0.96943390478E+01  0.72461739372E+02  0.70000220255E+02 0.  0.
         12    1    1    2    0    0  0.62354957493E+01 -0.14758428788E+02  0.96943390478E+01  0.18726260628E+02  0.00000000000E+00 0. -1.
         11    1    3    3    0    0  0.31665844520E+01  0.33861868911E+00 -0.80250744740E+01  0.86338716856E+01  0.51100000000E-03 0. -1.
        -11    1    3    3    0    0  0.20423795392E+01 -0.67777823112E+01 -0.27565199830E+02  0.28459618571E+02  0.51100000000E-03 0.  1.
         12    1    3    3    0    0 -0.11444459741E+02  0.21197592410E+02  0.25895935257E+02  0.35368249116E+02  0.00000000000E+00 0. -1.
</event>
<event>
 7    1  0.2932676E-013  0.7246164E+02  0.7816164E-02  0.1226708E+00
        -11   -1    0    0    0    0  0.00000000000E+00  0.00000000000E+00  0.45593999997E+02  0.45594000000E+02  0.51100000000E-03 0. -1.
         11   -1    0    0    0    0 -0.00000000000E+00 -0.00000000000E+00 -0.45593999997E+02  0.45594000000E+02  0.51100000000E-03 0.  1.
    9900012    2    1    2    0    0 -0.16369492955E+02 -0.90435695448E+01 -0.96435076675E+00  0.72461643651E+02  0.70000095561E+02 0.  0.
         12    1    1    2    0    0  0.16369492955E+02  0.90435695448E+01  0.96435076675E+00  0.18726356349E+02  0.00000000000E+00 0. -1.
         11    1    3    3    0    0 -0.39419099768E+02 -0.17548133759E+02 -0.93664162595E+01  0.44153506982E+02  0.51100000000E-03 0. -1.
        -11    1    3    3    0    0  0.47872875988E+00 -0.28163164555E+00 -0.19059273808E+01  0.19852095736E+01  0.51100000000E-03 0.  1.
        -12    1    3    3    0    0  0.22570878054E+02  0.87861958600E+01  0.10307992874E+02  0.26322927096E+02  0.00000000000E+00 0.  1.
</event>
<event>
 7    1  0.2932676E-013  0.7246158E+02  0.7816164E-02  0.1226708E+00
        -11   -1    0    0    0    0  0.00000000000E+00  0.00000000000E+00  0.45593999997E+02  0.45594000000E+02  0.51100000000E-03 0.  1.
         11   -1    0    0    0    0 -0.00000000000E+00 -0.00000000000E+00 -0.45593999997E+02  0.45594000000E+02  0.51100000000E-03 0. -1.
    9900012    2    1    2    0    0  0.95581914534E+01 -0.14880926584E+02  0.61545072656E+01  0.72461575901E+02  0.70000007304E+02 0.  0.
         12    1    1    2    0    0 -0.95581914534E+01  0.14880926584E+02 -0.61545072656E+01  0.18726424099E+02  0.00000000000E+00 0. -1.
         11    1    3    3    0    0  0.22877213277E+02 -0.14754938833E+02 -0.16453303345E+02  0.31808588439E+02  0.51100000000E-03 0. -1.
        -11    1    3    3    0    0 -0.27562779758E+01  0.68144176795E+00 -0.78806554685E+01  0.83765244605E+01  0.51100000000E-03 0.  1.
        -12    1    3    3    0    0 -0.10562743848E+02 -0.80742951891E+00  0.30488466079E+02  0.32276463001E+02  0.00000000000E+00 0.  1.
</event>
<event>
 7    1  0.2932676E-013  0.7246152E+02  0.7816164E-02  0.1226708E+00
        -11   -1    0    0    0    0  0.00000000000E+00  0.00000000000E+00  0.45593999997E+02  0.45594000000E+02  0.51100000000E-03 0.  1.
         11   -1    0    0    0    0 -0.00000000000E+00 -0.00000000000E+00 -0.45593999997E+02  0.45594000000E+02  0.51100000000E-03 0. -1.
    9900012    2    1    2    0    0 -0.45898525276E+01  0.71670057534E+01  0.16680782714E+02  0.72461515289E+02  0.69999928345E+02 0.  0.
         12    1    1    2    0    0  0.45898525276E+01 -0.71670057534E+01 -0.16680782714E+02  0.18726484711E+02  0.00000000000E+00 0. -1.
         11    1    3    3    0    0 -0.20270692551E+02  0.15475748381E+02 -0.29451229814E+01  0.25672427117E+02  0.51100000000E-03 0. -1.
        -11    1    3    3    0    0 -0.71810796757E+01  0.98917375124E+01  0.12913489366E+01  0.12291540126E+02  0.51100000000E-03 0.  1.
        -12    1    3    3    0    0  0.22861919699E+02 -0.18200480140E+02  0.18334556759E+02  0.34497548046E+02  0.00000000000E+00 0.  1.
</event>
<event>
 7    1  0.2932676E-013  0.7246158E+02  0.7816164E-02  0.1226708E+00
        -11   -1    0    0    0    0  0.00000000000E+00  0.00000000000E+00  0.45593999997E+02  0.45594000000E+02  0.51100000000E-03 0.  1.
         11   -1    0    0    0    0 -0.00000000000E+00 -0.00000000000E+00 -0.45593999997E+02  0.45594000000E+02  0.51100000000E-03 0. -1.
    9900012    2    1    2    0    0  0.10330565781E+02  0.21102227219E+01  0.15475953619E+02  0.72461580969E+02  0.70000013906E+02 0.  0.
         12    1    1    2    0    0 -0.10330565781E+02 -0.21102227219E+01 -0.15475953619E+02  0.18726419031E+02  0.00000000000E+00 0. -1.
         11    1    3    3    0    0  0.62272564154E+01 -0.19708198588E+02  0.17454986816E+01  0.20742193229E+02  0.51100000000E-03 0. -1.
        -11    1    3    3    0    0  0.22910084808E+02  0.59232062545E+01  0.13185783928E+02  0.27089135392E+02  0.51100000000E-03 0.  1.
        -12    1    3    3    0    0 -0.18806775442E+02  0.15895215056E+02  0.54467100947E+00  0.24630252348E+02  0.00000000000E+00 0.  1.
</event>
<event>
 7    1  0.2932676E-013  0.7246153E+02  0.7816164E-02  0.1226708E+00
        -11   -1    0    0    0    0  0.00000000000E+00  0.00000000000E+00  0.45593999997E+02  0.45594000000E+02  0.51100000000E-03 0. -1.
         11   -1    0    0    0    0 -0.00000000000E+00 -0.00000000000E+00 -0.45593999997E+02  0.45594000000E+02  0.51100000000E-03 0.  1.
    9900012    2    1    2    0    0  0.18298031936E+02 -0.84937312308E-01 -0.39818852652E+01  0.72461532171E+02  0.69999950337E+02 0.  0.
         12    1    1    2    0    0 -0.18298031936E+02  0.84937312308E-01  0.39818852652E+01  0.18726467829E+02  0.00000000000E+00 0. -1.
         11    1    3    3    0    0  0.50738368290E+01 -0.42779383179E+01  0.14322868115E+02  0.15785725442E+02  0.51100000000E-03 0. -1.
        -11    1    3    3    0    0  0.21419474465E+02 -0.19251372671E+02 -0.95059711963E+01  0.30327755023E+02  0.51100000000E-03 0.  1.
         12    1    3    3    0    0 -0.81952793580E+01  0.23444373676E+02 -0.87987821837E+01  0.26348051707E+02  0.00000000000E+00 0. -1.
</event>
<event>
 7    1  0.2932676E-013  0.7246155E+02  0.7816164E-02  0.1226708E+00
        -11   -1    0    0    0    0  0.00000000000E+00  0.00000000000E+00  0.45593999997E+02  0.45594000000E+02  0.51100000000E-03 0. -1.
         11   -1    0    0    0    0 -0.00000000000E+00 -0.00000000000E+00 -0.45593999997E+02  0.45594000000E+02  0.51100000000E-03 0.  1.
    9900012    2    1    2    0    0  0.18352515092E+02 -0.30462348322E+01 -0.21413836258E+01  0.72461551306E+02  0.69999975264E+02 0.  0.
         12    1    1    2    0    0 -0.18352515092E+02  0.30462348322E+01  0.21413836258E+01  0.18726448694E+02  0.00000000000E+00 0. -1.
         11    1    3    3    0    0  0.92614701561E+01 -0.19119433724E+02  0.17471052149E+02  0.27505731018E+02  0.51100000000E-03 0. -1.
        -11    1    3    3    0    0  0.22138630450E+02  0.10638650330E+02 -0.58951898876E+01  0.25259713045E+02  0.51100000000E-03 0.  1.
        -12    1    3    3    0    0 -0.13047585514E+02  0.54345485621E+01 -0.13717245887E+02  0.19696107243E+02  0.00000000000E+00 0.  1.
</event>
<event>
 7    1  0.2932676E-013  0.7246158E+02  0.7816164E-02  0.1226708E+00
        -11   -1    0    0    0    0  0.00000000000E+00  0.00000000000E+00  0.45593999997E+02  0.45594000000E+02  0.51100000000E-03 0.  1.
         11   -1    0    0    0    0 -0.00000000000E+00 -0.00000000000E+00 -0.45593999997E+02  0.45594000000E+02  0.51100000000E-03 0. -1.
    9900012    2    1    2    0    0 -0.11305381678E+02  0.14906264494E+02  0.81889821352E+00  0.72461575612E+02  0.70000006927E+02 0.  0.
         12    1    1    2    0    0  0.11305381678E+02 -0.14906264494E+02 -0.81889821352E+00  0.18726424388E+02  0.00000000000E+00 0. -1.
         11    1    3    3    0    0 -0.27268232000E+02  0.17082809749E+02  0.11070922435E+02  0.34028579005E+02  0.51100000000E-03 0. -1.
        -11    1    3    3    0    0 -0.52275939721E+01  0.97667617788E+01 -0.86517977101E+01  0.14055994389E+02  0.51100000000E-03 0.  1.
        -12    1    3    3    0    0  0.21190444293E+02 -0.11943307033E+02 -0.16002265111E+01  0.24377002218E+02  0.00000000000E+00 0.  1.
</event>
<event>
 7    1  0.2932676E-013  0.7246157E+02  0.7816164E-02  0.1226708E+00
        -11   -1    0    0    0    0  0.00000000000E+00  0.00000000000E+00  0.45593999997E+02  0.45594000000E+02  0.51100000000E-03 0. -1.
         11   -1    0    0    0    0 -0.00000000000E+00 -0.00000000000E+00 -0.45593999997E+02  0.45594000000E+02  0.51100000000E-03 0.  1.
    9900012    2    1    2    0    0 -0.26643494109E+01  0.54706737578E+01 -0.17710223338E+02  0.72461573758E+02  0.70000004512E+02 0.  0.
         12    1    1    2    0    0  0.26643494109E+01 -0.54706737578E+01  0.17710223338E+02  0.18726426242E+02  0.00000000000E+00 0. -1.
         11    1    3    3    0    0  0.15017851759E+02  0.18135997336E+02  0.28970633807E+01  0.23724317636E+02  0.51100000000E-03 0. -1.
        -11    1    3    3    0    0  0.91662910676E+01 -0.99064064669E+01 -0.16690542380E+02  0.21464668323E+02  0.51100000000E-03 0.  1.
         12    1    3    3    0    0 -0.26848492237E+02 -0.27589171108E+01 -0.39167443384E+01  0.27272587799E+02  0.00000000000E+00 0. -1.
</event>
<event>
 7    1  0.2932676E-013  0.7246156E+02  0.7816164E-02  0.1226708E+00
        -11   -1    0    0    0    0  0.00000000000E+00  0.00000000000E+00  0.45593999997E+02  0.45594000000E+02  0.51100000000E-03 0. -1.
         11   -1    0    0    0    0 -0.00000000000E+00 -0.00000000000E+00 -0.45593999997E+02  0.45594000000E+02  0.51100000000E-03 0.  1.
    9900012    2    1    2    0    0  0.90076782851E+01 -0.15127009884E+02 -0.63808107139E+01  0.72461563033E+02  0.69999990540E+02 0.  0.
         12    1    1    2    0    0 -0.90076782851E+01  0.15127009884E+02  0.63808107139E+01  0.18726436967E+02  0.00000000000E+00 0. -1.
         11    1    3    3    0    0 -0.12976486319E+02  0.45827161040E+01 -0.68152311109E+01  0.15357013363E+02  0.51100000000E-03 0. -1.
        -11    1    3    3    0    0 -0.15534062980E+02 -0.80978966075E+01 -0.26154488298E+01  0.17712244775E+02  0.51100000000E-03 0.  1.
         12    1    3    3    0    0  0.37518227584E+02 -0.11611829381E+02  0.30498692267E+01  0.39392304895E+02  0.00000000000E+00 0. -1.
</event>
<event>
 7    1  0.2932676E-013  0.7246159E+02  0.7816164E-02  0.1226708E+00
        -11   -1    0    0    0    0  0.00000000000E+00  0.00000000000E+00  0.45593999997E+02  0.45594000000E+02  0.51100000000E-03 0. -1.
         11   -1    0    0    0    0 -0.00000000000E+00 -0.00000000000E+00 -0.45593999997E+02  0.45594000000E+02  0.51100000000E-03 0.  1.
    9900012    2    1    2    0    0  0.92490852221E+01 -0.12451173003E+02 -0.10492904812E+02  0.72461592497E+02  0.70000028923E+02 0.  0.
         12    1    1    2    0    0 -0.92490852221E+01  0.12451173003E+02  0.10492904812E+02  0.18726407503E+02  0.00000000000E+00 0. -1.
         11    1    3    3    0    0 -0.78545204340E+01 -0.88208333185E+01  0.87519973909E+00  0.11843418701E+02  0.51100000000E-03 0. -1.
        -11    1    3    3    0    0 -0.12940364586E+02 -0.13242464105E+02 -0.20651581048E+02  0.27736324400E+02  0.51100000000E-03 0.  1.
         12    1    3    3    0    0  0.30043970243E+02  0.96121244205E+01  0.92834764973E+01  0.32881849396E+02  0.00000000000E+00 0. -1.
</event>
<event>
 7    1  0.2932676E-013  0.7246157E+02  0.7816164E-02  0.1226708E+00
        -11   -1    0    0    0    0  0.00000000000E+00  0.00000000000E+00  0.45593999997E+02  0.45594000000E+02  0.51100000000E-03 0. -1.
         11   -1    0    0    0    0 -0.00000000000E+00 -0.00000000000E+00 -0.45593999997E+02  0.45594000000E+02  0.51100000000E-03 0.  1.
    9900012    2    1    2    0    0  0.15934323720E+02 -0.44600925706E+01 -0.87683616196E+01  0.72461567781E+02  0.69999996726E+02 0.  0.
         12    1    1    2    0    0 -0.15934323720E+02  0.44600925706E+01  0.87683616196E+01  0.18726432219E+02  0.00000000000E+00 0. -1.
         11    1    3    3    0    0 -0.25223638637E+02  0.55193411034E+01  0.28524200418E+01  0.25977516676E+02  0.51100000000E-03 0. -1.
        -11    1    3    3    0    0  0.57999581791E+01  0.15655801194E+01  0.27529113779E+01  0.66082582657E+01  0.51100000000E-03 0.  1.
        -12    1    3    3    0    0  0.35358004178E+02 -0.11545013793E+02 -0.14373693039E+02  0.39875792839E+02  0.00000000000E+00 0.  1.
</event>
<event>
 7    1  0.2932676E-013  0.7246162E+02  0.7816164E-02  0.1226708E+00
        -11   -1    0    0    0    0  0.00000000000E+00  0.00000000000E+00  0.45593999997E+02  0.45594000000E+02  0.51100000000E-03 0. -1.
         11   -1    0    0    0    0 -0.00000000000E+00 -0.00000000000E+00 -0.45593999997E+02  0.45594000000E+02  0.51100000000E-03 0.  1.
    9900012    2    1    2    0    0 -0.72076709073E+01 -0.17283153118E+02  0.13926425187E+00  0.72461620315E+02  0.70000065161E+02 0.  0.
         12    1    1    2    0    0  0.72076709073E+01  0.17283153118E+02 -0.13926425187E+00  0.18726379685E+02  0.00000000000E+00 0. -1.
         11    1    3    3    0    0  0.78528883140E+01 -0.81919973984E+00  0.31758613253E+01  0.85102901540E+01  0.51100000000E-03 0. -1.
        -11    1    3    3    0    0  0.83933685374E+01 -0.33078140986E+02 -0.72891148469E+01  0.34896178043E+02  0.51100000000E-03 0.  1.
        -12    1    3    3    0    0 -0.23453927759E+02  0.16614187608E+02  0.42525177735E+01  0.29055152118E+02  0.00000000000E+00 0.  1.
</event>
<event>
 7    1  0.2932676E-013  0.7246145E+02  0.7816164E-02  0.1226708E+00
        -11   -1    0    0    0    0  0.00000000000E+00  0.00000000000E+00  0.45593999997E+02  0.45594000000E+02  0.51100000000E-03 0.  1.
         11   -1    0    0    0    0 -0.00000000000E+00 -0.00000000000E+00 -0.45593999997E+02  0.45594000000E+02  0.51100000000E-03 0. -1.
    9900012    2    1    2    0    0 -0.57894998753E+01  0.23225486241E+01  0.17657042026E+02  0.72461450024E+02  0.69999843325E+02 0.  0.
         12    1    1    2    0    0  0.57894998753E+01 -0.23225486241E+01 -0.17657042026E+02  0.18726549976E+02  0.00000000000E+00 0. -1.
         11    1    3    3    0    0 -0.16333788645E+02 -0.34319468263E+01  0.23082172317E+02  0.28484339375E+02  0.51100000000E-03 0. -1.
        -11    1    3    3    0    0 -0.14545859730E+02  0.42184351772E+01  0.60953626637E+01  0.16325767268E+02  0.51100000000E-03 0.  1.
         12    1    3    3    0    0  0.25090148499E+02  0.15360602732E+01 -0.11520492954E+02  0.27651343381E+02  0.00000000000E+00 0. -1.
</event>
<event>
 7    1  0.2932676E-013  0.7246127E+02  0.7816164E-02  0.1226709E+00
        -11   -1    0    0    0    0  0.00000000000E+00  0.00000000000E+00  0.45593999997E+02  0.45594000000E+02  0.51100000000E-03 0. -1.
         11   -1    0    0    0    0 -0.00000000000E+00 -0.00000000000E+00 -0.45593999997E+02  0.45594000000E+02  0.51100000000E-03 0.  1.
    9900012    2    1    2    0    0 -0.54193707872E+01  0.85570164064E+01 -0.15751133132E+02  0.72461272992E+02  0.69999612707E+02 0.  0.
         12    1    1    2    0    0  0.54193707872E+01 -0.85570164064E+01  0.15751133132E+02  0.18726727008E+02  0.00000000000E+00 0. -1.
         11    1    3    3    0    0 -0.14497883840E+02  0.20933650590E+02 -0.15837600697E+01  0.25513029203E+02  0.51100000000E-03 0. -1.
        -11    1    3    3    0    0 -0.14420654318E+02  0.41564154003E+01 -0.21949836617E+00  0.15009305105E+02  0.51100000000E-03 0.  1.
        -12    1    3    3    0    0  0.23499167372E+02 -0.16533049584E+02 -0.13947874696E+02  0.31938938684E+02  0.00000000000E+00 0.  1.
</event>
<event>
 7    1  0.2932676E-013  0.7246235E+02  0.7816164E-02  0.1226706E+00
        -11   -1    0    0    0    0  0.00000000000E+00  0.00000000000E+00  0.45593999997E+02  0.45594000000E+02  0.51100000000E-03 0.  1.
         11   -1    0    0    0    0 -0.00000000000E+00 -0.00000000000E+00 -0.45593999997E+02  0.45594000000E+02  0.51100000000E-03 0. -1.
    9900012    2    1    2    0    0 -0.69978996178E+00 -0.11204760937E+02  0.14987118620E+02  0.72462346522E+02  0.70001011174E+02 0.  0.
         12    1    1    2    0    0  0.69978996178E+00  0.11204760937E+02 -0.14987118620E+02  0.18725653478E+02  0.00000000000E+00 0. -1.
         11    1    3    3    0    0  0.69824057625E+01  0.13370761422E+02  0.20438121676E+02  0.25401733585E+02  0.51100000000E-03 0. -1.
        -11    1    3    3    0    0  0.11072703015E+02  0.12487819181E+01  0.65933584508E+01  0.12947454740E+02  0.51100000000E-03 0.  1.
         12    1    3    3    0    0 -0.18754898739E+02 -0.25824304276E+02 -0.12044361507E+02  0.34113158197E+02  0.00000000000E+00 0. -1.
</event>
<event>
 7    1  0.2932676E-013  0.7246153E+02  0.7816164E-02  0.1226708E+00
        -11   -1    0    0    0    0  0.00000000000E+00  0.00000000000E+00  0.45593999997E+02  0.45594000000E+02  0.51100000000E-03 0. -1.
         11   -1    0    0    0    0 -0.00000000000E+00 -0.00000000000E+00 -0.45593999997E+02  0.45594000000E+02  0.51100000000E-03 0.  1.
    9900012    2    1    2    0    0  0.78598442983E+01  0.10561120136E+02 -0.13317893368E+02  0.72461529572E+02  0.69999946952E+02 0.  0.
         12    1    1    2    0    0 -0.78598442983E+01 -0.10561120136E+02  0.13317893368E+02  0.18726470428E+02  0.00000000000E+00 0. -1.
         11    1    3    3    0    0 -0.75247766648E+01 -0.59365394014E+01  0.12385634478E+02  0.15661056976E+02  0.51100000000E-03 0. -1.
        -11    1    3    3    0    0 -0.75666992162E+01 -0.25542332111E+01 -0.25762504739E+02  0.26971942737E+02  0.51100000000E-03 0.  1.
        -12    1    3    3    0    0  0.22951320179E+02  0.19051892749E+02  0.58976893541E-01  0.29828529859E+02  0.00000000000E+00 0.  1.
</event>
<event>
 7    1  0.2932676E-013  0.7246159E+02  0.7816164E-02  0.1226708E+00
        -11   -1    0    0    0    0  0.00000000000E+00  0.00000000000E+00  0.45593999997E+02  0.45594000000E+02  0.51100000000E-03 0. -1.
         11   -1    0    0    0    0 -0.00000000000E+00 -0.00000000000E+00 -0.45593999997E+02  0.45594000000E+02  0.51100000000E-03 0.  1.
    9900012    2    1    2    0    0 -0.17823799186E+02 -0.22750684286E+01 -0.52739537981E+01  0.72461592377E+02  0.70000028767E+02 0.  0.
         12    1    1    2    0    0  0.17823799186E+02  0.22750684286E+01  0.52739537981E+01  0.18726407623E+02  0.00000000000E+00 0. -1.
         11    1    3    3    0    0 -0.29079168378E+01  0.18450053440E+02  0.18555462684E+02  0.26328039197E+02  0.51100000000E-03 0. -1.
        -11    1    3    3    0    0 -0.15987206076E+02 -0.35618479328E+01  0.44480316048E+00  0.16385218000E+02  0.51100000000E-03 0.  1.
        -12    1    3    3    0    0  0.10713237274E+01 -0.17163273936E+02 -0.24274219643E+02  0.29748335180E+02  0.00000000000E+00 0.  1.
</event>
<event>
 7    1  0.2932676E-013  0.7246142E+02  0.7816164E-02  0.1226708E+00
        -11   -1    0    0    0    0  0.00000000000E+00  0.00000000000E+00  0.45593999997E+02  0.45594000000E+02  0.51100000000E-03 0. -1.
         11   -1    0    0    0    0 -0.00000000000E+00 -0.00000000000E+00 -0.45593999997E+02  0.45594000000E+02  0.51100000000E-03 0.  1.
    9900012    2    1    2    0    0  0.37535682734E+00 -0.45431259514E+00 -0.18717308784E+02  0.72461416200E+02  0.69999799264E+02 0.  0.
         12    1    1    2    0    0 -0.37535682734E+00  0.45431259514E+00  0.18717308784E+02  0.18726583800E+02  0.00000000000E+00 0. -1.
         11    1    3    3    0    0 -0.14431569202E+02 -0.10517920698E+02 -0.13831079493E+01  0.17911165046E+02  0.51100000000E-03 0.  1.
        -11    1    3    3    0    0  0.20182307952E+01  0.28640399861E+02 -0.13286668922E+02  0.31636708600E+02  0.51100000000E-03 0. -1.
         12    1    3    3    0    0  0.12788695234E+02 -0.18576791758E+02 -0.40475319123E+01  0.22913542554E+02  0.00000000000E+00 0. -1.
</event>
<event>
 7    1  0.2932676E-013  0.7246164E+02  0.7816164E-02  0.1226708E+00
        -11   -1    0    0    0    0  0.00000000000E+00  0.00000000000E+00  0.45593999997E+02  0.45594000000E+02  0.51100000000E-03 0. -1.
         11   -1    0    0    0    0 -0.00000000000E+00 -0.00000000000E+00 -0.45593999997E+02  0.45594000000E+02  0.51100000000E-03 0.  1.
    9900012    2    1    2    0    0  0.15513602961E+02 -0.18500211399E+01 -0.10323862080E+02  0.72461639347E+02  0.70000089954E+02 0.  0.
         12    1    1    2    0    0 -0.15513602961E+02  0.18500211399E+01  0.10323862080E+02  0.18726360653E+02  0.00000000000E+00 0. -1.
         11    1    3    3    0    0  0.17326036400E+02 -0.17525074966E+02 -0.10144856214E+01  0.24664731323E+02  0.51100000000E-03 0. -1.
        -11    1    3    3    0    0  0.16147263847E+02  0.44460586247E+01  0.96846709785E+01  0.19346690137E+02  0.51100000000E-03 0.  1.
        -12    1    3    3    0    0 -0.17959697286E+02  0.11228995201E+02 -0.18994047437E+02  0.28450217888E+02  0.00000000000E+00 0.  1.
</event>
<event>
 7    1  0.2932676E-013  0.7246157E+02  0.7816164E-02  0.1226708E+00
        -11   -1    0    0    0    0  0.00000000000E+00  0.00000000000E+00  0.45593999997E+02  0.45594000000E+02  0.51100000000E-03 0. -1.
         11   -1    0    0    0    0 -0.00000000000E+00 -0.00000000000E+00 -0.45593999997E+02  0.45594000000E+02  0.51100000000E-03 0.  1.
    9900012    2    1    2    0    0 -0.11724641962E+02 -0.99381139512E+01  0.10697943967E+02  0.72461565658E+02  0.69999993960E+02 0.  0.
         12    1    1    2    0    0  0.11724641962E+02  0.99381139512E+01 -0.10697943967E+02  0.18726434342E+02  0.00000000000E+00 0. -1.
         11    1    3    3    0    0 -0.22693727485E+02 -0.10423720360E+02 -0.14748520640E+01  0.25016682477E+02  0.51100000000E-03 0. -1.
        -11    1    3    3    0    0 -0.85816821771E+01 -0.96835332155E+01 -0.98713982102E+01  0.16274538009E+02  0.51100000000E-03 0.  1.
        -12    1    3    3    0    0  0.19550767700E+02  0.10169139624E+02  0.22044194241E+02  0.31170345172E+02  0.00000000000E+00 0.  1.
</event>
<event>
 7    1  0.2932676E-013  0.7246155E+02  0.7816164E-02  0.1226708E+00
        -11   -1    0    0    0    0  0.00000000000E+00  0.00000000000E+00  0.45593999997E+02  0.45594000000E+02  0.51100000000E-03 0.  1.
         11   -1    0    0    0    0 -0.00000000000E+00 -0.00000000000E+00 -0.45593999997E+02  0.45594000000E+02  0.51100000000E-03 0. -1.
    9900012    2    1    2    0    0 -0.15727837238E+02  0.41421571378E+01  0.92821164989E+01  0.72461547676E+02  0.69999970536E+02 0.  0.
         12    1    1    2    0    0  0.15727837238E+02 -0.41421571378E+01 -0.92821164989E+01  0.18726452324E+02  0.00000000000E+00 0. -1.
         11    1    3    3    0    0 -0.11128530334E+01  0.30572884573E+01  0.42997084742E+01  0.53919335872E+01  0.51100000000E-03 0. -1.
        -11    1    3    3    0    0 -0.35625216458E+02  0.15506037518E+02  0.11952242390E+02  0.40650330203E+02  0.51100000000E-03 0.  1.
         12    1    3    3    0    0  0.21010232253E+02 -0.14421168837E+02 -0.69698343649E+01  0.26419283886E+02  0.00000000000E+00 0. -1.
</event>
<event>
 7    1  0.2932676E-013  0.7246168E+02  0.7816164E-02  0.1226708E+00
        -11   -1    0    0    0    0  0.00000000000E+00  0.00000000000E+00  0.45593999997E+02  0.45594000000E+02  0.51100000000E-03 0.  1.
         11   -1    0    0    0    0 -0.00000000000E+00 -0.00000000000E+00 -0.45593999997E+02  0.45594000000E+02  0.51100000000E-03 0. -1.
    9900012    2    1    2    0    0 -0.33181110738E+00 -0.15913882097E+02  0.98647507897E+01  0.72461680283E+02  0.70000143280E+02 0.  0.
         12    1    1    2    0    0  0.33181110738E+00  0.15913882097E+02 -0.98647507897E+01  0.18726319717E+02  0.00000000000E+00 0. -1.
         11    1    3    3    0    0 -0.19958584717E+02  0.15654402502E+02  0.15340192918E+02  0.29643328771E+02  0.51100000000E-03 0. -1.
        -11    1    3    3    0    0 -0.26103227194E+01  0.67596109759E+00  0.14199135562E+01  0.30474354584E+01  0.51100000000E-03 0.  1.
        -12    1    3    3    0    0  0.22237096329E+02 -0.32244245697E+02 -0.68953556842E+01  0.39770916053E+02  0.00000000000E+00 0.  1.
</event>
<event>
 7    1  0.2932676E-013  0.7246144E+02  0.7816164E-02  0.1226708E+00
        -11   -1    0    0    0    0  0.00000000000E+00  0.00000000000E+00  0.45593999997E+02  0.45594000000E+02  0.51100000000E-03 0. -1.
         11   -1    0    0    0    0 -0.00000000000E+00 -0.00000000000E+00 -0.45593999997E+02  0.45594000000E+02  0.51100000000E-03 0.  1.
    9900012    2    1    2    0    0 -0.17783457047E+02 -0.45581662968E+01 -0.36953610211E+01  0.72461443520E+02  0.69999834853E+02 0.  0.
         12    1    1    2    0    0  0.17783457047E+02  0.45581662968E+01  0.36953610211E+01  0.18726556480E+02  0.00000000000E+00 0. -1.
         11    1    3    3    0    0 -0.71965158938E+01 -0.76266186164E+01 -0.24069189841E+01  0.10758643585E+02  0.51100000000E-03 0.  1.
        -11    1    3    3    0    0 -0.68532410014E+01  0.28537140536E+02 -0.14538146353E+02  0.32751992334E+02  0.51100000000E-03 0. -1.
         12    1    3    3    0    0 -0.37337001514E+01 -0.25468688217E+02  0.13249704316E+02  0.28950807601E+02  0.00000000000E+00 0. -1.
</event>
<event>
 7    1  0.2932676E-013  0.7246156E+02  0.7816164E-02  0.1226708E+00
        -11   -1    0    0    0    0  0.00000000000E+00  0.00000000000E+00  0.45593999997E+02  0.45594000000E+02  0.51100000000E-03 0.  1.
         11   -1    0    0    0    0 -0.00000000000E+00 -0.00000000000E+00 -0.45593999997E+02  0.45594000000E+02  0.51100000000E-03 0. -1.
    9900012    2    1    2    0    0 -0.33947657282E+01  0.17853335639E+02  0.45181279190E+01  0.72461561265E+02  0.69999988238E+02 0.  0.
         12    1    1    2    0    0  0.33947657282E+01 -0.17853335639E+02 -0.45181279190E+01  0.18726438735E+02  0.00000000000E+00 0. -1.
         11    1    3    3    0    0  0.23848509573E+02 -0.69410862675E+01  0.10689469272E+02  0.27040614656E+02  0.51100000000E-03 0. -1.
        -11    1    3    3    0    0 -0.82366312492E+01 -0.15196712277E+01 -0.96461832467E+01  0.12774989098E+02  0.51100000000E-03 0.  1.
        -12    1    3    3    0    0 -0.19006644052E+02  0.26314093134E+02  0.34748418940E+01  0.32645957511E+02  0.00000000000E+00 0.  1.
</event>
<event>
 7    1  0.2932676E-013  0.7246155E+02  0.7816164E-02  0.1226708E+00
        -11   -1    0    0    0    0  0.00000000000E+00  0.00000000000E+00  0.45593999997E+02  0.45594000000E+02  0.51100000000E-03 0. -1.
         11   -1    0    0    0    0 -0.00000000000E+00 -0.00000000000E+00 -0.45593999997E+02  0.45594000000E+02  0.51100000000E-03 0.  1.
    9900012    2    1    2    0    0 -0.15028705016E+02  0.44502812063E+01 -0.10247587872E+02  0.72461547201E+02  0.69999969916E+02 0.  0.
         12    1    1    2    0    0  0.15028705016E+02 -0.44502812063E+01  0.10247587872E+02  0.18726452799E+02  0.00000000000E+00 0. -1.
         11    1    3    3    0    0  0.34691831107E+01  0.70361384237E+01 -0.15259949799E+02  0.17158337434E+02  0.51100000000E-03 0. -1.
        -11    1    3    3    0    0 -0.76082599638E+01  0.19584161610E+02 -0.13023477093E+02  0.24719141602E+02  0.51100000000E-03 0.  1.
         12    1    3    3    0    0 -0.10889628162E+02 -0.22170018828E+02  0.18035839020E+02  0.30584068165E+02  0.00000000000E+00 0. -1.
</event>
<event>
 7    1  0.3842152E-013  0.7246132E+02  0.7816164E-02  0.1226709E+00
        -11   -1    0    0    0    0  0.00000000000E+00  0.00000000000E+00  0.45593999997E+02  0.45594000000E+02  0.51100000000E-03 0. -1.
         11   -1    0    0    0    0 -0.00000000000E+00 -0.00000000000E+00 -0.45593999997E+02  0.45594000000E+02  0.51100000000E-03 0.  1.
    9900012    2    1    2    0    0  0.13982973572E+02  0.24989725108E+01 -0.12203289884E+02  0.72461315896E+02  0.69999668599E+02 0.  0.
         12    1    1    2    0    0 -0.13982973572E+02 -0.24989725108E+01  0.12203289884E+02  0.18726684104E+02  0.00000000000E+00 0. -1.
         11    1    3    3    0    0 -0.32014771276E+01 -0.23683731094E+01  0.19552180366E+02  0.19953606298E+02  0.51100000000E-03 0. -1.
        -11    1    3    3    0    0 -0.11309925459E+02  0.69005504206E+01 -0.10245701201E+02  0.16748325390E+02  0.51100000000E-03 0.  1.
        -12    1    3    3    0    0  0.28494376159E+02 -0.20332048003E+01 -0.21509769048E+02  0.35759384208E+02  0.00000000000E+00 0.  1.
</event>
<event>
 7    1  0.2932676E-013  0.7246155E+02  0.7816164E-02  0.1226708E+00
        -11   -1    0    0    0    0  0.00000000000E+00  0.00000000000E+00  0.45593999997E+02  0.45594000000E+02  0.51100000000E-03 0.  1.
         11   -1    0    0    0    0 -0.00000000000E+00 -0.00000000000E+00 -0.45593999997E+02  0.45594000000E+02  0.51100000000E-03 0. -1.
    9900012    2    1    2    0    0  0.15716403312E+01 -0.12283570485E+02 -0.14047192864E+02  0.72461553873E+02  0.69999978609E+02 0.  0.
         12    1    1    2    0    0 -0.15716403312E+01  0.12283570485E+02  0.14047192864E+02  0.18726446127E+02  0.00000000000E+00 0. -1.
         11    1    3    3    0    0 -0.16619994720E+02 -0.53194650012E+01 -0.68795136699E+01  0.18757628874E+02  0.51100000000E-03 0. -1.
        -11    1    3    3    0    0 -0.69399719079E+01 -0.21994794460E+02 -0.79913026240E+01  0.24408914587E+02  0.51100000000E-03 0.  1.
         12    1    3    3    0    0  0.25131606959E+02  0.15030688977E+02  0.82362343011E+00  0.29295010412E+02  0.00000000000E+00 0. -1.
</event>
<event>
 7    1  0.2932676E-013  0.7246153E+02  0.7816164E-02  0.1226708E+00
        -11   -1    0    0    0    0  0.00000000000E+00  0.00000000000E+00  0.45593999997E+02  0.45594000000E+02  0.51100000000E-03 0.  1.
         11   -1    0    0    0    0 -0.00000000000E+00 -0.00000000000E+00 -0.45593999997E+02  0.45594000000E+02  0.51100000000E-03 0. -1.
    9900012    2    1    2    0    0 -0.13354349005E+02 -0.12960979902E+02 -0.20868458607E+01  0.72461533088E+02  0.69999951532E+02 0.  0.
         12    1    1    2    0    0  0.13354349005E+02  0.12960979902E+02  0.20868458607E+01  0.18726466912E+02  0.00000000000E+00 0. -1.
         11    1    3    3    0    0 -0.13802804721E+02  0.10385490446E+02 -0.11711544113E+02  0.20869501569E+02  0.51100000000E-03 0. -1.
        -11    1    3    3    0    0 -0.16696820357E+02  0.48631189290E+01  0.74128414083E+00  0.17406413709E+02  0.51100000000E-03 0.  1.
        -12    1    3    3    0    0  0.17145276074E+02 -0.28209589276E+02  0.88834141117E+01  0.34185617810E+02  0.00000000000E+00 0.  1.
</event>
<event>
 7    1  0.2932676E-013  0.7246177E+02  0.7816164E-02  0.1226707E+00
        -11   -1    0    0    0    0  0.00000000000E+00  0.00000000000E+00  0.45593999997E+02  0.45594000000E+02  0.51100000000E-03 0. -1.
         11   -1    0    0    0    0 -0.00000000000E+00 -0.00000000000E+00 -0.45593999997E+02  0.45594000000E+02  0.51100000000E-03 0.  1.
    9900012    2    1    2    0    0  0.63976166649E+01  0.98409196154E+01 -0.14591044576E+02  0.72461767605E+02  0.70000257034E+02 0.  0.
         12    1    1    2    0    0 -0.63976166649E+01 -0.98409196154E+01  0.14591044576E+02  0.18726232395E+02  0.00000000000E+00 0. -1.
         11    1    3    3    0    0 -0.15029986212E+01 -0.65645730802E+01 -0.11387393620E+02  0.13229714974E+02  0.51100000000E-03 0. -1.
        -11    1    3    3    0    0 -0.13992938120E+02 -0.14794180672E+02  0.31042077110E+01  0.20598694249E+02  0.51100000000E-03 0.  1.
         12    1    3    3    0    0  0.21893553406E+02  0.31199673367E+02 -0.63078586677E+01  0.38633358383E+02  0.00000000000E+00 0. -1.
</event>
<event>
 7    1  0.2932676E-013  0.7246156E+02  0.7816164E-02  0.1226708E+00
        -11   -1    0    0    0    0  0.00000000000E+00  0.00000000000E+00  0.45593999997E+02  0.45594000000E+02  0.51100000000E-03 0.  1.
         11   -1    0    0    0    0 -0.00000000000E+00 -0.00000000000E+00 -0.45593999997E+02  0.45594000000E+02  0.51100000000E-03 0. -1.
    9900012    2    1    2    0    0 -0.78407199109E+01 -0.11188008431E+02  0.12807461017E+02  0.72461562030E+02  0.69999989234E+02 0.  0.
         12    1    1    2    0    0  0.78407199109E+01  0.11188008431E+02 -0.12807461017E+02  0.18726437970E+02  0.00000000000E+00 0. -1.
         11    1    3    3    0    0  0.42646018464E+01 -0.16479541230E+01  0.49225783982E+00  0.45983583746E+01  0.51100000000E-03 0. -1.
        -11    1    3    3    0    0  0.15964489469E+01 -0.78802949004E+01  0.37926657398E+02  0.38769563301E+02  0.51100000000E-03 0.  1.
         12    1    3    3    0    0 -0.13701770704E+02 -0.16597594073E+01 -0.25611454221E+02  0.29093640354E+02  0.00000000000E+00 0. -1.
</event>
<event>
 7    1  0.2932676E-013  0.7246158E+02  0.7816164E-02  0.1226708E+00
        -11   -1    0    0    0    0  0.00000000000E+00  0.00000000000E+00  0.45593999997E+02  0.45594000000E+02  0.51100000000E-03 0. -1.
         11   -1    0    0    0    0 -0.00000000000E+00 -0.00000000000E+00 -0.45593999997E+02  0.45594000000E+02  0.51100000000E-03 0.  1.
    9900012    2    1    2    0    0 -0.17758298876E+02 -0.59753916098E+00 -0.59130885900E+01  0.72461578861E+02  0.70000011160E+02 0.  0.
         12    1    1    2    0    0  0.17758298876E+02  0.59753916098E+00  0.59130885900E+01  0.18726421139E+02  0.00000000000E+00 0. -1.
         11    1    3    3    0    0  0.99053193684E+01  0.76934931825E+01  0.54161859922E+01  0.13661634606E+02  0.51100000000E-03 0. -1.
        -11    1    3    3    0    0 -0.38324448746E+02 -0.66309480380E+01  0.50147920422E+01  0.39215825671E+02  0.51100000000E-03 0.  1.
         12    1    3    3    0    0  0.10660830502E+02 -0.16600843055E+01 -0.16344066624E+02  0.19584118584E+02  0.00000000000E+00 0. -1.
</event>
<event>
 7    1  0.2932676E-013  0.7246157E+02  0.7816164E-02  0.1226708E+00
        -11   -1    0    0    0    0  0.00000000000E+00  0.00000000000E+00  0.45593999997E+02  0.45594000000E+02  0.51100000000E-03 0. -1.
         11   -1    0    0    0    0 -0.00000000000E+00 -0.00000000000E+00 -0.45593999997E+02  0.45594000000E+02  0.51100000000E-03 0.  1.
    9900012    2    1    2    0    0 -0.51923842210E+01 -0.14675660728E+02  0.10408803505E+02  0.72461573162E+02  0.70000003735E+02 0.  0.
         12    1    1    2    0    0  0.51923842210E+01  0.14675660728E+02 -0.10408803505E+02  0.18726426838E+02  0.00000000000E+00 0. -1.
         11    1    3    3    0    0 -0.12514294657E+01 -0.70946600649E+01  0.10234459200E+02  0.12515767357E+02  0.51100000000E-03 0. -1.
        -11    1    3    3    0    0  0.23928487594E+02 -0.14017769122E+02 -0.10157631219E+02  0.29533842316E+02  0.51100000000E-03 0.  1.
         12    1    3    3    0    0 -0.27869442350E+02  0.64367684580E+01  0.10331975524E+02  0.30411963489E+02  0.00000000000E+00 0. -1.
</event>
<event>
 7    1  0.2932676E-013  0.7246090E+02  0.7816164E-02  0.1226710E+00
        -11   -1    0    0    0    0  0.00000000000E+00  0.00000000000E+00  0.45593999997E+02  0.45594000000E+02  0.51100000000E-03 0.  1.
         11   -1    0    0    0    0 -0.00000000000E+00 -0.00000000000E+00 -0.45593999997E+02  0.45594000000E+02  0.51100000000E-03 0. -1.
    9900012    2    1    2    0    0  0.21470613453E+01 -0.10009902911E+02  0.15681083685E+02  0.72460896266E+02  0.69999121948E+02 0.  0.
         12    1    1    2    0    0 -0.21470613453E+01  0.10009902911E+02 -0.15681083685E+02  0.18727103734E+02  0.00000000000E+00 0. -1.
         11    1    3    3    0    0  0.58374147602E+01  0.48155864623E+01 -0.57510432652E+01  0.95047242442E+01  0.51100000000E-03 0. -1.
        -11    1    3    3    0    0 -0.29257257076E+01 -0.21110638258E+02 -0.14946245217E+02  0.26030927086E+02  0.51100000000E-03 0.  1.
        -12    1    3    3    0    0 -0.76462770731E+00  0.62851488852E+01  0.36378372168E+02  0.36925244936E+02  0.00000000000E+00 0.  1.
</event>
<event>
 7    1  0.2932676E-013  0.7246165E+02  0.7816164E-02  0.1226708E+00
        -11   -1    0    0    0    0  0.00000000000E+00  0.00000000000E+00  0.45593999997E+02  0.45594000000E+02  0.51100000000E-03 0.  1.
         11   -1    0    0    0    0 -0.00000000000E+00 -0.00000000000E+00 -0.45593999997E+02  0.45594000000E+02  0.51100000000E-03 0. -1.
    9900012    2    1    2    0    0 -0.32891462768E+01 -0.16578879046E+02  0.80621549187E+01  0.72461653437E+02  0.70000108309E+02 0.  0.
         12    1    1    2    0    0  0.32891462768E+01  0.16578879046E+02 -0.80621549187E+01  0.18726346563E+02  0.00000000000E+00 0. -1.
         11    1    3    3    0    0  0.72213070718E+01  0.15297791359E+02 -0.56126480387E+01  0.17823341846E+02  0.51100000000E-03 0. -1.
        -11    1    3    3    0    0 -0.93898155188E+01 -0.20979548192E+01 -0.11946026653E+02  0.15338761454E+02  0.51100000000E-03 0.  1.
        -12    1    3    3    0    0 -0.11206378298E+01 -0.29778715585E+02  0.25620829610E+02  0.39299550137E+02  0.00000000000E+00 0.  1.
</event>
<event>
 7    1  0.2932676E-013  0.7246157E+02  0.7816164E-02  0.1226708E+00
        -11   -1    0    0    0    0  0.00000000000E+00  0.00000000000E+00  0.45593999997E+02  0.45594000000E+02  0.51100000000E-03 0.  1.
         11   -1    0    0    0    0 -0.00000000000E+00 -0.00000000000E+00 -0.45593999997E+02  0.45594000000E+02  0.51100000000E-03 0. -1.
    9900012    2    1    2    0    0  0.16638615220E+02 -0.20592034730E+00  0.85903042391E+01  0.72461568238E+02  0.69999997321E+02 0.  0.
         12    1    1    2    0    0 -0.16638615220E+02  0.20592034730E+00 -0.85903042391E+01  0.18726431762E+02  0.00000000000E+00 0. -1.
         11    1    3    3    0    0 -0.10269338324E+02 -0.95639609439E+01 -0.18831448464E+02  0.23485146584E+02  0.51100000000E-03 0. -1.
        -11    1    3    3    0    0 -0.43313525423E+01  0.37843876185E+01  0.12808531091E+02  0.14040679238E+02  0.51100000000E-03 0.  1.
        -12    1    3    3    0    0  0.31239306086E+02  0.55736529781E+01  0.14613221613E+02  0.34935742416E+02  0.00000000000E+00 0.  1.
</event>
<event>
 7    1  0.2932676E-013  0.7246156E+02  0.7816164E-02  0.1226708E+00
        -11   -1    0    0    0    0  0.00000000000E+00  0.00000000000E+00  0.45593999997E+02  0.45594000000E+02  0.51100000000E-03 0.  1.
         11   -1    0    0    0    0 -0.00000000000E+00 -0.00000000000E+00 -0.45593999997E+02  0.45594000000E+02  0.51100000000E-03 0. -1.
    9900012    2    1    2    0    0  0.17667036938E+02 -0.33770491508E+00  0.62001033025E+01  0.72461560943E+02  0.69999987818E+02 0.  0.
         12    1    1    2    0    0 -0.17667036938E+02  0.33770491508E+00 -0.62001033025E+01  0.18726439057E+02  0.00000000000E+00 0. -1.
         11    1    3    3    0    0 -0.22541405548E+02 -0.96350489775E+00  0.13367463336E+02  0.26224652183E+02  0.51100000000E-03 0. -1.
        -11    1    3    3    0    0  0.12670408082E+02  0.57597625291E+01  0.61543214157E+01  0.15218074047E+02  0.51100000000E-03 0.  1.
        -12    1    3    3    0    0  0.27538034405E+02 -0.51339625465E+01 -0.13321681450E+02  0.31018834713E+02  0.00000000000E+00 0.  1.
</event>
<event>
 7    1  0.2932676E-013  0.7246158E+02  0.7816164E-02  0.1226708E+00
        -11   -1    0    0    0    0  0.00000000000E+00  0.00000000000E+00  0.45593999997E+02  0.45594000000E+02  0.51100000000E-03 0.  1.
         11   -1    0    0    0    0 -0.00000000000E+00 -0.00000000000E+00 -0.45593999997E+02  0.45594000000E+02  0.51100000000E-03 0. -1.
    9900012    2    1    2    0    0  0.12739381418E+02  0.10380764205E+02  0.89792470772E+01  0.72461575289E+02  0.70000006506E+02 0.  0.
         12    1    1    2    0    0 -0.12739381418E+02 -0.10380764205E+02 -0.89792470772E+01  0.18726424711E+02  0.00000000000E+00 0. -1.
         11    1    3    3    0    0  0.86336964430E+01 -0.45191466267E+01 -0.40788233037E+01  0.10564099598E+02  0.51100000000E-03 0. -1.
        -11    1    3    3    0    0 -0.10203604005E+02  0.25741494806E+02 -0.12729798469E+02  0.30475988234E+02  0.51100000000E-03 0.  1.
         12    1    3    3    0    0  0.14309288980E+02 -0.10841583975E+02  0.25787868850E+02  0.31421487457E+02  0.00000000000E+00 0. -1.
</event>
<event>
 7    1  0.2932676E-013  0.7246160E+02  0.7816164E-02  0.1226708E+00
        -11   -1    0    0    0    0  0.00000000000E+00  0.00000000000E+00  0.45593999997E+02  0.45594000000E+02  0.51100000000E-03 0. -1.
         11   -1    0    0    0    0 -0.00000000000E+00 -0.00000000000E+00 -0.45593999997E+02  0.45594000000E+02  0.51100000000E-03 0.  1.
    9900012    2    1    2    0    0 -0.13507317849E+02 -0.89577859199E+00 -0.12939396600E+02  0.72461600476E+02  0.70000039318E+02 0.  0.
         12    1    1    2    0    0  0.13507317849E+02  0.89577859199E+00  0.12939396600E+02  0.18726399524E+02  0.00000000000E+00 0. -1.
         11    1    3    3    0    0  0.35875612201E+01  0.77285013873E+01 -0.42565899627E+01  0.95246463227E+01  0.51100000000E-03 0. -1.
        -11    1    3    3    0    0 -0.78554351872E+01  0.14090720906E+02 -0.27597985355E+02  0.31967250016E+02  0.51100000000E-03 0.  1.
         12    1    3    3    0    0 -0.92394438817E+01 -0.22715000885E+02  0.18915178718E+02  0.30969704138E+02  0.00000000000E+00 0. -1.
</event>
<event>
 7    1  0.2932676E-013  0.7246126E+02  0.7816164E-02  0.1226709E+00
        -11   -1    0    0    0    0  0.00000000000E+00  0.00000000000E+00  0.45593999997E+02  0.45594000000E+02  0.51100000000E-03 0. -1.
         11   -1    0    0    0    0 -0.00000000000E+00 -0.00000000000E+00 -0.45593999997E+02  0.45594000000E+02  0.51100000000E-03 0.  1.
    9900012    2    1    2    0    0  0.17556633486E+02  0.35307379229E+01  0.54762543378E+01  0.72461258393E+02  0.69999593690E+02 0.  0.
         12    1    1    2    0    0 -0.17556633486E+02 -0.35307379229E+01 -0.54762543378E+01  0.18726741607E+02  0.00000000000E+00 0. -1.
         11    1    3    3    0    0  0.10236155726E+02  0.10832575048E+02  0.25873735051E+02  0.29859231939E+02  0.51100000000E-03 0. -1.
        -11    1    3    3    0    0  0.94298774193E+01 -0.25028991023E+01  0.86782471574E+01  0.13057529094E+02  0.51100000000E-03 0.  1.
        -12    1    3    3    0    0 -0.21093996600E+01 -0.47989380226E+01 -0.29075727871E+02  0.29544497360E+02  0.00000000000E+00 0.  1.
</event>
<event>
 7    1  0.2932676E-013  0.7246160E+02  0.7816164E-02  0.1226708E+00
        -11   -1    0    0    0    0  0.00000000000E+00  0.00000000000E+00  0.45593999997E+02  0.45594000000E+02  0.51100000000E-03 0.  1.
         11   -1    0    0    0    0 -0.00000000000E+00 -0.00000000000E+00 -0.45593999997E+02  0.45594000000E+02  0.51100000000E-03 0. -1.
    9900012    2    1    2    0    0  0.81814115272E+01 -0.16194225848E+02  0.46357004955E+01  0.72461597129E+02  0.70000034957E+02 0.  0.
         12    1    1    2    0    0 -0.81814115272E+01  0.16194225848E+02 -0.46357004955E+01  0.18726402871E+02  0.00000000000E+00 0. -1.
         11    1    3    3    0    0  0.18013001062E+02 -0.84403822762E+01  0.28267015623E+01  0.20092249804E+02  0.51100000000E-03 0. -1.
        -11    1    3    3    0    0  0.11834133527E+02 -0.16971715288E+02 -0.13111400507E+02  0.24494788418E+02  0.51100000000E-03 0.  1.
        -12    1    3    3    0    0 -0.21665723062E+02  0.92178717156E+01  0.14920399440E+02  0.27874558906E+02  0.00000000000E+00 0.  1.
</event>
<event>
 7    1  0.2932676E-013  0.7246158E+02  0.7816164E-02  0.1226708E+00
        -11   -1    0    0    0    0  0.00000000000E+00  0.00000000000E+00  0.45593999997E+02  0.45594000000E+02  0.51100000000E-03 0.  1.
         11   -1    0    0    0    0 -0.00000000000E+00 -0.00000000000E+00 -0.45593999997E+02  0.45594000000E+02  0.51100000000E-03 0. -1.
    9900012    2    1    2    0    0 -0.81136617262E+01 -0.11994997010E+01  0.16834745353E+02  0.72461575962E+02  0.70000007383E+02 0.  0.
         12    1    1    2    0    0  0.81136617262E+01  0.11994997010E+01 -0.16834745353E+02  0.18726424038E+02  0.00000000000E+00 0. -1.
         11    1    3    3    0    0 -0.31938619058E+01 -0.45307090557E+01 -0.20711813755E+01  0.59175899631E+01  0.51100000000E-03 0. -1.
        -11    1    3    3    0    0  0.17285958831E+01 -0.13392972801E+02  0.37986150708E+02  0.40315101514E+02  0.51100000000E-03 0.  1.
         12    1    3    3    0    0 -0.66483957035E+01  0.16724182156E+02 -0.19080223980E+02  0.26228884485E+02  0.00000000000E+00 0. -1.
</event>
<event>
 7    1  0.2932676E-013  0.7246162E+02  0.7816164E-02  0.1226708E+00
        -11   -1    0    0    0    0  0.00000000000E+00  0.00000000000E+00  0.45593999997E+02  0.45594000000E+02  0.51100000000E-03 0.  1.
         11   -1    0    0    0    0 -0.00000000000E+00 -0.00000000000E+00 -0.45593999997E+02  0.45594000000E+02  0.51100000000E-03 0. -1.
    9900012    2    1    2    0    0 -0.11590396375E+02 -0.83784824782E+01  0.12088881665E+02  0.72461619766E+02  0.70000064446E+02 0.  0.
         12    1    1    2    0    0  0.11590396375E+02  0.83784824782E+01 -0.12088881665E+02  0.18726380234E+02  0.00000000000E+00 0. -1.
         11    1    3    3    0    0 -0.11664421210E+02  0.14047194750E+02 -0.16346283356E+02  0.24506802777E+02  0.51100000000E-03 0. -1.
        -11    1    3    3    0    0  0.69449236906E+01  0.61163877748E+01  0.70759907151E+01  0.11649541164E+02  0.51100000000E-03 0.  1.
        -12    1    3    3    0    0 -0.68708988548E+01 -0.28542065003E+02  0.21359174306E+02  0.36305275825E+02  0.00000000000E+00 0.  1.
</event>
<event>
 7    1  0.2932676E-013  0.7246153E+02  0.7816164E-02  0.1226708E+00
        -11   -1    0    0    0    0  0.00000000000E+00  0.00000000000E+00  0.45593999997E+02  0.45594000000E+02  0.51100000000E-03 0.  1.
         11   -1    0    0    0    0 -0.00000000000E+00 -0.00000000000E+00 -0.45593999997E+02  0.45594000000E+02  0.51100000000E-03 0. -1.
    9900012    2    1    2    0    0 -0.95840075358E+01  0.35788307661E+01  0.15685010946E+02  0.72461526801E+02  0.69999943341E+02 0.  0.
         12    1    1    2    0    0  0.95840075358E+01 -0.35788307661E+01 -0.15685010946E+02  0.18726473199E+02  0.00000000000E+00 0. -1.
         11    1    3    3    0    0 -0.32876305533E+00  0.30698986008E+01  0.38178319305E+01  0.49100105373E+01  0.51100000000E-03 0. -1.
        -11    1    3    3    0    0 -0.22602561459E+02  0.11020217059E+02  0.32328253604E+02  0.40956525120E+02  0.51100000000E-03 0.  1.
         12    1    3    3    0    0  0.13347316978E+02 -0.10511284894E+02 -0.20461074588E+02  0.26594991144E+02  0.00000000000E+00 0. -1.
</event>
<event>
 7    1  0.2932676E-013  0.7246158E+02  0.7816164E-02  0.1226708E+00
        -11   -1    0    0    0    0  0.00000000000E+00  0.00000000000E+00  0.45593999997E+02  0.45594000000E+02  0.51100000000E-03 0. -1.
         11   -1    0    0    0    0 -0.00000000000E+00 -0.00000000000E+00 -0.45593999997E+02  0.45594000000E+02  0.51100000000E-03 0.  1.
    9900012    2    1    2    0    0 -0.96002497186E+01 -0.63093372040E+01 -0.14788726315E+02  0.72461575978E+02  0.70000007404E+02 0.  0.
         12    1    1    2    0    0  0.96002497186E+01  0.63093372040E+01  0.14788726315E+02  0.18726424022E+02  0.00000000000E+00 0. -1.
         11    1    3    3    0    0 -0.81448833517E+01 -0.19195183115E+01 -0.69422393009E+01  0.10872826777E+02  0.51100000000E-03 0. -1.
        -11    1    3    3    0    0 -0.48955273334E+01 -0.32222479051E+02 -0.79344693415E+01  0.33544152219E+02  0.51100000000E-03 0.  1.
         12    1    3    3    0    0  0.34401609665E+01  0.27832660159E+02  0.87982327088E-01  0.28044596982E+02  0.00000000000E+00 0. -1.
</event>
<event>
 7    1  0.2932676E-013  0.7246158E+02  0.7816164E-02  0.1226708E+00
        -11   -1    0    0    0    0  0.00000000000E+00  0.00000000000E+00  0.45593999997E+02  0.45594000000E+02  0.51100000000E-03 0. -1.
         11   -1    0    0    0    0 -0.00000000000E+00 -0.00000000000E+00 -0.45593999997E+02  0.45594000000E+02  0.51100000000E-03 0.  1.
    9900012    2    1    2    0    0  0.89925726287E+01  0.82535352278E+01 -0.14201813633E+02  0.72461582385E+02  0.70000015750E+02 0.  0.
         12    1    1    2    0    0 -0.89925726287E+01 -0.82535352278E+01  0.14201813633E+02  0.18726417615E+02  0.00000000000E+00 0. -1.
         11    1    3    3    0    0  0.51046960274E+01  0.19621122010E+02 -0.18336852060E+02  0.27336541372E+02  0.51100000000E-03 0. -1.
        -11    1    3    3    0    0  0.18515045882E+02  0.84088643107E+01  0.20876645239E+01  0.20441973154E+02  0.51100000000E-03 0.  1.
         12    1    3    3    0    0 -0.14627169281E+02 -0.19776451093E+02  0.20473739031E+01  0.24683067858E+02  0.00000000000E+00 0. -1.
</event>
<event>
 7    1  0.2932676E-013  0.7246166E+02  0.7816164E-02  0.1226708E+00
        -11   -1    0    0    0    0  0.00000000000E+00  0.00000000000E+00  0.45593999997E+02  0.45594000000E+02  0.51100000000E-03 0.  1.
         11   -1    0    0    0    0 -0.00000000000E+00 -0.00000000000E+00 -0.45593999997E+02  0.45594000000E+02  0.51100000000E-03 0. -1.
    9900012    2    1    2    0    0 -0.16492553066E+02 -0.87527745812E+01  0.14354030081E+01  0.72461661561E+02  0.70000118892E+02 0.  0.
         12    1    1    2    0    0  0.16492553066E+02  0.87527745812E+01 -0.14354030081E+01  0.18726338439E+02  0.00000000000E+00 0. -1.
         11    1    3    3    0    0 -0.82641959630E+01 -0.40956462122E+00 -0.17303166090E+00  0.82761475525E+01  0.51100000000E-03 0. -1.
        -11    1    3    3    0    0 -0.22026333051E+02 -0.19136284197E+01  0.26805589039E+02  0.34747099525E+02  0.51100000000E-03 0.  1.
        -12    1    3    3    0    0  0.13797975948E+02 -0.64295815403E+01 -0.25197154369E+02  0.29438414484E+02  0.00000000000E+00 0.  1.
</event>
<event>
 7    1  0.2932676E-013  0.7246172E+02  0.7816164E-02  0.1226708E+00
        -11   -1    0    0    0    0  0.00000000000E+00  0.00000000000E+00  0.45593999997E+02  0.45594000000E+02  0.51100000000E-03 0.  1.
         11   -1    0    0    0    0 -0.00000000000E+00 -0.00000000000E+00 -0.45593999997E+02  0.45594000000E+02  0.51100000000E-03 0. -1.
    9900012    2    1    2    0    0 -0.12948901553E+02 -0.12059132548E+02  0.61299874813E+01  0.72461722320E+02  0.70000198041E+02 0.  0.
         12    1    1    2    0    0  0.12948901553E+02  0.12059132548E+02 -0.61299874813E+01  0.18726277680E+02  0.00000000000E+00 0. -1.
         11    1    3    3    0    0  0.95186870917E+01  0.76710916393E+01 -0.38457612085E+00  0.12231064955E+02  0.51100000000E-03 0. -1.
        -11    1    3    3    0    0  0.92752700092E+01 -0.24515305175E+02 -0.38608652322E+01  0.26494095609E+02  0.51100000000E-03 0.  1.
        -12    1    3    3    0    0 -0.31742858654E+02  0.47850809877E+01  0.10375428834E+02  0.33736561755E+02  0.00000000000E+00 0.  1.
</event>
<event>
 7    1  0.2932676E-013  0.7246159E+02  0.7816164E-02  0.1226708E+00
        -11   -1    0    0    0    0  0.00000000000E+00  0.00000000000E+00  0.45593999997E+02  0.45594000000E+02  0.51100000000E-03 0. -1.
         11   -1    0    0    0    0 -0.00000000000E+00 -0.00000000000E+00 -0.45593999997E+02  0.45594000000E+02  0.51100000000E-03 0.  1.
    9900012    2    1    2    0    0 -0.77725015617E+01 -0.16819476573E+02 -0.27151159849E+01  0.72461590105E+02  0.70000025808E+02 0.  0.
         12    1    1    2    0    0  0.77725015617E+01  0.16819476573E+02  0.27151159849E+01  0.18726409895E+02  0.00000000000E+00 0. -1.
         11    1    3    3    0    0 -0.25962075715E+02 -0.11400104074E+02 -0.80887861261E+01  0.29485932401E+02  0.51100000000E-03 0. -1.
        -11    1    3    3    0    0 -0.83797998561E+01 -0.46095352102E+01  0.12228478663E+02  0.15524321278E+02  0.51100000000E-03 0.  1.
        -12    1    3    3    0    0  0.26569374009E+02 -0.80983728961E+00 -0.68548085217E+01  0.27451336426E+02  0.00000000000E+00 0.  1.
</event>
<event>
 7    1  0.2932676E-013  0.7246147E+02  0.7816164E-02  0.1226708E+00
        -11   -1    0    0    0    0  0.00000000000E+00  0.00000000000E+00  0.45593999997E+02  0.45594000000E+02  0.51100000000E-03 0.  1.
         11   -1    0    0    0    0 -0.00000000000E+00 -0.00000000000E+00 -0.45593999997E+02  0.45594000000E+02  0.51100000000E-03 0. -1.
    9900012    2    1    2    0    0 -0.28441802382E+01  0.11274123606E+02  0.14679498411E+02  0.72461470745E+02  0.69999870319E+02 0.  0.
         12    1    1    2    0    0  0.28441802382E+01 -0.11274123606E+02 -0.14679498411E+02  0.18726529255E+02  0.00000000000E+00 0. -1.
         11    1    3    3    0    0  0.18134337298E+02 -0.90336200456E+00  0.97177865918E+01  0.20593825012E+02  0.51100000000E-03 0. -1.
        -11    1    3    3    0    0 -0.55453615834E+01  0.28074295168E+02  0.74547114580E+01  0.29571773830E+02  0.51100000000E-03 0.  1.
         12    1    3    3    0    0 -0.15433155952E+02 -0.15896809557E+02 -0.24929996386E+01  0.22295871903E+02  0.00000000000E+00 0. -1.
</event>
<event>
 7    1  0.2932676E-013  0.7246103E+02  0.7816164E-02  0.1226709E+00
        -11   -1    0    0    0    0  0.00000000000E+00  0.00000000000E+00  0.45593999997E+02  0.45594000000E+02  0.51100000000E-03 0.  1.
         11   -1    0    0    0    0 -0.00000000000E+00 -0.00000000000E+00 -0.45593999997E+02  0.45594000000E+02  0.51100000000E-03 0. -1.
    9900012    2    1    2    0    0  0.44597287786E+01 -0.16235035251E+02  0.81996184199E+01  0.72461033011E+02  0.69999300085E+02 0.  0.
         12    1    1    2    0    0 -0.44597287786E+01  0.16235035251E+02 -0.81996184199E+01  0.18726966989E+02  0.00000000000E+00 0. -1.
         11    1    3    3    0    0 -0.21332188434E+02  0.11850327711E+02  0.45009496356E+01  0.24814332111E+02  0.51100000000E-03 0. -1.
        -11    1    3    3    0    0 -0.52705176188E+01 -0.56820922387E+01  0.51760099938E+01  0.93196356097E+01  0.51100000000E-03 0.  1.
        -12    1    3    3    0    0  0.31062434831E+02 -0.22403270723E+02 -0.14773412096E+01  0.38327065290E+02  0.00000000000E+00 0.  1.
</event>
<event>
 7    1  0.2932676E-013  0.7246127E+02  0.7816164E-02  0.1226709E+00
        -11   -1    0    0    0    0  0.00000000000E+00  0.00000000000E+00  0.45593999997E+02  0.45594000000E+02  0.51100000000E-03 0.  1.
         11   -1    0    0    0    0 -0.00000000000E+00 -0.00000000000E+00 -0.45593999997E+02  0.45594000000E+02  0.51100000000E-03 0. -1.
    9900012    2    1    2    0    0 -0.17553862450E+02  0.65197401528E+01  0.21317358231E+00  0.72461266661E+02  0.69999604461E+02 0.  0.
         12    1    1    2    0    0  0.17553862450E+02 -0.65197401528E+01 -0.21317358231E+00  0.18726733339E+02  0.00000000000E+00 0. -1.
         11    1    3    3    0    0  0.24858735249E+01  0.97694764931E+01  0.10380803311E+02  0.14470083475E+02  0.51100000000E-03 0. -1.
        -11    1    3    3    0    0  0.15965712726E+02 -0.11496094108E+02 -0.71403865091E+01  0.20929626904E+02  0.51100000000E-03 0.  1.
         12    1    3    3    0    0 -0.36005448701E+02  0.82463577678E+01 -0.30272432191E+01  0.37061556282E+02  0.00000000000E+00 0. -1.
</event>
<event>
 7    1  0.2932676E-013  0.7246158E+02  0.7816164E-02  0.1226708E+00
        -11   -1    0    0    0    0  0.00000000000E+00  0.00000000000E+00  0.45593999997E+02  0.45594000000E+02  0.51100000000E-03 0. -1.
         11   -1    0    0    0    0 -0.00000000000E+00 -0.00000000000E+00 -0.45593999997E+02  0.45594000000E+02  0.51100000000E-03 0.  1.
    9900012    2    1    2    0    0 -0.14455199413E+02 -0.11487024316E+02 -0.31264059379E+01  0.72461576642E+02  0.70000008268E+02 0.  0.
         12    1    1    2    0    0  0.14455199413E+02  0.11487024316E+02  0.31264059379E+01  0.18726423358E+02  0.00000000000E+00 0. -1.
         11    1    3    3    0    0  0.16492498059E+00 -0.26481962033E+02  0.13512310044E+02  0.29730523648E+02  0.51100000000E-03 0. -1.
        -11    1    3    3    0    0 -0.13083069407E+02 -0.51871482423E+01  0.31524421937E+01  0.14422590060E+02  0.51100000000E-03 0.  1.
        -12    1    3    3    0    0 -0.15370549870E+01  0.20182085960E+02 -0.19791158176E+02  0.28308462934E+02  0.00000000000E+00 0.  1.
</event>
<event>
 7    1  0.2932676E-013  0.7246156E+02  0.7816164E-02  0.1226708E+00
        -11   -1    0    0    0    0  0.00000000000E+00  0.00000000000E+00  0.45593999997E+02  0.45594000000E+02  0.51100000000E-03 0.  1.
         11   -1    0    0    0    0 -0.00000000000E+00 -0.00000000000E+00 -0.45593999997E+02  0.45594000000E+02  0.51100000000E-03 0. -1.
    9900012    2    1    2    0    0 -0.10979238609E+02  0.14065086621E+02  0.56841287888E+01  0.72461557140E+02  0.69999982864E+02 0.  0.
         12    1    1    2    0    0  0.10979238609E+02 -0.14065086621E+02 -0.56841287888E+01  0.18726442860E+02  0.00000000000E+00 0. -1.
         11    1    3    3    0    0  0.17668206432E+02 -0.14266557214E+00 -0.99286287304E+01  0.20267302256E+02  0.51100000000E-03 0. -1.
        -11    1    3    3    0    0  0.59074964866E+01  0.24713600878E+01  0.14309897758E+02  0.15677350208E+02  0.51100000000E-03 0.  1.
        -12    1    3    3    0    0 -0.34554941527E+02  0.11736392106E+02  0.13028597610E+01  0.36516904677E+02  0.00000000000E+00 0.  1.
</event>
<event>
 7    1  0.2932676E-013  0.7246152E+02  0.7816164E-02  0.1226708E+00
        -11   -1    0    0    0    0  0.00000000000E+00  0.00000000000E+00  0.45593999997E+02  0.45594000000E+02  0.51100000000E-03 0.  1.
         11   -1    0    0    0    0 -0.00000000000E+00 -0.00000000000E+00 -0.45593999997E+02  0.45594000000E+02  0.51100000000E-03 0. -1.
    9900012    2    1    2    0    0  0.95554827475E+01  0.45273343833E+01  0.15455651190E+02  0.72461517125E+02  0.69999930738E+02 0.  0.
         12    1    1    2    0    0 -0.95554827475E+01 -0.45273343833E+01 -0.15455651190E+02  0.18726482875E+02  0.00000000000E+00 0. -1.
         11    1    3    3    0    0  0.83322806189E+01 -0.24822051524E+02  0.16380235238E+02  0.30884838495E+02  0.51100000000E-03 0. -1.
        -11    1    3    3    0    0 -0.12630293283E+02  0.52486059265E+01  0.98233991263E+00  0.13712664386E+02  0.51100000000E-03 0.  1.
        -12    1    3    3    0    0  0.13853495412E+02  0.24100779981E+02 -0.19069239611E+01  0.27864014244E+02  0.00000000000E+00 0.  1.
</event>
<event>
 7    1  0.2932676E-013  0.7246159E+02  0.7816164E-02  0.1226708E+00
        -11   -1    0    0    0    0  0.00000000000E+00  0.00000000000E+00  0.45593999997E+02  0.45594000000E+02  0.51100000000E-03 0.  1.
         11   -1    0    0    0    0 -0.00000000000E+00 -0.00000000000E+00 -0.45593999997E+02  0.45594000000E+02  0.51100000000E-03 0. -1.
    9900012    2    1    2    0    0  0.15300259549E+02 -0.95214308961E+01  0.50914617488E+01  0.72461586266E+02  0.70000020806E+02 0.  0.
         12    1    1    2    0    0 -0.15300259549E+02  0.95214308961E+01 -0.50914617488E+01  0.18726413734E+02  0.00000000000E+00 0. -1.
         11    1    3    3    0    0  0.26334073451E+02 -0.74579279271E+01  0.22691929854E+02  0.35553168555E+02  0.51100000000E-03 0. -1.
        -11    1    3    3    0    0  0.89047283116E+00  0.29040235005E+01  0.78226976569E+01  0.83917157511E+01  0.51100000000E-03 0.  1.
         12    1    3    3    0    0 -0.11924286733E+02 -0.49675264695E+01 -0.25423165763E+02  0.28516701961E+02  0.00000000000E+00 0. -1.
</event>
<event>
 7    1  0.2932676E-013  0.7246157E+02  0.7816164E-02  0.1226708E+00
        -11   -1    0    0    0    0  0.00000000000E+00  0.00000000000E+00  0.45593999997E+02  0.45594000000E+02  0.51100000000E-03 0. -1.
         11   -1    0    0    0    0 -0.00000000000E+00 -0.00000000000E+00 -0.45593999997E+02  0.45594000000E+02  0.51100000000E-03 0.  1.
    9900012    2    1    2    0    0  0.81049188637E+00 -0.54562965867E+01 -0.17895560488E+02  0.72461570690E+02  0.70000000515E+02 0.  0.
         12    1    1    2    0    0 -0.81049188637E+00  0.54562965867E+01  0.17895560488E+02  0.18726429310E+02  0.00000000000E+00 0. -1.
         11    1    3    3    0    0  0.21964925626E+02  0.31526422918E+01  0.14485084923E+02  0.26499335778E+02  0.51100000000E-03 0. -1.
        -11    1    3    3    0    0  0.25355741737E+01 -0.50559337811E+01 -0.15925314511E+02  0.16899918501E+02  0.51100000000E-03 0.  1.
        -12    1    3    3    0    0 -0.23690007913E+02 -0.35530050973E+01 -0.16455330900E+02  0.29062316411E+02  0.00000000000E+00 0.  1.
</event>
<event>
 7    1  0.2932676E-013  0.7246152E+02  0.7816164E-02  0.1226708E+00
        -11   -1    0    0    0    0  0.00000000000E+00  0.00000000000E+00  0.45593999997E+02  0.45594000000E+02  0.51100000000E-03 0.  1.
         11   -1    0    0    0    0 -0.00000000000E+00 -0.00000000000E+00 -0.45593999997E+02  0.45594000000E+02  0.51100000000E-03 0. -1.
    9900012    2    1    2    0    0  0.39360419915E+00  0.12360991256E+02  0.14061721387E+02  0.72461520420E+02  0.69999935029E+02 0.  0.
         12    1    1    2    0    0 -0.39360419915E+00 -0.12360991256E+02 -0.14061721387E+02  0.18726479580E+02  0.00000000000E+00 0. -1.
         11    1    3    3    0    0  0.25068419846E+02  0.22732949286E+02  0.11958647842E+02  0.35891808470E+02  0.51100000000E-03 0. -1.
        -11    1    3    3    0    0 -0.19095705805E+02  0.53386944241E+01  0.15551870333E+01  0.19888847260E+02  0.51100000000E-03 0.  1.
         12    1    3    3    0    0 -0.55791098409E+01 -0.15710652454E+02  0.54788651191E+00  0.16680864689E+02  0.00000000000E+00 0. -1.
</event>
<event>
 7    1  0.2932676E-013  0.7246149E+02  0.7816164E-02  0.1226708E+00
        -11   -1    0    0    0    0  0.00000000000E+00  0.00000000000E+00  0.45593999997E+02  0.45594000000E+02  0.51100000000E-03 0.  1.
         11   -1    0    0    0    0 -0.00000000000E+00 -0.00000000000E+00 -0.45593999997E+02  0.45594000000E+02  0.51100000000E-03 0. -1.
    9900012    2    1    2    0    0  0.47298927783E+01 -0.16362755571E+02  0.77827059386E+01  0.72461490253E+02  0.69999895731E+02 0.  0.
         12    1    1    2    0    0 -0.47298927783E+01  0.16362755571E+02 -0.77827059386E+01  0.18726509747E+02  0.00000000000E+00 0. -1.
         11    1    3    3    0    0 -0.62985498045E+01  0.41162486054E+01  0.12331496926E+02  0.14445796929E+02  0.51100000000E-03 0. -1.
        -11    1    3    3    0    0  0.22794503685E+01 -0.36593535148E+02  0.55501906238E+01  0.37082169904E+02  0.51100000000E-03 0.  1.
         12    1    3    3    0    0  0.87489922143E+01  0.16114530971E+02 -0.10098981611E+02  0.20933523420E+02  0.00000000000E+00 0. -1.
</event>
<event>
 7    1  0.2932676E-013  0.7246157E+02  0.7816164E-02  0.1226708E+00
        -11   -1    0    0    0    0  0.00000000000E+00  0.00000000000E+00  0.45593999997E+02  0.45594000000E+02  0.51100000000E-03 0. -1.
         11   -1    0    0    0    0 -0.00000000000E+00 -0.00000000000E+00 -0.45593999997E+02  0.45594000000E+02  0.51100000000E-03 0.  1.
    9900012    2    1    2    0    0 -0.16886237796E+02  0.64307600126E+01  0.49172587671E+01  0.72461571215E+02  0.70000001200E+02 0.  0.
         12    1    1    2    0    0  0.16886237796E+02 -0.64307600126E+01 -0.49172587671E+01  0.18726428785E+02  0.00000000000E+00 0. -1.
         11    1    3    3    0    0  0.16135958178E+02 -0.52428848176E+01 -0.10077198008E+02  0.19733395741E+02  0.51100000000E-03 0.  1.
        -11    1    3    3    0    0  0.14900075920E+01  0.11146447441E+02  0.14316748102E+02  0.18205292902E+02  0.51100000000E-03 0. -1.
         12    1    3    3    0    0 -0.34512203566E+02  0.52719738950E+00  0.67770867331E+00  0.34522882572E+02  0.00000000000E+00 0. -1.
</event>
<event>
 7    1  0.2932676E-013  0.7246154E+02  0.7816164E-02  0.1226708E+00
        -11   -1    0    0    0    0  0.00000000000E+00  0.00000000000E+00  0.45593999997E+02  0.45594000000E+02  0.51100000000E-03 0.  1.
         11   -1    0    0    0    0 -0.00000000000E+00 -0.00000000000E+00 -0.45593999997E+02  0.45594000000E+02  0.51100000000E-03 0. -1.
    9900012    2    1    2    0    0 -0.13799854433E+02  0.97700876114E+00 -0.12621011683E+02  0.72461535721E+02  0.69999954962E+02 0.  0.
         12    1    1    2    0    0  0.13799854433E+02 -0.97700876114E+00  0.12621011683E+02  0.18726464279E+02  0.00000000000E+00 0. -1.
         11    1    3    3    0    0 -0.13661479357E+01 -0.87375254357E+01  0.96210034436E+01  0.13068068658E+02  0.51100000000E-03 0. -1.
        -11    1    3    3    0    0  0.16923447932E+02  0.14977579373E+02 -0.71451036742E+00  0.22610650126E+02  0.51100000000E-03 0.  1.
         12    1    3    3    0    0 -0.29357154429E+02 -0.52630451759E+01 -0.21527504759E+02  0.36782816938E+02  0.00000000000E+00 0. -1.
</event>
<event>
 7    1  0.2932676E-013  0.7246158E+02  0.7816164E-02  0.1226708E+00
        -11   -1    0    0    0    0  0.00000000000E+00  0.00000000000E+00  0.45593999997E+02  0.45594000000E+02  0.51100000000E-03 0.  1.
         11   -1    0    0    0    0 -0.00000000000E+00 -0.00000000000E+00 -0.45593999997E+02  0.45594000000E+02  0.51100000000E-03 0. -1.
    9900012    2    1    2    0    0  0.95270127294E+01 -0.14999918009E+02  0.59090906154E+01  0.72461578459E+02  0.70000010636E+02 0.  0.
         12    1    1    2    0    0 -0.95270127294E+01  0.14999918009E+02 -0.59090906154E+01  0.18726421541E+02  0.00000000000E+00 0. -1.
         11    1    3    3    0    0 -0.22353372726E+02 -0.73879296428E+00  0.42079752827E+01  0.22757990761E+02  0.51100000000E-03 0. -1.
        -11    1    3    3    0    0 -0.42232664610E+01 -0.27093928924E+01 -0.90097599162E+01  0.10312737922E+02  0.51100000000E-03 0.  1.
        -12    1    3    3    0    0  0.36103651916E+02 -0.11551732153E+02  0.10710875249E+02  0.39390849775E+02  0.00000000000E+00 0.  1.
</event>
<event>
 7    1  0.2932676E-013  0.7246154E+02  0.7816164E-02  0.1226708E+00
        -11   -1    0    0    0    0  0.00000000000E+00  0.00000000000E+00  0.45593999997E+02  0.45594000000E+02  0.51100000000E-03 0. -1.
         11   -1    0    0    0    0 -0.00000000000E+00 -0.00000000000E+00 -0.45593999997E+02  0.45594000000E+02  0.51100000000E-03 0.  1.
    9900012    2    1    2    0    0  0.51816350612E+01  0.15807654068E+02  0.85993632238E+01  0.72461539659E+02  0.69999960092E+02 0.  0.
         12    1    1    2    0    0 -0.51816350612E+01 -0.15807654068E+02 -0.85993632238E+01  0.18726460341E+02  0.00000000000E+00 0. -1.
         11    1    3    3    0    0 -0.15688242754E+01 -0.14410232240E+02  0.10253512871E+02  0.17755295809E+02  0.51100000000E-03 0. -1.
        -11    1    3    3    0    0  0.15419630458E+01  0.26200658971E+02  0.19407048630E+02  0.32641778710E+02  0.51100000000E-03 0.  1.
        -12    1    3    3    0    0  0.52084962908E+01  0.40172273366E+01 -0.21061198277E+02  0.22064465141E+02  0.00000000000E+00 0.  1.
</event>
<event>
 7    1  0.2932676E-013  0.7246161E+02  0.7816164E-02  0.1226708E+00
        -11   -1    0    0    0    0  0.00000000000E+00  0.00000000000E+00  0.45593999997E+02  0.45594000000E+02  0.51100000000E-03 0. -1.
         11   -1    0    0    0    0 -0.00000000000E+00 -0.00000000000E+00 -0.45593999997E+02  0.45594000000E+02  0.51100000000E-03 0.  1.
    9900012    2    1    2    0    0 -0.17873886687E+02 -0.18536278077E+01  0.52693406771E+01  0.72461609197E+02  0.70000050678E+02 0.  0.
         12    1    1    2    0    0  0.17873886687E+02  0.18536278077E+01 -0.52693406771E+01  0.18726390803E+02  0.00000000000E+00 0. -1.
         11    1    3    3    0    0 -0.11026621749E+02 -0.16065552972E+02  0.20598054383E+02  0.28354333428E+02  0.51100000000E-03 0. -1.
        -11    1    3    3    0    0  0.11052851871E+02  0.24774467115E+01  0.68885949764E+01  0.13257300544E+02  0.51100000000E-03 0.  1.
        -12    1    3    3    0    0 -0.17900116808E+02  0.11734478453E+02 -0.22217308683E+02  0.30849975226E+02  0.00000000000E+00 0.  1.
</event>
<event>
 7    1  0.2932676E-013  0.7246157E+02  0.7816164E-02  0.1226708E+00
        -11   -1    0    0    0    0  0.00000000000E+00  0.00000000000E+00  0.45593999997E+02  0.45594000000E+02  0.51100000000E-03 0.  1.
         11   -1    0    0    0    0 -0.00000000000E+00 -0.00000000000E+00 -0.45593999997E+02  0.45594000000E+02  0.51100000000E-03 0. -1.
    9900012    2    1    2    0    0  0.12814877872E+02  0.47998095665E+01  0.12783584396E+02  0.72461566897E+02  0.69999995574E+02 0.  0.
         12    1    1    2    0    0 -0.12814877872E+02 -0.47998095665E+01 -0.12783584396E+02  0.18726433103E+02  0.00000000000E+00 0. -1.
         11    1    3    3    0    0  0.25633870072E+02 -0.10523642660E+02  0.13769691030E+02  0.30942636298E+02  0.51100000000E-03 0. -1.
        -11    1    3    3    0    0  0.14458150981E+01 -0.96218735152E+01 -0.72181600076E+01  0.12114976905E+02  0.51100000000E-03 0.  1.
         12    1    3    3    0    0 -0.14264807298E+02  0.24945325742E+02  0.62320533734E+01  0.29403953695E+02  0.00000000000E+00 0. -1.
</event>
<event>
 7    1  0.2932676E-013  0.7246157E+02  0.7816164E-02  0.1226708E+00
        -11   -1    0    0    0    0  0.00000000000E+00  0.00000000000E+00  0.45593999997E+02  0.45594000000E+02  0.51100000000E-03 0.  1.
         11   -1    0    0    0    0 -0.00000000000E+00 -0.00000000000E+00 -0.45593999997E+02  0.45594000000E+02  0.51100000000E-03 0. -1.
    9900012    2    1    2    0    0  0.67310383491E+01 -0.16842005137E+01  0.17393559827E+02  0.72461565953E+02  0.69999994345E+02 0.  0.
         12    1    1    2    0    0 -0.67310383491E+01  0.16842005137E+01 -0.17393559827E+02  0.18726434047E+02  0.00000000000E+00 0. -1.
         11    1    3    3    0    0 -0.10031364023E+02  0.14251981833E+02 -0.17142436537E+02  0.24446070871E+02  0.51100000000E-03 0. -1.
        -11    1    3    3    0    0  0.46427268730E+01 -0.19098273715E+01 -0.32131959804E+01  0.59604514993E+01  0.51100000000E-03 0.  1.
        -12    1    3    3    0    0  0.12119675499E+02 -0.14026354976E+02  0.37749192345E+02  0.42055043583E+02  0.00000000000E+00 0.  1.
</event>
<event>
 7    1  0.2932676E-013  0.7246156E+02  0.7816164E-02  0.1226708E+00
        -11   -1    0    0    0    0  0.00000000000E+00  0.00000000000E+00  0.45593999997E+02  0.45594000000E+02  0.51100000000E-03 0.  1.
         11   -1    0    0    0    0 -0.00000000000E+00 -0.00000000000E+00 -0.45593999997E+02  0.45594000000E+02  0.51100000000E-03 0. -1.
    9900012    2    1    2    0    0 -0.12809315971E+01  0.17631077334E+02  0.61793111460E+01  0.72461559870E+02  0.69999986420E+02 0.  0.
         12    1    1    2    0    0  0.12809315971E+01 -0.17631077334E+02 -0.61793111460E+01  0.18726440130E+02  0.00000000000E+00 0. -1.
         11    1    3    3    0    0  0.55551319664E+01  0.12707559463E+01 -0.14484132334E+02  0.15564845054E+02  0.51100000000E-03 0. -1.
        -11    1    3    3    0    0  0.14827152907E+02  0.19489191175E+02 -0.29897360479E+01  0.24670053869E+02  0.51100000000E-03 0.  1.
        -12    1    3    3    0    0 -0.21663216471E+02 -0.31288697874E+01  0.23653179528E+02  0.32226660947E+02  0.00000000000E+00 0.  1.
</event>
<event>
 7    1  0.2932676E-013  0.7246153E+02  0.7816164E-02  0.1226708E+00
        -11   -1    0    0    0    0  0.00000000000E+00  0.00000000000E+00  0.45593999997E+02  0.45594000000E+02  0.51100000000E-03 0. -1.
         11   -1    0    0    0    0 -0.00000000000E+00 -0.00000000000E+00 -0.45593999997E+02  0.45594000000E+02  0.51100000000E-03 0.  1.
    9900012    2    1    2    0    0 -0.15090570056E+02 -0.10740768118E+02  0.27551988245E+01  0.72461534104E+02  0.69999952855E+02 0.  0.
         12    1    1    2    0    0  0.15090570056E+02  0.10740768118E+02 -0.27551988245E+01  0.18726465896E+02  0.00000000000E+00 0. -1.
         11    1    3    3    0    0  0.27755879948E+01 -0.21360111800E+02  0.13599506127E+02  0.25473610502E+02  0.51100000000E-03 0. -1.
        -11    1    3    3    0    0  0.68028969457E+01 -0.10940790563E+02 -0.42657078893E+01  0.13571166827E+02  0.51100000000E-03 0.  1.
        -12    1    3    3    0    0 -0.24669054997E+02  0.21560134245E+02 -0.65785994130E+01  0.33416756775E+02  0.00000000000E+00 0.  1.
</event>
<event>
 7    1  0.2932676E-013  0.7246155E+02  0.7816164E-02  0.1226708E+00
        -11   -1    0    0    0    0  0.00000000000E+00  0.00000000000E+00  0.45593999997E+02  0.45594000000E+02  0.51100000000E-03 0.  1.
         11   -1    0    0    0    0 -0.00000000000E+00 -0.00000000000E+00 -0.45593999997E+02  0.45594000000E+02  0.51100000000E-03 0. -1.
    9900012    2    1    2    0    0  0.11821593632E+02 -0.39588917500E+01  0.13973436592E+02  0.72461552657E+02  0.69999977025E+02 0.  0.
         12    1    1    2    0    0 -0.11821593632E+02  0.39588917500E+01 -0.13973436592E+02  0.18726447343E+02  0.00000000000E+00 0. -1.
         11    1    3    3    0    0  0.68280219594E+01  0.17393037005E+02  0.43313850245E+01  0.19180732954E+02  0.51100000000E-03 0. -1.
        -11    1    3    3    0    0  0.19504914397E+02  0.16059803375E+01  0.16125029315E+02  0.25358182686E+02  0.51100000000E-03 0.  1.
        -12    1    3    3    0    0 -0.14511342724E+02 -0.22957909093E+02 -0.64829777473E+01  0.27922637018E+02  0.00000000000E+00 0.  1.
</event>
<event>
 7    1  0.2932676E-013  0.7246160E+02  0.7816164E-02  0.1226708E+00
        -11   -1    0    0    0    0  0.00000000000E+00  0.00000000000E+00  0.45593999997E+02  0.45594000000E+02  0.51100000000E-03 0.  1.
         11   -1    0    0    0    0 -0.00000000000E+00 -0.00000000000E+00 -0.45593999997E+02  0.45594000000E+02  0.51100000000E-03 0. -1.
    9900012    2    1    2    0    0  0.10235718223E+02 -0.15724956217E+01  0.15602415968E+02  0.72461600077E+02  0.70000038797E+02 0.  0.
         12    1    1    2    0    0 -0.10235718223E+02  0.15724956217E+01 -0.15602415968E+02  0.18726399923E+02  0.00000000000E+00 0. -1.
         11    1    3    3    0    0 -0.12763602626E+01 -0.15816623150E+02  0.36216561762E+01  0.16276088507E+02  0.51100000000E-03 0. -1.
        -11    1    3    3    0    0  0.31256110268E+02  0.22924279974E+01  0.32437681516E+01  0.31507486211E+02  0.51100000000E-03 0.  1.
        -12    1    3    3    0    0 -0.19744031782E+02  0.11951699530E+02  0.87369916406E+01  0.24678025359E+02  0.00000000000E+00 0.  1.
</event>
<event>
 7    1  0.2932676E-013  0.7246200E+02  0.7816164E-02  0.1226707E+00
        -11   -1    0    0    0    0  0.00000000000E+00  0.00000000000E+00  0.45593999997E+02  0.45594000000E+02  0.51100000000E-03 0.  1.
         11   -1    0    0    0    0 -0.00000000000E+00 -0.00000000000E+00 -0.45593999997E+02  0.45594000000E+02  0.51100000000E-03 0. -1.
    9900012    2    1    2    0    0  0.14802180089E+01  0.58531093962E+01  0.17726058432E+02  0.72461999827E+02  0.70000559543E+02 0.  0.
         12    1    1    2    0    0 -0.14802180089E+01 -0.58531093962E+01 -0.17726058432E+02  0.18726000173E+02  0.00000000000E+00 0. -1.
         11    1    3    3    0    0  0.21866282359E+02 -0.26313239138E+01 -0.10910765437E+02  0.24578506310E+02  0.51100000000E-03 0. -1.
        -11    1    3    3    0    0  0.73593280968E+01 -0.34357326356E+01  0.50260464799E+01  0.95511838146E+01  0.51100000000E-03 0.  1.
        -12    1    3    3    0    0 -0.27745392447E+02  0.11920165946E+02  0.23610777389E+02  0.38332309702E+02  0.00000000000E+00 0.  1.
</event>
<event>
 7    1  0.2932676E-013  0.7246151E+02  0.7816164E-02  0.1226708E+00
        -11   -1    0    0    0    0  0.00000000000E+00  0.00000000000E+00  0.45593999997E+02  0.45594000000E+02  0.51100000000E-03 0. -1.
         11   -1    0    0    0    0 -0.00000000000E+00 -0.00000000000E+00 -0.45593999997E+02  0.45594000000E+02  0.51100000000E-03 0.  1.
    9900012    2    1    2    0    0 -0.79238070394E+01 -0.16797600448E+02 -0.23948642387E+01  0.72461508777E+02  0.69999919862E+02 0.  0.
         12    1    1    2    0    0  0.79238070394E+01  0.16797600448E+02  0.23948642387E+01  0.18726491223E+02  0.00000000000E+00 0. -1.
         11    1    3    3    0    0  0.22234463537E+02 -0.38522984446E+01 -0.55369704258E+01  0.23235094444E+02  0.51100000000E-03 0. -1.
        -11    1    3    3    0    0  0.71397135131E+00 -0.16596278695E+02  0.67494190648E+01  0.17930445605E+02  0.51100000000E-03 0.  1.
        -12    1    3    3    0    0 -0.30872241927E+02  0.36509766911E+01 -0.36073128777E+01  0.31295968728E+02  0.00000000000E+00 0.  1.
</event>
<event>
 7    1  0.2932676E-013  0.7246166E+02  0.7816164E-02  0.1226708E+00
        -11   -1    0    0    0    0  0.00000000000E+00  0.00000000000E+00  0.45593999997E+02  0.45594000000E+02  0.51100000000E-03 0.  1.
         11   -1    0    0    0    0 -0.00000000000E+00 -0.00000000000E+00 -0.45593999997E+02  0.45594000000E+02  0.51100000000E-03 0. -1.
    9900012    2    1    2    0    0  0.12213895339E+02  0.13597054369E+02  0.40763484403E+01  0.72461661771E+02  0.70000119165E+02 0.  0.
         12    1    1    2    0    0 -0.12213895339E+02 -0.13597054369E+02 -0.40763484403E+01  0.18726338229E+02  0.00000000000E+00 0. -1.
         11    1    3    3    0    0  0.26269817755E+02  0.27653415612E+02  0.68624057489E+01  0.38754449201E+02  0.51100000000E-03 0. -1.
        -11    1    3    3    0    0 -0.53109094536E+01  0.77451115862E+01  0.23095072622E+01  0.96709015486E+01  0.51100000000E-03 0.  1.
        -12    1    3    3    0    0 -0.87450129626E+01 -0.21801472829E+02 -0.50955645708E+01  0.24036311022E+02  0.00000000000E+00 0.  1.
</event>
<event>
 7    1  0.2932676E-013  0.7246147E+02  0.7816164E-02  0.1226708E+00
        -11   -1    0    0    0    0  0.00000000000E+00  0.00000000000E+00  0.45593999997E+02  0.45594000000E+02  0.51100000000E-03 0.  1.
         11   -1    0    0    0    0 -0.00000000000E+00 -0.00000000000E+00 -0.45593999997E+02  0.45594000000E+02  0.51100000000E-03 0. -1.
    9900012    2    1    2    0    0  0.82623893565E+01 -0.16621252915E+02 -0.24799102348E+01  0.72461465854E+02  0.69999863948E+02 0.  0.
         12    1    1    2    0    0 -0.82623893565E+01  0.16621252915E+02  0.24799102348E+01  0.18726534146E+02  0.00000000000E+00 0. -1.
         11    1    3    3    0    0  0.28980654492E+02 -0.18682743777E+02 -0.13681995661E+02  0.37096094880E+02  0.51100000000E-03 0. -1.
        -11    1    3    3    0    0  0.50379383669E+01  0.30433249372E+01 -0.22378422886E+01  0.62968712891E+01  0.51100000000E-03 0.  1.
        -12    1    3    3    0    0 -0.25756203502E+02 -0.98183407530E+00  0.13439927715E+02  0.29068499686E+02  0.00000000000E+00 0.  1.
</event>
<event>
 7    1  0.2932676E-013  0.7246159E+02  0.7816164E-02  0.1226708E+00
        -11   -1    0    0    0    0  0.00000000000E+00  0.00000000000E+00  0.45593999997E+02  0.45594000000E+02  0.51100000000E-03 0.  1.
         11   -1    0    0    0    0 -0.00000000000E+00 -0.00000000000E+00 -0.45593999997E+02  0.45594000000E+02  0.51100000000E-03 0. -1.
    9900012    2    1    2    0    0  0.18365684430E+02 -0.23727330051E+01  0.27839304654E+01  0.72461588296E+02  0.70000023450E+02 0.  0.
         12    1    1    2    0    0 -0.18365684430E+02  0.23727330051E+01 -0.27839304654E+01  0.18726411704E+02  0.00000000000E+00 0. -1.
         11    1    3    3    0    0  0.14567164338E+02  0.14877366311E+02  0.48465247992E+01  0.21378192349E+02  0.51100000000E-03 0. -1.
        -11    1    3    3    0    0  0.17528424849E+02 -0.24615442171E+02  0.95047813986E+01  0.31678171359E+02  0.51100000000E-03 0.  1.
         12    1    3    3    0    0 -0.13729904757E+02  0.73653428543E+01 -0.11567375732E+02  0.19405224588E+02  0.00000000000E+00 0. -1.
</event>
<event>
 7    1  0.2932676E-013  0.7246156E+02  0.7816164E-02  0.1226708E+00
        -11   -1    0    0    0    0  0.00000000000E+00  0.00000000000E+00  0.45593999997E+02  0.45594000000E+02  0.51100000000E-03 0. -1.
         11   -1    0    0    0    0 -0.00000000000E+00 -0.00000000000E+00 -0.45593999997E+02  0.45594000000E+02  0.51100000000E-03 0.  1.
    9900012    2    1    2    0    0  0.40829665918E+01  0.95764543163E+01 -0.15565999142E+02  0.72461563533E+02  0.69999991192E+02 0.  0.
         12    1    1    2    0    0 -0.40829665918E+01 -0.95764543163E+01  0.15565999142E+02  0.18726436467E+02  0.00000000000E+00 0. -1.
         11    1    3    3    0    0 -0.94894574212E+01 -0.13751552174E+02 -0.37438332056E+01  0.17122245083E+02  0.51100000000E-03 0. -1.
        -11    1    3    3    0    0 -0.15166913880E+02  0.15833404225E+02  0.30271478567E+01  0.22133585123E+02  0.51100000000E-03 0.  1.
        -12    1    3    3    0    0  0.28739337893E+02  0.74946022652E+01 -0.14849313793E+02  0.33205733327E+02  0.00000000000E+00 0.  1.
</event>
<event>
 7    1  0.2932676E-013  0.7246158E+02  0.7816164E-02  0.1226708E+00
        -11   -1    0    0    0    0  0.00000000000E+00  0.00000000000E+00  0.45593999997E+02  0.45594000000E+02  0.51100000000E-03 0.  1.
         11   -1    0    0    0    0 -0.00000000000E+00 -0.00000000000E+00 -0.45593999997E+02  0.45594000000E+02  0.51100000000E-03 0. -1.
    9900012    2    1    2    0    0  0.17017938909E+02 -0.73800478882E+01  0.25697519299E+01  0.72461575448E+02  0.70000006713E+02 0.  0.
         12    1    1    2    0    0 -0.17017938909E+02  0.73800478882E+01 -0.25697519299E+01  0.18726424552E+02  0.00000000000E+00 0. -1.
         11    1    3    3    0    0 -0.20189427895E+02  0.21081599159E+01  0.35235308598E+01  0.20602732997E+02  0.51100000000E-03 0. -1.
        -11    1    3    3    0    0  0.38621099746E+01 -0.16001740133E+02  0.53392888840E+01  0.17305478520E+02  0.51100000000E-03 0.  1.
        -12    1    3    3    0    0  0.33345256829E+02  0.65135323293E+01 -0.62930678139E+01  0.34553363931E+02  0.00000000000E+00 0.  1.
</event>
<event>
 7    1  0.2932676E-013  0.7246173E+02  0.7816164E-02  0.1226708E+00
        -11   -1    0    0    0    0  0.00000000000E+00  0.00000000000E+00  0.45593999997E+02  0.45594000000E+02  0.51100000000E-03 0.  1.
         11   -1    0    0    0    0 -0.00000000000E+00 -0.00000000000E+00 -0.45593999997E+02  0.45594000000E+02  0.51100000000E-03 0. -1.
    9900012    2    1    2    0    0 -0.17760921007E+02 -0.20238642102E+01  0.55791356564E+01  0.72461732458E+02  0.70000211248E+02 0.  0.
         12    1    1    2    0    0  0.17760921007E+02  0.20238642102E+01 -0.55791356564E+01  0.18726267542E+02  0.00000000000E+00 0. -1.
         11    1    3    3    0    0 -0.93495572891E+01  0.10926213955E+01  0.10252387615E+02  0.13918315095E+02  0.51100000000E-03 0. -1.
        -11    1    3    3    0    0 -0.25895445053E+02  0.10748117180E+01  0.16532373283E+02  0.30741643764E+02  0.51100000000E-03 0.  1.
         12    1    3    3    0    0  0.17484081334E+02 -0.41912973237E+01 -0.21205625242E+02  0.27801773599E+02  0.00000000000E+00 0. -1.
</event>
<event>
 7    1  0.2932676E-013  0.7246165E+02  0.7816164E-02  0.1226708E+00
        -11   -1    0    0    0    0  0.00000000000E+00  0.00000000000E+00  0.45593999997E+02  0.45594000000E+02  0.51100000000E-03 0.  1.
         11   -1    0    0    0    0 -0.00000000000E+00 -0.00000000000E+00 -0.45593999997E+02  0.45594000000E+02  0.51100000000E-03 0. -1.
    9900012    2    1    2    0    0 -0.17324540129E+02  0.70210796636E+01 -0.11139669025E+01  0.72461650314E+02  0.70000104240E+02 0.  0.
         12    1    1    2    0    0  0.17324540129E+02 -0.70210796636E+01  0.11139669025E+01  0.18726349686E+02  0.00000000000E+00 0. -1.
         11    1    3    3    0    0 -0.17524666058E+01 -0.16438605059E+02  0.12447428183E+02  0.20693896301E+02  0.51100000000E-03 0. -1.
        -11    1    3    3    0    0 -0.78581330321E+01 -0.11513671284E+02 -0.17119304304E+01  0.14044414806E+02  0.51100000000E-03 0.  1.
         12    1    3    3    0    0 -0.77139404908E+01  0.34973356007E+02 -0.11849464655E+02  0.37723339206E+02  0.00000000000E+00 0. -1.
</event>
<event>
 7    1  0.2932676E-013  0.7246154E+02  0.7816164E-02  0.1226708E+00
        -11   -1    0    0    0    0  0.00000000000E+00  0.00000000000E+00  0.45593999997E+02  0.45594000000E+02  0.51100000000E-03 0.  1.
         11   -1    0    0    0    0 -0.00000000000E+00 -0.00000000000E+00 -0.45593999997E+02  0.45594000000E+02  0.51100000000E-03 0. -1.
    9900012    2    1    2    0    0  0.38020708764E+01  0.17888622714E+02 -0.40275998699E+01  0.72461544749E+02  0.69999966722E+02 0.  0.
         12    1    1    2    0    0 -0.38020708764E+01 -0.17888622714E+02  0.40275998699E+01  0.18726455251E+02  0.00000000000E+00 0. -1.
         11    1    3    3    0    0  0.19272366179E+02  0.89055883806E+01  0.11381160577E+02  0.24088678230E+02  0.51100000000E-03 0. -1.
        -11    1    3    3    0    0  0.52823011065E+01  0.89255158685E+01  0.10779524795E+02  0.14958799870E+02  0.51100000000E-03 0.  1.
         12    1    3    3    0    0 -0.20752596409E+02  0.57518465312E-01 -0.26188285241E+02  0.33414066648E+02  0.00000000000E+00 0. -1.
</event>
<event>
 7    1  0.2932676E-013  0.7246153E+02  0.7816164E-02  0.1226708E+00
        -11   -1    0    0    0    0  0.00000000000E+00  0.00000000000E+00  0.45593999997E+02  0.45594000000E+02  0.51100000000E-03 0. -1.
         11   -1    0    0    0    0 -0.00000000000E+00 -0.00000000000E+00 -0.45593999997E+02  0.45594000000E+02  0.51100000000E-03 0.  1.
    9900012    2    1    2    0    0  0.13775835107E+02  0.79466083554E+01 -0.98872788543E+01  0.72461534759E+02  0.69999953709E+02 0.  0.
         12    1    1    2    0    0 -0.13775835107E+02 -0.79466083554E+01  0.98872788543E+01  0.18726465241E+02  0.00000000000E+00 0. -1.
         11    1    3    3    0    0 -0.28507521795E+01  0.41698168073E+01  0.86801448414E+01  0.10042861889E+02  0.51100000000E-03 0. -1.
        -11    1    3    3    0    0 -0.18286726885E+02  0.12680513842E+02 -0.13514336335E+02  0.26035304843E+02  0.51100000000E-03 0.  1.
        -12    1    3    3    0    0  0.34913314172E+02 -0.89037222936E+01 -0.50530873609E+01  0.36383368027E+02  0.00000000000E+00 0.  1.
</event>
<event>
 7    1  0.2932676E-013  0.7246161E+02  0.7816164E-02  0.1226708E+00
        -11   -1    0    0    0    0  0.00000000000E+00  0.00000000000E+00  0.45593999997E+02  0.45594000000E+02  0.51100000000E-03 0. -1.
         11   -1    0    0    0    0 -0.00000000000E+00 -0.00000000000E+00 -0.45593999997E+02  0.45594000000E+02  0.51100000000E-03 0.  1.
    9900012    2    1    2    0    0  0.99639788245E+01 -0.12709713397E+02 -0.94794549977E+01  0.72461608044E+02  0.70000049176E+02 0.  0.
         12    1    1    2    0    0 -0.99639788245E+01  0.12709713397E+02  0.94794549977E+01  0.18726391956E+02  0.00000000000E+00 0. -1.
         11    1    3    3    0    0  0.28588812523E+02  0.18030073587E+01 -0.14231637390E+02  0.31986099169E+02  0.51100000000E-03 0. -1.
        -11    1    3    3    0    0 -0.68789959399E+01 -0.18268543996E+01 -0.13545811360E+02  0.15301862233E+02  0.51100000000E-03 0.  1.
        -12    1    3    3    0    0 -0.11745837759E+02 -0.12685866356E+02  0.18297993752E+02  0.25173646641E+02  0.00000000000E+00 0.  1.
</event>
<event>
 7    1  0.2932676E-013  0.7246164E+02  0.7816164E-02  0.1226708E+00
        -11   -1    0    0    0    0  0.00000000000E+00  0.00000000000E+00  0.45593999997E+02  0.45594000000E+02  0.51100000000E-03 0.  1.
         11   -1    0    0    0    0 -0.00000000000E+00 -0.00000000000E+00 -0.45593999997E+02  0.45594000000E+02  0.51100000000E-03 0. -1.
    9900012    2    1    2    0    0  0.64448631094E+01  0.14263101449E+02  0.10281263773E+02  0.72461636012E+02  0.70000085610E+02 0.  0.
         12    1    1    2    0    0 -0.64448631094E+01 -0.14263101449E+02 -0.10281263773E+02  0.18726363988E+02  0.00000000000E+00 0. -1.
         11    1    3    3    0    0 -0.10875524950E+02 -0.13593228043E+02  0.23607106791E+02  0.29331695875E+02  0.51100000000E-03 0. -1.
        -11    1    3    3    0    0 -0.46934780359E+01 -0.70309244350E+00 -0.30271202839E+01  0.56290791904E+01  0.51100000000E-03 0.  1.
        -12    1    3    3    0    0  0.22013866096E+02  0.28559421936E+02 -0.10298722735E+02  0.37500860947E+02  0.00000000000E+00 0.  1.
</event>
<event>
 7    1  0.2932676E-013  0.7246157E+02  0.7816164E-02  0.1226708E+00
        -11   -1    0    0    0    0  0.00000000000E+00  0.00000000000E+00  0.45593999997E+02  0.45594000000E+02  0.51100000000E-03 0.  1.
         11   -1    0    0    0    0 -0.00000000000E+00 -0.00000000000E+00 -0.45593999997E+02  0.45594000000E+02  0.51100000000E-03 0. -1.
    9900012    2    1    2    0    0  0.74799899902E+01 -0.16633628669E+02  0.42486729818E+01  0.72461572816E+02  0.70000003285E+02 0.  0.
         12    1    1    2    0    0 -0.74799899902E+01  0.16633628669E+02 -0.42486729818E+01  0.18726427184E+02  0.00000000000E+00 0. -1.
         11    1    3    3    0    0 -0.15207087855E+02 -0.16019307330E+02  0.34393706800E+01  0.22354037651E+02  0.51100000000E-03 0. -1.
        -11    1    3    3    0    0  0.89683638817E+01  0.81365710993E+01  0.20960344249E+02  0.24206845545E+02  0.51100000000E-03 0.  1.
         12    1    3    3    0    0  0.13718713963E+02 -0.87508924388E+01 -0.20151041947E+02  0.25900689621E+02  0.00000000000E+00 0. -1.
</event>
<event>
 7    1  0.2932676E-013  0.7246158E+02  0.7816164E-02  0.1226708E+00
        -11   -1    0    0    0    0  0.00000000000E+00  0.00000000000E+00  0.45593999997E+02  0.45594000000E+02  0.51100000000E-03 0. -1.
         11   -1    0    0    0    0 -0.00000000000E+00 -0.00000000000E+00 -0.45593999997E+02  0.45594000000E+02  0.51100000000E-03 0.  1.
    9900012    2    1    2    0    0 -0.13824272725E+02  0.99537863086E+01 -0.77775586292E+01  0.72461580255E+02  0.70000012975E+02 0.  0.
         12    1    1    2    0    0  0.13824272725E+02 -0.99537863086E+01  0.77775586292E+01  0.18726419745E+02  0.00000000000E+00 0. -1.
         11    1    3    3    0    0 -0.51042117681E+01  0.23567772888E+01 -0.77056145427E+01  0.95385466767E+01  0.51100000000E-03 0.  1.
        -11    1    3    3    0    0 -0.52004718901E+01 -0.63129384321E+01  0.29199864220E+02  0.30323755873E+02  0.51100000000E-03 0. -1.
         12    1    3    3    0    0 -0.35195890666E+01  0.13909947452E+02 -0.29271808307E+02  0.32599277705E+02  0.00000000000E+00 0. -1.
</event>
<event>
 7    1  0.2932676E-013  0.7246156E+02  0.7816164E-02  0.1226708E+00
        -11   -1    0    0    0    0  0.00000000000E+00  0.00000000000E+00  0.45593999997E+02  0.45594000000E+02  0.51100000000E-03 0.  1.
         11   -1    0    0    0    0 -0.00000000000E+00 -0.00000000000E+00 -0.45593999997E+02  0.45594000000E+02  0.51100000000E-03 0. -1.
    9900012    2    1    2    0    0  0.99472470568E+01 -0.14840320231E+02 -0.56121784028E+01  0.72461564808E+02  0.69999992853E+02 0.  0.
         12    1    1    2    0    0 -0.99472470568E+01  0.14840320231E+02  0.56121784028E+01  0.18726435192E+02  0.00000000000E+00 0. -1.
         11    1    3    3    0    0  0.22995884144E+02 -0.12265559136E+02 -0.33094513752E+00  0.26064614968E+02  0.51100000000E-03 0. -1.
        -11    1    3    3    0    0 -0.10008625839E+02 -0.23027493907E+02 -0.55638559121E+01  0.25717592417E+02  0.51100000000E-03 0.  1.
         12    1    3    3    0    0 -0.30400112480E+01  0.20452732812E+02  0.28262264680E+00  0.20679357423E+02  0.00000000000E+00 0. -1.
</event>
<event>
 7    1  0.2932676E-013  0.7246156E+02  0.7816164E-02  0.1226708E+00
        -11   -1    0    0    0    0  0.00000000000E+00  0.00000000000E+00  0.45593999997E+02  0.45594000000E+02  0.51100000000E-03 0. -1.
         11   -1    0    0    0    0 -0.00000000000E+00 -0.00000000000E+00 -0.45593999997E+02  0.45594000000E+02  0.51100000000E-03 0.  1.
    9900012    2    1    2    0    0  0.13593189838E+02  0.11191142092E+02  0.63767526086E+01  0.72461562935E+02  0.69999990414E+02 0.  0.
         12    1    1    2    0    0 -0.13593189838E+02 -0.11191142092E+02 -0.63767526086E+01  0.18726437065E+02  0.00000000000E+00 0. -1.
         11    1    3    3    0    0  0.15896964746E+02 -0.13314763421E+01  0.15630609152E+02  0.22333881439E+02  0.51100000000E-03 0. -1.
        -11    1    3    3    0    0  0.22043905072E+02  0.69352977780E+01  0.98529023470E+00  0.23130129770E+02  0.51100000000E-03 0.  1.
         12    1    3    3    0    0 -0.24347679979E+02  0.55873206562E+01 -0.10239146778E+02  0.26997551727E+02  0.00000000000E+00 0. -1.
</event>
<event>
 7    1  0.2932676E-013  0.7246150E+02  0.7816164E-02  0.1226708E+00
        -11   -1    0    0    0    0  0.00000000000E+00  0.00000000000E+00  0.45593999997E+02  0.45594000000E+02  0.51100000000E-03 0. -1.
         11   -1    0    0    0    0 -0.00000000000E+00 -0.00000000000E+00 -0.45593999997E+02  0.45594000000E+02  0.51100000000E-03 0.  1.
    9900012    2    1    2    0    0  0.15095445955E+02 -0.86812565902E+01  0.68880437463E+01  0.72461498692E+02  0.69999906725E+02 0.  0.
         12    1    1    2    0    0 -0.15095445955E+02  0.86812565902E+01 -0.68880437463E+01  0.18726501308E+02  0.00000000000E+00 0. -1.
         11    1    3    3    0    0 -0.18551308450E+02  0.10540289209E+02  0.53502628552E+01  0.21997137421E+02  0.51100000000E-03 0.  1.
        -11    1    3    3    0    0  0.35394976459E+01 -0.18072597095E+02 -0.60682455506E+01  0.19389956515E+02  0.51100000000E-03 0. -1.
         12    1    3    3    0    0  0.30107256760E+02 -0.11489487047E+01  0.76060264417E+01  0.31074404756E+02  0.00000000000E+00 0. -1.
</event>
<event>
 7    1  0.2932676E-013  0.7246163E+02  0.7816164E-02  0.1226708E+00
        -11   -1    0    0    0    0  0.00000000000E+00  0.00000000000E+00  0.45593999997E+02  0.45594000000E+02  0.51100000000E-03 0.  1.
         11   -1    0    0    0    0 -0.00000000000E+00 -0.00000000000E+00 -0.45593999997E+02  0.45594000000E+02  0.51100000000E-03 0. -1.
    9900012    2    1    2    0    0  0.21414944448E+01  0.84965308713E+01  0.16549920186E+02  0.72461631065E+02  0.70000079165E+02 0.  0.
         12    1    1    2    0    0 -0.21414944448E+01 -0.84965308713E+01 -0.16549920186E+02  0.18726368935E+02  0.00000000000E+00 0. -1.
         11    1    3    3    0    0 -0.13712190681E+02 -0.20063103518E+02  0.16850584490E+02  0.29571853070E+02  0.51100000000E-03 0. -1.
        -11    1    3    3    0    0 -0.64051541327E+01  0.99738976712E+01  0.58932336070E+01  0.13237629577E+02  0.51100000000E-03 0.  1.
        -12    1    3    3    0    0  0.22258839259E+02  0.18585736718E+02 -0.61938979112E+01  0.29652148418E+02  0.00000000000E+00 0.  1.
</event>
<event>
 7    1  0.2932676E-013  0.7246228E+02  0.7816164E-02  0.1226706E+00
        -11   -1    0    0    0    0  0.00000000000E+00  0.00000000000E+00  0.45593999997E+02  0.45594000000E+02  0.51100000000E-03 0.  1.
         11   -1    0    0    0    0 -0.00000000000E+00 -0.00000000000E+00 -0.45593999997E+02  0.45594000000E+02  0.51100000000E-03 0. -1.
    9900012    2    1    2    0    0 -0.16158182193E+02  0.92111709017E+00  0.94189891656E+01  0.72462277975E+02  0.70000921879E+02 0.  0.
         12    1    1    2    0    0  0.16158182193E+02 -0.92111709017E+00 -0.94189891656E+01  0.18725722025E+02  0.00000000000E+00 0. -1.
         11    1    3    3    0    0 -0.40171597687E+01  0.93281012018E+00 -0.95786164708E+01  0.10428691245E+02  0.51100000000E-03 0. -1.
        -11    1    3    3    0    0 -0.16573320409E+02  0.25262319939E+02  0.20202539392E+02  0.36345596105E+02  0.51100000000E-03 0.  1.
         12    1    3    3    0    0  0.44322979852E+01 -0.25274012969E+02 -0.12049337560E+01  0.25687990625E+02  0.00000000000E+00 0. -1.
</event>
<event>
 7    1  0.2932676E-013  0.7246160E+02  0.7816164E-02  0.1226708E+00
        -11   -1    0    0    0    0  0.00000000000E+00  0.00000000000E+00  0.45593999997E+02  0.45594000000E+02  0.51100000000E-03 0. -1.
         11   -1    0    0    0    0 -0.00000000000E+00 -0.00000000000E+00 -0.45593999997E+02  0.45594000000E+02  0.51100000000E-03 0.  1.
    9900012    2    1    2    0    0  0.53283245623E+01  0.67274247560E+01 -0.16644183786E+02  0.72461597772E+02  0.70000035795E+02 0.  0.
         12    1    1    2    0    0 -0.53283245623E+01 -0.67274247560E+01  0.16644183786E+02  0.18726402228E+02  0.00000000000E+00 0. -1.
         11    1    3    3    0    0  0.39472039101E+01  0.26926691844E+02  0.15006514726E+00  0.27214879610E+02  0.51100000000E-03 0. -1.
        -11    1    3    3    0    0 -0.17555184672E+02 -0.11829650849E+02 -0.10348551551E+02  0.23563057262E+02  0.51100000000E-03 0.  1.
        -12    1    3    3    0    0  0.18936305324E+02 -0.83696162388E+01 -0.64456973822E+01  0.21683660900E+02  0.00000000000E+00 0.  1.
</event>
<event>
 7    1  0.2932676E-013  0.7246201E+02  0.7816164E-02  0.1226707E+00
        -11   -1    0    0    0    0  0.00000000000E+00  0.00000000000E+00  0.45593999997E+02  0.45594000000E+02  0.51100000000E-03 0.  1.
         11   -1    0    0    0    0 -0.00000000000E+00 -0.00000000000E+00 -0.45593999997E+02  0.45594000000E+02  0.51100000000E-03 0. -1.
    9900012    2    1    2    0    0 -0.15210949807E+02 -0.10973141073E+01  0.10866721882E+02  0.72462009059E+02  0.70000571570E+02 0.  0.
         12    1    1    2    0    0  0.15210949807E+02  0.10973141073E+01 -0.10866721882E+02  0.18725990941E+02  0.00000000000E+00 0. -1.
         11    1    3    3    0    0 -0.20090452022E+02  0.14744454255E+02  0.24622886566E+01  0.25041726366E+02  0.51100000000E-03 0. -1.
        -11    1    3    3    0    0  0.60660676339E+01  0.10092154234E+02 -0.10121285242E+02  0.15527046365E+02  0.51100000000E-03 0.  1.
        -12    1    3    3    0    0 -0.11865654186E+01 -0.25933922596E+02  0.18525718467E+02  0.31893236327E+02  0.00000000000E+00 0.  1.
</event>
<event>
 7    1  0.2932676E-013  0.7246156E+02  0.7816164E-02  0.1226708E+00
        -11   -1    0    0    0    0  0.00000000000E+00  0.00000000000E+00  0.45593999997E+02  0.45594000000E+02  0.51100000000E-03 0. -1.
         11   -1    0    0    0    0 -0.00000000000E+00 -0.00000000000E+00 -0.45593999997E+02  0.45594000000E+02  0.51100000000E-03 0.  1.
    9900012    2    1    2    0    0 -0.10873572798E+02  0.14289796195E+02 -0.53147466034E+01  0.72461564350E+02  0.69999992257E+02 0.  0.
         12    1    1    2    0    0  0.10873572798E+02 -0.14289796195E+02  0.53147466034E+01  0.18726435650E+02  0.00000000000E+00 0. -1.
         11    1    3    3    0    0 -0.31395219531E+02 -0.28824309999E+01  0.30822612985E+01  0.31677571763E+02  0.51100000000E-03 0. -1.
        -11    1    3    3    0    0 -0.18752273938E+01 -0.67559388693E+01 -0.27243909018E+01  0.75220671248E+01  0.51100000000E-03 0.  1.
        -12    1    3    3    0    0  0.22396874127E+02  0.23928166064E+02 -0.56726170002E+01  0.33261925462E+02  0.00000000000E+00 0.  1.
</event>
<event>
 7    1  0.2932676E-013  0.7246157E+02  0.7816164E-02  0.1226708E+00
        -11   -1    0    0    0    0  0.00000000000E+00  0.00000000000E+00  0.45593999997E+02  0.45594000000E+02  0.51100000000E-03 0.  1.
         11   -1    0    0    0    0 -0.00000000000E+00 -0.00000000000E+00 -0.45593999997E+02  0.45594000000E+02  0.51100000000E-03 0. -1.
    9900012    2    1    2    0    0 -0.76041491692E+01 -0.16878693503E+02 -0.28223774009E+01  0.72461569663E+02  0.69999999178E+02 0.  0.
         12    1    1    2    0    0  0.76041491692E+01  0.16878693503E+02  0.28223774009E+01  0.18726430337E+02  0.00000000000E+00 0. -1.
         11    1    3    3    0    0 -0.18851993742E+02 -0.42694512803E+01 -0.14039995349E+02  0.23890319209E+02  0.51100000000E-03 0. -1.
        -11    1    3    3    0    0 -0.16579073322E+02 -0.19712072302E+01 -0.11857671068E+00  0.16696268770E+02  0.51100000000E-03 0.  1.
        -12    1    3    3    0    0  0.27826917894E+02 -0.10638034993E+02  0.11336194658E+02  0.31874981684E+02  0.00000000000E+00 0.  1.
</event>
<event>
 7    1  0.2932676E-013  0.7246157E+02  0.7816164E-02  0.1226708E+00
        -11   -1    0    0    0    0  0.00000000000E+00  0.00000000000E+00  0.45593999997E+02  0.45594000000E+02  0.51100000000E-03 0.  1.
         11   -1    0    0    0    0 -0.00000000000E+00 -0.00000000000E+00 -0.45593999997E+02  0.45594000000E+02  0.51100000000E-03 0. -1.
    9900012    2    1    2    0    0 -0.18694825995E+02  0.92642724755E+00 -0.56942642994E+00  0.72461573942E+02  0.70000004752E+02 0.  0.
         12    1    1    2    0    0  0.18694825995E+02 -0.92642724755E+00  0.56942642994E+00  0.18726426058E+02  0.00000000000E+00 0. -1.
         11    1    3    3    0    0  0.98134124908E+01 -0.24633316869E+01 -0.14165546782E+02  0.17407865567E+02  0.51100000000E-03 0. -1.
        -11    1    3    3    0    0  0.55490348171E+01 -0.65880752463E+01  0.17346406461E+02  0.19367300799E+02  0.51100000000E-03 0.  1.
         12    1    3    3    0    0 -0.34057273303E+02  0.99778341808E+01 -0.37502861096E+01  0.35686407576E+02  0.00000000000E+00 0. -1.
</event>
<event>
 7    1  0.2932676E-013  0.7246153E+02  0.7816164E-02  0.1226708E+00
        -11   -1    0    0    0    0  0.00000000000E+00  0.00000000000E+00  0.45593999997E+02  0.45594000000E+02  0.51100000000E-03 0.  1.
         11   -1    0    0    0    0 -0.00000000000E+00 -0.00000000000E+00 -0.45593999997E+02  0.45594000000E+02  0.51100000000E-03 0. -1.
    9900012    2    1    2    0    0  0.17465019202E+02 -0.60307639994E+01  0.30469279867E+01  0.72461527286E+02  0.69999943974E+02 0.  0.
         12    1    1    2    0    0 -0.17465019202E+02  0.60307639994E+01 -0.30469279867E+01  0.18726472714E+02  0.00000000000E+00 0. -1.
         11    1    3    3    0    0  0.14042330720E+02 -0.49806819136E+01 -0.35129471774E+01  0.15308005830E+02  0.51100000000E-03 0. -1.
        -11    1    3    3    0    0  0.12172214120E+02 -0.19469681196E+02  0.21826357130E+02  0.31679980244E+02  0.51100000000E-03 0.  1.
         12    1    3    3    0    0 -0.87495256372E+01  0.18419599110E+02 -0.15266481966E+02  0.25473541212E+02  0.00000000000E+00 0. -1.
</event>
<event>
 7    1  0.2932676E-013  0.7246160E+02  0.7816164E-02  0.1226708E+00
        -11   -1    0    0    0    0  0.00000000000E+00  0.00000000000E+00  0.45593999997E+02  0.45594000000E+02  0.51100000000E-03 0.  1.
         11   -1    0    0    0    0 -0.00000000000E+00 -0.00000000000E+00 -0.45593999997E+02  0.45594000000E+02  0.51100000000E-03 0. -1.
    9900012    2    1    2    0    0  0.15073424107E+02  0.10723628049E+02  0.29109870921E+01  0.72461597284E+02  0.70000035159E+02 0.  0.
         12    1    1    2    0    0 -0.15073424107E+02 -0.10723628049E+02 -0.29109870921E+01  0.18726402716E+02  0.00000000000E+00 0. -1.
         11    1    3    3    0    0  0.49772184888E+01  0.28237313458E+02 -0.18931190501E+01  0.28735039154E+02  0.51100000000E-03 0. -1.
        -11    1    3    3    0    0 -0.12442863702E+02 -0.89523920200E+00 -0.58326529083E+01  0.13771207302E+02  0.51100000000E-03 0.  1.
        -12    1    3    3    0    0  0.22539069320E+02 -0.16618446207E+02  0.10636759050E+02  0.29955350828E+02  0.00000000000E+00 0.  1.
</event>
<event>
 7    1  0.2932676E-013  0.7246162E+02  0.7816164E-02  0.1226708E+00
        -11   -1    0    0    0    0  0.00000000000E+00  0.00000000000E+00  0.45593999997E+02  0.45594000000E+02  0.51100000000E-03 0.  1.
         11   -1    0    0    0    0 -0.00000000000E+00 -0.00000000000E+00 -0.45593999997E+02  0.45594000000E+02  0.51100000000E-03 0. -1.
    9900012    2    1    2    0    0 -0.61338982795E+01  0.14627287031E+02  0.99546440901E+01  0.72461623603E+02  0.70000069444E+02 0.  0.
         12    1    1    2    0    0  0.61338982795E+01 -0.14627287031E+02 -0.99546440901E+01  0.18726376397E+02  0.00000000000E+00 0. -1.
         11    1    3    3    0    0 -0.97750669733E+00 -0.87402124965E+01  0.92021011181E+01  0.12728923720E+02  0.51100000000E-03 0. -1.
        -11    1    3    3    0    0  0.15592234902E+02 -0.10398210931E+02  0.61745807705E+01  0.19732359913E+02  0.51100000000E-03 0.  1.
         12    1    3    3    0    0 -0.20748626484E+02  0.33765710459E+02 -0.54220377984E+01  0.40000339969E+02  0.00000000000E+00 0. -1.
</event>
<event>
 7    1  0.2932676E-013  0.7246159E+02  0.7816164E-02  0.1226708E+00
        -11   -1    0    0    0    0  0.00000000000E+00  0.00000000000E+00  0.45593999997E+02  0.45594000000E+02  0.51100000000E-03 0.  1.
         11   -1    0    0    0    0 -0.00000000000E+00 -0.00000000000E+00 -0.45593999997E+02  0.45594000000E+02  0.51100000000E-03 0. -1.
    9900012    2    1    2    0    0  0.96333935589E+01  0.12373035809E+02  0.10236409266E+02  0.72461591876E+02  0.70000028114E+02 0.  0.
         12    1    1    2    0    0 -0.96333935589E+01 -0.12373035809E+02 -0.10236409266E+02  0.18726408124E+02  0.00000000000E+00 0. -1.
         11    1    3    3    0    0  0.95179814473E+01  0.12366666856E+02 -0.86177378958E+01  0.17826716654E+02  0.51100000000E-03 0. -1.
        -11    1    3    3    0    0 -0.16707643833E+01 -0.74631560465E+00 -0.17817911861E+02  0.17911628177E+02  0.51100000000E-03 0.  1.
        -12    1    3    3    0    0  0.17861764949E+01  0.75268455770E+00  0.36672059023E+02  0.36723247045E+02  0.00000000000E+00 0.  1.
</event>
<event>
 7    1  0.2932676E-013  0.7246156E+02  0.7816164E-02  0.1226708E+00
        -11   -1    0    0    0    0  0.00000000000E+00  0.00000000000E+00  0.45593999997E+02  0.45594000000E+02  0.51100000000E-03 0. -1.
         11   -1    0    0    0    0 -0.00000000000E+00 -0.00000000000E+00 -0.45593999997E+02  0.45594000000E+02  0.51100000000E-03 0.  1.
    9900012    2    1    2    0    0 -0.41658918720E+01 -0.13194455433E+02 -0.12618684229E+02  0.72461561445E+02  0.69999988472E+02 0.  0.
         12    1    1    2    0    0  0.41658918720E+01  0.13194455433E+02  0.12618684229E+02  0.18726438555E+02  0.00000000000E+00 0. -1.
         11    1    3    3    0    0 -0.10771089020E+02 -0.10789854153E+02 -0.31224510911E+02  0.34747768176E+02  0.51100000000E-03 0. -1.
        -11    1    3    3    0    0  0.84421963809E+01 -0.93389511420E+00 -0.76030255985E+01  0.11399510443E+02  0.51100000000E-03 0.  1.
         12    1    3    3    0    0 -0.18369992334E+01 -0.14707061659E+01  0.26208852281E+02  0.26314282826E+02  0.00000000000E+00 0. -1.
</event>
<event>
 7    1  0.2932676E-013  0.7246156E+02  0.7816164E-02  0.1226708E+00
        -11   -1    0    0    0    0  0.00000000000E+00  0.00000000000E+00  0.45593999997E+02  0.45594000000E+02  0.51100000000E-03 0.  1.
         11   -1    0    0    0    0 -0.00000000000E+00 -0.00000000000E+00 -0.45593999997E+02  0.45594000000E+02  0.51100000000E-03 0. -1.
    9900012    2    1    2    0    0  0.73487712716E+01  0.12695636139E+02 -0.11640272232E+02  0.72461560034E+02  0.69999986634E+02 0.  0.
         12    1    1    2    0    0 -0.73487712716E+01 -0.12695636139E+02  0.11640272232E+02  0.18726439966E+02  0.00000000000E+00 0. -1.
         11    1    3    3    0    0  0.15878188960E+02  0.27129163416E+02  0.98718260189E+00  0.31449688744E+02  0.51100000000E-03 0. -1.
        -11    1    3    3    0    0  0.88396774943E+01 -0.59385772696E+00 -0.16251465392E+02  0.18509529785E+02  0.51100000000E-03 0.  1.
         12    1    3    3    0    0 -0.17369095183E+02 -0.13839669550E+02  0.36240105583E+01  0.22502341506E+02  0.00000000000E+00 0. -1.
</event>
<event>
 7    1  0.2932676E-013  0.7246148E+02  0.7816164E-02  0.1226708E+00
        -11   -1    0    0    0    0  0.00000000000E+00  0.00000000000E+00  0.45593999997E+02  0.45594000000E+02  0.51100000000E-03 0.  1.
         11   -1    0    0    0    0 -0.00000000000E+00 -0.00000000000E+00 -0.45593999997E+02  0.45594000000E+02  0.51100000000E-03 0. -1.
    9900012    2    1    2    0    0  0.11950680690E+02 -0.57623679302E+01  0.13215852689E+02  0.72461483628E+02  0.69999887101E+02 0.  0.
         12    1    1    2    0    0 -0.11950680690E+02  0.57623679302E+01 -0.13215852689E+02  0.18726516372E+02  0.00000000000E+00 0. -1.
         11    1    3    3    0    0 -0.15571947482E+02 -0.38891300560E-01  0.14325361795E+02  0.21158994583E+02  0.51100000000E-03 0. -1.
        -11    1    3    3    0    0  0.19314358010E+01  0.64091952745E+01  0.16600684534E+02  0.17899468025E+02  0.51100000000E-03 0.  1.
         12    1    3    3    0    0  0.25591192372E+02 -0.12132671904E+02 -0.17710193640E+02  0.33403021021E+02  0.00000000000E+00 0. -1.
</event>
<event>
 7    1  0.2932676E-013  0.7246156E+02  0.7816164E-02  0.1226708E+00
        -11   -1    0    0    0    0  0.00000000000E+00  0.00000000000E+00  0.45593999997E+02  0.45594000000E+02  0.51100000000E-03 0. -1.
         11   -1    0    0    0    0 -0.00000000000E+00 -0.00000000000E+00 -0.45593999997E+02  0.45594000000E+02  0.51100000000E-03 0.  1.
    9900012    2    1    2    0    0 -0.87431659900E+01 -0.99460921531E+01 -0.13240540228E+02  0.72461558636E+02  0.69999984813E+02 0.  0.
         12    1    1    2    0    0  0.87431659900E+01  0.99460921531E+01  0.13240540228E+02  0.18726441364E+02  0.00000000000E+00 0. -1.
         11    1    3    3    0    0  0.28378398185E+01 -0.34781690461E+01  0.20994968886E+02  0.21469506597E+02  0.51100000000E-03 0. -1.
        -11    1    3    3    0    0 -0.12534372515E+02 -0.11274375771E+02 -0.46230190966E+00  0.16865223588E+02  0.51100000000E-03 0.  1.
        -12    1    3    3    0    0  0.95336670602E+00  0.48064526643E+01 -0.33773207203E+02  0.34126828451E+02  0.00000000000E+00 0.  1.
</event>
<event>
 7    1  0.2932676E-013  0.7246156E+02  0.7816164E-02  0.1226708E+00
        -11   -1    0    0    0    0  0.00000000000E+00  0.00000000000E+00  0.45593999997E+02  0.45594000000E+02  0.51100000000E-03 0.  1.
         11   -1    0    0    0    0 -0.00000000000E+00 -0.00000000000E+00 -0.45593999997E+02  0.45594000000E+02  0.51100000000E-03 0. -1.
    9900012    2    1    2    0    0 -0.15272178842E+02 -0.10828631616E+02  0.42541247515E+00  0.72461556530E+02  0.69999982069E+02 0.  0.
         12    1    1    2    0    0  0.15272178842E+02  0.10828631616E+02 -0.42541247515E+00  0.18726443470E+02  0.00000000000E+00 0. -1.
         11    1    3    3    0    0  0.55437141632E+01  0.15399218557E+02 -0.18178618454E+02  0.24460802686E+02  0.51100000000E-03 0. -1.
        -11    1    3    3    0    0  0.74091746081E+01 -0.56109866599E+01  0.37282034896E+01  0.10013917375E+02  0.51100000000E-03 0.  1.
        -12    1    3    3    0    0 -0.28225067613E+02 -0.20616863513E+02  0.14875827440E+02  0.37986836469E+02  0.00000000000E+00 0.  1.
</event>
<event>
 7    1  0.2932676E-013  0.7246133E+02  0.7816164E-02  0.1226709E+00
        -11   -1    0    0    0    0  0.00000000000E+00  0.00000000000E+00  0.45593999997E+02  0.45594000000E+02  0.51100000000E-03 0. -1.
         11   -1    0    0    0    0 -0.00000000000E+00 -0.00000000000E+00 -0.45593999997E+02  0.45594000000E+02  0.51100000000E-03 0.  1.
    9900012    2    1    2    0    0 -0.80875436974E+01  0.13059413052E+02 -0.10711287724E+02  0.72461326055E+02  0.69999681832E+02 0.  0.
         12    1    1    2    0    0  0.80875436974E+01 -0.13059413052E+02  0.10711287724E+02  0.18726673945E+02  0.00000000000E+00 0. -1.
         11    1    3    3    0    0  0.68018418087E+01  0.43741326826E+00 -0.27285057435E+01  0.73417386368E+01  0.51100000000E-03 0. -1.
        -11    1    3    3    0    0  0.85790375413E+01 -0.14933796718E+02 -0.20542774336E+02  0.26807158507E+02  0.51100000000E-03 0.  1.
         12    1    3    3    0    0 -0.23468423047E+02  0.27555796501E+02  0.12559992355E+02  0.38312428912E+02  0.00000000000E+00 0. -1.
</event>
<event>
 7    1  0.2932676E-013  0.7246156E+02  0.7816164E-02  0.1226708E+00
        -11   -1    0    0    0    0  0.00000000000E+00  0.00000000000E+00  0.45593999997E+02  0.45594000000E+02  0.51100000000E-03 0.  1.
         11   -1    0    0    0    0 -0.00000000000E+00 -0.00000000000E+00 -0.45593999997E+02  0.45594000000E+02  0.51100000000E-03 0. -1.
    9900012    2    1    2    0    0  0.10543232469E+02 -0.11777226531E+02  0.10040746002E+02  0.72461564249E+02  0.69999992125E+02 0.  0.
         12    1    1    2    0    0 -0.10543232469E+02  0.11777226531E+02 -0.10040746002E+02  0.18726435751E+02  0.00000000000E+00 0. -1.
         11    1    3    3    0    0  0.44561734295E+01 -0.16723246885E+02  0.15410273372E+02  0.23173281892E+02  0.51100000000E-03 0. -1.
        -11    1    3    3    0    0  0.26304580693E+02  0.60799782667E+01  0.34196037418E+01  0.27213797809E+02  0.51100000000E-03 0.  1.
         12    1    3    3    0    0 -0.20217521654E+02 -0.11339579123E+01 -0.87891311118E+01  0.22074484548E+02  0.00000000000E+00 0. -1.
</event>
<event>
 7    1  0.2932676E-013  0.7246153E+02  0.7816164E-02  0.1226708E+00
        -11   -1    0    0    0    0  0.00000000000E+00  0.00000000000E+00  0.45593999997E+02  0.45594000000E+02  0.51100000000E-03 0. -1.
         11   -1    0    0    0    0 -0.00000000000E+00 -0.00000000000E+00 -0.45593999997E+02  0.45594000000E+02  0.51100000000E-03 0.  1.
    9900012    2    1    2    0    0  0.87796927584E+01 -0.13541813841E+02 -0.94982689915E+01  0.72461525669E+02  0.69999941867E+02 0.  0.
         12    1    1    2    0    0 -0.87796927584E+01  0.13541813841E+02  0.94982689915E+01  0.18726474331E+02  0.00000000000E+00 0. -1.
         11    1    3    3    0    0  0.14452737375E+02 -0.24626026033E+02 -0.23388941000E+02  0.36910233502E+02  0.51100000000E-03 0.  1.
        -11    1    3    3    0    0 -0.33435462631E+01 -0.10303297068E+02  0.72544691797E+01  0.13037045502E+02  0.51100000000E-03 0. -1.
         12    1    3    3    0    0 -0.23294983540E+01  0.21387509260E+02  0.66362028293E+01  0.22514246665E+02  0.00000000000E+00 0. -1.
</event>
<event>
 7    1  0.2932676E-013  0.7246154E+02  0.7816164E-02  0.1226708E+00
        -11   -1    0    0    0    0  0.00000000000E+00  0.00000000000E+00  0.45593999997E+02  0.45594000000E+02  0.51100000000E-03 0.  1.
         11   -1    0    0    0    0 -0.00000000000E+00 -0.00000000000E+00 -0.45593999997E+02  0.45594000000E+02  0.51100000000E-03 0. -1.
    9900012    2    1    2    0    0 -0.15334384851E+02  0.10587502905E+02  0.18552259095E+01  0.72461536380E+02  0.69999955820E+02 0.  0.
         12    1    1    2    0    0  0.15334384851E+02 -0.10587502905E+02 -0.18552259095E+01  0.18726463620E+02  0.00000000000E+00 0. -1.
         11    1    3    3    0    0  0.11066313086E+02  0.72886886428E+01 -0.16272510922E+01  0.13350513617E+02  0.51100000000E-03 0. -1.
        -11    1    3    3    0    0  0.65512018313E+01  0.19284161884E+02  0.86431100403E+01  0.22124658109E+02  0.51100000000E-03 0.  1.
         12    1    3    3    0    0 -0.32951899769E+02 -0.15985347622E+02 -0.51606330386E+01  0.36986364654E+02  0.00000000000E+00 0. -1.
</event>
<event>
 7    1  0.2932676E-013  0.7246156E+02  0.7816164E-02  0.1226708E+00
        -11   -1    0    0    0    0  0.00000000000E+00  0.00000000000E+00  0.45593999997E+02  0.45594000000E+02  0.51100000000E-03 0.  1.
         11   -1    0    0    0    0 -0.00000000000E+00 -0.00000000000E+00 -0.45593999997E+02  0.45594000000E+02  0.51100000000E-03 0. -1.
    9900012    2    1    2    0    0 -0.34332196118E+01  0.68909310355E+01  0.17070669936E+02  0.72461556144E+02  0.69999981566E+02 0.  0.
         12    1    1    2    0    0  0.34332196118E+01 -0.68909310355E+01 -0.17070669936E+02  0.18726443856E+02  0.00000000000E+00 0. -1.
         11    1    3    3    0    0 -0.23757239051E+01 -0.14369654345E+01 -0.59772288905E+01  0.65906144785E+01  0.51100000000E-03 0. -1.
        -11    1    3    3    0    0  0.99450289686E+01 -0.10044173640E+02  0.37473532269E+02  0.40050651009E+02  0.51100000000E-03 0.  1.
         12    1    3    3    0    0 -0.11002524675E+02  0.18372070110E+02 -0.14425633442E+02  0.25820290656E+02  0.00000000000E+00 0. -1.
</event>
<event>
 7    1  0.2932676E-013  0.7246165E+02  0.7816164E-02  0.1226708E+00
        -11   -1    0    0    0    0  0.00000000000E+00  0.00000000000E+00  0.45593999997E+02  0.45594000000E+02  0.51100000000E-03 0. -1.
         11   -1    0    0    0    0 -0.00000000000E+00 -0.00000000000E+00 -0.45593999997E+02  0.45594000000E+02  0.51100000000E-03 0.  1.
    9900012    2    1    2    0    0 -0.14857992570E+02  0.16358001392E+01 -0.11280081767E+02  0.72461654122E+02  0.70000109201E+02 0.  0.
         12    1    1    2    0    0  0.14857992570E+02 -0.16358001392E+01  0.11280081767E+02  0.18726345878E+02  0.00000000000E+00 0. -1.
         11    1    3    3    0    0 -0.12941210991E+02  0.23235335766E+02 -0.43098568074E+01  0.26943099971E+02  0.51100000000E-03 0. -1.
        -11    1    3    3    0    0 -0.10050751302E+02 -0.46296232536E+01 -0.19841918561E+02  0.22718995261E+02  0.51100000000E-03 0.  1.
         12    1    3    3    0    0  0.81339697234E+01 -0.16969912373E+02  0.12871693602E+02  0.22799558890E+02  0.00000000000E+00 0. -1.
</event>
<event>
 7    1  0.2932676E-013  0.7246155E+02  0.7816164E-02  0.1226708E+00
        -11   -1    0    0    0    0  0.00000000000E+00  0.00000000000E+00  0.45593999997E+02  0.45594000000E+02  0.51100000000E-03 0.  1.
         11   -1    0    0    0    0 -0.00000000000E+00 -0.00000000000E+00 -0.45593999997E+02  0.45594000000E+02  0.51100000000E-03 0. -1.
    9900012    2    1    2    0    0  0.14301004449E+02 -0.75099568288E+01  0.94742683433E+01  0.72461549710E+02  0.69999973185E+02 0.  0.
         12    1    1    2    0    0 -0.14301004449E+02  0.75099568288E+01 -0.94742683433E+01  0.18726450290E+02  0.00000000000E+00 0. -1.
         11    1    3    3    0    0 -0.21031334371E+01  0.13436339325E+02  0.11773178101E+02  0.17987943395E+02  0.51100000000E-03 0. -1.
        -11    1    3    3    0    0  0.31273631837E+02 -0.11295034421E+02  0.76864539247E+01  0.34127692935E+02  0.51100000000E-03 0.  1.
         12    1    3    3    0    0 -0.14869493951E+02 -0.96512617326E+01 -0.99853636827E+01  0.20345913380E+02  0.00000000000E+00 0. -1.
</event>
<event>
 7    1  0.2932676E-013  0.7246162E+02  0.7816164E-02  0.1226708E+00
        -11   -1    0    0    0    0  0.00000000000E+00  0.00000000000E+00  0.45593999997E+02  0.45594000000E+02  0.51100000000E-03 0.  1.
         11   -1    0    0    0    0 -0.00000000000E+00 -0.00000000000E+00 -0.45593999997E+02  0.45594000000E+02  0.51100000000E-03 0. -1.
    9900012    2    1    2    0    0 -0.14971545809E+02 -0.94575519509E+01  0.60897351910E+01  0.72461618942E+02  0.70000063373E+02 0.  0.
         12    1    1    2    0    0  0.14971545809E+02  0.94575519509E+01 -0.60897351910E+01  0.18726381058E+02  0.00000000000E+00 0. -1.
         11    1    3    3    0    0  0.27590039919E+01  0.38547567719E+01  0.90402416357E+01  0.10207704046E+02  0.51100000000E-03 0. -1.
        -11    1    3    3    0    0 -0.21512337109E+02 -0.56651247562E+01  0.24744865158E+02  0.33274354063E+02  0.51100000000E-03 0.  1.
         12    1    3    3    0    0  0.37817873079E+01 -0.76471839666E+01 -0.27695371603E+02  0.28979560833E+02  0.00000000000E+00 0. -1.
</event>
<event>
 7    1  0.2932676E-013  0.7246158E+02  0.7816164E-02  0.1226708E+00
        -11   -1    0    0    0    0  0.00000000000E+00  0.00000000000E+00  0.45593999997E+02  0.45594000000E+02  0.51100000000E-03 0. -1.
         11   -1    0    0    0    0 -0.00000000000E+00 -0.00000000000E+00 -0.45593999997E+02  0.45594000000E+02  0.51100000000E-03 0.  1.
    9900012    2    1    2    0    0  0.15921190006E+02 -0.81383629983E+01 -0.55643124811E+01  0.72461579710E+02  0.70000012265E+02 0.  0.
         12    1    1    2    0    0 -0.15921190006E+02  0.81383629983E+01  0.55643124811E+01  0.18726420290E+02  0.00000000000E+00 0. -1.
         11    1    3    3    0    0 -0.72240860562E+01 -0.10682192447E+02  0.17541802661E+02  0.21771805062E+02  0.51100000000E-03 0. -1.
        -11    1    3    3    0    0 -0.80272243258E+01  0.34127379589E+01  0.37884095433E+01  0.95097401585E+01  0.51100000000E-03 0.  1.
        -12    1    3    3    0    0  0.31172500388E+02 -0.86890851018E+00 -0.26894524685E+02  0.41180034489E+02  0.00000000000E+00 0.  1.
</event>
<event>
 7    1  0.2932676E-013  0.7246161E+02  0.7816164E-02  0.1226708E+00
        -11   -1    0    0    0    0  0.00000000000E+00  0.00000000000E+00  0.45593999997E+02  0.45594000000E+02  0.51100000000E-03 0.  1.
         11   -1    0    0    0    0 -0.00000000000E+00 -0.00000000000E+00 -0.45593999997E+02  0.45594000000E+02  0.51100000000E-03 0. -1.
    9900012    2    1    2    0    0 -0.74500184519E+01 -0.77497537259E+01  0.15333503840E+02  0.72461606921E+02  0.70000047713E+02 0.  0.
         12    1    1    2    0    0  0.74500184519E+01  0.77497537259E+01 -0.15333503840E+02  0.18726393079E+02  0.00000000000E+00 0. -1.
         11    1    3    3    0    0  0.24583915476E+01 -0.66170763093E-01  0.17710110075E+02  0.17880046608E+02  0.51100000000E-03 0. -1.
        -11    1    3    3    0    0  0.17138417031E+02 -0.20583832641E+01  0.14210804615E+02  0.22358650408E+02  0.51100000000E-03 0.  1.
         12    1    3    3    0    0 -0.27046827031E+02 -0.56251996988E+01 -0.16587410850E+02  0.32222909906E+02  0.00000000000E+00 0. -1.
</event>
<event>
 7    1  0.2932676E-013  0.7246163E+02  0.7816164E-02  0.1226708E+00
        -11   -1    0    0    0    0  0.00000000000E+00  0.00000000000E+00  0.45593999997E+02  0.45594000000E+02  0.51100000000E-03 0. -1.
         11   -1    0    0    0    0 -0.00000000000E+00 -0.00000000000E+00 -0.45593999997E+02  0.45594000000E+02  0.51100000000E-03 0.  1.
    9900012    2    1    2    0    0  0.74223513163E+01 -0.68985762767E+01 -0.15747864047E+02  0.72461631539E+02  0.70000079783E+02 0.  0.
         12    1    1    2    0    0 -0.74223513163E+01  0.68985762767E+01  0.15747864047E+02  0.18726368461E+02  0.00000000000E+00 0. -1.
         11    1    3    3    0    0 -0.16942646931E+02  0.89040790350E+01 -0.25535620816E+02  0.31912440195E+02  0.51100000000E-03 0. -1.
        -11    1    3    3    0    0  0.50296280621E+01  0.24532372069E+01 -0.71058232962E+01  0.90447916622E+01  0.51100000000E-03 0.  1.
        -12    1    3    3    0    0  0.19335370185E+02 -0.18255892519E+02  0.16893580066E+02  0.31504399681E+02  0.00000000000E+00 0.  1.
</event>
<event>
 7    1  0.2932676E-013  0.7246166E+02  0.7816164E-02  0.1226708E+00
        -11   -1    0    0    0    0  0.00000000000E+00  0.00000000000E+00  0.45593999997E+02  0.45594000000E+02  0.51100000000E-03 0.  1.
         11   -1    0    0    0    0 -0.00000000000E+00 -0.00000000000E+00 -0.45593999997E+02  0.45594000000E+02  0.51100000000E-03 0. -1.
    9900012    2    1    2    0    0  0.62524014291E+01  0.87265254214E+01  0.15343760272E+02  0.72461661627E+02  0.70000118978E+02 0.  0.
         12    1    1    2    0    0 -0.62524014291E+01 -0.87265254214E+01 -0.15343760272E+02  0.18726338373E+02  0.00000000000E+00 0. -1.
         11    1    3    3    0    0 -0.19134723531E+02  0.13238456518E+02 -0.48460495059E+01  0.23767174246E+02  0.51100000000E-03 0. -1.
        -11    1    3    3    0    0  0.19442112687E+01  0.13573121123E+02  0.11336245400E+02  0.17791009935E+02  0.51100000000E-03 0.  1.
        -12    1    3    3    0    0  0.23442913691E+02 -0.18085052219E+02  0.88535643780E+01  0.30903477447E+02  0.00000000000E+00 0.  1.
</event>
<event>
 7    1  0.2932676E-013  0.7246155E+02  0.7816164E-02  0.1226708E+00
        -11   -1    0    0    0    0  0.00000000000E+00  0.00000000000E+00  0.45593999997E+02  0.45594000000E+02  0.51100000000E-03 0.  1.
         11   -1    0    0    0    0 -0.00000000000E+00 -0.00000000000E+00 -0.45593999997E+02  0.45594000000E+02  0.51100000000E-03 0. -1.
    9900012    2    1    2    0    0 -0.87477057883E+01 -0.16556444251E+02 -0.20385791109E+00  0.72461554506E+02  0.69999979433E+02 0.  0.
         12    1    1    2    0    0  0.87477057883E+01  0.16556444251E+02  0.20385791109E+00  0.18726445494E+02  0.00000000000E+00 0. -1.
         11    1    3    3    0    0 -0.99028844854E-01 -0.12888923311E+02 -0.95947908505E+01  0.16068421284E+02  0.51100000000E-03 0. -1.
        -11    1    3    3    0    0 -0.48694141036E+01 -0.28545257562E+02 -0.14503405074E+01  0.28993902995E+02  0.51100000000E-03 0.  1.
        -12    1    3    3    0    0 -0.37792628398E+01  0.24877736623E+02  0.10841273447E+02  0.27399230227E+02  0.00000000000E+00 0.  1.
</event>
<event>
 7    1  0.2932676E-013  0.7246156E+02  0.7816164E-02  0.1226708E+00
        -11   -1    0    0    0    0  0.00000000000E+00  0.00000000000E+00  0.45593999997E+02  0.45594000000E+02  0.51100000000E-03 0.  1.
         11   -1    0    0    0    0 -0.00000000000E+00 -0.00000000000E+00 -0.45593999997E+02  0.45594000000E+02  0.51100000000E-03 0. -1.
    9900012    2    1    2    0    0 -0.12897404827E+02  0.59461545284E+01  0.12205730864E+02  0.72461556908E+02  0.69999982562E+02 0.  0.
         12    1    1    2    0    0  0.12897404827E+02 -0.59461545284E+01 -0.12205730864E+02  0.18726443092E+02  0.00000000000E+00 0. -1.
         11    1    3    3    0    0 -0.42875421539E+01  0.48144277739E+01  0.69417510566E+01  0.94736286873E+01  0.51100000000E-03 0. -1.
        -11    1    3    3    0    0  0.21510220174E+02  0.18139121771E+02  0.34808250822E+01  0.28351956794E+02  0.51100000000E-03 0.  1.
         12    1    3    3    0    0 -0.30120082846E+02 -0.17007395017E+02  0.17831547248E+01  0.34635971427E+02  0.00000000000E+00 0. -1.
</event>
<event>
 7    1  0.2932676E-013  0.7246159E+02  0.7816164E-02  0.1226708E+00
        -11   -1    0    0    0    0  0.00000000000E+00  0.00000000000E+00  0.45593999997E+02  0.45594000000E+02  0.51100000000E-03 0.  1.
         11   -1    0    0    0    0 -0.00000000000E+00 -0.00000000000E+00 -0.45593999997E+02  0.45594000000E+02  0.51100000000E-03 0. -1.
    9900012    2    1    2    0    0 -0.17405924683E+01  0.16972404184E+02 -0.77192233900E+01  0.72461586150E+02  0.70000020655E+02 0.  0.
         12    1    1    2    0    0  0.17405924683E+01 -0.16972404184E+02  0.77192233900E+01  0.18726413850E+02  0.00000000000E+00 0. -1.
         11    1    3    3    0    0  0.23225948839E+01  0.15104743271E+01 -0.17784570359E+01  0.32922468585E+01  0.51100000000E-03 0. -1.
        -11    1    3    3    0    0  0.23201496027E+02 -0.69648847946E+01  0.14640437640E+02  0.28304795577E+02  0.51100000000E-03 0.  1.
        -12    1    3    3    0    0 -0.27264683379E+02  0.22426814652E+02 -0.20581203994E+02  0.40864543715E+02  0.00000000000E+00 0.  1.
</event>
<event>
 7    1  0.2932676E-013  0.7246158E+02  0.7816164E-02  0.1226708E+00
        -11   -1    0    0    0    0  0.00000000000E+00  0.00000000000E+00  0.45593999997E+02  0.45594000000E+02  0.51100000000E-03 0.  1.
         11   -1    0    0    0    0 -0.00000000000E+00 -0.00000000000E+00 -0.45593999997E+02  0.45594000000E+02  0.51100000000E-03 0. -1.
    9900012    2    1    2    0    0 -0.88788565784E+01  0.10167141198E+02  0.12979751273E+02  0.72461580231E+02  0.70000012944E+02 0.  0.
         12    1    1    2    0    0  0.88788565784E+01 -0.10167141198E+02 -0.12979751273E+02  0.18726419769E+02  0.00000000000E+00 0. -1.
         11    1    3    3    0    0  0.21036138283E+02 -0.78785458489E+01 -0.64629031757E+01  0.23374338841E+02  0.51100000000E-03 0. -1.
        -11    1    3    3    0    0  0.22309428154E+01  0.11762714672E+02  0.25800378555E+01  0.12247251034E+02  0.51100000000E-03 0.  1.
        -12    1    3    3    0    0 -0.32145937677E+02  0.62829723748E+01  0.16862616593E+02  0.36839990355E+02  0.00000000000E+00 0.  1.
</event>
<event>
 7    1  0.2932676E-013  0.7246158E+02  0.7816164E-02  0.1226708E+00
        -11   -1    0    0    0    0  0.00000000000E+00  0.00000000000E+00  0.45593999997E+02  0.45594000000E+02  0.51100000000E-03 0.  1.
         11   -1    0    0    0    0 -0.00000000000E+00 -0.00000000000E+00 -0.45593999997E+02  0.45594000000E+02  0.51100000000E-03 0. -1.
    9900012    2    1    2    0    0  0.88528028398E+01  0.11795057891E+02  0.11540504751E+02  0.72461581264E+02  0.70000014289E+02 0.  0.
         12    1    1    2    0    0 -0.88528028398E+01 -0.11795057891E+02 -0.11540504751E+02  0.18726418736E+02  0.00000000000E+00 0. -1.
         11    1    3    3    0    0  0.17823334564E+02  0.10024450632E+02 -0.10364863711E+01  0.20475233081E+02  0.51100000000E-03 0. -1.
        -11    1    3    3    0    0  0.58740383573E+00  0.24942386639E+02  0.96495445193E+01  0.26750353347E+02  0.51100000000E-03 0.  1.
         12    1    3    3    0    0 -0.95579355598E+01 -0.23171779379E+02  0.29274466032E+01  0.25235994836E+02  0.00000000000E+00 0. -1.
</event>
<event>
 7    1  0.2932676E-013  0.7246153E+02  0.7816164E-02  0.1226708E+00
        -11   -1    0    0    0    0  0.00000000000E+00  0.00000000000E+00  0.45593999997E+02  0.45594000000E+02  0.51100000000E-03 0.  1.
         11   -1    0    0    0    0 -0.00000000000E+00 -0.00000000000E+00 -0.45593999997E+02  0.45594000000E+02  0.51100000000E-03 0. -1.
    9900012    2    1    2    0    0 -0.96367900014E+01 -0.50971353050E+01  0.15226039128E+02  0.72461527364E+02  0.69999944076E+02 0.  0.
         12    1    1    2    0    0  0.96367900014E+01  0.50971353050E+01 -0.15226039128E+02  0.18726472636E+02  0.00000000000E+00 0. -1.
         11    1    3    3    0    0  0.48469979590E+00 -0.24324155986E+01  0.59352060964E+01  0.64325928834E+01  0.51100000000E-03 0. -1.
        -11    1    3    3    0    0 -0.27005086874E+02 -0.65865256718E+01  0.28735826003E+02  0.39980054200E+02  0.51100000000E-03 0.  1.
         12    1    3    3    0    0  0.16883597077E+02  0.39218059654E+01 -0.19444992971E+02  0.26048880281E+02  0.00000000000E+00 0. -1.
</event>
<event>
 7    1  0.2932676E-013  0.7246159E+02  0.7816164E-02  0.1226708E+00
        -11   -1    0    0    0    0  0.00000000000E+00  0.00000000000E+00  0.45593999997E+02  0.45594000000E+02  0.51100000000E-03 0.  1.
         11   -1    0    0    0    0 -0.00000000000E+00 -0.00000000000E+00 -0.45593999997E+02  0.45594000000E+02  0.51100000000E-03 0. -1.
    9900012    2    1    2    0    0 -0.48517200924E+01 -0.94161742514E+01  0.15442638696E+02  0.72461585092E+02  0.70000019277E+02 0.  0.
         12    1    1    2    0    0  0.48517200924E+01  0.94161742514E+01 -0.15442638696E+02  0.18726414908E+02  0.00000000000E+00 0. -1.
         11    1    3    3    0    0  0.19739349019E+02  0.14202336122E+02  0.98290694351E+01  0.26228969809E+02  0.51100000000E-03 0. -1.
        -11    1    3    3    0    0  0.41508883145E+01  0.72463229322E+00  0.74100568164E+01  0.85243127608E+01  0.51100000000E-03 0.  1.
        -12    1    3    3    0    0 -0.28741957426E+02 -0.24343142667E+02 -0.17964875552E+01  0.37708302522E+02  0.00000000000E+00 0.  1.
</event>
<event>
 7    1  0.2932676E-013  0.7246159E+02  0.7816164E-02  0.1226708E+00
        -11   -1    0    0    0    0  0.00000000000E+00  0.00000000000E+00  0.45593999997E+02  0.45594000000E+02  0.51100000000E-03 0.  1.
         11   -1    0    0    0    0 -0.00000000000E+00 -0.00000000000E+00 -0.45593999997E+02  0.45594000000E+02  0.51100000000E-03 0. -1.
    9900012    2    1    2    0    0  0.49137577801E+01  0.11561897313E+02  0.13887258544E+02  0.72461589910E+02  0.70000025553E+02 0.  0.
         12    1    1    2    0    0 -0.49137577801E+01 -0.11561897313E+02 -0.13887258544E+02  0.18726410090E+02  0.00000000000E+00 0. -1.
         11    1    3    3    0    0  0.26637528746E+02 -0.62385778918E+01  0.17222346640E+02  0.32327805614E+02  0.51100000000E-03 0. -1.
        -11    1    3    3    0    0  0.18403968896E+01 -0.60437766651E+01  0.75110342014E+00  0.63622679681E+01  0.51100000000E-03 0.  1.
        -12    1    3    3    0    0 -0.23564167855E+02  0.23844251870E+02 -0.40861915167E+01  0.33771516328E+02  0.00000000000E+00 0.  1.
</event>
<event>
 7    1  0.2932676E-013  0.7246163E+02  0.7816164E-02  0.1226708E+00
        -11   -1    0    0    0    0  0.00000000000E+00  0.00000000000E+00  0.45593999997E+02  0.45594000000E+02  0.51100000000E-03 0.  1.
         11   -1    0    0    0    0 -0.00000000000E+00 -0.00000000000E+00 -0.45593999997E+02  0.45594000000E+02  0.51100000000E-03 0. -1.
    9900012    2    1    2    0    0  0.10598408538E+02 -0.14784555453E+02  0.44460745655E+01  0.72461630290E+02  0.70000078155E+02 0.  0.
         12    1    1    2    0    0 -0.10598408538E+02  0.14784555453E+02 -0.44460745655E+01  0.18726369710E+02  0.00000000000E+00 0. -1.
         11    1    3    3    0    0  0.10559603395E+02 -0.71563363502E+01  0.77760544375E+01  0.14939390774E+02  0.51100000000E-03 0. -1.
        -11    1    3    3    0    0  0.27838454113E+02 -0.36767109514E+01  0.43420102675E+01  0.28413918847E+02  0.51100000000E-03 0.  1.
         12    1    3    3    0    0 -0.27799648969E+02 -0.39515081511E+01 -0.76719901395E+01  0.29108320669E+02  0.00000000000E+00 0. -1.
</event>
<event>
 7    1  0.2932676E-013  0.7246169E+02  0.7816164E-02  0.1226708E+00
        -11   -1    0    0    0    0  0.00000000000E+00  0.00000000000E+00  0.45593999997E+02  0.45594000000E+02  0.51100000000E-03 0. -1.
         11   -1    0    0    0    0 -0.00000000000E+00 -0.00000000000E+00 -0.45593999997E+02  0.45594000000E+02  0.51100000000E-03 0.  1.
    9900012    2    1    2    0    0  0.13695905790E+02  0.59998707857E+01 -0.11273799087E+02  0.72461686142E+02  0.70000150913E+02 0.  0.
         12    1    1    2    0    0 -0.13695905790E+02 -0.59998707857E+01  0.11273799087E+02  0.18726313858E+02  0.00000000000E+00 0. -1.
         11    1    3    3    0    0  0.14571389955E+02  0.26588465498E+02 -0.78518268854E+01  0.31319691704E+02  0.51100000000E-03 0. -1.
        -11    1    3    3    0    0  0.18790983996E+01 -0.11177008033E+00 -0.16553950516E+02  0.16660635681E+02  0.51100000000E-03 0.  1.
         12    1    3    3    0    0 -0.27545825646E+01 -0.20476824632E+02  0.13131978315E+02  0.24481358756E+02  0.00000000000E+00 0. -1.
</event>
<event>
 7    1  0.2932676E-013  0.7246162E+02  0.7816164E-02  0.1226708E+00
        -11   -1    0    0    0    0  0.00000000000E+00  0.00000000000E+00  0.45593999997E+02  0.45594000000E+02  0.51100000000E-03 0.  1.
         11   -1    0    0    0    0 -0.00000000000E+00 -0.00000000000E+00 -0.45593999997E+02  0.45594000000E+02  0.51100000000E-03 0. -1.
    9900012    2    1    2    0    0  0.12617098421E+02 -0.13670976747E+02 -0.21425781058E+01  0.72461617041E+02  0.70000060896E+02 0.  0.
         12    1    1    2    0    0 -0.12617098421E+02  0.13670976747E+02  0.21425781058E+01  0.18726382959E+02  0.00000000000E+00 0. -1.
         11    1    3    3    0    0  0.13457969749E+02  0.28101555302E+01 -0.47499891346E+01  0.14545663303E+02  0.51100000000E-03 0. -1.
        -11    1    3    3    0    0  0.13636517467E+02 -0.31912232643E+02  0.89264027572E+01  0.35833306676E+02  0.51100000000E-03 0.  1.
         12    1    3    3    0    0 -0.14477388795E+02  0.15431100366E+02 -0.63189917284E+01  0.22082647063E+02  0.00000000000E+00 0. -1.
</event>
<event>
 7    1  0.2932676E-013  0.7246154E+02  0.7816164E-02  0.1226708E+00
        -11   -1    0    0    0    0  0.00000000000E+00  0.00000000000E+00  0.45593999997E+02  0.45594000000E+02  0.51100000000E-03 0.  1.
         11   -1    0    0    0    0 -0.00000000000E+00 -0.00000000000E+00 -0.45593999997E+02  0.45594000000E+02  0.51100000000E-03 0. -1.
    9900012    2    1    2    0    0 -0.87450538987E+00 -0.15737160876E+02 -0.10112232482E+02  0.72461541769E+02  0.69999962840E+02 0.  0.
         12    1    1    2    0    0  0.87450538987E+00  0.15737160876E+02  0.10112232482E+02  0.18726458231E+02  0.00000000000E+00 0. -1.
         11    1    3    3    0    0 -0.94664461295E+01  0.31614334027E+01 -0.11639158392E+02  0.15332262450E+02  0.51100000000E-03 0. -1.
        -11    1    3    3    0    0 -0.20571081648E+02  0.27145617154E+01  0.18211633900E+01  0.20829183417E+02  0.51100000000E-03 0.  1.
        -12    1    3    3    0    0  0.29163022388E+02 -0.21613155994E+02 -0.29423748011E+00  0.36300095902E+02  0.00000000000E+00 0.  1.
</event>
<event>
 7    1  0.2932676E-013  0.7246167E+02  0.7816164E-02  0.1226708E+00
        -11   -1    0    0    0    0  0.00000000000E+00  0.00000000000E+00  0.45593999997E+02  0.45594000000E+02  0.51100000000E-03 0.  1.
         11   -1    0    0    0    0 -0.00000000000E+00 -0.00000000000E+00 -0.45593999997E+02  0.45594000000E+02  0.51100000000E-03 0. -1.
    9900012    2    1    2    0    0 -0.89996197713E+01 -0.14932958808E+02  0.68329328624E+01  0.72461671308E+02  0.70000131589E+02 0.  0.
         12    1    1    2    0    0  0.89996197713E+01  0.14932958808E+02 -0.68329328624E+01  0.18726328692E+02  0.00000000000E+00 0. -1.
         11    1    3    3    0    0  0.28176724952E+01 -0.18531229750E+02  0.11646088324E+02  0.22067558267E+02  0.51100000000E-03 0. -1.
        -11    1    3    3    0    0  0.54752905637E+01 -0.77973595367E+01  0.17515918644E+02  0.19939534315E+02  0.51100000000E-03 0.  1.
         12    1    3    3    0    0 -0.17292582830E+02  0.11395630479E+02 -0.22329074106E+02  0.30454578726E+02  0.00000000000E+00 0. -1.
</event>
<event>
 7    1  0.2932676E-013  0.7246132E+02  0.7816164E-02  0.1226709E+00
        -11   -1    0    0    0    0  0.00000000000E+00  0.00000000000E+00  0.45593999997E+02  0.45594000000E+02  0.51100000000E-03 0. -1.
         11   -1    0    0    0    0 -0.00000000000E+00 -0.00000000000E+00 -0.45593999997E+02  0.45594000000E+02  0.51100000000E-03 0.  1.
    9900012    2    1    2    0    0  0.14493873993E+02 -0.43054142727E+01 -0.11048960031E+02  0.72461321354E+02  0.69999675708E+02 0.  0.
         12    1    1    2    0    0 -0.14493873993E+02  0.43054142727E+01  0.11048960031E+02  0.18726678646E+02  0.00000000000E+00 0. -1.
         11    1    3    3    0    0  0.26995479860E+00 -0.16474938982E+02 -0.22750831114E+01  0.16633475087E+02  0.51100000000E-03 0. -1.
        -11    1    3    3    0    0  0.17155026941E+02 -0.16957483564E+02 -0.10913649987E+02  0.26475629444E+02  0.51100000000E-03 0.  1.
         12    1    3    3    0    0 -0.29311077470E+01  0.29127008273E+02  0.21397730677E+01  0.29352216822E+02  0.00000000000E+00 0. -1.
</event>
<event>
 7    1  0.2932676E-013  0.7246155E+02  0.7816164E-02  0.1226708E+00
        -11   -1    0    0    0    0  0.00000000000E+00  0.00000000000E+00  0.45593999997E+02  0.45594000000E+02  0.51100000000E-03 0. -1.
         11   -1    0    0    0    0 -0.00000000000E+00 -0.00000000000E+00 -0.45593999997E+02  0.45594000000E+02  0.51100000000E-03 0.  1.
    9900012    2    1    2    0    0 -0.15946505209E+02  0.97478218434E+01 -0.11699398564E+01  0.72461552971E+02  0.69999977433E+02 0.  0.
         12    1    1    2    0    0  0.15946505209E+02 -0.97478218434E+01  0.11699398564E+01  0.18726447029E+02  0.00000000000E+00 0. -1.
         11    1    3    3    0    0  0.16738436895E+02 -0.11349882251E+02  0.65636117318E+00  0.20234275550E+02  0.51100000000E-03 0. -1.
        -11    1    3    3    0    0 -0.25017285774E+02 -0.13795857449E+01  0.83213598566E+01  0.26401001391E+02  0.51100000000E-03 0.  1.
         12    1    3    3    0    0 -0.76676563292E+01  0.22477289839E+02 -0.10147660886E+02  0.25826276029E+02  0.00000000000E+00 0. -1.
</event>
<event>
 7    1  0.2932676E-013  0.7246157E+02  0.7816164E-02  0.1226708E+00
        -11   -1    0    0    0    0  0.00000000000E+00  0.00000000000E+00  0.45593999997E+02  0.45594000000E+02  0.51100000000E-03 0.  1.
         11   -1    0    0    0    0 -0.00000000000E+00 -0.00000000000E+00 -0.45593999997E+02  0.45594000000E+02  0.51100000000E-03 0. -1.
    9900012    2    1    2    0    0 -0.18621144644E+02  0.19127744060E+01 -0.52303235322E+00  0.72461566901E+02  0.69999995579E+02 0.  0.
         12    1    1    2    0    0  0.18621144644E+02 -0.19127744060E+01  0.52303235322E+00  0.18726433099E+02  0.00000000000E+00 0. -1.
         11    1    3    3    0    0 -0.12635380057E+02 -0.14199303098E+02 -0.10234910281E+02  0.21587645225E+02  0.51100000000E-03 0. -1.
        -11    1    3    3    0    0  0.97743320238E+01  0.16015240471E+02 -0.13288771473E+02  0.22991671131E+02  0.51100000000E-03 0.  1.
        -12    1    3    3    0    0 -0.15760096611E+02  0.96837033114E-01  0.23000649401E+02  0.27882250545E+02  0.00000000000E+00 0.  1.
</event>
<event>
 7    1  0.2932676E-013  0.7246158E+02  0.7816164E-02  0.1226708E+00
        -11   -1    0    0    0    0  0.00000000000E+00  0.00000000000E+00  0.45593999997E+02  0.45594000000E+02  0.51100000000E-03 0.  1.
         11   -1    0    0    0    0 -0.00000000000E+00 -0.00000000000E+00 -0.45593999997E+02  0.45594000000E+02  0.51100000000E-03 0. -1.
    9900012    2    1    2    0    0  0.14061093987E+02 -0.11919490102E+02  0.33000372325E+01  0.72461578715E+02  0.70000010969E+02 0.  0.
         12    1    1    2    0    0 -0.14061093987E+02  0.11919490102E+02 -0.33000372325E+01  0.18726421285E+02  0.00000000000E+00 0. -1.
         11    1    3    3    0    0  0.11396590744E+02 -0.30251456400E+01 -0.21362115448E+01  0.11983204361E+02  0.51100000000E-03 0. -1.
        -11    1    3    3    0    0 -0.18741828981E+02 -0.11555319683E+01 -0.19255597478E+02  0.26895528293E+02  0.51100000000E-03 0.  1.
         12    1    3    3    0    0  0.21406332224E+02 -0.77388124938E+01  0.24691846255E+02  0.33582846061E+02  0.00000000000E+00 0. -1.
</event>
<event>
 7    1  0.2932676E-013  0.7246131E+02  0.7816164E-02  0.1226709E+00
        -11   -1    0    0    0    0  0.00000000000E+00  0.00000000000E+00  0.45593999997E+02  0.45594000000E+02  0.51100000000E-03 0.  1.
         11   -1    0    0    0    0 -0.00000000000E+00 -0.00000000000E+00 -0.45593999997E+02  0.45594000000E+02  0.51100000000E-03 0. -1.
    9900012    2    1    2    0    0 -0.29590010157E+01  0.83996178868E+01  0.16473608238E+02  0.72461306858E+02  0.69999656825E+02 0.  0.
         12    1    1    2    0    0  0.29590010157E+01 -0.83996178868E+01 -0.16473608238E+02  0.18726693142E+02  0.00000000000E+00 0. -1.
         11    1    3    3    0    0 -0.46473127993E+01  0.92209909303E+01 -0.83234674300E+01  0.13262891853E+02  0.51100000000E-03 0. -1.
        -11    1    3    3    0    0 -0.23411852391E+02  0.86080833622E+01  0.39945502507E+01  0.25262034034E+02  0.51100000000E-03 0.  1.
         12    1    3    3    0    0  0.25100164175E+02 -0.94294564057E+01  0.20802525417E+02  0.33936380971E+02  0.00000000000E+00 0. -1.
</event>
<event>
 7    1  0.2932676E-013  0.7246157E+02  0.7816164E-02  0.1226708E+00
        -11   -1    0    0    0    0  0.00000000000E+00  0.00000000000E+00  0.45593999997E+02  0.45594000000E+02  0.51100000000E-03 0.  1.
         11   -1    0    0    0    0 -0.00000000000E+00 -0.00000000000E+00 -0.45593999997E+02  0.45594000000E+02  0.51100000000E-03 0. -1.
    9900012    2    1    2    0    0  0.85634620650E+01  0.67098811138E+01  0.15242166724E+02  0.72461573925E+02  0.70000004730E+02 0.  0.
         12    1    1    2    0    0 -0.85634620650E+01 -0.67098811138E+01 -0.15242166724E+02  0.18726426075E+02  0.00000000000E+00 0. -1.
         11    1    3    3    0    0  0.46568581516E+01 -0.18654107386E+02  0.23228752460E+02  0.30153556860E+02  0.51100000000E-03 0. -1.
        -11    1    3    3    0    0  0.73729117985E+00 -0.59372759326E+01 -0.90268294448E+01  0.10829519559E+02  0.51100000000E-03 0.  1.
        -12    1    3    3    0    0  0.31693127336E+01  0.31301264433E+02  0.10402437087E+01  0.31478497506E+02  0.00000000000E+00 0.  1.
</event>
<event>
 7    1  0.2932676E-013  0.7246152E+02  0.7816164E-02  0.1226708E+00
        -11   -1    0    0    0    0  0.00000000000E+00  0.00000000000E+00  0.45593999997E+02  0.45594000000E+02  0.51100000000E-03 0.  1.
         11   -1    0    0    0    0 -0.00000000000E+00 -0.00000000000E+00 -0.45593999997E+02  0.45594000000E+02  0.51100000000E-03 0. -1.
    9900012    2    1    2    0    0  0.21171940396E+01  0.15507442171E+02  0.10281910968E+02  0.72461522316E+02  0.69999937500E+02 0.  0.
         12    1    1    2    0    0 -0.21171940396E+01 -0.15507442171E+02 -0.10281910968E+02  0.18726477684E+02  0.00000000000E+00 0. -1.
         11    1    3    3    0    0 -0.12212390915E+02  0.52283390278E+00  0.19603602093E+02  0.23102317252E+02  0.51100000000E-03 0. -1.
        -11    1    3    3    0    0  0.22379746606E+01  0.65997901185E+01  0.17461183925E+02  0.18800497454E+02  0.51100000000E-03 0.  1.
         12    1    3    3    0    0  0.12091610294E+02  0.83848181492E+01 -0.26782875050E+02  0.30558707610E+02  0.00000000000E+00 0. -1.
</event>
<event>
 7    1  0.2932676E-013  0.7246152E+02  0.7816164E-02  0.1226708E+00
        -11   -1    0    0    0    0  0.00000000000E+00  0.00000000000E+00  0.45593999997E+02  0.45594000000E+02  0.51100000000E-03 0.  1.
         11   -1    0    0    0    0 -0.00000000000E+00 -0.00000000000E+00 -0.45593999997E+02  0.45594000000E+02  0.51100000000E-03 0. -1.
    9900012    2    1    2    0    0 -0.43897686259E+01 -0.91924307847E+01  0.15713374612E+02  0.72461521580E+02  0.69999936540E+02 0.  0.
         12    1    1    2    0    0  0.43897686259E+01  0.91924307847E+01 -0.15713374612E+02  0.18726478420E+02  0.00000000000E+00 0. -1.
         11    1    3    3    0    0  0.84794953094E+01  0.45017507156E+01 -0.23905588997E+02  0.25761304038E+02  0.51100000000E-03 0. -1.
        -11    1    3    3    0    0  0.67771116812E+00 -0.10148382219E+02  0.11972277573E+02  0.15709372509E+02  0.51100000000E-03 0.  1.
        -12    1    3    3    0    0 -0.13546975103E+02 -0.35457992812E+01  0.27646686036E+02  0.30990845032E+02  0.00000000000E+00 0.  1.
</event>
<event>
 7    1  0.2932676E-013  0.7246163E+02  0.7816164E-02  0.1226708E+00
        -11   -1    0    0    0    0  0.00000000000E+00  0.00000000000E+00  0.45593999997E+02  0.45594000000E+02  0.51100000000E-03 0.  1.
         11   -1    0    0    0    0 -0.00000000000E+00 -0.00000000000E+00 -0.45593999997E+02  0.45594000000E+02  0.51100000000E-03 0. -1.
    9900012    2    1    2    0    0  0.62353470206E+01  0.11132365572E+02  0.13706485342E+02  0.72461632063E+02  0.70000080465E+02 0.  0.
         12    1    1    2    0    0 -0.62353470206E+01 -0.11132365572E+02 -0.13706485342E+02  0.18726367937E+02  0.00000000000E+00 0. -1.
         11    1    3    3    0    0 -0.53488925057E+01  0.30631406979E+02  0.21635263336E+02  0.37881108279E+02  0.51100000000E-03 0. -1.
        -11    1    3    3    0    0  0.75744480052E+01  0.11235430032E+01  0.56933201593E+01  0.95419340891E+01  0.51100000000E-03 0.  1.
        -12    1    3    3    0    0  0.40097915211E+01 -0.20622584410E+02 -0.13622098154E+02  0.25038589695E+02  0.00000000000E+00 0.  1.
</event>
<event>
 7    1  0.2932676E-013  0.7246156E+02  0.7816164E-02  0.1226708E+00
        -11   -1    0    0    0    0  0.00000000000E+00  0.00000000000E+00  0.45593999997E+02  0.45594000000E+02  0.51100000000E-03 0.  1.
         11   -1    0    0    0    0 -0.00000000000E+00 -0.00000000000E+00 -0.45593999997E+02  0.45594000000E+02  0.51100000000E-03 0. -1.
    9900012    2    1    2    0    0 -0.69941568604E+01 -0.16832365211E+02  0.42933250161E+01  0.72461564448E+02  0.69999992384E+02 0.  0.
         12    1    1    2    0    0  0.69941568604E+01  0.16832365211E+02 -0.42933250161E+01  0.18726435552E+02  0.00000000000E+00 0. -1.
         11    1    3    3    0    0  0.20788880840E+01  0.16834623183E+02 -0.12934294396E+02  0.21331251374E+02  0.51100000000E-03 0. -1.
        -11    1    3    3    0    0  0.70737209473E+01  0.20740495483E+01 -0.17267671875E+01  0.75710590243E+01  0.51100000000E-03 0.  1.
         12    1    3    3    0    0 -0.16146765892E+02 -0.35741037943E+02  0.18954386600E+02  0.43559254050E+02  0.00000000000E+00 0. -1.
</event>
<event>
 7    1  0.2932676E-013  0.7246160E+02  0.7816164E-02  0.1226708E+00
        -11   -1    0    0    0    0  0.00000000000E+00  0.00000000000E+00  0.45593999997E+02  0.45594000000E+02  0.51100000000E-03 0.  1.
         11   -1    0    0    0    0 -0.00000000000E+00 -0.00000000000E+00 -0.45593999997E+02  0.45594000000E+02  0.51100000000E-03 0. -1.
    9900012    2    1    2    0    0 -0.18110507774E+02 -0.44534444864E+01 -0.16895113871E+01  0.72461598628E+02  0.70000036910E+02 0.  0.
         12    1    1    2    0    0  0.18110507774E+02  0.44534444864E+01  0.16895113871E+01  0.18726401372E+02  0.00000000000E+00 0. -1.
         11    1    3    3    0    0  0.39232592661E+01  0.11468686580E+02 -0.94287744947E+01  0.15356579172E+02  0.51100000000E-03 0. -1.
        -11    1    3    3    0    0 -0.17723719151E+00 -0.25577718250E+02 -0.98767125979E+01  0.27418981307E+02  0.51100000000E-03 0.  1.
        -12    1    3    3    0    0 -0.21856529848E+02  0.96555871838E+01  0.17615975706E+02  0.29686038148E+02  0.00000000000E+00 0.  1.
</event>
<event>
 7    1  0.2932676E-013  0.7246163E+02  0.7816164E-02  0.1226708E+00
        -11   -1    0    0    0    0  0.00000000000E+00  0.00000000000E+00  0.45593999997E+02  0.45594000000E+02  0.51100000000E-03 0.  1.
         11   -1    0    0    0    0 -0.00000000000E+00 -0.00000000000E+00 -0.45593999997E+02  0.45594000000E+02  0.51100000000E-03 0. -1.
    9900012    2    1    2    0    0 -0.95662189164E+01  0.15979843466E+02 -0.19516410917E+01  0.72461632373E+02  0.70000080869E+02 0.  0.
         12    1    1    2    0    0  0.95662189164E+01 -0.15979843466E+02  0.19516410917E+01  0.18726367627E+02  0.00000000000E+00 0. -1.
         11    1    3    3    0    0 -0.77915980535E+01  0.35734603254E+02 -0.43116516590E+01  0.36827451856E+02  0.51100000000E-03 0. -1.
        -11    1    3    3    0    0 -0.51475322713E+01  0.16719748426E+01 -0.94846866476E+01  0.10920250429E+02  0.51100000000E-03 0.  1.
        -12    1    3    3    0    0  0.33729114084E+01 -0.21426734630E+02  0.11844697215E+02  0.24713930088E+02  0.00000000000E+00 0.  1.
</event>
<event>
 7    1  0.2932676E-013  0.7246157E+02  0.7816164E-02  0.1226708E+00
        -11   -1    0    0    0    0  0.00000000000E+00  0.00000000000E+00  0.45593999997E+02  0.45594000000E+02  0.51100000000E-03 0.  1.
         11   -1    0    0    0    0 -0.00000000000E+00 -0.00000000000E+00 -0.45593999997E+02  0.45594000000E+02  0.51100000000E-03 0. -1.
    9900012    2    1    2    0    0 -0.18063852517E+02  0.38646444086E+01  0.30725995754E+01  0.72461571822E+02  0.70000001990E+02 0.  0.
         12    1    1    2    0    0  0.18063852517E+02 -0.38646444086E+01 -0.30725995754E+01  0.18726428178E+02  0.00000000000E+00 0. -1.
         11    1    3    3    0    0 -0.37881238878E+02  0.62860633553E+01  0.61145093924E+01  0.38883030705E+02  0.51100000000E-03 0. -1.
        -11    1    3    3    0    0 -0.20180065492E+01 -0.20610941034E+01  0.84303673388E+01  0.89101937725E+01  0.51100000000E-03 0.  1.
         12    1    3    3    0    0  0.21835392911E+02 -0.36032484331E+00 -0.11472277156E+02  0.24668347344E+02  0.00000000000E+00 0. -1.
</event>
<event>
 7    1  0.2932676E-013  0.7246152E+02  0.7816164E-02  0.1226708E+00
        -11   -1    0    0    0    0  0.00000000000E+00  0.00000000000E+00  0.45593999997E+02  0.45594000000E+02  0.51100000000E-03 0. -1.
         11   -1    0    0    0    0 -0.00000000000E+00 -0.00000000000E+00 -0.45593999997E+02  0.45594000000E+02  0.51100000000E-03 0.  1.
    9900012    2    1    2    0    0  0.10954955616E+02 -0.15162129576E+02 -0.88301899551E+00  0.72461522798E+02  0.69999938128E+02 0.  0.
         12    1    1    2    0    0 -0.10954955616E+02  0.15162129576E+02  0.88301899551E+00  0.18726477202E+02  0.00000000000E+00 0. -1.
         11    1    3    3    0    0  0.25468248225E+02 -0.61768007918E+01 -0.11669849429E+02  0.28687452338E+02  0.51100000000E-03 0. -1.
        -11    1    3    3    0    0 -0.48586993852E+01 -0.94972820469E+01 -0.13748885483E+02  0.17402217625E+02  0.51100000000E-03 0.  1.
        -12    1    3    3    0    0 -0.96545932242E+01  0.51195326237E+00  0.24535715916E+02  0.26371852835E+02  0.00000000000E+00 0.  1.
</event>
<event>
 7    1  0.2932676E-013  0.7246162E+02  0.7816164E-02  0.1226708E+00
        -11   -1    0    0    0    0  0.00000000000E+00  0.00000000000E+00  0.45593999997E+02  0.45594000000E+02  0.51100000000E-03 0. -1.
         11   -1    0    0    0    0 -0.00000000000E+00 -0.00000000000E+00 -0.45593999997E+02  0.45594000000E+02  0.51100000000E-03 0.  1.
    9900012    2    1    2    0    0 -0.18605607234E+02 -0.96679084664E+00 -0.18905379122E+01  0.72461616508E+02  0.70000060202E+02 0.  0.
         12    1    1    2    0    0  0.18605607234E+02  0.96679084664E+00  0.18905379122E+01  0.18726383492E+02  0.00000000000E+00 0. -1.
         11    1    3    3    0    0  0.10361221015E+02  0.82116288064E+01  0.18531420894E+02  0.22763991503E+02  0.51100000000E-03 0. -1.
        -11    1    3    3    0    0 -0.12370100389E+00 -0.73382453841E+01  0.67920359204E+01  0.99998449718E+01  0.51100000000E-03 0.  1.
        -12    1    3    3    0    0 -0.28843127245E+02 -0.18401742689E+01 -0.27213994726E+02  0.39697780033E+02  0.00000000000E+00 0.  1.
</event>
<event>
 7    1  0.2932676E-013  0.7246153E+02  0.7816164E-02  0.1226708E+00
        -11   -1    0    0    0    0  0.00000000000E+00  0.00000000000E+00  0.45593999997E+02  0.45594000000E+02  0.51100000000E-03 0.  1.
         11   -1    0    0    0    0 -0.00000000000E+00 -0.00000000000E+00 -0.45593999997E+02  0.45594000000E+02  0.51100000000E-03 0. -1.
    9900012    2    1    2    0    0  0.73157113248E+01 -0.19551766802E+01  0.17127121540E+02  0.72461531025E+02  0.69999948844E+02 0.  0.
         12    1    1    2    0    0 -0.73157113248E+01  0.19551766802E+01 -0.17127121540E+02  0.18726468975E+02  0.00000000000E+00 0. -1.
         11    1    3    3    0    0 -0.54428502728E+01 -0.27999407054E+01  0.15339091252E+02  0.16515205350E+02  0.51100000000E-03 0. -1.
        -11    1    3    3    0    0 -0.79369577652E+01 -0.21933297464E+02  0.77883630698E+01  0.24591125143E+02  0.51100000000E-03 0.  1.
         12    1    3    3    0    0  0.20695519363E+02  0.22778061489E+02 -0.60003327816E+01  0.31355200532E+02  0.00000000000E+00 0. -1.
</event>
<event>
 7    1  0.2932676E-013  0.7246155E+02  0.7816164E-02  0.1226708E+00
        -11   -1    0    0    0    0  0.00000000000E+00  0.00000000000E+00  0.45593999997E+02  0.45594000000E+02  0.51100000000E-03 0. -1.
         11   -1    0    0    0    0 -0.00000000000E+00 -0.00000000000E+00 -0.45593999997E+02  0.45594000000E+02  0.51100000000E-03 0.  1.
    9900012    2    1    2    0    0 -0.49322069551E+01  0.84715872506E+01  0.15955733293E+02  0.72461551300E+02  0.69999975257E+02 0.  0.
         12    1    1    2    0    0  0.49322069551E+01 -0.84715872506E+01 -0.15955733293E+02  0.18726448700E+02  0.00000000000E+00 0. -1.
         11    1    3    3    0    0 -0.23897951488E+02  0.20422072530E+02  0.12148454750E+02  0.33701010145E+02  0.51100000000E-03 0. -1.
        -11    1    3    3    0    0  0.30649387555E+01  0.73482810279E+01 -0.78413559582E+01  0.11174880186E+02  0.51100000000E-03 0.  1.
        -12    1    3    3    0    0  0.15900805777E+02 -0.19298766308E+02  0.11648634501E+02  0.27585660969E+02  0.00000000000E+00 0.  1.
</event>
<event>
 7    1  0.2932676E-013  0.7246157E+02  0.7816164E-02  0.1226708E+00
        -11   -1    0    0    0    0  0.00000000000E+00  0.00000000000E+00  0.45593999997E+02  0.45594000000E+02  0.51100000000E-03 0.  1.
         11   -1    0    0    0    0 -0.00000000000E+00 -0.00000000000E+00 -0.45593999997E+02  0.45594000000E+02  0.51100000000E-03 0. -1.
    9900012    2    1    2    0    0 -0.10828784211E+02 -0.60321680361E+00 -0.15266061546E+02  0.72461572867E+02  0.70000003352E+02 0.  0.
         12    1    1    2    0    0  0.10828784211E+02  0.60321680361E+00  0.15266061546E+02  0.18726427133E+02  0.00000000000E+00 0. -1.
         11    1    3    3    0    0  0.39596846396E+01  0.10989899288E+01 -0.25190422946E+02  0.25523406704E+02  0.51100000000E-03 0. -1.
        -11    1    3    3    0    0  0.61016036673E+01  0.16771559201E+02  0.56874894423E+01  0.18731318740E+02  0.51100000000E-03 0.  1.
        -12    1    3    3    0    0 -0.20890072518E+02 -0.18473765933E+02  0.42368719572E+01  0.28206847423E+02  0.00000000000E+00 0.  1.
</event>
<event>
 7    1  0.2932676E-013  0.7246154E+02  0.7816164E-02  0.1226708E+00
        -11   -1    0    0    0    0  0.00000000000E+00  0.00000000000E+00  0.45593999997E+02  0.45594000000E+02  0.51100000000E-03 0.  1.
         11   -1    0    0    0    0 -0.00000000000E+00 -0.00000000000E+00 -0.45593999997E+02  0.45594000000E+02  0.51100000000E-03 0. -1.
    9900012    2    1    2    0    0 -0.86829463175E+01  0.15440571559E+02 -0.60725166878E+01  0.72461541025E+02  0.69999961871E+02 0.  0.
         12    1    1    2    0    0  0.86829463175E+01 -0.15440571559E+02  0.60725166878E+01  0.18726458975E+02  0.00000000000E+00 0. -1.
         11    1    3    3    0    0  0.44477492142E+01 -0.59203943795E+01  0.74345135911E+01  0.10493118473E+02  0.51100000000E-03 0. -1.
        -11    1    3    3    0    0  0.79432482350E+01 -0.15455171760E+02  0.23072584560E+00  0.17378456817E+02  0.51100000000E-03 0.  1.
         12    1    3    3    0    0 -0.21073943767E+02  0.36816137699E+02 -0.13737756125E+02  0.44589965735E+02  0.00000000000E+00 0. -1.
</event>
<event>
 7    1  0.2932676E-013  0.7246157E+02  0.7816164E-02  0.1226708E+00
        -11   -1    0    0    0    0  0.00000000000E+00  0.00000000000E+00  0.45593999997E+02  0.45594000000E+02  0.51100000000E-03 0. -1.
         11   -1    0    0    0    0 -0.00000000000E+00 -0.00000000000E+00 -0.45593999997E+02  0.45594000000E+02  0.51100000000E-03 0.  1.
    9900012    2    1    2    0    0 -0.51668202446E+01 -0.17784310952E+02 -0.27751156515E+01  0.72461574437E+02  0.70000005396E+02 0.  0.
         12    1    1    2    0    0  0.51668202446E+01  0.17784310952E+02  0.27751156515E+01  0.18726425563E+02  0.00000000000E+00 0. -1.
         11    1    3    3    0    0  0.21509214261E+02 -0.10054601367E+02 -0.19048609556E+01  0.23819525652E+02  0.51100000000E-03 0. -1.
        -11    1    3    3    0    0  0.55860194714E+01  0.96956650637E+01 -0.39000295620E+01  0.11849884616E+02  0.51100000000E-03 0.  1.
        -12    1    3    3    0    0 -0.32262053977E+02 -0.17425374649E+02  0.30297748661E+01  0.36792164169E+02  0.00000000000E+00 0.  1.
</event>
<event>
 7    1  0.2932676E-013  0.7246165E+02  0.7816164E-02  0.1226708E+00
        -11   -1    0    0    0    0  0.00000000000E+00  0.00000000000E+00  0.45593999997E+02  0.45594000000E+02  0.51100000000E-03 0.  1.
         11   -1    0    0    0    0 -0.00000000000E+00 -0.00000000000E+00 -0.45593999997E+02  0.45594000000E+02  0.51100000000E-03 0. -1.
    9900012    2    1    2    0    0  0.18512267129E+02 -0.90642092170E+00  0.26740533517E+01  0.72461649729E+02  0.70000103478E+02 0.  0.
         12    1    1    2    0    0 -0.18512267129E+02  0.90642092170E+00 -0.26740533517E+01  0.18726350271E+02  0.00000000000E+00 0. -1.
         11    1    3    3    0    0 -0.17969120530E+02 -0.83394578009E+01 -0.11306472027E+01  0.19842233049E+02  0.51100000000E-03 0. -1.
        -11    1    3    3    0    0 -0.33628219436E+01 -0.72115458819E+01 -0.48183003148E+01  0.93022031592E+01  0.51100000000E-03 0.  1.
        -12    1    3    3    0    0  0.39844209603E+02  0.14644582761E+02  0.86230008692E+01  0.43317213520E+02  0.00000000000E+00 0.  1.
</event>
<event>
 7    1  0.2932676E-013  0.7246139E+02  0.7816164E-02  0.1226708E+00
        -11   -1    0    0    0    0  0.00000000000E+00  0.00000000000E+00  0.45593999997E+02  0.45594000000E+02  0.51100000000E-03 0. -1.
         11   -1    0    0    0    0 -0.00000000000E+00 -0.00000000000E+00 -0.45593999997E+02  0.45594000000E+02  0.51100000000E-03 0.  1.
    9900012    2    1    2    0    0  0.16860418881E+01 -0.15814033337E+02 -0.98873341000E+01  0.72461394241E+02  0.69999770658E+02 0.  0.
         12    1    1    2    0    0 -0.16860418881E+01  0.15814033337E+02  0.98873341000E+01  0.18726605759E+02  0.00000000000E+00 0. -1.
         11    1    3    3    0    0 -0.44725538271E+01  0.95322115219E+01  0.58110194983E+01  0.12026418507E+02  0.51100000000E-03 0. -1.
        -11    1    3    3    0    0 -0.16640256007E+02 -0.18459383215E+02 -0.24638712341E+02  0.34995901113E+02  0.51100000000E-03 0.  1.
         12    1    3    3    0    0  0.22798851722E+02 -0.68868616441E+01  0.89403587424E+01  0.25439074621E+02  0.00000000000E+00 0. -1.
</event>
<event>
 7    1  0.2932676E-013  0.7246154E+02  0.7816164E-02  0.1226708E+00
        -11   -1    0    0    0    0  0.00000000000E+00  0.00000000000E+00  0.45593999997E+02  0.45594000000E+02  0.51100000000E-03 0.  1.
         11   -1    0    0    0    0 -0.00000000000E+00 -0.00000000000E+00 -0.45593999997E+02  0.45594000000E+02  0.51100000000E-03 0. -1.
    9900012    2    1    2    0    0  0.58951475333E+01  0.10043045777E+02 -0.14665081113E+02  0.72461544463E+02  0.69999966350E+02 0.  0.
         12    1    1    2    0    0 -0.58951475333E+01 -0.10043045777E+02  0.14665081113E+02  0.18726455537E+02  0.00000000000E+00 0. -1.
         11    1    3    3    0    0 -0.57580509045E+01  0.15653660882E+02 -0.20670058039E+02  0.26560187289E+02  0.51100000000E-03 0. -1.
        -11    1    3    3    0    0 -0.91573709104E+01 -0.94675424699E+01 -0.12222844557E+02  0.17969132749E+02  0.51100000000E-03 0.  1.
        -12    1    3    3    0    0  0.20810569348E+02  0.38569273648E+01  0.18227821483E+02  0.27932224425E+02  0.00000000000E+00 0.  1.
</event>
<event>
 7    1  0.2932676E-013  0.7246158E+02  0.7816164E-02  0.1226708E+00
        -11   -1    0    0    0    0  0.00000000000E+00  0.00000000000E+00  0.45593999997E+02  0.45594000000E+02  0.51100000000E-03 0.  1.
         11   -1    0    0    0    0 -0.00000000000E+00 -0.00000000000E+00 -0.45593999997E+02  0.45594000000E+02  0.51100000000E-03 0. -1.
    9900012    2    1    2    0    0  0.43209429199E+01  0.17601863641E+02 -0.47098323417E+01  0.72461583577E+02  0.70000017304E+02 0.  0.
         12    1    1    2    0    0 -0.43209429199E+01 -0.17601863641E+02  0.47098323417E+01  0.18726416423E+02  0.00000000000E+00 0. -1.
         11    1    3    3    0    0  0.70284599324E+01 -0.38266780395E+01  0.10884234310E+02  0.13509599203E+02  0.51100000000E-03 0. -1.
        -11    1    3    3    0    0  0.11948836996E+02  0.32617577968E+01  0.15645713419E+02  0.19955002333E+02  0.51100000000E-03 0.  1.
         12    1    3    3    0    0 -0.14656354008E+02  0.18166783884E+02 -0.31239780070E+02  0.38996982041E+02  0.00000000000E+00 0. -1.
</event>
<event>
 7    1  0.2932676E-013  0.7246155E+02  0.7816164E-02  0.1226708E+00
        -11   -1    0    0    0    0  0.00000000000E+00  0.00000000000E+00  0.45593999997E+02  0.45594000000E+02  0.51100000000E-03 0.  1.
         11   -1    0    0    0    0 -0.00000000000E+00 -0.00000000000E+00 -0.45593999997E+02  0.45594000000E+02  0.51100000000E-03 0. -1.
    9900012    2    1    2    0    0 -0.13094932064E+02 -0.81107180772E+01  0.10649833876E+02  0.72461549320E+02  0.69999972677E+02 0.  0.
         12    1    1    2    0    0  0.13094932064E+02  0.81107180772E+01 -0.10649833876E+02  0.18726450680E+02  0.00000000000E+00 0. -1.
         11    1    3    3    0    0 -0.22537353551E+02 -0.83882603985E+01  0.91865049648E+01  0.25742709479E+02  0.51100000000E-03 0. -1.
        -11    1    3    3    0    0 -0.16369352628E+02  0.85320060173E+01  0.56344297953E+01  0.19300197707E+02  0.51100000000E-03 0.  1.
         12    1    3    3    0    0  0.25811774115E+02 -0.82544636960E+01 -0.41711008844E+01  0.27418642134E+02  0.00000000000E+00 0. -1.
</event>
<event>
 7    1  0.2932676E-013  0.7246161E+02  0.7816164E-02  0.1226708E+00
        -11   -1    0    0    0    0  0.00000000000E+00  0.00000000000E+00  0.45593999997E+02  0.45594000000E+02  0.51100000000E-03 0.  1.
         11   -1    0    0    0    0 -0.00000000000E+00 -0.00000000000E+00 -0.45593999997E+02  0.45594000000E+02  0.51100000000E-03 0. -1.
    9900012    2    1    2    0    0 -0.38961232722E+01  0.13961407656E+02  0.11856518064E+02  0.72461609507E+02  0.70000051082E+02 0.  0.
         12    1    1    2    0    0  0.38961232722E+01 -0.13961407656E+02 -0.11856518064E+02  0.18726390493E+02  0.00000000000E+00 0. -1.
         11    1    3    3    0    0 -0.72871101739E+01 -0.60066747104E+01  0.80771055330E+01  0.12426654812E+02  0.51100000000E-03 0. -1.
        -11    1    3    3    0    0 -0.25676612592E+02  0.87347141751E+01  0.87071475611E+01  0.28485050198E+02  0.51100000000E-03 0.  1.
         12    1    3    3    0    0  0.29067599493E+02  0.11233368191E+02 -0.49277350304E+01  0.31549904497E+02  0.00000000000E+00 0. -1.
</event>
<event>
 7    1  0.2932676E-013  0.7246135E+02  0.7816164E-02  0.1226709E+00
        -11   -1    0    0    0    0  0.00000000000E+00  0.00000000000E+00  0.45593999997E+02  0.45594000000E+02  0.51100000000E-03 0. -1.
         11   -1    0    0    0    0 -0.00000000000E+00 -0.00000000000E+00 -0.45593999997E+02  0.45594000000E+02  0.51100000000E-03 0.  1.
    9900012    2    1    2    0    0  0.16310420292E+02 -0.73853718878E+01 -0.54876185908E+01  0.72461348249E+02  0.69999710744E+02 0.  0.
         12    1    1    2    0    0 -0.16310420292E+02  0.73853718878E+01  0.54876185908E+01  0.18726651751E+02  0.00000000000E+00 0. -1.
         11    1    3    3    0    0  0.14199308533E+02  0.27396487165E+02 -0.95304066726E-01  0.30857688749E+02  0.51100000000E-03 0. -1.
        -11    1    3    3    0    0  0.10223589208E+02 -0.19488476639E+02 -0.92416436534E+01  0.23869027540E+02  0.51100000000E-03 0.  1.
        -12    1    3    3    0    0 -0.81124774502E+01 -0.15293382414E+02  0.38493291294E+01  0.17734631961E+02  0.00000000000E+00 0.  1.
</event>
<event>
 7    1  0.2932676E-013  0.7246158E+02  0.7816164E-02  0.1226708E+00
        -11   -1    0    0    0    0  0.00000000000E+00  0.00000000000E+00  0.45593999997E+02  0.45594000000E+02  0.51100000000E-03 0. -1.
         11   -1    0    0    0    0 -0.00000000000E+00 -0.00000000000E+00 -0.45593999997E+02  0.45594000000E+02  0.51100000000E-03 0.  1.
    9900012    2    1    2    0    0  0.18631509586E+02 -0.11806116162E+01  0.14669014956E+01  0.72461580342E+02  0.70000013088E+02 0.  0.
         12    1    1    2    0    0 -0.18631509586E+02  0.11806116162E+01 -0.14669014956E+01  0.18726419658E+02  0.00000000000E+00 0. -1.
         11    1    3    3    0    0  0.43950041675E+00 -0.80381111649E+01 -0.68646796178E+01  0.10579613331E+02  0.51100000000E-03 0. -1.
        -11    1    3    3    0    0  0.20917274169E+01  0.30865889005E+01 -0.24680170125E+02  0.24960231415E+02  0.51100000000E-03 0.  1.
         12    1    3    3    0    0  0.16100281752E+02  0.37709106483E+01  0.33011751238E+02  0.36921735596E+02  0.00000000000E+00 0. -1.
</event>
<event>
 7    1  0.2932676E-013  0.7246155E+02  0.7816164E-02  0.1226708E+00
        -11   -1    0    0    0    0  0.00000000000E+00  0.00000000000E+00  0.45593999997E+02  0.45594000000E+02  0.51100000000E-03 0. -1.
         11   -1    0    0    0    0 -0.00000000000E+00 -0.00000000000E+00 -0.45593999997E+02  0.45594000000E+02  0.51100000000E-03 0.  1.
    9900012    2    1    2    0    0 -0.64129463161E+01  0.69165450405E+01 -0.16177627101E+02  0.72461545600E+02  0.69999967832E+02 0.  0.
         12    1    1    2    0    0  0.64129463161E+01 -0.69165450405E+01  0.16177627101E+02  0.18726454400E+02  0.00000000000E+00 0. -1.
         11    1    3    3    0    0 -0.39346098762E+01 -0.13747555376E+02  0.65164556265E+01  0.15714344654E+02  0.51100000000E-03 0. -1.
        -11    1    3    3    0    0  0.14223319823E+02 -0.90801676608E+01 -0.23730744075E+01  0.17040650044E+02  0.51100000000E-03 0.  1.
         12    1    3    3    0    0 -0.16701656263E+02  0.29744268078E+02 -0.20321008320E+02  0.39706550902E+02  0.00000000000E+00 0. -1.
</event>
<event>
 7    1  0.2932676E-013  0.7246162E+02  0.7816164E-02  0.1226708E+00
        -11   -1    0    0    0    0  0.00000000000E+00  0.00000000000E+00  0.45593999997E+02  0.45594000000E+02  0.51100000000E-03 0. -1.
         11   -1    0    0    0    0 -0.00000000000E+00 -0.00000000000E+00 -0.45593999997E+02  0.45594000000E+02  0.51100000000E-03 0.  1.
    9900012    2    1    2    0    0 -0.12629826633E+02  0.10164514089E+02 -0.93726989719E+01  0.72461618784E+02  0.70000063166E+02 0.  0.
         12    1    1    2    0    0  0.12629826633E+02 -0.10164514089E+02  0.93726989719E+01  0.18726381216E+02  0.00000000000E+00 0. -1.
         11    1    3    3    0    0 -0.10560984472E+02  0.56100691855E+01  0.19363949508E+02  0.22758950110E+02  0.51100000000E-03 0. -1.
        -11    1    3    3    0    0  0.30527765847E+01  0.91828892341E+01  0.78561011830E+01  0.12464478554E+02  0.51100000000E-03 0.  1.
        -12    1    3    3    0    0 -0.51216187453E+01 -0.46284443302E+01 -0.36592749663E+02  0.37238190120E+02  0.00000000000E+00 0.  1.
</event>
<event>
 7    1  0.2932676E-013  0.7246157E+02  0.7816164E-02  0.1226708E+00
        -11   -1    0    0    0    0  0.00000000000E+00  0.00000000000E+00  0.45593999997E+02  0.45594000000E+02  0.51100000000E-03 0. -1.
         11   -1    0    0    0    0 -0.00000000000E+00 -0.00000000000E+00 -0.45593999997E+02  0.45594000000E+02  0.51100000000E-03 0.  1.
    9900012    2    1    2    0    0  0.99165500197E+01  0.52064411573E+01 -0.15007800978E+02  0.72461572577E+02  0.70000002974E+02 0.  0.
         12    1    1    2    0    0 -0.99165500197E+01 -0.52064411573E+01  0.15007800978E+02  0.18726427423E+02  0.00000000000E+00 0. -1.
         11    1    3    3    0    0  0.32885788932E+02  0.21875866703E+02 -0.46297672846E+01  0.39767617518E+02  0.51100000000E-03 0. -1.
        -11    1    3    3    0    0  0.36186922538E+00 -0.35686231580E+00 -0.33268930089E+01  0.33654891773E+01  0.51100000000E-03 0.  1.
        -12    1    3    3    0    0 -0.23331108137E+02 -0.16312563230E+02 -0.70511406846E+01  0.29328465882E+02  0.00000000000E+00 0.  1.
</event>
<event>
 7    1  0.2932676E-013  0.7246166E+02  0.7816164E-02  0.1226708E+00
        -11   -1    0    0    0    0  0.00000000000E+00  0.00000000000E+00  0.45593999997E+02  0.45594000000E+02  0.51100000000E-03 0.  1.
         11   -1    0    0    0    0 -0.00000000000E+00 -0.00000000000E+00 -0.45593999997E+02  0.45594000000E+02  0.51100000000E-03 0. -1.
    9900012    2    1    2    0    0  0.45616798509E+00  0.13215418324E+02  0.13259730964E+02  0.72461659301E+02  0.70000115948E+02 0.  0.
         12    1    1    2    0    0 -0.45616798509E+00 -0.13215418324E+02 -0.13259730964E+02  0.18726340699E+02  0.00000000000E+00 0. -1.
         11    1    3    3    0    0 -0.17313341196E+00 -0.91722942136E+01 -0.69143789116E+01  0.11487801892E+02  0.51100000000E-03 0. -1.
        -11    1    3    3    0    0  0.49683614316E+01 -0.47839777317E+01  0.30736066923E+02  0.31500426480E+02  0.51100000000E-03 0.  1.
         12    1    3    3    0    0 -0.43390600345E+01  0.27171690269E+02 -0.10561957047E+02  0.29473430929E+02  0.00000000000E+00 0. -1.
</event>
<event>
 7    1  0.2932676E-013  0.7246145E+02  0.7816164E-02  0.1226708E+00
        -11   -1    0    0    0    0  0.00000000000E+00  0.00000000000E+00  0.45593999997E+02  0.45594000000E+02  0.51100000000E-03 0.  1.
         11   -1    0    0    0    0 -0.00000000000E+00 -0.00000000000E+00 -0.45593999997E+02  0.45594000000E+02  0.51100000000E-03 0. -1.
    9900012    2    1    2    0    0  0.68262375865E+01  0.15256674349E+02  0.84451289640E+01  0.72461445725E+02  0.69999837725E+02 0.  0.
         12    1    1    2    0    0 -0.68262375865E+01 -0.15256674349E+02 -0.84451289640E+01  0.18726554275E+02  0.00000000000E+00 0. -1.
         11    1    3    3    0    0  0.84904986258E+01  0.28906941818E+01  0.26043141705E+01  0.93395466874E+01  0.51100000000E-03 0. -1.
        -11    1    3    3    0    0  0.11753988222E+02  0.78281009555E+01  0.31103331418E+02  0.34159224658E+02  0.51100000000E-03 0.  1.
         12    1    3    3    0    0 -0.13418249261E+02  0.45378792122E+01 -0.25262516625E+02  0.28962674379E+02  0.00000000000E+00 0. -1.
</event>
<event>
 7    1  0.2932676E-013  0.7246155E+02  0.7816164E-02  0.1226708E+00
        -11   -1    0    0    0    0  0.00000000000E+00  0.00000000000E+00  0.45593999997E+02  0.45594000000E+02  0.51100000000E-03 0.  1.
         11   -1    0    0    0    0 -0.00000000000E+00 -0.00000000000E+00 -0.45593999997E+02  0.45594000000E+02  0.51100000000E-03 0. -1.
    9900012    2    1    2    0    0  0.17612224251E+01  0.44303556297E+01  0.18109385522E+02  0.72461553476E+02  0.69999978091E+02 0.  0.
         12    1    1    2    0    0 -0.17612224251E+01 -0.44303556297E+01 -0.18109385522E+02  0.18726446524E+02  0.00000000000E+00 0. -1.
         11    1    3    3    0    0  0.92709677051E+01 -0.17720063727E+01 -0.37755518164E+01  0.10165905791E+02  0.51100000000E-03 0. -1.
        -11    1    3    3    0    0  0.24399336959E+02 -0.40181032355E+00  0.16007739756E+02  0.29184530627E+02  0.51100000000E-03 0.  1.
         12    1    3    3    0    0 -0.31909082239E+02  0.66041723259E+01  0.58771975821E+01  0.33111117058E+02  0.00000000000E+00 0. -1.
</event>
<event>
 7    1  0.2932676E-013  0.7246157E+02  0.7816164E-02  0.1226708E+00
        -11   -1    0    0    0    0  0.00000000000E+00  0.00000000000E+00  0.45593999997E+02  0.45594000000E+02  0.51100000000E-03 0.  1.
         11   -1    0    0    0    0 -0.00000000000E+00 -0.00000000000E+00 -0.45593999997E+02  0.45594000000E+02  0.51100000000E-03 0. -1.
    9900012    2    1    2    0    0  0.57976354956E+01  0.86002784440E+01  0.15591727217E+02  0.72461566163E+02  0.69999994618E+02 0.  0.
         12    1    1    2    0    0 -0.57976354956E+01 -0.86002784440E+01 -0.15591727217E+02  0.18726433837E+02  0.00000000000E+00 0. -1.
         11    1    3    3    0    0 -0.17328793770E+02 -0.93537623318E+01 -0.15361657515E+02  0.24975197399E+02  0.51100000000E-03 0. -1.
        -11    1    3    3    0    0  0.19410529372E+02  0.24464062513E+01  0.13082982038E+02  0.23535462037E+02  0.51100000000E-03 0.  1.
        -12    1    3    3    0    0  0.37158998932E+01  0.15507634524E+02  0.17870402694E+02  0.23950906726E+02  0.00000000000E+00 0.  1.
</event>
<event>
 7    1  0.2932676E-013  0.7246154E+02  0.7816164E-02  0.1226708E+00
        -11   -1    0    0    0    0  0.00000000000E+00  0.00000000000E+00  0.45593999997E+02  0.45594000000E+02  0.51100000000E-03 0. -1.
         11   -1    0    0    0    0 -0.00000000000E+00 -0.00000000000E+00 -0.45593999997E+02  0.45594000000E+02  0.51100000000E-03 0.  1.
    9900012    2    1    2    0    0 -0.85869380268E+00 -0.12265060718E+02 -0.14124838576E+02  0.72461544536E+02  0.69999966444E+02 0.  0.
         12    1    1    2    0    0  0.85869380268E+00  0.12265060718E+02  0.14124838576E+02  0.18726455464E+02  0.00000000000E+00 0. -1.
         11    1    3    3    0    0 -0.14494809021E+02 -0.55487039686E+01 -0.31550427307E+01  0.15837989114E+02  0.51100000000E-03 0.  1.
        -11    1    3    3    0    0  0.25305973125E+02  0.97931628869E+01  0.86209182821E+01  0.28471363638E+02  0.51100000000E-03 0. -1.
         12    1    3    3    0    0 -0.11669857907E+02 -0.16509519636E+02 -0.19590714128E+02  0.28152191784E+02  0.00000000000E+00 0. -1.
</event>
<event>
 7    1  0.2932676E-013  0.7246160E+02  0.7816164E-02  0.1226708E+00
        -11   -1    0    0    0    0  0.00000000000E+00  0.00000000000E+00  0.45593999997E+02  0.45594000000E+02  0.51100000000E-03 0.  1.
         11   -1    0    0    0    0 -0.00000000000E+00 -0.00000000000E+00 -0.45593999997E+02  0.45594000000E+02  0.51100000000E-03 0. -1.
    9900012    2    1    2    0    0 -0.13420710053E+02  0.75541343040E+01 -0.10653521924E+02  0.72461603315E+02  0.70000043016E+02 0.  0.
         12    1    1    2    0    0  0.13420710053E+02 -0.75541343040E+01  0.10653521924E+02  0.18726396685E+02  0.00000000000E+00 0. -1.
         11    1    3    3    0    0 -0.11282780715E+02  0.15578730137E+02  0.12724081108E+02  0.23062961945E+02  0.51100000000E-03 0. -1.
        -11    1    3    3    0    0  0.31739237171E+01 -0.33981473128E+00  0.12202224139E+02  0.12612832355E+02  0.51100000000E-03 0.  1.
         12    1    3    3    0    0 -0.53118530551E+01 -0.76847811022E+01 -0.35579827171E+02  0.36785809016E+02  0.00000000000E+00 0. -1.
</event>
<event>
 7    1  0.2932676E-013  0.7246156E+02  0.7816164E-02  0.1226708E+00
        -11   -1    0    0    0    0  0.00000000000E+00  0.00000000000E+00  0.45593999997E+02  0.45594000000E+02  0.51100000000E-03 0. -1.
         11   -1    0    0    0    0 -0.00000000000E+00 -0.00000000000E+00 -0.45593999997E+02  0.45594000000E+02  0.51100000000E-03 0.  1.
    9900012    2    1    2    0    0  0.15057314367E+02  0.92524727176E+01  0.61926220842E+01  0.72461560520E+02  0.69999987267E+02 0.  0.
         12    1    1    2    0    0 -0.15057314367E+02 -0.92524727176E+01 -0.61926220842E+01  0.18726439480E+02  0.00000000000E+00 0. -1.
         11    1    3    3    0    0 -0.65180894260E+01  0.75068550645E+01 -0.81594273610E+01  0.12861361430E+02  0.51100000000E-03 0. -1.
        -11    1    3    3    0    0  0.36212949940E+02 -0.36478466371E+01 -0.26913074942E+01  0.36495584182E+02  0.51100000000E-03 0.  1.
         12    1    3    3    0    0 -0.14637546147E+02  0.53934642902E+01  0.17043356939E+02  0.23104614908E+02  0.00000000000E+00 0. -1.
</event>
<event>
 7    1  0.2932676E-013  0.7246151E+02  0.7816164E-02  0.1226708E+00
        -11   -1    0    0    0    0  0.00000000000E+00  0.00000000000E+00  0.45593999997E+02  0.45594000000E+02  0.51100000000E-03 0.  1.
         11   -1    0    0    0    0 -0.00000000000E+00 -0.00000000000E+00 -0.45593999997E+02  0.45594000000E+02  0.51100000000E-03 0. -1.
    9900012    2    1    2    0    0  0.12914666854E+02  0.13171988140E+02 -0.32235805943E+01  0.72461511718E+02  0.69999923694E+02 0.  0.
         12    1    1    2    0    0 -0.12914666854E+02 -0.13171988140E+02  0.32235805943E+01  0.18726488282E+02  0.00000000000E+00 0. -1.
         11    1    3    3    0    0 -0.66881412839E+01 -0.45622963469E+01 -0.62217400258E+01  0.10210574470E+02  0.51100000000E-03 0. -1.
        -11    1    3    3    0    0 -0.12126318366E+02  0.52976937895E+01  0.20143746183E+02  0.24101528316E+02  0.51100000000E-03 0.  1.
         12    1    3    3    0    0  0.31729126504E+02  0.12436590697E+02 -0.17145586751E+02  0.38149408933E+02  0.00000000000E+00 0. -1.
</event>
<event>
 7    1  0.2932676E-013  0.7246166E+02  0.7816164E-02  0.1226708E+00
        -11   -1    0    0    0    0  0.00000000000E+00  0.00000000000E+00  0.45593999997E+02  0.45594000000E+02  0.51100000000E-03 0. -1.
         11   -1    0    0    0    0 -0.00000000000E+00 -0.00000000000E+00 -0.45593999997E+02  0.45594000000E+02  0.51100000000E-03 0.  1.
    9900012    2    1    2    0    0 -0.65806760370E+01 -0.11186538022E+02 -0.13499334695E+02  0.72461655796E+02  0.70000111382E+02 0.  0.
         12    1    1    2    0    0  0.65806760370E+01  0.11186538022E+02  0.13499334695E+02  0.18726344204E+02  0.00000000000E+00 0. -1.
         11    1    3    3    0    0 -0.75130590008E+01  0.14249472540E+02  0.13713773600E+02  0.21155640142E+02  0.51100000000E-03 0. -1.
        -11    1    3    3    0    0  0.14202688858E+02 -0.75990731637E+01 -0.23910581446E+02  0.28830161101E+02  0.51100000000E-03 0.  1.
        -12    1    3    3    0    0 -0.13270305895E+02 -0.17836937398E+02 -0.33025268493E+01  0.22475854553E+02  0.00000000000E+00 0.  1.
</event>
<event>
 7    1  0.2932676E-013  0.7246167E+02  0.7816164E-02  0.1226708E+00
        -11   -1    0    0    0    0  0.00000000000E+00  0.00000000000E+00  0.45593999997E+02  0.45594000000E+02  0.51100000000E-03 0. -1.
         11   -1    0    0    0    0 -0.00000000000E+00 -0.00000000000E+00 -0.45593999997E+02  0.45594000000E+02  0.51100000000E-03 0.  1.
    9900012    2    1    2    0    0 -0.71101964244E+01  0.49837063782E+01 -0.16591666187E+02  0.72461665353E+02  0.70000123831E+02 0.  0.
         12    1    1    2    0    0  0.71101964244E+01 -0.49837063782E+01  0.16591666187E+02  0.18726334647E+02  0.00000000000E+00 0. -1.
         11    1    3    3    0    0 -0.11591025328E+01  0.13383499447E+02 -0.19912058584E+02  0.24019817931E+02  0.51100000000E-03 0. -1.
        -11    1    3    3    0    0  0.13735055676E+02 -0.17827733987E+02 -0.79608069682E+01  0.23871621256E+02  0.51100000000E-03 0.  1.
         12    1    3    3    0    0 -0.19686149567E+02  0.94279409190E+01  0.11281199365E+02  0.24570226166E+02  0.00000000000E+00 0. -1.
</event>
<event>
 7    1  0.2932676E-013  0.7246160E+02  0.7816164E-02  0.1226708E+00
        -11   -1    0    0    0    0  0.00000000000E+00  0.00000000000E+00  0.45593999997E+02  0.45594000000E+02  0.51100000000E-03 0.  1.
         11   -1    0    0    0    0 -0.00000000000E+00 -0.00000000000E+00 -0.45593999997E+02  0.45594000000E+02  0.51100000000E-03 0. -1.
    9900012    2    1    2    0    0  0.18224026983E+02 -0.39964080575E+01  0.16098811259E+01  0.72461597407E+02  0.70000035319E+02 0.  0.
         12    1    1    2    0    0 -0.18224026983E+02  0.39964080575E+01 -0.16098811259E+01  0.18726402593E+02  0.00000000000E+00 0. -1.
         11    1    3    3    0    0  0.81874566279E+01  0.76646327078E+01  0.20652239963E+00  0.11217116044E+02  0.51100000000E-03 0. -1.
        -11    1    3    3    0    0 -0.44233651415E+01 -0.13404187795E+02  0.27753680571E+02  0.31136878378E+02  0.51100000000E-03 0.  1.
         12    1    3    3    0    0  0.14459935497E+02  0.17431470301E+01 -0.26350321845E+02  0.30107602984E+02  0.00000000000E+00 0. -1.
</event>
<event>
 7    1  0.2932676E-013  0.7246156E+02  0.7816164E-02  0.1226708E+00
        -11   -1    0    0    0    0  0.00000000000E+00  0.00000000000E+00  0.45593999997E+02  0.45594000000E+02  0.51100000000E-03 0.  1.
         11   -1    0    0    0    0 -0.00000000000E+00 -0.00000000000E+00 -0.45593999997E+02  0.45594000000E+02  0.51100000000E-03 0. -1.
    9900012    2    1    2    0    0  0.13967882161E+02  0.11126043165E+02 -0.56381628512E+01  0.72461562835E+02  0.69999990282E+02 0.  0.
         12    1    1    2    0    0 -0.13967882161E+02 -0.11126043165E+02  0.56381628512E+01  0.18726437165E+02  0.00000000000E+00 0. -1.
         11    1    3    3    0    0 -0.12057756538E+01  0.14802727909E+01 -0.17453926002E+02  0.17558036212E+02  0.51100000000E-03 0. -1.
        -11    1    3    3    0    0 -0.34835310338E+01 -0.80004819182E+01 -0.15264755054E+02  0.17582816796E+02  0.51100000000E-03 0.  1.
         12    1    3    3    0    0  0.18657188849E+02  0.17646252293E+02  0.27080518205E+02  0.37320709826E+02  0.00000000000E+00 0. -1.
</event>
<event>
 7    1  0.2932676E-013  0.7246137E+02  0.7816164E-02  0.1226709E+00
        -11   -1    0    0    0    0  0.00000000000E+00  0.00000000000E+00  0.45593999997E+02  0.45594000000E+02  0.51100000000E-03 0. -1.
         11   -1    0    0    0    0 -0.00000000000E+00 -0.00000000000E+00 -0.45593999997E+02  0.45594000000E+02  0.51100000000E-03 0.  1.
    9900012    2    1    2    0    0  0.72205252040E+01  0.15433026612E+02 -0.77699678139E+01  0.72461369378E+02  0.69999738269E+02 0.  0.
         12    1    1    2    0    0 -0.72205252040E+01 -0.15433026612E+02  0.77699678139E+01  0.18726630622E+02  0.00000000000E+00 0. -1.
         11    1    3    3    0    0  0.17828190308E+02  0.71842429541E+01  0.33430749253E+01  0.19509840253E+02  0.51100000000E-03 0. -1.
        -11    1    3    3    0    0  0.67065532980E+01  0.13682265007E+02  0.14848962485E+02  0.21276134988E+02  0.51100000000E-03 0.  1.
        -12    1    3    3    0    0 -0.17314218402E+02 -0.54334813496E+01 -0.25962005224E+02  0.31675394137E+02  0.00000000000E+00 0.  1.
</event>
<event>
 7    1  0.2932676E-013  0.7246153E+02  0.7816164E-02  0.1226708E+00
        -11   -1    0    0    0    0  0.00000000000E+00  0.00000000000E+00  0.45593999997E+02  0.45594000000E+02  0.51100000000E-03 0.  1.
         11   -1    0    0    0    0 -0.00000000000E+00 -0.00000000000E+00 -0.45593999997E+02  0.45594000000E+02  0.51100000000E-03 0. -1.
    9900012    2    1    2    0    0 -0.53122265222E+01  0.37948432379E+01  0.17551642449E+02  0.72461528402E+02  0.69999945428E+02 0.  0.
         12    1    1    2    0    0  0.53122265222E+01 -0.37948432379E+01 -0.17551642449E+02  0.18726471598E+02  0.00000000000E+00 0. -1.
         11    1    3    3    0    0  0.53278670278E+01  0.24792098755E+00 -0.25197306211E+02  0.25755618269E+02  0.51100000000E-03 0. -1.
        -11    1    3    3    0    0 -0.84926398818E+00 -0.22305157267E+01 -0.85786591764E-01  0.23882649202E+01  0.51100000000E-03 0.  1.
        -12    1    3    3    0    0 -0.97908295618E+01  0.57774379771E+01  0.42834735252E+02  0.44317645213E+02  0.00000000000E+00 0.  1.
</event>
<event>
 7    1  0.2932676E-013  0.7246163E+02  0.7816164E-02  0.1226708E+00
        -11   -1    0    0    0    0  0.00000000000E+00  0.00000000000E+00  0.45593999997E+02  0.45594000000E+02  0.51100000000E-03 0. -1.
         11   -1    0    0    0    0 -0.00000000000E+00 -0.00000000000E+00 -0.45593999997E+02  0.45594000000E+02  0.51100000000E-03 0.  1.
    9900012    2    1    2    0    0 -0.32121003792E+00  0.39445035846E+01  0.18303402890E+02  0.72461632446E+02  0.70000080963E+02 0.  0.
         12    1    1    2    0    0  0.32121003792E+00 -0.39445035846E+01 -0.18303402890E+02  0.18726367554E+02  0.00000000000E+00 0. -1.
         11    1    3    3    0    0 -0.54354972238E+01 -0.11436017705E+02 -0.48214294751E+01  0.13548922963E+02  0.51100000000E-03 0. -1.
        -11    1    3    3    0    0 -0.13131527990E+02 -0.12221063549E+02 -0.99688831792E+00  0.17966224094E+02  0.51100000000E-03 0.  1.
        -12    1    3    3    0    0  0.18245815176E+02  0.27601584838E+02  0.24121720683E+02  0.40946485389E+02  0.00000000000E+00 0.  1.
</event>
<event>
 7    1  0.2932676E-013  0.7246148E+02  0.7816164E-02  0.1226708E+00
        -11   -1    0    0    0    0  0.00000000000E+00  0.00000000000E+00  0.45593999997E+02  0.45594000000E+02  0.51100000000E-03 0. -1.
         11   -1    0    0    0    0 -0.00000000000E+00 -0.00000000000E+00 -0.45593999997E+02  0.45594000000E+02  0.51100000000E-03 0.  1.
    9900012    2    1    2    0    0 -0.18692087583E+02 -0.77998095811E+00  0.82472678617E+00  0.72461476490E+02  0.69999877803E+02 0.  0.
         12    1    1    2    0    0  0.18692087583E+02  0.77998095811E+00 -0.82472678617E+00  0.18726523510E+02  0.00000000000E+00 0. -1.
         11    1    3    3    0    0  0.19393269410E+01 -0.51173251694E+01  0.40853859262E+01  0.68292301397E+01  0.51100000000E-03 0. -1.
        -11    1    3    3    0    0 -0.37001771773E+02  0.10087914106E+02  0.14313221848E+02  0.40936114193E+02  0.51100000000E-03 0.  1.
         12    1    3    3    0    0  0.16370357249E+02 -0.57505698946E+01 -0.17573880988E+02  0.24696132157E+02  0.00000000000E+00 0. -1.
</event>
<event>
 7    1  0.2932676E-013  0.7246155E+02  0.7816164E-02  0.1226708E+00
        -11   -1    0    0    0    0  0.00000000000E+00  0.00000000000E+00  0.45593999997E+02  0.45594000000E+02  0.51100000000E-03 0. -1.
         11   -1    0    0    0    0 -0.00000000000E+00 -0.00000000000E+00 -0.45593999997E+02  0.45594000000E+02  0.51100000000E-03 0.  1.
    9900012    2    1    2    0    0 -0.15139428035E+02 -0.23255110120E+01 -0.10773563767E+02  0.72461549217E+02  0.69999972543E+02 0.  0.
         12    1    1    2    0    0  0.15139428035E+02  0.23255110120E+01  0.10773563767E+02  0.18726450783E+02  0.00000000000E+00 0. -1.
         11    1    3    3    0    0  0.20936783915E+02  0.14264234673E+02 -0.10324170468E+02  0.27357006554E+02  0.51100000000E-03 0. -1.
        -11    1    3    3    0    0 -0.57582470481E+01  0.11208116787E+01 -0.72645245681E+01  0.93373949979E+01  0.51100000000E-03 0.  1.
        -12    1    3    3    0    0 -0.30317964901E+02 -0.17710557363E+02  0.68151312688E+01  0.35767147665E+02  0.00000000000E+00 0.  1.
</event>
<event>
 7    1  0.2932676E-013  0.7246154E+02  0.7816164E-02  0.1226708E+00
        -11   -1    0    0    0    0  0.00000000000E+00  0.00000000000E+00  0.45593999997E+02  0.45594000000E+02  0.51100000000E-03 0. -1.
         11   -1    0    0    0    0 -0.00000000000E+00 -0.00000000000E+00 -0.45593999997E+02  0.45594000000E+02  0.51100000000E-03 0.  1.
    9900012    2    1    2    0    0  0.17294348860E+02 -0.18429369988E+01  0.69418507115E+01  0.72461542498E+02  0.69999963790E+02 0.  0.
         12    1    1    2    0    0 -0.17294348860E+02  0.18429369988E+01 -0.69418507115E+01  0.18726457502E+02  0.00000000000E+00 0. -1.
         11    1    3    3    0    0  0.22618339839E+02 -0.11808957457E+02  0.13643159246E+02  0.28934003659E+02  0.51100000000E-03 0. -1.
        -11    1    3    3    0    0  0.10988371277E+02  0.83039012271E+01 -0.18689040739E+02  0.23215928216E+02  0.51100000000E-03 0.  1.
        -12    1    3    3    0    0 -0.16312362256E+02  0.16621192307E+01  0.11987732205E+02  0.20311610623E+02  0.00000000000E+00 0.  1.
</event>
<event>
 7    1  0.2932676E-013  0.7246155E+02  0.7816164E-02  0.1226708E+00
        -11   -1    0    0    0    0  0.00000000000E+00  0.00000000000E+00  0.45593999997E+02  0.45594000000E+02  0.51100000000E-03 0.  1.
         11   -1    0    0    0    0 -0.00000000000E+00 -0.00000000000E+00 -0.45593999997E+02  0.45594000000E+02  0.51100000000E-03 0. -1.
    9900012    2    1    2    0    0  0.53172648387E+00 -0.60777067308E+01  0.17704764848E+02  0.72461549442E+02  0.69999972836E+02 0.  0.
         12    1    1    2    0    0 -0.53172648387E+00  0.60777067308E+01 -0.17704764848E+02  0.18726450558E+02  0.00000000000E+00 0. -1.
         11    1    3    3    0    0 -0.70491454861E+01 -0.59894486819E+01  0.84017381534E+01  0.12496125474E+02  0.51100000000E-03 0. -1.
        -11    1    3    3    0    0 -0.17258991854E+02 -0.17282245529E+02 -0.73020550504E+01  0.25492524758E+02  0.51100000000E-03 0.  1.
         12    1    3    3    0    0  0.24839863824E+02  0.17193987480E+02  0.16605081745E+02  0.34472899211E+02  0.00000000000E+00 0. -1.
</event>
<event>
 7    1  0.2932676E-013  0.7246152E+02  0.7816164E-02  0.1226708E+00
        -11   -1    0    0    0    0  0.00000000000E+00  0.00000000000E+00  0.45593999997E+02  0.45594000000E+02  0.51100000000E-03 0. -1.
         11   -1    0    0    0    0 -0.00000000000E+00 -0.00000000000E+00 -0.45593999997E+02  0.45594000000E+02  0.51100000000E-03 0.  1.
    9900012    2    1    2    0    0 -0.89977911739E+00  0.11673288636E+02 -0.14615258474E+02  0.72461520077E+02  0.69999934582E+02 0.  0.
         12    1    1    2    0    0  0.89977911739E+00 -0.11673288636E+02  0.14615258474E+02  0.18726479923E+02  0.00000000000E+00 0. -1.
         11    1    3    3    0    0  0.68687550516E+01 -0.12292041333E+02  0.17111228947E+02  0.22160059396E+02  0.51100000000E-03 0. -1.
        -11    1    3    3    0    0  0.23747251195E+01  0.48745721044E+01  0.51997684725E+01  0.75125471727E+01  0.51100000000E-03 0.  1.
        -12    1    3    3    0    0 -0.10143259288E+02  0.19090757865E+02 -0.36926255894E+02  0.42788913508E+02  0.00000000000E+00 0.  1.
</event>
<event>
 7    1  0.2932676E-013  0.7246181E+02  0.7816164E-02  0.1226707E+00
        -11   -1    0    0    0    0  0.00000000000E+00  0.00000000000E+00  0.45593999997E+02  0.45594000000E+02  0.51100000000E-03 0.  1.
         11   -1    0    0    0    0 -0.00000000000E+00 -0.00000000000E+00 -0.45593999997E+02  0.45594000000E+02  0.51100000000E-03 0. -1.
    9900012    2    1    2    0    0  0.18002492523E+02  0.29344116282E+01  0.42390807055E+01  0.72461806744E+02  0.70000308019E+02 0.  0.
         12    1    1    2    0    0 -0.18002492523E+02 -0.29344116282E+01 -0.42390807055E+01  0.18726193256E+02  0.00000000000E+00 0. -1.
         11    1    3    3    0    0  0.14135369630E+02  0.16667322322E+02 -0.13471395860E+02  0.25672686159E+02  0.51100000000E-03 0. -1.
        -11    1    3    3    0    0  0.21563781457E+00  0.13739890199E+02 -0.28551308917E+00  0.13744548022E+02  0.51100000000E-03 0.  1.
        -12    1    3    3    0    0  0.36514850788E+01 -0.27472800893E+02  0.17995989654E+02  0.33044572562E+02  0.00000000000E+00 0.  1.
</event>
<event>
 7    1  0.2932676E-013  0.7246158E+02  0.7816164E-02  0.1226708E+00
        -11   -1    0    0    0    0  0.00000000000E+00  0.00000000000E+00  0.45593999997E+02  0.45594000000E+02  0.51100000000E-03 0. -1.
         11   -1    0    0    0    0 -0.00000000000E+00 -0.00000000000E+00 -0.45593999997E+02  0.45594000000E+02  0.51100000000E-03 0.  1.
    9900012    2    1    2    0    0  0.11609481617E+02  0.11600885536E+02  0.90176632119E+01  0.72461578600E+02  0.70000010820E+02 0.  0.
         12    1    1    2    0    0 -0.11609481617E+02 -0.11600885536E+02 -0.90176632119E+01  0.18726421400E+02  0.00000000000E+00 0. -1.
         11    1    3    3    0    0  0.51764446812E+00 -0.68011310705E+01  0.11195571647E+01  0.69120726371E+01  0.51100000000E-03 0. -1.
        -11    1    3    3    0    0 -0.13127434749E+02 -0.90914474415E+01 -0.15355723083E+02  0.22153604477E+02  0.51100000000E-03 0.  1.
         12    1    3    3    0    0  0.24219271898E+02  0.27493464048E+02  0.23253829130E+02  0.43395901486E+02  0.00000000000E+00 0. -1.
</event>
<event>
 7    1  0.2932676E-013  0.7246157E+02  0.7816164E-02  0.1226708E+00
        -11   -1    0    0    0    0  0.00000000000E+00  0.00000000000E+00  0.45593999997E+02  0.45594000000E+02  0.51100000000E-03 0. -1.
         11   -1    0    0    0    0 -0.00000000000E+00 -0.00000000000E+00 -0.45593999997E+02  0.45594000000E+02  0.51100000000E-03 0.  1.
    9900012    2    1    2    0    0  0.35289113599E+01 -0.18007038137E+02  0.37379924009E+01  0.72461568812E+02  0.69999998069E+02 0.  0.
         12    1    1    2    0    0 -0.35289113599E+01  0.18007038137E+02 -0.37379924009E+01  0.18726431188E+02  0.00000000000E+00 0. -1.
         11    1    3    3    0    0 -0.27160137276E+00  0.62018084494E+01 -0.10612125864E+01  0.62978065835E+01  0.51100000000E-03 0.  1.
        -11    1    3    3    0    0  0.70314670276E+01  0.17215735175E+02  0.14398508029E+02  0.23518930671E+02  0.51100000000E-03 0. -1.
        -12    1    3    3    0    0 -0.32309542950E+01 -0.41424581761E+02 -0.95993030416E+01  0.42644831558E+02  0.00000000000E+00 0.  1.
</event>
<event>
 7    1  0.2932676E-013  0.7246153E+02  0.7816164E-02  0.1226708E+00
        -11   -1    0    0    0    0  0.00000000000E+00  0.00000000000E+00  0.45593999997E+02  0.45594000000E+02  0.51100000000E-03 0.  1.
         11   -1    0    0    0    0 -0.00000000000E+00 -0.00000000000E+00 -0.45593999997E+02  0.45594000000E+02  0.51100000000E-03 0. -1.
    9900012    2    1    2    0    0 -0.39418348704E+01 -0.18189168743E+02  0.20729022299E+01  0.72461525549E+02  0.69999941711E+02 0.  0.
         12    1    1    2    0    0  0.39418348704E+01  0.18189168743E+02 -0.20729022299E+01  0.18726474451E+02  0.00000000000E+00 0. -1.
         11    1    3    3    0    0  0.56444827942E+01  0.23226023580E+01 -0.15762833846E+02  0.16903301418E+02  0.51100000000E-03 0. -1.
        -11    1    3    3    0    0 -0.31211106714E+01  0.30601915646E+01  0.28541281999E+02  0.28874052065E+02  0.51100000000E-03 0.  1.
         12    1    3    3    0    0 -0.64652069932E+01 -0.23571962665E+02 -0.10705545923E+02  0.26684172066E+02  0.00000000000E+00 0. -1.
</event>
<event>
 7    1  0.2932676E-013  0.7246158E+02  0.7816164E-02  0.1226708E+00
        -11   -1    0    0    0    0  0.00000000000E+00  0.00000000000E+00  0.45593999997E+02  0.45594000000E+02  0.51100000000E-03 0.  1.
         11   -1    0    0    0    0 -0.00000000000E+00 -0.00000000000E+00 -0.45593999997E+02  0.45594000000E+02  0.51100000000E-03 0. -1.
    9900012    2    1    2    0    0 -0.20369987569E+01  0.18521034694E+02  0.18709824705E+01  0.72461583753E+02  0.70000017532E+02 0.  0.
         12    1    1    2    0    0  0.20369987569E+01 -0.18521034694E+02 -0.18709824705E+01  0.18726416247E+02  0.00000000000E+00 0. -1.
         11    1    3    3    0    0 -0.60656754884E+01 -0.24404092535E+01 -0.38677597235E+01  0.75965506643E+01  0.51100000000E-03 0. -1.
        -11    1    3    3    0    0 -0.88108176606E+01 -0.11358143379E+02  0.22153938453E+02  0.26408993129E+02  0.51100000000E-03 0.  1.
         12    1    3    3    0    0  0.12839494392E+02  0.32319587326E+02 -0.16415196259E+02  0.38456039960E+02  0.00000000000E+00 0. -1.
</event>
<event>
 7    1  0.2932676E-013  0.7246181E+02  0.7816164E-02  0.1226707E+00
        -11   -1    0    0    0    0  0.00000000000E+00  0.00000000000E+00  0.45593999997E+02  0.45594000000E+02  0.51100000000E-03 0.  1.
         11   -1    0    0    0    0 -0.00000000000E+00 -0.00000000000E+00 -0.45593999997E+02  0.45594000000E+02  0.51100000000E-03 0. -1.
    9900012    2    1    2    0    0  0.10127055966E+02 -0.49160277039E+01  0.14964808207E+02  0.72461813106E+02  0.70000316306E+02 0.  0.
         12    1    1    2    0    0 -0.10127055966E+02  0.49160277039E+01 -0.14964808207E+02  0.18726186894E+02  0.00000000000E+00 0. -1.
         11    1    3    3    0    0  0.18721545899E+02 -0.10227397912E+02  0.46516821766E+00  0.21338048895E+02  0.51100000000E-03 0. -1.
        -11    1    3    3    0    0  0.94539402604E+01 -0.17402726137E+02  0.35838356303E+01  0.20126493523E+02  0.51100000000E-03 0.  1.
        -12    1    3    3    0    0 -0.18048430194E+02  0.22714096346E+02  0.10915804359E+02  0.30997270687E+02  0.00000000000E+00 0.  1.
</event>
<event>
 7    1  0.2932676E-013  0.7246144E+02  0.7816164E-02  0.1226708E+00
        -11   -1    0    0    0    0  0.00000000000E+00  0.00000000000E+00  0.45593999997E+02  0.45594000000E+02  0.51100000000E-03 0. -1.
         11   -1    0    0    0    0 -0.00000000000E+00 -0.00000000000E+00 -0.45593999997E+02  0.45594000000E+02  0.51100000000E-03 0.  1.
    9900012    2    1    2    0    0  0.23464563212E+01  0.18429107187E+02  0.23550051451E+01  0.72461444038E+02  0.69999835527E+02 0.  0.
         12    1    1    2    0    0 -0.23464563212E+01 -0.18429107187E+02 -0.23550051451E+01  0.18726555962E+02  0.00000000000E+00 0. -1.
         11    1    3    3    0    0 -0.16760345305E+01  0.31900689713E+02  0.40649848486E+01  0.32202285602E+02  0.51100000000E-03 0. -1.
        -11    1    3    3    0    0  0.28927909395E+01  0.12025161616E+02 -0.69758198266E+01  0.14199817387E+02  0.51100000000E-03 0.  1.
        -12    1    3    3    0    0  0.11296999122E+01 -0.25496744142E+02  0.52658401232E+01  0.26059341049E+02  0.00000000000E+00 0.  1.
</event>
<event>
 7    1  0.2932676E-013  0.7246161E+02  0.7816164E-02  0.1226708E+00
        -11   -1    0    0    0    0  0.00000000000E+00  0.00000000000E+00  0.45593999997E+02  0.45594000000E+02  0.51100000000E-03 0.  1.
         11   -1    0    0    0    0 -0.00000000000E+00 -0.00000000000E+00 -0.45593999997E+02  0.45594000000E+02  0.51100000000E-03 0. -1.
    9900012    2    1    2    0    0  0.10803424756E+02 -0.14749611553E+02  0.40512642407E+01  0.72461607679E+02  0.70000048700E+02 0.  0.
         12    1    1    2    0    0 -0.10803424756E+02  0.14749611553E+02 -0.40512642407E+01  0.18726392321E+02  0.00000000000E+00 0. -1.
         11    1    3    3    0    0 -0.19025477672E+02 -0.55321004384E+01 -0.14529968152E+02  0.24570163017E+02  0.51100000000E-03 0. -1.
        -11    1    3    3    0    0 -0.11927047914E+00 -0.88781653186E+01 -0.46172080301E+01  0.10007729769E+02  0.51100000000E-03 0.  1.
        -12    1    3    3    0    0  0.29948172908E+02 -0.33934579578E+00  0.23198440422E+02  0.37883714893E+02  0.00000000000E+00 0.  1.
</event>
<event>
 7    1  0.2932676E-013  0.7246153E+02  0.7816164E-02  0.1226708E+00
        -11   -1    0    0    0    0  0.00000000000E+00  0.00000000000E+00  0.45593999997E+02  0.45594000000E+02  0.51100000000E-03 0. -1.
         11   -1    0    0    0    0 -0.00000000000E+00 -0.00000000000E+00 -0.45593999997E+02  0.45594000000E+02  0.51100000000E-03 0.  1.
    9900012    2    1    2    0    0 -0.91440018310E+01 -0.70098286416E+01 -0.14762464014E+02  0.72461526471E+02  0.69999942912E+02 0.  0.
         12    1    1    2    0    0  0.91440018310E+01  0.70098286416E+01  0.14762464014E+02  0.18726473529E+02  0.00000000000E+00 0. -1.
         11    1    3    3    0    0  0.38360910975E+01  0.11445007961E+02  0.20674047240E+02  0.23939925474E+02  0.51100000000E-03 0. -1.
        -11    1    3    3    0    0 -0.12820024291E+01  0.47279163000E+01 -0.40480501039E+00  0.49153423202E+01  0.51100000000E-03 0.  1.
        -12    1    3    3    0    0 -0.11698090499E+02 -0.23182752902E+02 -0.35031706244E+02  0.43606258677E+02  0.00000000000E+00 0.  1.
</event>
<event>
 7    1  0.2932676E-013  0.7246220E+02  0.7816164E-02  0.1226706E+00
        -11   -1    0    0    0    0  0.00000000000E+00  0.00000000000E+00  0.45593999997E+02  0.45594000000E+02  0.51100000000E-03 0.  1.
         11   -1    0    0    0    0 -0.00000000000E+00 -0.00000000000E+00 -0.45593999997E+02  0.45594000000E+02  0.51100000000E-03 0. -1.
    9900012    2    1    2    0    0  0.14504444349E+02 -0.11825015925E+02  0.66751453208E+00  0.72462202736E+02  0.70000823868E+02 0.  0.
         12    1    1    2    0    0 -0.14504444349E+02  0.11825015925E+02 -0.66751453208E+00  0.18725797264E+02  0.00000000000E+00 0. -1.
         11    1    3    3    0    0  0.15144583530E+02 -0.57120848584E+01 -0.11155931472E+02  0.19658105987E+02  0.51100000000E-03 0. -1.
        -11    1    3    3    0    0  0.17942251735E+02 -0.20845962330E+02  0.89108220424E+01  0.28911611724E+02  0.51100000000E-03 0.  1.
         12    1    3    3    0    0 -0.18582390916E+02  0.14733031263E+02  0.29126239615E+01  0.23892485025E+02  0.00000000000E+00 0. -1.
</event>
<event>
 7    1  0.2932676E-013  0.7246158E+02  0.7816164E-02  0.1226708E+00
        -11   -1    0    0    0    0  0.00000000000E+00  0.00000000000E+00  0.45593999997E+02  0.45594000000E+02  0.51100000000E-03 0.  1.
         11   -1    0    0    0    0 -0.00000000000E+00 -0.00000000000E+00 -0.45593999997E+02  0.45594000000E+02  0.51100000000E-03 0. -1.
    9900012    2    1    2    0    0 -0.13822195389E+02 -0.12343049645E+02  0.26971758381E+01  0.72461582365E+02  0.70000015725E+02 0.  0.
         12    1    1    2    0    0  0.13822195389E+02  0.12343049645E+02 -0.26971758381E+01  0.18726417635E+02  0.00000000000E+00 0. -1.
         11    1    3    3    0    0  0.51811917704E+01 -0.16663281875E+02  0.32975365892E+01  0.17759038792E+02  0.51100000000E-03 0. -1.
        -11    1    3    3    0    0 -0.20154156988E+01 -0.39443312814E+01  0.23594052479E+02  0.24006227574E+02  0.51100000000E-03 0.  1.
         12    1    3    3    0    0 -0.16987971461E+02  0.82645635109E+01 -0.24194413230E+02  0.30696315999E+02  0.00000000000E+00 0. -1.
</event>
<event>
 7    1  0.2932676E-013  0.7246157E+02  0.7816164E-02  0.1226708E+00
        -11   -1    0    0    0    0  0.00000000000E+00  0.00000000000E+00  0.45593999997E+02  0.45594000000E+02  0.51100000000E-03 0.  1.
         11   -1    0    0    0    0 -0.00000000000E+00 -0.00000000000E+00 -0.45593999997E+02  0.45594000000E+02  0.51100000000E-03 0. -1.
    9900012    2    1    2    0    0 -0.69298636156E+01 -0.41565007851E+01 -0.16893181038E+02  0.72461572842E+02  0.70000003319E+02 0.  0.
         12    1    1    2    0    0  0.69298636156E+01  0.41565007851E+01  0.16893181038E+02  0.18726427158E+02  0.00000000000E+00 0. -1.
         11    1    3    3    0    0 -0.15615837182E+02  0.69296076654E+01 -0.26149630684E+02  0.31235829083E+02  0.51100000000E-03 0. -1.
        -11    1    3    3    0    0 -0.12355603540E+02 -0.77989965345E+01 -0.51742978462E+01  0.15500278844E+02  0.51100000000E-03 0.  1.
        -12    1    3    3    0    0  0.21041577107E+02 -0.32871119160E+01  0.14430747492E+02  0.25725464915E+02  0.00000000000E+00 0.  1.
</event>
<event>
 7    1  0.2932676E-013  0.7246161E+02  0.7816164E-02  0.1226708E+00
        -11   -1    0    0    0    0  0.00000000000E+00  0.00000000000E+00  0.45593999997E+02  0.45594000000E+02  0.51100000000E-03 0.  1.
         11   -1    0    0    0    0 -0.00000000000E+00 -0.00000000000E+00 -0.45593999997E+02  0.45594000000E+02  0.51100000000E-03 0. -1.
    9900012    2    1    2    0    0  0.19629989833E+01 -0.17920618635E+02  0.50671287255E+01  0.72461608709E+02  0.70000050042E+02 0.  0.
         12    1    1    2    0    0 -0.19629989833E+01  0.17920618635E+02 -0.50671287255E+01  0.18726391291E+02  0.00000000000E+00 0. -1.
         11    1    3    3    0    0  0.50524067877E+01 -0.25813067574E+02 -0.16469098809E+02  0.31033409219E+02  0.51100000000E-03 0. -1.
        -11    1    3    3    0    0  0.91864145540E+01  0.14450501483E+02  0.17153890712E+01  0.17209002452E+02  0.51100000000E-03 0.  1.
        -12    1    3    3    0    0 -0.12275822358E+02 -0.65580525446E+01  0.19820838463E+02  0.24219197037E+02  0.00000000000E+00 0.  1.
</event>
<event>
 7    1  0.2932676E-013  0.7246154E+02  0.7816164E-02  0.1226708E+00
        -11   -1    0    0    0    0  0.00000000000E+00  0.00000000000E+00  0.45593999997E+02  0.45594000000E+02  0.51100000000E-03 0.  1.
         11   -1    0    0    0    0 -0.00000000000E+00 -0.00000000000E+00 -0.45593999997E+02  0.45594000000E+02  0.51100000000E-03 0. -1.
    9900012    2    1    2    0    0  0.15721178800E+02  0.99088650611E+01  0.23106441450E+01  0.72461544222E+02  0.69999966035E+02 0.  0.
         12    1    1    2    0    0 -0.15721178800E+02 -0.99088650611E+01 -0.23106441450E+01  0.18726455778E+02  0.00000000000E+00 0. -1.
         11    1    3    3    0    0 -0.50340623368E+01 -0.11274779056E+02 -0.23620080490E+02  0.26652779010E+02  0.51100000000E-03 0. -1.
        -11    1    3    3    0    0 -0.32537648462E+01  0.20191636557E+01 -0.19730690421E+01  0.43077847263E+01  0.51100000000E-03 0.  1.
        -12    1    3    3    0    0  0.24009005983E+02  0.19164480462E+02  0.27903793677E+02  0.41500980485E+02  0.00000000000E+00 0.  1.
</event>
<event>
 7    1  0.2932676E-013  0.7246164E+02  0.7816164E-02  0.1226708E+00
        -11   -1    0    0    0    0  0.00000000000E+00  0.00000000000E+00  0.45593999997E+02  0.45594000000E+02  0.51100000000E-03 0.  1.
         11   -1    0    0    0    0 -0.00000000000E+00 -0.00000000000E+00 -0.45593999997E+02  0.45594000000E+02  0.51100000000E-03 0. -1.
    9900012    2    1    2    0    0 -0.11656957649E+02  0.14283301693E+02  0.32831569703E+01  0.72461641876E+02  0.70000093249E+02 0.  0.
         12    1    1    2    0    0  0.11656957649E+02 -0.14283301693E+02 -0.32831569703E+01  0.18726358124E+02  0.00000000000E+00 0. -1.
         11    1    3    3    0    0 -0.13888232587E+02  0.12436220908E+02 -0.77583956150E+01  0.20192456454E+02  0.51100000000E-03 0. -1.
        -11    1    3    3    0    0 -0.12185052138E+02  0.21021000266E+00  0.27649547401E+02  0.30216173742E+02  0.51100000000E-03 0.  1.
         12    1    3    3    0    0  0.14416327077E+02  0.16368707820E+01 -0.16607994816E+02  0.22053011680E+02  0.00000000000E+00 0. -1.
</event>
<event>
 7    1  0.2932676E-013  0.7246159E+02  0.7816164E-02  0.1226708E+00
        -11   -1    0    0    0    0  0.00000000000E+00  0.00000000000E+00  0.45593999997E+02  0.45594000000E+02  0.51100000000E-03 0.  1.
         11   -1    0    0    0    0 -0.00000000000E+00 -0.00000000000E+00 -0.45593999997E+02  0.45594000000E+02  0.51100000000E-03 0. -1.
    9900012    2    1    2    0    0  0.78962603287E+01  0.15275638212E+02  0.74150091365E+01  0.72461590562E+02  0.70000026402E+02 0.  0.
         12    1    1    2    0    0 -0.78962603287E+01 -0.15275638212E+02 -0.74150091365E+01  0.18726409438E+02  0.00000000000E+00 0. -1.
         11    1    3    3    0    0  0.43236302178E+01  0.15406037227E+02 -0.41356440102E+01  0.16527047920E+02  0.51100000000E-03 0. -1.
        -11    1    3    3    0    0  0.27708858141E+02  0.34985258430E+00  0.15061324563E+02  0.31539605485E+02  0.51100000000E-03 0.  1.
         12    1    3    3    0    0 -0.24136228030E+02 -0.48025159955E+00 -0.35106714168E+01  0.24394937157E+02  0.00000000000E+00 0. -1.
</event>
<event>
 7    1  0.2932676E-013  0.7246153E+02  0.7816164E-02  0.1226708E+00
        -11   -1    0    0    0    0  0.00000000000E+00  0.00000000000E+00  0.45593999997E+02  0.45594000000E+02  0.51100000000E-03 0.  1.
         11   -1    0    0    0    0 -0.00000000000E+00 -0.00000000000E+00 -0.45593999997E+02  0.45594000000E+02  0.51100000000E-03 0. -1.
    9900012    2    1    2    0    0  0.16703470986E+02  0.61719737730E+01  0.57949463346E+01  0.72461531933E+02  0.69999950028E+02 0.  0.
         12    1    1    2    0    0 -0.16703470986E+02 -0.61719737730E+01 -0.57949463346E+01  0.18726468067E+02  0.00000000000E+00 0. -1.
         11    1    3    3    0    0  0.94005451206E+01  0.79230464831E+01 -0.47696943629E+01  0.13186921503E+02  0.51100000000E-03 0. -1.
        -11    1    3    3    0    0  0.13526855431E+02  0.26160398930E+02  0.24700330054E+01  0.29554075072E+02  0.51100000000E-03 0.  1.
         12    1    3    3    0    0 -0.62239295658E+01 -0.27911471640E+02  0.80946076921E+01  0.29720535359E+02  0.00000000000E+00 0. -1.
</event>
<event>
 7    1  0.2932676E-013  0.7246153E+02  0.7816164E-02  0.1226708E+00
        -11   -1    0    0    0    0  0.00000000000E+00  0.00000000000E+00  0.45593999997E+02  0.45594000000E+02  0.51100000000E-03 0. -1.
         11   -1    0    0    0    0 -0.00000000000E+00 -0.00000000000E+00 -0.45593999997E+02  0.45594000000E+02  0.51100000000E-03 0.  1.
    9900012    2    1    2    0    0 -0.60369352423E+00  0.11185465999E+02 -0.15006723278E+02  0.72461525718E+02  0.69999941931E+02 0.  0.
         12    1    1    2    0    0  0.60369352423E+00 -0.11185465999E+02  0.15006723278E+02  0.18726474282E+02  0.00000000000E+00 0. -1.
         11    1    3    3    0    0  0.51154153035E+01 -0.67588756563E+01  0.71688202248E+01  0.11101434932E+02  0.51100000000E-03 0. -1.
        -11    1    3    3    0    0 -0.20858794668E+02 -0.27770811912E+01  0.73046915911E+01  0.22274649592E+02  0.51100000000E-03 0.  1.
         12    1    3    3    0    0  0.15139685840E+02  0.20721422847E+02 -0.29480235094E+02  0.39085441194E+02  0.00000000000E+00 0. -1.
</event>
<event>
 7    1  0.2932676E-013  0.7246164E+02  0.7816164E-02  0.1226708E+00
        -11   -1    0    0    0    0  0.00000000000E+00  0.00000000000E+00  0.45593999997E+02  0.45594000000E+02  0.51100000000E-03 0.  1.
         11   -1    0    0    0    0 -0.00000000000E+00 -0.00000000000E+00 -0.45593999997E+02  0.45594000000E+02  0.51100000000E-03 0. -1.
    9900012    2    1    2    0    0  0.10197527271E+02  0.16381501858E+01  0.15620604446E+02  0.72461644730E+02  0.70000096966E+02 0.  0.
         12    1    1    2    0    0 -0.10197527271E+02 -0.16381501858E+01 -0.15620604446E+02  0.18726355270E+02  0.00000000000E+00 0. -1.
         11    1    3    3    0    0 -0.37783220133E+01 -0.42262169833E+01  0.20646414941E+02  0.21410536598E+02  0.51100000000E-03 0. -1.
        -11    1    3    3    0    0 -0.67101019111E+01  0.87814300700E+01  0.17266228945E+02  0.20500283998E+02  0.51100000000E-03 0.  1.
         12    1    3    3    0    0  0.20685951195E+02 -0.29170629009E+01 -0.22292039441E+02  0.30550824134E+02  0.00000000000E+00 0. -1.
</event>
<event>
 7    1  0.2932676E-013  0.7246160E+02  0.7816164E-02  0.1226708E+00
        -11   -1    0    0    0    0  0.00000000000E+00  0.00000000000E+00  0.45593999997E+02  0.45594000000E+02  0.51100000000E-03 0.  1.
         11   -1    0    0    0    0 -0.00000000000E+00 -0.00000000000E+00 -0.45593999997E+02  0.45594000000E+02  0.51100000000E-03 0. -1.
    9900012    2    1    2    0    0  0.89703278507E+01  0.81106271199E+01  0.14297867161E+02  0.72461599935E+02  0.70000038613E+02 0.  0.
         12    1    1    2    0    0 -0.89703278507E+01 -0.81106271199E+01 -0.14297867161E+02  0.18726400065E+02  0.00000000000E+00 0. -1.
         11    1    3    3    0    0  0.30936698457E+01  0.73254199298E+01 -0.17248912199E+02  0.18993618469E+02  0.51100000000E-03 0. -1.
        -11    1    3    3    0    0 -0.92316646761E+01 -0.10671829536E+02 -0.26583886099E+01  0.14358920871E+02  0.51100000000E-03 0.  1.
        -12    1    3    3    0    0  0.15108322681E+02  0.11457036726E+02  0.34205167970E+02  0.39109060595E+02  0.00000000000E+00 0.  1.
</event>
<event>
 7    1  0.2932676E-013  0.7246159E+02  0.7816164E-02  0.1226708E+00
        -11   -1    0    0    0    0  0.00000000000E+00  0.00000000000E+00  0.45593999997E+02  0.45594000000E+02  0.51100000000E-03 0.  1.
         11   -1    0    0    0    0 -0.00000000000E+00 -0.00000000000E+00 -0.45593999997E+02  0.45594000000E+02  0.51100000000E-03 0. -1.
    9900012    2    1    2    0    0  0.22302309675E+01  0.18576656607E+02 -0.78255959139E+00  0.72461588160E+02  0.70000023274E+02 0.  0.
         12    1    1    2    0    0 -0.22302309675E+01 -0.18576656607E+02  0.78255959139E+00  0.18726411840E+02  0.00000000000E+00 0. -1.
         11    1    3    3    0    0  0.33028044824E+01  0.55814877412E+01  0.84041881827E+01  0.10615644216E+02  0.51100000000E-03 0. -1.
        -11    1    3    3    0    0 -0.19163682213E+01  0.33920318837E+02 -0.18770725266E+02  0.38814953619E+02  0.51100000000E-03 0.  1.
         12    1    3    3    0    0  0.84379470644E+00 -0.20925149971E+02  0.95839774918E+01  0.23030990325E+02  0.00000000000E+00 0. -1.
</event>
<event>
 7    1  0.2932676E-013  0.7246155E+02  0.7816164E-02  0.1226708E+00
        -11   -1    0    0    0    0  0.00000000000E+00  0.00000000000E+00  0.45593999997E+02  0.45594000000E+02  0.51100000000E-03 0.  1.
         11   -1    0    0    0    0 -0.00000000000E+00 -0.00000000000E+00 -0.45593999997E+02  0.45594000000E+02  0.51100000000E-03 0. -1.
    9900012    2    1    2    0    0 -0.84065452622E+01 -0.72376384322E+01  0.15087301611E+02  0.72461545899E+02  0.69999968220E+02 0.  0.
         12    1    1    2    0    0  0.84065452622E+01  0.72376384322E+01 -0.15087301611E+02  0.18726454101E+02  0.00000000000E+00 0. -1.
         11    1    3    3    0    0  0.15727159050E+02 -0.17032860972E+02  0.79283823318E+01  0.24501451617E+02  0.51100000000E-03 0. -1.
        -11    1    3    3    0    0 -0.95240395764E+01 -0.12918611841E+02 -0.69500764747E+01  0.17490037879E+02  0.51100000000E-03 0.  1.
        -12    1    3    3    0    0 -0.14609664736E+02  0.22713834381E+02  0.14108995753E+02  0.30470056402E+02  0.00000000000E+00 0.  1.
</event>
<event>
 7    1  0.2932676E-013  0.7246143E+02  0.7816164E-02  0.1226708E+00
        -11   -1    0    0    0    0  0.00000000000E+00  0.00000000000E+00  0.45593999997E+02  0.45594000000E+02  0.51100000000E-03 0. -1.
         11   -1    0    0    0    0 -0.00000000000E+00 -0.00000000000E+00 -0.45593999997E+02  0.45594000000E+02  0.51100000000E-03 0.  1.
    9900012    2    1    2    0    0 -0.13931536261E+02  0.84424043470E+01 -0.92370111631E+01  0.72461434138E+02  0.69999822631E+02 0.  0.
         12    1    1    2    0    0  0.13931536261E+02 -0.84424043470E+01  0.92370111631E+01  0.18726565862E+02  0.00000000000E+00 0. -1.
         11    1    3    3    0    0  0.21485376389E+01  0.15409413577E+01 -0.73174873344E+00  0.27433867251E+01  0.51100000000E-03 0. -1.
        -11    1    3    3    0    0 -0.13447272452E+02 -0.10056035858E+02 -0.34615579452E+02  0.38473254797E+02  0.51100000000E-03 0.  1.
         12    1    3    3    0    0 -0.26328014486E+01  0.16957498847E+02  0.26110317023E+02  0.31244792616E+02  0.00000000000E+00 0. -1.
</event>
<event>
 7    1  0.2932676E-013  0.7246174E+02  0.7816164E-02  0.1226708E+00
        -11   -1    0    0    0    0  0.00000000000E+00  0.00000000000E+00  0.45593999997E+02  0.45594000000E+02  0.51100000000E-03 0.  1.
         11   -1    0    0    0    0 -0.00000000000E+00 -0.00000000000E+00 -0.45593999997E+02  0.45594000000E+02  0.51100000000E-03 0. -1.
    9900012    2    1    2    0    0 -0.10493352869E+02 -0.11913434570E+02  0.99313859520E+01  0.72461740240E+02  0.70000221385E+02 0.  0.
         12    1    1    2    0    0  0.10493352869E+02  0.11913434570E+02 -0.99313859520E+01  0.18726259760E+02  0.00000000000E+00 0. -1.
         11    1    3    3    0    0  0.32650123664E+00  0.46812812325E+01 -0.85595945553E+01  0.97615396453E+01  0.51100000000E-03 0. -1.
        -11    1    3    3    0    0 -0.12388245601E+02 -0.30532006288E+02 -0.69267222751E+01  0.33669741888E+02  0.51100000000E-03 0.  1.
        -12    1    3    3    0    0  0.15683914950E+01  0.13937290486E+02  0.25417702782E+02  0.29030458706E+02  0.00000000000E+00 0.  1.
</event>
<event>
 7    1  0.2932676E-013  0.7246160E+02  0.7816164E-02  0.1226708E+00
        -11   -1    0    0    0    0  0.00000000000E+00  0.00000000000E+00  0.45593999997E+02  0.45594000000E+02  0.51100000000E-03 0. -1.
         11   -1    0    0    0    0 -0.00000000000E+00 -0.00000000000E+00 -0.45593999997E+02  0.45594000000E+02  0.51100000000E-03 0.  1.
    9900012    2    1    2    0    0 -0.87614254519E+01  0.40487727176E+01 -0.16047517829E+02  0.72461602457E+02  0.70000041898E+02 0.  0.
         12    1    1    2    0    0  0.87614254519E+01 -0.40487727176E+01  0.16047517829E+02  0.18726397543E+02  0.00000000000E+00 0. -1.
         11    1    3    3    0    0 -0.45537508574E+01 -0.16357969615E+02  0.31843665215E+01  0.17275995115E+02  0.51100000000E-03 0. -1.
        -11    1    3    3    0    0 -0.25077945519E+02  0.67031951322E+01 -0.49622872075E+01  0.26428402733E+02  0.51100000000E-03 0.  1.
        -12    1    3    3    0    0  0.20870270924E+02  0.13703547200E+02 -0.14269597143E+02  0.28757204609E+02  0.00000000000E+00 0.  1.
</event>
<event>
 7    1  0.2932676E-013  0.7246160E+02  0.7816164E-02  0.1226708E+00
        -11   -1    0    0    0    0  0.00000000000E+00  0.00000000000E+00  0.45593999997E+02  0.45594000000E+02  0.51100000000E-03 0. -1.
         11   -1    0    0    0    0 -0.00000000000E+00 -0.00000000000E+00 -0.45593999997E+02  0.45594000000E+02  0.51100000000E-03 0.  1.
    9900012    2    1    2    0    0  0.17941199911E+02 -0.27900209272E+01 -0.45833461039E+01  0.72461603322E+02  0.70000043025E+02 0.  0.
         12    1    1    2    0    0 -0.17941199911E+02  0.27900209272E+01  0.45833461039E+01  0.18726396678E+02  0.00000000000E+00 0. -1.
         11    1    3    3    0    0  0.23503646697E+02 -0.16413492797E+02 -0.15634862241E+02  0.32653837009E+02  0.51100000000E-03 0. -1.
        -11    1    3    3    0    0  0.36250132862E+00 -0.34032240348E+01 -0.10886916678E+02  0.11412199440E+02  0.51100000000E-03 0.  1.
        -12    1    3    3    0    0 -0.59249481148E+01  0.17026695905E+02  0.21938432816E+02  0.28395566872E+02  0.00000000000E+00 0.  1.
</event>
<event>
 7    1  0.2932676E-013  0.7246155E+02  0.7816164E-02  0.1226708E+00
        -11   -1    0    0    0    0  0.00000000000E+00  0.00000000000E+00  0.45593999997E+02  0.45594000000E+02  0.51100000000E-03 0. -1.
         11   -1    0    0    0    0 -0.00000000000E+00 -0.00000000000E+00 -0.45593999997E+02  0.45594000000E+02  0.51100000000E-03 0.  1.
    9900012    2    1    2    0    0  0.98439626686E+01  0.14650606609E+02  0.62558668782E+01  0.72461554917E+02  0.69999979968E+02 0.  0.
         12    1    1    2    0    0 -0.98439626686E+01 -0.14650606609E+02 -0.62558668782E+01  0.18726445083E+02  0.00000000000E+00 0. -1.
         11    1    3    3    0    0 -0.17007928746E+02 -0.11873944566E+02  0.88581669091E+01  0.22554984395E+02  0.51100000000E-03 0. -1.
        -11    1    3    3    0    0  0.57884264057E+01 -0.65585641196E+01  0.48250200423E+01  0.99900681797E+01  0.51100000000E-03 0.  1.
        -12    1    3    3    0    0  0.21063465009E+02  0.33083115295E+02 -0.74273200731E+01  0.39916502343E+02  0.00000000000E+00 0.  1.
</event>
<event>
 7    1  0.2932676E-013  0.7246160E+02  0.7816164E-02  0.1226708E+00
        -11   -1    0    0    0    0  0.00000000000E+00  0.00000000000E+00  0.45593999997E+02  0.45594000000E+02  0.51100000000E-03 0.  1.
         11   -1    0    0    0    0 -0.00000000000E+00 -0.00000000000E+00 -0.45593999997E+02  0.45594000000E+02  0.51100000000E-03 0. -1.
    9900012    2    1    2    0    0  0.67162465600E+00 -0.17715043496E+02  0.60335939155E+01  0.72461598816E+02  0.70000037155E+02 0.  0.
         12    1    1    2    0    0 -0.67162465600E+00  0.17715043496E+02 -0.60335939155E+01  0.18726401184E+02  0.00000000000E+00 0. -1.
         11    1    3    3    0    0  0.11879123114E+02 -0.28004988300E+02  0.17871423147E+02  0.35281449817E+02  0.51100000000E-03 0. -1.
        -11    1    3    3    0    0  0.52893718696E+01  0.67836179186E+01  0.75767636785E+01  0.11463083134E+02  0.51100000000E-03 0.  1.
         12    1    3    3    0    0 -0.16496870327E+02  0.35063268852E+01 -0.19414592911E+02  0.25717065865E+02  0.00000000000E+00 0. -1.
</event>
<event>
 7    1  0.2932676E-013  0.7246157E+02  0.7816164E-02  0.1226708E+00
        -11   -1    0    0    0    0  0.00000000000E+00  0.00000000000E+00  0.45593999997E+02  0.45594000000E+02  0.51100000000E-03 0.  1.
         11   -1    0    0    0    0 -0.00000000000E+00 -0.00000000000E+00 -0.45593999997E+02  0.45594000000E+02  0.51100000000E-03 0. -1.
    9900012    2    1    2    0    0 -0.70469623365E+01  0.10079462185E+02  0.14121751253E+02  0.72461572296E+02  0.70000002608E+02 0.  0.
         12    1    1    2    0    0  0.70469623365E+01 -0.10079462185E+02 -0.14121751253E+02  0.18726427704E+02  0.00000000000E+00 0. -1.
         11    1    3    3    0    0  0.24387416045E+01  0.28039577021E+02 -0.12071741565E+01  0.28171308274E+02  0.51100000000E-03 0. -1.
        -11    1    3    3    0    0 -0.81109574710E+01 -0.82672607659E+01 -0.11139517965E+02  0.16069352582E+02  0.51100000000E-03 0.  1.
        -12    1    3    3    0    0 -0.13747464700E+01 -0.96928540703E+01  0.26468443374E+02  0.28220911440E+02  0.00000000000E+00 0.  1.
</event>
<event>
 7    1  0.2932676E-013  0.7246158E+02  0.7816164E-02  0.1226708E+00
        -11   -1    0    0    0    0  0.00000000000E+00  0.00000000000E+00  0.45593999997E+02  0.45594000000E+02  0.51100000000E-03 0. -1.
         11   -1    0    0    0    0 -0.00000000000E+00 -0.00000000000E+00 -0.45593999997E+02  0.45594000000E+02  0.51100000000E-03 0.  1.
    9900012    2    1    2    0    0 -0.58039193936E+01  0.30616073275E+01 -0.17539098482E+02  0.72461577616E+02  0.70000009537E+02 0.  0.
         12    1    1    2    0    0  0.58039193936E+01 -0.30616073275E+01  0.17539098482E+02  0.18726422384E+02  0.00000000000E+00 0. -1.
         11    1    3    3    0    0 -0.10938099587E+02 -0.11663863268E+02 -0.14666077252E+02  0.21697501034E+02  0.51100000000E-03 0. -1.
        -11    1    3    3    0    0 -0.10452422253E+02 -0.14179309484E+02 -0.32996222435E+01  0.17921870874E+02  0.51100000000E-03 0.  1.
        -12    1    3    3    0    0  0.15586602447E+02  0.28904780080E+02  0.42660101379E+00  0.32842205707E+02  0.00000000000E+00 0.  1.
</event>
<event>
 7    1  0.2932676E-013  0.7246161E+02  0.7816164E-02  0.1226708E+00
        -11   -1    0    0    0    0  0.00000000000E+00  0.00000000000E+00  0.45593999997E+02  0.45594000000E+02  0.51100000000E-03 0.  1.
         11   -1    0    0    0    0 -0.00000000000E+00 -0.00000000000E+00 -0.45593999997E+02  0.45594000000E+02  0.51100000000E-03 0. -1.
    9900012    2    1    2    0    0  0.13907338079E+02  0.13535901317E+01  0.12467207061E+02  0.72461614588E+02  0.70000057701E+02 0.  0.
         12    1    1    2    0    0 -0.13907338079E+02 -0.13535901317E+01 -0.12467207061E+02  0.18726385412E+02  0.00000000000E+00 0. -1.
         11    1    3    3    0    0  0.55331294040E+01 -0.39315893934E+01 -0.40997093595E+01  0.79297246644E+01  0.51100000000E-03 0. -1.
        -11    1    3    3    0    0 -0.91616891979E+00 -0.24092869389E+02 -0.77012862963E+01  0.25310383872E+02  0.51100000000E-03 0.  1.
         12    1    3    3    0    0  0.92903775947E+01  0.29378048914E+02  0.24268202717E+02  0.39221506052E+02  0.00000000000E+00 0. -1.
</event>
<event>
 7    1  0.2932676E-013  0.7246145E+02  0.7816164E-02  0.1226708E+00
        -11   -1    0    0    0    0  0.00000000000E+00  0.00000000000E+00  0.45593999997E+02  0.45594000000E+02  0.51100000000E-03 0.  1.
         11   -1    0    0    0    0 -0.00000000000E+00 -0.00000000000E+00 -0.45593999997E+02  0.45594000000E+02  0.51100000000E-03 0. -1.
    9900012    2    1    2    0    0  0.13387459305E+01  0.66139990695E-01  0.18678513829E+02  0.72461454830E+02  0.69999849586E+02 0.  0.
         12    1    1    2    0    0 -0.13387459305E+01 -0.66139990695E-01 -0.18678513829E+02  0.18726545170E+02  0.00000000000E+00 0. -1.
         11    1    3    3    0    0 -0.10224349881E+02 -0.70635671834E+01 -0.63591419433E+01  0.13959584462E+02  0.51100000000E-03 0. -1.
        -11    1    3    3    0    0 -0.64405433868E+01 -0.19535319688E+02  0.77792571966E+01  0.21991501932E+02  0.51100000000E-03 0.  1.
         12    1    3    3    0    0  0.18003639198E+02  0.26665026862E+02  0.17258398575E+02  0.36510368436E+02  0.00000000000E+00 0. -1.
</event>
<event>
 7    1  0.2932676E-013  0.7246160E+02  0.7816164E-02  0.1226708E+00
        -11   -1    0    0    0    0  0.00000000000E+00  0.00000000000E+00  0.45593999997E+02  0.45594000000E+02  0.51100000000E-03 0.  1.
         11   -1    0    0    0    0 -0.00000000000E+00 -0.00000000000E+00 -0.45593999997E+02  0.45594000000E+02  0.51100000000E-03 0. -1.
    9900012    2    1    2    0    0 -0.10209954448E+02  0.21678311551E+01  0.15547844103E+02  0.72461598370E+02  0.70000036574E+02 0.  0.
         12    1    1    2    0    0  0.10209954448E+02 -0.21678311551E+01 -0.15547844103E+02  0.18726401630E+02  0.00000000000E+00 0. -1.
         11    1    3    3    0    0  0.15725809405E+02  0.11495460511E+01  0.23119490900E+02  0.27984520673E+02  0.51100000000E-03 0. -1.
        -11    1    3    3    0    0  0.83722556700E+01 -0.13467038633E+01  0.21340188052E+01  0.87442731443E+01  0.51100000000E-03 0.  1.
        -12    1    3    3    0    0 -0.34308019523E+02  0.23649889674E+01 -0.97056656026E+01  0.35732804553E+02  0.00000000000E+00 0.  1.
</event>
<event>
 7    1  0.2932676E-013  0.7246153E+02  0.7816164E-02  0.1226708E+00
        -11   -1    0    0    0    0  0.00000000000E+00  0.00000000000E+00  0.45593999997E+02  0.45594000000E+02  0.51100000000E-03 0. -1.
         11   -1    0    0    0    0 -0.00000000000E+00 -0.00000000000E+00 -0.45593999997E+02  0.45594000000E+02  0.51100000000E-03 0.  1.
    9900012    2    1    2    0    0 -0.18388633815E+01 -0.14502518571E+02 -0.11703684668E+02  0.72461529477E+02  0.69999946828E+02 0.  0.
         12    1    1    2    0    0  0.18388633815E+01  0.14502518571E+02  0.11703684668E+02  0.18726470523E+02  0.00000000000E+00 0. -1.
         11    1    3    3    0    0 -0.83980780443E+00 -0.77032109556E+01 -0.24842278717E+02  0.26022750591E+02  0.51100000000E-03 0. -1.
        -11    1    3    3    0    0 -0.16460302993E+02  0.73551260597E+01 -0.50100729869E+01  0.18712035848E+02  0.51100000000E-03 0.  1.
         12    1    3    3    0    0  0.15461247416E+02 -0.14154433675E+02  0.18148667036E+02  0.27726743039E+02  0.00000000000E+00 0. -1.
</event>
<event>
 7    1  0.2932676E-013  0.7246158E+02  0.7816164E-02  0.1226708E+00
        -11   -1    0    0    0    0  0.00000000000E+00  0.00000000000E+00  0.45593999997E+02  0.45594000000E+02  0.51100000000E-03 0.  1.
         11   -1    0    0    0    0 -0.00000000000E+00 -0.00000000000E+00 -0.45593999997E+02  0.45594000000E+02  0.51100000000E-03 0. -1.
    9900012    2    1    2    0    0 -0.10541338763E+02  0.14173585709E+02  0.62184029427E+01  0.72461577760E+02  0.70000009725E+02 0.  0.
         12    1    1    2    0    0  0.10541338763E+02 -0.14173585709E+02 -0.62184029427E+01  0.18726422240E+02  0.00000000000E+00 0. -1.
         11    1    3    3    0    0 -0.55230490797E+01 -0.46985257173E+01  0.26958621576E+02  0.27916795887E+02  0.51100000000E-03 0.  1.
        -11    1    3    3    0    0  0.12916370597E+02 -0.56574308614E+00 -0.78212425688E+01  0.15110411318E+02  0.51100000000E-03 0. -1.
         12    1    3    3    0    0 -0.17934660280E+02  0.19437854512E+02 -0.12918976065E+02  0.29434370555E+02  0.00000000000E+00 0. -1.
</event>
<event>
 7    1  0.2932676E-013  0.7246160E+02  0.7816164E-02  0.1226708E+00
        -11   -1    0    0    0    0  0.00000000000E+00  0.00000000000E+00  0.45593999997E+02  0.45594000000E+02  0.51100000000E-03 0.  1.
         11   -1    0    0    0    0 -0.00000000000E+00 -0.00000000000E+00 -0.45593999997E+02  0.45594000000E+02  0.51100000000E-03 0. -1.
    9900012    2    1    2    0    0 -0.66407076752E+01 -0.12525761393E+02  0.12234557563E+02  0.72461598966E+02  0.70000037351E+02 0.  0.
         12    1    1    2    0    0  0.66407076752E+01  0.12525761393E+02 -0.12234557563E+02  0.18726401034E+02  0.00000000000E+00 0. -1.
         11    1    3    3    0    0 -0.32627283385E+02 -0.43224020763E+01  0.13041567934E+02  0.35402051851E+02  0.51100000000E-03 0. -1.
        -11    1    3    3    0    0  0.40266561155E+01 -0.11973967963E+02  0.56830089829E+01  0.13852308818E+02  0.51100000000E-03 0.  1.
        -12    1    3    3    0    0  0.21959919595E+02  0.37706086462E+01 -0.64900193538E+01  0.23207238297E+02  0.00000000000E+00 0.  1.
</event>
<event>
 7    1  0.2932676E-013  0.7246185E+02  0.7816164E-02  0.1226707E+00
        -11   -1    0    0    0    0  0.00000000000E+00  0.00000000000E+00  0.45593999997E+02  0.45594000000E+02  0.51100000000E-03 0.  1.
         11   -1    0    0    0    0 -0.00000000000E+00 -0.00000000000E+00 -0.45593999997E+02  0.45594000000E+02  0.51100000000E-03 0. -1.
    9900012    2    1    2    0    0 -0.36780668494E+01 -0.15537059971E+02  0.97847048194E+01  0.72461845651E+02  0.70000358702E+02 0.  0.
         12    1    1    2    0    0  0.36780668494E+01  0.15537059971E+02 -0.97847048194E+01  0.18726154349E+02  0.00000000000E+00 0. -1.
         11    1    3    3    0    0  0.71235367885E+01 -0.27126553378E+01  0.11178024871E+02  0.13529653197E+02  0.51100000000E-03 0. -1.
        -11    1    3    3    0    0  0.14053631428E+02 -0.26804007797E+02 -0.27028177577E+01  0.30385269694E+02  0.51100000000E-03 0.  1.
         12    1    3    3    0    0 -0.24855235066E+02  0.13979603163E+02  0.13094977063E+01  0.28546922760E+02  0.00000000000E+00 0. -1.
</event>
<event>
 7    1  0.2932676E-013  0.7246157E+02  0.7816164E-02  0.1226708E+00
        -11   -1    0    0    0    0  0.00000000000E+00  0.00000000000E+00  0.45593999997E+02  0.45594000000E+02  0.51100000000E-03 0.  1.
         11   -1    0    0    0    0 -0.00000000000E+00 -0.00000000000E+00 -0.45593999997E+02  0.45594000000E+02  0.51100000000E-03 0. -1.
    9900012    2    1    2    0    0 -0.22662923380E+01  0.15948764116E+02  0.95488179192E+01  0.72461572646E+02  0.70000003063E+02 0.  0.
         12    1    1    2    0    0  0.22662923380E+01 -0.15948764116E+02 -0.95488179192E+01  0.18726427354E+02  0.00000000000E+00 0. -1.
         11    1    3    3    0    0 -0.26338708766E+01 -0.25855350957E+02  0.77511631697E+01  0.27120416289E+02  0.51100000000E-03 0. -1.
        -11    1    3    3    0    0 -0.61184387274E+01  0.49242069653E+01  0.38597362504E-01  0.78539542089E+01  0.51100000000E-03 0.  1.
        -12    1    3    3    0    0  0.64860172659E+01  0.36879908108E+02  0.17590573870E+01  0.37487202149E+02  0.00000000000E+00 0.  1.
</event>
<event>
 7    1  0.2932676E-013  0.7246158E+02  0.7816164E-02  0.1226708E+00
        -11   -1    0    0    0    0  0.00000000000E+00  0.00000000000E+00  0.45593999997E+02  0.45594000000E+02  0.51100000000E-03 0.  1.
         11   -1    0    0    0    0 -0.00000000000E+00 -0.00000000000E+00 -0.45593999997E+02  0.45594000000E+02  0.51100000000E-03 0. -1.
    9900012    2    1    2    0    0 -0.18126345354E+02 -0.31046663043E+01  0.35320655477E+01  0.72461579205E+02  0.70000011608E+02 0.  0.
         12    1    1    2    0    0  0.18126345354E+02  0.31046663043E+01 -0.35320655477E+01  0.18726420795E+02  0.00000000000E+00 0. -1.
         11    1    3    3    0    0  0.88373697925E+01 -0.16493557485E+02 -0.19583569284E+02  0.27086024616E+02  0.51100000000E-03 0. -1.
        -11    1    3    3    0    0 -0.41632212960E+01 -0.52651395240E+01  0.12265315786E+02  0.13981848138E+02  0.51100000000E-03 0.  1.
        -12    1    3    3    0    0 -0.22800493850E+02  0.18654030704E+02  0.10850319046E+02  0.31393706451E+02  0.00000000000E+00 0.  1.
</event>
<event>
 7    1  0.2932676E-013  0.7246151E+02  0.7816164E-02  0.1226708E+00
        -11   -1    0    0    0    0  0.00000000000E+00  0.00000000000E+00  0.45593999997E+02  0.45594000000E+02  0.51100000000E-03 0.  1.
         11   -1    0    0    0    0 -0.00000000000E+00 -0.00000000000E+00 -0.45593999997E+02  0.45594000000E+02  0.51100000000E-03 0. -1.
    9900012    2    1    2    0    0  0.10731849103E+02 -0.11365265151E+02  0.10312112515E+02  0.72461508026E+02  0.69999918884E+02 0.  0.
         12    1    1    2    0    0 -0.10731849103E+02  0.11365265151E+02 -0.10312112515E+02  0.18726491974E+02  0.00000000000E+00 0. -1.
         11    1    3    3    0    0 -0.98273997236E+01  0.84769775282E+00 -0.12684931231E+02  0.16068722955E+02  0.51100000000E-03 0. -1.
        -11    1    3    3    0    0  0.97430987121E+01 -0.25146872717E+02 -0.10907891862E+01  0.26990424252E+02  0.51100000000E-03 0.  1.
        -12    1    3    3    0    0  0.10816150114E+02  0.12933909813E+02  0.24087832933E+02  0.29402360819E+02  0.00000000000E+00 0.  1.
</event>
<event>
 7    1  0.2932676E-013  0.7246150E+02  0.7816164E-02  0.1226708E+00
        -11   -1    0    0    0    0  0.00000000000E+00  0.00000000000E+00  0.45593999997E+02  0.45594000000E+02  0.51100000000E-03 0. -1.
         11   -1    0    0    0    0 -0.00000000000E+00 -0.00000000000E+00 -0.45593999997E+02  0.45594000000E+02  0.51100000000E-03 0.  1.
    9900012    2    1    2    0    0 -0.11807531974E+02  0.12128160983E+02 -0.80107293848E+01  0.72461497779E+02  0.69999905535E+02 0.  0.
         12    1    1    2    0    0  0.11807531974E+02 -0.12128160983E+02  0.80107293848E+01  0.18726502221E+02  0.00000000000E+00 0. -1.
         11    1    3    3    0    0  0.87262754139E+01  0.24293923639E+02  0.16411713632E+02  0.30589000523E+02  0.51100000000E-03 0. -1.
        -11    1    3    3    0    0 -0.17125178645E+01  0.66158101504E+01 -0.20825559818E+01  0.71441375309E+01  0.51100000000E-03 0.  1.
        -12    1    3    3    0    0 -0.18821289524E+02 -0.18781572806E+02 -0.22339887035E+02  0.34728359725E+02  0.00000000000E+00 0.  1.
</event>
<event>
 7    1  0.2932676E-013  0.7246157E+02  0.7816164E-02  0.1226708E+00
        -11   -1    0    0    0    0  0.00000000000E+00  0.00000000000E+00  0.45593999997E+02  0.45594000000E+02  0.51100000000E-03 0.  1.
         11   -1    0    0    0    0 -0.00000000000E+00 -0.00000000000E+00 -0.45593999997E+02  0.45594000000E+02  0.51100000000E-03 0. -1.
    9900012    2    1    2    0    0 -0.25638961319E+01 -0.49156285903E+01  0.17886926096E+02  0.72461572338E+02  0.70000002662E+02 0.  0.
         12    1    1    2    0    0  0.25638961319E+01  0.49156285903E+01 -0.17886926096E+02  0.18726427662E+02  0.00000000000E+00 0. -1.
         11    1    3    3    0    0 -0.81184780819E+01 -0.10476006899E+02 -0.40858053826E+01  0.13869037919E+02  0.51100000000E-03 0. -1.
        -11    1    3    3    0    0 -0.18101997202E+02  0.16748844666E+02  0.21022933021E+02  0.32406323664E+02  0.51100000000E-03 0.  1.
        -12    1    3    3    0    0  0.23656579152E+02 -0.11188466357E+02  0.94979845753E+00  0.26186210755E+02  0.00000000000E+00 0.  1.
</event>
<event>
 7    1  0.2932676E-013  0.7246160E+02  0.7816164E-02  0.1226708E+00
        -11   -1    0    0    0    0  0.00000000000E+00  0.00000000000E+00  0.45593999997E+02  0.45594000000E+02  0.51100000000E-03 0.  1.
         11   -1    0    0    0    0 -0.00000000000E+00 -0.00000000000E+00 -0.45593999997E+02  0.45594000000E+02  0.51100000000E-03 0. -1.
    9900012    2    1    2    0    0 -0.12749908149E+02  0.89527827444E+01  0.10390650455E+02  0.72461599023E+02  0.70000037424E+02 0.  0.
         12    1    1    2    0    0  0.12749908149E+02 -0.89527827444E+01 -0.10390650455E+02  0.18726400977E+02  0.00000000000E+00 0. -1.
         11    1    3    3    0    0 -0.16376630895E+02  0.16484877135E+02 -0.12099758597E+02  0.26198270401E+02  0.51100000000E-03 0. -1.
        -11    1    3    3    0    0 -0.28080992728E+01  0.11396434583E+02  0.23475995418E+02  0.26246647478E+02  0.51100000000E-03 0.  1.
         12    1    3    3    0    0  0.64348220185E+01 -0.18928528974E+02 -0.98558636515E+00  0.20016681144E+02  0.00000000000E+00 0. -1.
</event>
<event>
 7    1  0.2932676E-013  0.7246157E+02  0.7816164E-02  0.1226708E+00
        -11   -1    0    0    0    0  0.00000000000E+00  0.00000000000E+00  0.45593999997E+02  0.45594000000E+02  0.51100000000E-03 0.  1.
         11   -1    0    0    0    0 -0.00000000000E+00 -0.00000000000E+00 -0.45593999997E+02  0.45594000000E+02  0.51100000000E-03 0. -1.
    9900012    2    1    2    0    0 -0.16724834117E+02  0.55661766746E+01  0.63227182323E+01  0.72461570419E+02  0.70000000162E+02 0.  0.
         12    1    1    2    0    0  0.16724834117E+02 -0.55661766746E+01 -0.63227182323E+01  0.18726429581E+02  0.00000000000E+00 0. -1.
         11    1    3    3    0    0 -0.10664113962E+02  0.27621241357E+02  0.11596625588E+02  0.31798396594E+02  0.51100000000E-03 0. -1.
        -11    1    3    3    0    0  0.35984175605E+01  0.79767985711E+01 -0.16990109247E+01  0.89142898072E+01  0.51100000000E-03 0.  1.
         12    1    3    3    0    0 -0.96591377156E+01 -0.30031863253E+02 -0.35748964313E+01  0.31748884017E+02  0.00000000000E+00 0. -1.
</event>
<event>
 7    1  0.2932676E-013  0.7246145E+02  0.7816164E-02  0.1226708E+00
        -11   -1    0    0    0    0  0.00000000000E+00  0.00000000000E+00  0.45593999997E+02  0.45594000000E+02  0.51100000000E-03 0.  1.
         11   -1    0    0    0    0 -0.00000000000E+00 -0.00000000000E+00 -0.45593999997E+02  0.45594000000E+02  0.51100000000E-03 0. -1.
    9900012    2    1    2    0    0 -0.54403721181E+01 -0.13349086301E+02  0.11953580684E+02  0.72461445458E+02  0.69999837377E+02 0.  0.
         12    1    1    2    0    0  0.54403721181E+01  0.13349086301E+02 -0.11953580684E+02  0.18726554542E+02  0.00000000000E+00 0. -1.
         11    1    3    3    0    0  0.23343541519E+01 -0.54893886060E+00 -0.84626634062E+01  0.87958635372E+01  0.51100000000E-03 0. -1.
        -11    1    3    3    0    0 -0.26245788035E+02  0.51535131045E+01 -0.53002506832E+01  0.27267063364E+02  0.51100000000E-03 0.  1.
         12    1    3    3    0    0  0.18471061765E+02 -0.17953660545E+02  0.25716494774E+02  0.36398518557E+02  0.00000000000E+00 0. -1.
</event>
<event>
 7    1  0.2932676E-013  0.7246151E+02  0.7816164E-02  0.1226708E+00
        -11   -1    0    0    0    0  0.00000000000E+00  0.00000000000E+00  0.45593999997E+02  0.45594000000E+02  0.51100000000E-03 0. -1.
         11   -1    0    0    0    0 -0.00000000000E+00 -0.00000000000E+00 -0.45593999997E+02  0.45594000000E+02  0.51100000000E-03 0.  1.
    9900012    2    1    2    0    0 -0.12135466503E+02 -0.14197213943E+02  0.13604579201E+01  0.72461514031E+02  0.69999926707E+02 0.  0.
         12    1    1    2    0    0  0.12135466503E+02  0.14197213943E+02 -0.13604579201E+01  0.18726485969E+02  0.00000000000E+00 0. -1.
         11    1    3    3    0    0 -0.13791461630E+02  0.94935941884E+01  0.91674813652E+01  0.19088621201E+02  0.51100000000E-03 0. -1.
        -11    1    3    3    0    0  0.43777485547E+01  0.13935642570E+02  0.97444921019E+00  0.14639548073E+02  0.51100000000E-03 0.  1.
        -12    1    3    3    0    0 -0.27217534276E+01 -0.37626450701E+02 -0.87814726553E+01  0.38733344757E+02  0.00000000000E+00 0.  1.
</event>
<event>
 7    1  0.2932676E-013  0.7246157E+02  0.7816164E-02  0.1226708E+00
        -11   -1    0    0    0    0  0.00000000000E+00  0.00000000000E+00  0.45593999997E+02  0.45594000000E+02  0.51100000000E-03 0. -1.
         11   -1    0    0    0    0 -0.00000000000E+00 -0.00000000000E+00 -0.45593999997E+02  0.45594000000E+02  0.51100000000E-03 0.  1.
    9900012    2    1    2    0    0  0.70209221908E+01  0.15993427324E+02 -0.67524761825E+01  0.72461574805E+02  0.70000005876E+02 0.  0.
         12    1    1    2    0    0 -0.70209221908E+01 -0.15993427324E+02  0.67524761825E+01  0.18726425195E+02  0.00000000000E+00 0. -1.
         11    1    3    3    0    0 -0.82723268855E+01 -0.73494830173E+01  0.17686258615E+02  0.20862646926E+02  0.51100000000E-03 0. -1.
        -11    1    3    3    0    0  0.93957013192E+01 -0.81646531251E+01 -0.11771296089E+02  0.17131963571E+02  0.51100000000E-03 0.  1.
         12    1    3    3    0    0  0.58975477570E+01  0.31507563467E+02 -0.12667438708E+02  0.34466964308E+02  0.00000000000E+00 0. -1.
</event>
<event>
 7    1  0.2932676E-013  0.7246158E+02  0.7816164E-02  0.1226708E+00
        -11   -1    0    0    0    0  0.00000000000E+00  0.00000000000E+00  0.45593999997E+02  0.45594000000E+02  0.51100000000E-03 0.  1.
         11   -1    0    0    0    0 -0.00000000000E+00 -0.00000000000E+00 -0.45593999997E+02  0.45594000000E+02  0.51100000000E-03 0. -1.
    9900012    2    1    2    0    0  0.15362844297E+02  0.10367663910E+02  0.26782906868E+01  0.72461583342E+02  0.70000016996E+02 0.  0.
         12    1    1    2    0    0 -0.15362844297E+02 -0.10367663910E+02 -0.26782906868E+01  0.18726416658E+02  0.00000000000E+00 0. -1.
         11    1    3    3    0    0 -0.13364214297E+02 -0.21484306821E+01 -0.11262530399E+02  0.17608593624E+02  0.51100000000E-03 0. -1.
        -11    1    3    3    0    0 -0.98574068051E+00  0.59267185010E+01 -0.12927366615E+02  0.14255331800E+02  0.51100000000E-03 0.  1.
        -12    1    3    3    0    0  0.29712799275E+02  0.65893760915E+01  0.26868187700E+02  0.40597657917E+02  0.00000000000E+00 0.  1.
</event>
<event>
 7    1  0.2932676E-013  0.7246158E+02  0.7816164E-02  0.1226708E+00
        -11   -1    0    0    0    0  0.00000000000E+00  0.00000000000E+00  0.45593999997E+02  0.45594000000E+02  0.51100000000E-03 0.  1.
         11   -1    0    0    0    0 -0.00000000000E+00 -0.00000000000E+00 -0.45593999997E+02  0.45594000000E+02  0.51100000000E-03 0. -1.
    9900012    2    1    2    0    0 -0.10739490354E+02  0.49929595942E+01  0.14505598105E+02  0.72461583500E+02  0.70000017202E+02 0.  0.
         12    1    1    2    0    0  0.10739490354E+02 -0.49929595942E+01 -0.14505598105E+02  0.18726416500E+02  0.00000000000E+00 0. -1.
         11    1    3    3    0    0 -0.20815629805E+02 -0.10736455446E+02 -0.15863644943E+02  0.28288109708E+02  0.51100000000E-03 0. -1.
        -11    1    3    3    0    0 -0.59234613903E+01  0.14894278459E+02  0.16107250507E+02  0.22723785882E+02  0.51100000000E-03 0.  1.
        -12    1    3    3    0    0  0.15999600842E+02  0.83513658166E+00  0.14261992540E+02  0.21449687909E+02  0.00000000000E+00 0.  1.
</event>
<event>
 7    1  0.2932676E-013  0.7246157E+02  0.7816164E-02  0.1226708E+00
        -11   -1    0    0    0    0  0.00000000000E+00  0.00000000000E+00  0.45593999997E+02  0.45594000000E+02  0.51100000000E-03 0.  1.
         11   -1    0    0    0    0 -0.00000000000E+00 -0.00000000000E+00 -0.45593999997E+02  0.45594000000E+02  0.51100000000E-03 0. -1.
    9900012    2    1    2    0    0 -0.68004294494E+01 -0.63377015829E+01  0.16256288673E+02  0.72461568854E+02  0.69999998124E+02 0.  0.
         12    1    1    2    0    0  0.68004294494E+01  0.63377015829E+01 -0.16256288673E+02  0.18726431146E+02  0.00000000000E+00 0. -1.
         11    1    3    3    0    0 -0.83816628622E+01  0.75623801612E+00 -0.11395454071E+02  0.14166175985E+02  0.51100000000E-03 0. -1.
        -11    1    3    3    0    0  0.47003512149E+01 -0.57968595925E+01 -0.14341174375E+02  0.16166822984E+02  0.51100000000E-03 0.  1.
        -12    1    3    3    0    0 -0.31191178020E+01 -0.12970800065E+01  0.41992917119E+02  0.42128569885E+02  0.00000000000E+00 0.  1.
</event>
<event>
 7    1  0.2932676E-013  0.7246154E+02  0.7816164E-02  0.1226708E+00
        -11   -1    0    0    0    0  0.00000000000E+00  0.00000000000E+00  0.45593999997E+02  0.45594000000E+02  0.51100000000E-03 0.  1.
         11   -1    0    0    0    0 -0.00000000000E+00 -0.00000000000E+00 -0.45593999997E+02  0.45594000000E+02  0.51100000000E-03 0. -1.
    9900012    2    1    2    0    0  0.73655043001E+01 -0.10342156351E+02  0.13764785592E+02  0.72461543476E+02  0.69999965063E+02 0.  0.
         12    1    1    2    0    0 -0.73655043001E+01  0.10342156351E+02 -0.13764785592E+02  0.18726456524E+02  0.00000000000E+00 0. -1.
         11    1    3    3    0    0 -0.66735398329E+01  0.12867937805E+01 -0.47448427928E+01  0.82888784237E+01  0.51100000000E-03 0. -1.
        -11    1    3    3    0    0 -0.21047245293E+02 -0.14999191853E+02  0.44548984100E+01  0.26226101708E+02  0.51100000000E-03 0.  1.
         12    1    3    3    0    0  0.35086289426E+02  0.33702417220E+01  0.14054729975E+02  0.37946563344E+02  0.00000000000E+00 0. -1.
</event>
<event>
 7    1  0.2932676E-013  0.7246163E+02  0.7816164E-02  0.1226708E+00
        -11   -1    0    0    0    0  0.00000000000E+00  0.00000000000E+00  0.45593999997E+02  0.45594000000E+02  0.51100000000E-03 0.  1.
         11   -1    0    0    0    0 -0.00000000000E+00 -0.00000000000E+00 -0.45593999997E+02  0.45594000000E+02  0.51100000000E-03 0. -1.
    9900012    2    1    2    0    0 -0.10851597046E+02 -0.87467521379E+01  0.12506567145E+02  0.72461626802E+02  0.70000073611E+02 0.  0.
         12    1    1    2    0    0  0.10851597046E+02  0.87467521379E+01 -0.12506567145E+02  0.18726373198E+02  0.00000000000E+00 0. -1.
         11    1    3    3    0    0  0.11598964482E+02 -0.19649258334E+02 -0.10826678996E+02  0.25255619344E+02  0.51100000000E-03 0. -1.
        -11    1    3    3    0    0 -0.11407183080E+02 -0.32837520488E+01 -0.56134847340E+01  0.13130805934E+02  0.51100000000E-03 0.  1.
        -12    1    3    3    0    0 -0.11043378447E+02  0.14186258245E+02  0.28946730875E+02  0.34075201524E+02  0.00000000000E+00 0.  1.
</event>
<event>
 7    1  0.2932676E-013  0.7246161E+02  0.7816164E-02  0.1226708E+00
        -11   -1    0    0    0    0  0.00000000000E+00  0.00000000000E+00  0.45593999997E+02  0.45594000000E+02  0.51100000000E-03 0.  1.
         11   -1    0    0    0    0 -0.00000000000E+00 -0.00000000000E+00 -0.45593999997E+02  0.45594000000E+02  0.51100000000E-03 0. -1.
    9900012    2    1    2    0    0  0.14417172086E+02  0.11795726005E+02 -0.19192741366E+01  0.72461611770E+02  0.70000054030E+02 0.  0.
         12    1    1    2    0    0 -0.14417172086E+02 -0.11795726005E+02  0.19192741366E+01  0.18726388230E+02  0.00000000000E+00 0. -1.
         11    1    3    3    0    0  0.23816728177E+02  0.76838151676E+01  0.36657524248E+01  0.25292593732E+02  0.51100000000E-03 0. -1.
        -11    1    3    3    0    0 -0.12817302958E+02  0.22528690209E+02 -0.10238385322E+02  0.27868435046E+02  0.51100000000E-03 0.  1.
         12    1    3    3    0    0  0.34177468672E+01 -0.18416779372E+02  0.46533587604E+01  0.19300582992E+02  0.00000000000E+00 0. -1.
</event>
<event>
 7    1  0.2932676E-013  0.7246162E+02  0.7816164E-02  0.1226708E+00
        -11   -1    0    0    0    0  0.00000000000E+00  0.00000000000E+00  0.45593999997E+02  0.45594000000E+02  0.51100000000E-03 0. -1.
         11   -1    0    0    0    0 -0.00000000000E+00 -0.00000000000E+00 -0.45593999997E+02  0.45594000000E+02  0.51100000000E-03 0.  1.
    9900012    2    1    2    0    0  0.17188199919E+02  0.66317341283E+01 -0.33560633632E+01  0.72461620871E+02  0.70000065885E+02 0.  0.
         12    1    1    2    0    0 -0.17188199919E+02 -0.66317341283E+01  0.33560633632E+01  0.18726379129E+02  0.00000000000E+00 0. -1.
         11    1    3    3    0    0  0.18678795479E+02 -0.57298101157E+01  0.21011960926E+02  0.28691995865E+02  0.51100000000E-03 0. -1.
        -11    1    3    3    0    0 -0.16169541555E+02  0.18211052221E+01 -0.44372272396E+01  0.16865926721E+02  0.51100000000E-03 0.  1.
         12    1    3    3    0    0  0.14678945995E+02  0.10540439022E+02 -0.19930797050E+02  0.26903698284E+02  0.00000000000E+00 0. -1.
</event>
<event>
 7    1  0.2932676E-013  0.7246156E+02  0.7816164E-02  0.1226708E+00
        -11   -1    0    0    0    0  0.00000000000E+00  0.00000000000E+00  0.45593999997E+02  0.45594000000E+02  0.51100000000E-03 0. -1.
         11   -1    0    0    0    0 -0.00000000000E+00 -0.00000000000E+00 -0.45593999997E+02  0.45594000000E+02  0.51100000000E-03 0.  1.
    9900012    2    1    2    0    0 -0.16383201095E+02  0.40669417795E+00  0.90611716350E+01  0.72461561212E+02  0.69999988169E+02 0.  0.
         12    1    1    2    0    0  0.16383201095E+02 -0.40669417795E+00 -0.90611716350E+01  0.18726438788E+02  0.00000000000E+00 0. -1.
         11    1    3    3    0    0  0.11833345984E+01  0.13798088904E+01  0.28552007315E+02  0.28609810823E+02  0.51100000000E-03 0. -1.
        -11    1    3    3    0    0 -0.20816212860E+02  0.12867004912E+02 -0.85853847265E+01  0.25934212238E+02  0.51100000000E-03 0.  1.
         12    1    3    3    0    0  0.32496771662E+01 -0.13840119625E+02 -0.10905450953E+02  0.17917538151E+02  0.00000000000E+00 0. -1.
</event>
<event>
 7    1  0.2932676E-013  0.7246157E+02  0.7816164E-02  0.1226708E+00
        -11   -1    0    0    0    0  0.00000000000E+00  0.00000000000E+00  0.45593999997E+02  0.45594000000E+02  0.51100000000E-03 0.  1.
         11   -1    0    0    0    0 -0.00000000000E+00 -0.00000000000E+00 -0.45593999997E+02  0.45594000000E+02  0.51100000000E-03 0. -1.
    9900012    2    1    2    0    0 -0.93086632559E+01  0.16230827861E+02 -0.76686950585E+00  0.72461572858E+02  0.70000003340E+02 0.  0.
         12    1    1    2    0    0  0.93086632559E+01 -0.16230827861E+02  0.76686950585E+00  0.18726427142E+02  0.00000000000E+00 0. -1.
         11    1    3    3    0    0 -0.45993381140E+01 -0.18180927484E+02 -0.14880487334E+01  0.18812610785E+02  0.51100000000E-03 0. -1.
        -11    1    3    3    0    0  0.81602931485E+01  0.16003653966E+02 -0.17233553705E+02  0.24893828514E+02  0.51100000000E-03 0.  1.
        -12    1    3    3    0    0 -0.12869618290E+02  0.18408101379E+02  0.17954732932E+02  0.28755133559E+02  0.00000000000E+00 0.  1.
</event>
<event>
 7    1  0.2932676E-013  0.7246161E+02  0.7816164E-02  0.1226708E+00
        -11   -1    0    0    0    0  0.00000000000E+00  0.00000000000E+00  0.45593999997E+02  0.45594000000E+02  0.51100000000E-03 0.  1.
         11   -1    0    0    0    0 -0.00000000000E+00 -0.00000000000E+00 -0.45593999997E+02  0.45594000000E+02  0.51100000000E-03 0. -1.
    9900012    2    1    2    0    0  0.90775866572E+01 -0.57264647170E+01  0.15345442555E+02  0.72461612604E+02  0.70000055117E+02 0.  0.
         12    1    1    2    0    0 -0.90775866572E+01  0.57264647170E+01 -0.15345442555E+02  0.18726387396E+02  0.00000000000E+00 0. -1.
         11    1    3    3    0    0 -0.15470696838E+02 -0.45888196863E+01  0.98519232875E+01  0.18906615760E+02  0.51100000000E-03 0. -1.
        -11    1    3    3    0    0  0.15620561328E+01  0.22055615793E+01  0.23816862916E+02  0.23969720079E+02  0.51100000000E-03 0.  1.
         12    1    3    3    0    0  0.22986227363E+02 -0.33432066100E+01 -0.18323343648E+02  0.29585276765E+02  0.00000000000E+00 0. -1.
</event>
<event>
 7    1  0.2932676E-013  0.7246148E+02  0.7816164E-02  0.1226708E+00
        -11   -1    0    0    0    0  0.00000000000E+00  0.00000000000E+00  0.45593999997E+02  0.45594000000E+02  0.51100000000E-03 0. -1.
         11   -1    0    0    0    0 -0.00000000000E+00 -0.00000000000E+00 -0.45593999997E+02  0.45594000000E+02  0.51100000000E-03 0.  1.
    9900012    2    1    2    0    0 -0.10323242002E+02 -0.86910448021E+01 -0.12983803051E+02  0.72461475313E+02  0.69999876269E+02 0.  0.
         12    1    1    2    0    0  0.10323242002E+02  0.86910448021E+01  0.12983803051E+02  0.18726524687E+02  0.00000000000E+00 0. -1.
         11    1    3    3    0    0 -0.32147686736E+01 -0.32920387007E+01  0.12306019004E+01  0.47630492051E+01  0.51100000000E-03 0. -1.
        -11    1    3    3    0    0 -0.13009625283E+02  0.23024196072E+02 -0.25324692648E+02  0.36615625254E+02  0.51100000000E-03 0.  1.
         12    1    3    3    0    0  0.59011519551E+01 -0.28423202173E+02  0.11110287697E+02  0.31082800854E+02  0.00000000000E+00 0. -1.
</event>
<event>
 7    1  0.2932676E-013  0.7246154E+02  0.7816164E-02  0.1226708E+00
        -11   -1    0    0    0    0  0.00000000000E+00  0.00000000000E+00  0.45593999997E+02  0.45594000000E+02  0.51100000000E-03 0. -1.
         11   -1    0    0    0    0 -0.00000000000E+00 -0.00000000000E+00 -0.45593999997E+02  0.45594000000E+02  0.51100000000E-03 0.  1.
    9900012    2    1    2    0    0 -0.76817323047E+01  0.17057605929E+02 -0.84230372822E+00  0.72461537258E+02  0.69999956965E+02 0.  0.
         12    1    1    2    0    0  0.76817323047E+01 -0.17057605929E+02  0.84230372822E+00  0.18726462742E+02  0.00000000000E+00 0. -1.
         11    1    3    3    0    0  0.10406631018E+02 -0.14897939838E+02  0.10599133220E+02  0.21037780440E+02  0.51100000000E-03 0. -1.
        -11    1    3    3    0    0 -0.17593298991E+02  0.68542984150E+01  0.71432660435E+01  0.20187417522E+02  0.51100000000E-03 0.  1.
        -12    1    3    3    0    0 -0.49506433184E+00  0.25101247353E+02 -0.18584702992E+02  0.31236339297E+02  0.00000000000E+00 0.  1.
</event>
<event>
 7    1  0.2932676E-013  0.7246154E+02  0.7816164E-02  0.1226708E+00
        -11   -1    0    0    0    0  0.00000000000E+00  0.00000000000E+00  0.45593999997E+02  0.45594000000E+02  0.51100000000E-03 0.  1.
         11   -1    0    0    0    0 -0.00000000000E+00 -0.00000000000E+00 -0.45593999997E+02  0.45594000000E+02  0.51100000000E-03 0. -1.
    9900012    2    1    2    0    0 -0.85245719265E+01 -0.15412914078E+02 -0.63603448382E+01  0.72461541889E+02  0.69999962997E+02 0.  0.
         12    1    1    2    0    0  0.85245719265E+01  0.15412914078E+02  0.63603448382E+01  0.18726458111E+02  0.00000000000E+00 0. -1.
         11    1    3    3    0    0 -0.21520118143E+02  0.15329775908E+01 -0.89000368395E+01  0.23338298164E+02  0.51100000000E-03 0. -1.
        -11    1    3    3    0    0 -0.94877741415E+01  0.94048852817E+01 -0.38430962265E+01  0.13901047234E+02  0.51100000000E-03 0.  1.
        -12    1    3    3    0    0  0.22483320358E+02 -0.26350776950E+02  0.63827882278E+01  0.35222196492E+02  0.00000000000E+00 0.  1.
</event>
<event>
 7    1  0.2932676E-013  0.7246163E+02  0.7816164E-02  0.1226708E+00
        -11   -1    0    0    0    0  0.00000000000E+00  0.00000000000E+00  0.45593999997E+02  0.45594000000E+02  0.51100000000E-03 0. -1.
         11   -1    0    0    0    0 -0.00000000000E+00 -0.00000000000E+00 -0.45593999997E+02  0.45594000000E+02  0.51100000000E-03 0.  1.
    9900012    2    1    2    0    0  0.99355462118E+00 -0.25113504408E+01 -0.18530590706E+02  0.72461632928E+02  0.70000081591E+02 0.  0.
         12    1    1    2    0    0 -0.99355462118E+00  0.25113504408E+01  0.18530590706E+02  0.18726367072E+02  0.00000000000E+00 0. -1.
         11    1    3    3    0    0 -0.13595184808E+02  0.76508447965E+01 -0.10197935014E+02  0.18637659587E+02  0.51100000000E-03 0. -1.
        -11    1    3    3    0    0 -0.71202415503E-02  0.14145145499E+02 -0.18864090786E+02  0.23578361125E+02  0.51100000000E-03 0.  1.
         12    1    3    3    0    0  0.14595859670E+02 -0.24307340736E+02  0.10531435095E+02  0.30245612216E+02  0.00000000000E+00 0. -1.
</event>
<event>
 7    1  0.2932676E-013  0.7246156E+02  0.7816164E-02  0.1226708E+00
        -11   -1    0    0    0    0  0.00000000000E+00  0.00000000000E+00  0.45593999997E+02  0.45594000000E+02  0.51100000000E-03 0.  1.
         11   -1    0    0    0    0 -0.00000000000E+00 -0.00000000000E+00 -0.45593999997E+02  0.45594000000E+02  0.51100000000E-03 0. -1.
    9900012    2    1    2    0    0 -0.11240666929E+02 -0.13437820349E+02  0.66145308040E+01  0.72461558093E+02  0.69999984105E+02 0.  0.
         12    1    1    2    0    0  0.11240666929E+02  0.13437820349E+02 -0.66145308040E+01  0.18726441907E+02  0.00000000000E+00 0. -1.
         11    1    3    3    0    0 -0.28145449276E+02 -0.40690060619E+01 -0.62405428600E+01  0.29114729962E+02  0.51100000000E-03 0. -1.
        -11    1    3    3    0    0 -0.90927901333E+01 -0.10134269946E+02 -0.14005961911E+01  0.13687363870E+02  0.51100000000E-03 0.  1.
        -12    1    3    3    0    0  0.25997572481E+02  0.76545565912E+00  0.14255669855E+02  0.29659464261E+02  0.00000000000E+00 0.  1.
</event>
<event>
 7    1  0.2932676E-013  0.7246136E+02  0.7816164E-02  0.1226709E+00
        -11   -1    0    0    0    0  0.00000000000E+00  0.00000000000E+00  0.45593999997E+02  0.45594000000E+02  0.51100000000E-03 0. -1.
         11   -1    0    0    0    0 -0.00000000000E+00 -0.00000000000E+00 -0.45593999997E+02  0.45594000000E+02  0.51100000000E-03 0.  1.
    9900012    2    1    2    0    0  0.57773891030E+01  0.88942811780E+01 -0.15433751489E+02  0.72461357280E+02  0.69999722509E+02 0.  0.
         12    1    1    2    0    0 -0.57773891030E+01 -0.88942811780E+01  0.15433751489E+02  0.18726642720E+02  0.00000000000E+00 0. -1.
         11    1    3    3    0    0  0.15483103867E+01 -0.34801145188E+01  0.77574737080E+01  0.86421560221E+01  0.51100000000E-03 0. -1.
        -11    1    3    3    0    0  0.17597529184E+02  0.30507521286E+02 -0.65789851785E+01  0.35828270048E+02  0.51100000000E-03 0.  1.
        -12    1    3    3    0    0 -0.13368450468E+02 -0.18133125590E+02 -0.16612240019E+02  0.27990931210E+02  0.00000000000E+00 0.  1.
</event>
<event>
 7    1  0.2932676E-013  0.7246157E+02  0.7816164E-02  0.1226708E+00
        -11   -1    0    0    0    0  0.00000000000E+00  0.00000000000E+00  0.45593999997E+02  0.45594000000E+02  0.51100000000E-03 0. -1.
         11   -1    0    0    0    0 -0.00000000000E+00 -0.00000000000E+00 -0.45593999997E+02  0.45594000000E+02  0.51100000000E-03 0.  1.
    9900012    2    1    2    0    0 -0.65388280079E+01  0.37209077189E+01 -0.17148696235E+02  0.72461569252E+02  0.69999998643E+02 0.  0.
         12    1    1    2    0    0  0.65388280079E+01 -0.37209077189E+01  0.17148696235E+02  0.18726430748E+02  0.00000000000E+00 0. -1.
         11    1    3    3    0    0 -0.33662176090E+01  0.38680731905E+01 -0.50825939928E+01  0.72198457848E+01  0.51100000000E-03 0. -1.
        -11    1    3    3    0    0 -0.14195477539E+02  0.80117413284E+01 -0.34949394053E+02  0.38563709969E+02  0.51100000000E-03 0.  1.
         12    1    3    3    0    0  0.11022867140E+02 -0.81589068000E+01  0.22883291810E+02  0.26678013499E+02  0.00000000000E+00 0. -1.
</event>
<event>
 7    1  0.2932676E-013  0.7246160E+02  0.7816164E-02  0.1226708E+00
        -11   -1    0    0    0    0  0.00000000000E+00  0.00000000000E+00  0.45593999997E+02  0.45594000000E+02  0.51100000000E-03 0.  1.
         11   -1    0    0    0    0 -0.00000000000E+00 -0.00000000000E+00 -0.45593999997E+02  0.45594000000E+02  0.51100000000E-03 0. -1.
    9900012    2    1    2    0    0 -0.11406866365E+02  0.14848571878E+02 -0.28500417663E+00  0.72461603805E+02  0.70000043654E+02 0.  0.
         12    1    1    2    0    0  0.11406866365E+02 -0.14848571878E+02  0.28500417663E+00  0.18726396195E+02  0.00000000000E+00 0. -1.
         11    1    3    3    0    0 -0.78992374382E+01  0.61252910759E+01  0.50630461709E+01  0.11204980128E+02  0.51100000000E-03 0. -1.
        -11    1    3    3    0    0  0.11232651838E+02  0.21399741852E+02  0.18537450922E+02  0.30459128444E+02  0.51100000000E-03 0.  1.
         12    1    3    3    0    0 -0.14740280765E+02 -0.12676461050E+02 -0.23885501269E+02  0.30797495233E+02  0.00000000000E+00 0. -1.
</event>
<event>
 7    1  0.2932676E-013  0.7246151E+02  0.7816164E-02  0.1226708E+00
        -11   -1    0    0    0    0  0.00000000000E+00  0.00000000000E+00  0.45593999997E+02  0.45594000000E+02  0.51100000000E-03 0. -1.
         11   -1    0    0    0    0 -0.00000000000E+00 -0.00000000000E+00 -0.45593999997E+02  0.45594000000E+02  0.51100000000E-03 0.  1.
    9900012    2    1    2    0    0  0.72263689860E+01 -0.17051030075E+02 -0.27790880006E+01  0.72461511662E+02  0.69999923621E+02 0.  0.
         12    1    1    2    0    0 -0.72263689860E+01  0.17051030075E+02  0.27790880006E+01  0.18726488338E+02  0.00000000000E+00 0. -1.
         11    1    3    3    0    0 -0.24083860499E+01 -0.10138689407E+01  0.47792801002E+01  0.54469966156E+01  0.51100000000E-03 0. -1.
        -11    1    3    3    0    0 -0.13647982650E+02 -0.34284204773E+02 -0.60631504125E+01  0.37395667135E+02  0.51100000000E-03 0.  1.
         12    1    3    3    0    0  0.23282737686E+02  0.18247043638E+02 -0.14952176882E+01  0.29618847912E+02  0.00000000000E+00 0. -1.
</event>
<event>
 7    1  0.2932676E-013  0.7246157E+02  0.7816164E-02  0.1226708E+00
        -11   -1    0    0    0    0  0.00000000000E+00  0.00000000000E+00  0.45593999997E+02  0.45594000000E+02  0.51100000000E-03 0. -1.
         11   -1    0    0    0    0 -0.00000000000E+00 -0.00000000000E+00 -0.45593999997E+02  0.45594000000E+02  0.51100000000E-03 0.  1.
    9900012    2    1    2    0    0  0.75519232271E+01  0.13206461799E+02 -0.10919575106E+02  0.72461566859E+02  0.69999995525E+02 0.  0.
         12    1    1    2    0    0 -0.75519232271E+01 -0.13206461799E+02  0.10919575106E+02  0.18726433141E+02  0.00000000000E+00 0. -1.
         11    1    3    3    0    0  0.17937693544E+01 -0.17822710927E+02 -0.93904747328E+00  0.17937347733E+02  0.51100000000E-03 0. -1.
        -11    1    3    3    0    0  0.20949161836E+02  0.69800401873E+01  0.46067009651E+01  0.22556817965E+02  0.51100000000E-03 0.  1.
        -12    1    3    3    0    0 -0.15191007964E+02  0.24049132539E+02 -0.14587228598E+02  0.31967401161E+02  0.00000000000E+00 0.  1.
</event>
<event>
 7    1  0.2932676E-013  0.7246153E+02  0.7816164E-02  0.1226708E+00
        -11   -1    0    0    0    0  0.00000000000E+00  0.00000000000E+00  0.45593999997E+02  0.45594000000E+02  0.51100000000E-03 0.  1.
         11   -1    0    0    0    0 -0.00000000000E+00 -0.00000000000E+00 -0.45593999997E+02  0.45594000000E+02  0.51100000000E-03 0. -1.
    9900012    2    1    2    0    0  0.17702277559E+02 -0.60721227920E+01  0.66280951735E+00  0.72461531502E+02  0.69999949465E+02 0.  0.
         12    1    1    2    0    0 -0.17702277559E+02  0.60721227920E+01 -0.66280951735E+00  0.18726468498E+02  0.00000000000E+00 0. -1.
         11    1    3    3    0    0  0.36740139888E+01  0.14793108456E+01 -0.53640935341E+01  0.66678511584E+01  0.51100000000E-03 0. -1.
        -11    1    3    3    0    0 -0.11555128353E+02  0.22772012775E+02 -0.74051964892E+00  0.25546700896E+02  0.51100000000E-03 0.  1.
         12    1    3    3    0    0  0.25583391923E+02 -0.30323446412E+02  0.67674227003E+01  0.40246979447E+02  0.00000000000E+00 0. -1.
</event>
<event>
 7    1  0.2932676E-013  0.7246158E+02  0.7816164E-02  0.1226708E+00
        -11   -1    0    0    0    0  0.00000000000E+00  0.00000000000E+00  0.45593999997E+02  0.45594000000E+02  0.51100000000E-03 0. -1.
         11   -1    0    0    0    0 -0.00000000000E+00 -0.00000000000E+00 -0.45593999997E+02  0.45594000000E+02  0.51100000000E-03 0.  1.
    9900012    2    1    2    0    0  0.54473789345E+00  0.17462790087E+02  0.67404110905E+01  0.72461576993E+02  0.70000008726E+02 0.  0.
         12    1    1    2    0    0 -0.54473789345E+00 -0.17462790087E+02 -0.67404110905E+01  0.18726423007E+02  0.00000000000E+00 0. -1.
         11    1    3    3    0    0  0.14403435139E+02 -0.53565958875E+01  0.27301869651E+02  0.31329605009E+02  0.51100000000E-03 0. -1.
        -11    1    3    3    0    0 -0.82098757427E+01  0.17608050907E+01  0.31058265293E+01  0.89525780068E+01  0.51100000000E-03 0.  1.
        -12    1    3    3    0    0 -0.56488215025E+01  0.21058580884E+02 -0.23667285090E+02  0.32179393977E+02  0.00000000000E+00 0.  1.
</event>
<event>
 7    1  0.2932676E-013  0.7246154E+02  0.7816164E-02  0.1226708E+00
        -11   -1    0    0    0    0  0.00000000000E+00  0.00000000000E+00  0.45593999997E+02  0.45594000000E+02  0.51100000000E-03 0. -1.
         11   -1    0    0    0    0 -0.00000000000E+00 -0.00000000000E+00 -0.45593999997E+02  0.45594000000E+02  0.51100000000E-03 0.  1.
    9900012    2    1    2    0    0 -0.92200493198E+01  0.14496885525E+02 -0.74505874088E+01  0.72461541388E+02  0.69999962345E+02 0.  0.
         12    1    1    2    0    0  0.92200493198E+01 -0.14496885525E+02  0.74505874088E+01  0.18726458612E+02  0.00000000000E+00 0. -1.
         11    1    3    3    0    0 -0.16828247335E+02  0.31512404561E+02  0.16611848030E+02  0.39397652783E+02  0.51100000000E-03 0. -1.
        -11    1    3    3    0    0  0.11008423711E+01  0.19088648124E+01 -0.72179510661E+00  0.23187512232E+01  0.51100000000E-03 0.  1.
        -12    1    3    3    0    0  0.65073556443E+01 -0.18924383848E+02 -0.23340640332E+02  0.30745137382E+02  0.00000000000E+00 0.  1.
</event>
<event>
 7    1  0.2932676E-013  0.7246158E+02  0.7816164E-02  0.1226708E+00
        -11   -1    0    0    0    0  0.00000000000E+00  0.00000000000E+00  0.45593999997E+02  0.45594000000E+02  0.51100000000E-03 0.  1.
         11   -1    0    0    0    0 -0.00000000000E+00 -0.00000000000E+00 -0.45593999997E+02  0.45594000000E+02  0.51100000000E-03 0. -1.
    9900012    2    1    2    0    0  0.20371598192E+01  0.14590698041E+02  0.11560292164E+02  0.72461578976E+02  0.70000011309E+02 0.  0.
         12    1    1    2    0    0 -0.20371598192E+01 -0.14590698041E+02 -0.11560292164E+02  0.18726421024E+02  0.00000000000E+00 0. -1.
         11    1    3    3    0    0  0.27477863600E+02  0.16506477024E+02  0.79866614560E+00  0.32064538662E+02  0.51100000000E-03 0. -1.
        -11    1    3    3    0    0 -0.35687493727E+01  0.22987870780E+01 -0.94246702518E+01  0.10336576016E+02  0.51100000000E-03 0.  1.
        -12    1    3    3    0    0 -0.21871954408E+02 -0.42145660604E+01  0.20186296270E+02  0.30060464298E+02  0.00000000000E+00 0.  1.
</event>
<event>
 7    1  0.2932676E-013  0.7246157E+02  0.7816164E-02  0.1226708E+00
        -11   -1    0    0    0    0  0.00000000000E+00  0.00000000000E+00  0.45593999997E+02  0.45594000000E+02  0.51100000000E-03 0.  1.
         11   -1    0    0    0    0 -0.00000000000E+00 -0.00000000000E+00 -0.45593999997E+02  0.45594000000E+02  0.51100000000E-03 0. -1.
    9900012    2    1    2    0    0  0.11549315946E+02  0.54499978239E+01  0.13696355371E+02  0.72461566128E+02  0.69999994573E+02 0.  0.
         12    1    1    2    0    0 -0.11549315946E+02 -0.54499978239E+01 -0.13696355371E+02  0.18726433872E+02  0.00000000000E+00 0. -1.
         11    1    3    3    0    0 -0.24590969585E+01  0.94369188630E+01 -0.44058028196E+00  0.97620032127E+01  0.51100000000E-03 0. -1.
        -11    1    3    3    0    0  0.20325355319E+01  0.10966423542E+02  0.33592084798E+02  0.35395222945E+02  0.51100000000E-03 0.  1.
         12    1    3    3    0    0  0.11975877373E+02 -0.14953344581E+02 -0.19455149145E+02  0.27304339971E+02  0.00000000000E+00 0. -1.
</event>
<event>
 7    1  0.2932676E-013  0.7246160E+02  0.7816164E-02  0.1226708E+00
        -11   -1    0    0    0    0  0.00000000000E+00  0.00000000000E+00  0.45593999997E+02  0.45594000000E+02  0.51100000000E-03 0.  1.
         11   -1    0    0    0    0 -0.00000000000E+00 -0.00000000000E+00 -0.45593999997E+02  0.45594000000E+02  0.51100000000E-03 0. -1.
    9900012    2    1    2    0    0 -0.17532327780E+02 -0.35503820315E+01 -0.55398854924E+01  0.72461599886E+02  0.70000038549E+02 0.  0.
         12    1    1    2    0    0  0.17532327780E+02  0.35503820315E+01  0.55398854924E+01  0.18726400114E+02  0.00000000000E+00 0. -1.
         11    1    3    3    0    0 -0.30932684961E+02 -0.66569923449E+01  0.15477633321E+02  0.35223623883E+02  0.51100000000E-03 0. -1.
        -11    1    3    3    0    0  0.33819431188E+01  0.96110518118E+01  0.28229562185E+01  0.10572555900E+02  0.51100000000E-03 0.  1.
        -12    1    3    3    0    0  0.10018414062E+02 -0.65044414985E+01 -0.23840475032E+02  0.26665420103E+02  0.00000000000E+00 0.  1.
</event>
<event>
 7    1  0.2932676E-013  0.7246155E+02  0.7816164E-02  0.1226708E+00
        -11   -1    0    0    0    0  0.00000000000E+00  0.00000000000E+00  0.45593999997E+02  0.45594000000E+02  0.51100000000E-03 0.  1.
         11   -1    0    0    0    0 -0.00000000000E+00 -0.00000000000E+00 -0.45593999997E+02  0.45594000000E+02  0.51100000000E-03 0. -1.
    9900012    2    1    2    0    0  0.14116570365E+01 -0.14684686614E+02  0.11534606394E+02  0.72461549690E+02  0.69999973159E+02 0.  0.
         12    1    1    2    0    0 -0.14116570365E+01  0.14684686614E+02 -0.11534606394E+02  0.18726450310E+02  0.00000000000E+00 0. -1.
         11    1    3    3    0    0  0.23750903210E+01  0.63267451203E+01  0.79915812707E+01  0.10465855403E+02  0.51100000000E-03 0. -1.
        -11    1    3    3    0    0  0.10800619789E+02 -0.21181049574E+02  0.26864444624E+02  0.35874623818E+02  0.51100000000E-03 0.  1.
         12    1    3    3    0    0 -0.11764053074E+02  0.16961783910E+00 -0.23321419500E+02  0.26121070469E+02  0.00000000000E+00 0. -1.
</event>
<event>
 7    1  0.2932676E-013  0.7246155E+02  0.7816164E-02  0.1226708E+00
        -11   -1    0    0    0    0  0.00000000000E+00  0.00000000000E+00  0.45593999997E+02  0.45594000000E+02  0.51100000000E-03 0.  1.
         11   -1    0    0    0    0 -0.00000000000E+00 -0.00000000000E+00 -0.45593999997E+02  0.45594000000E+02  0.51100000000E-03 0. -1.
    9900012    2    1    2    0    0 -0.79052325620E+01  0.16063138990E+00  0.16975321751E+02  0.72461546710E+02  0.69999969276E+02 0.  0.
         12    1    1    2    0    0  0.79052325620E+01 -0.16063138990E+00 -0.16975321751E+02  0.18726453290E+02  0.00000000000E+00 0. -1.
         11    1    3    3    0    0 -0.30425435531E+02 -0.16255617801E+02  0.89101715528E+01  0.35627845777E+02  0.51100000000E-03 0. -1.
        -11    1    3    3    0    0 -0.53325807687E+00 -0.38656311569E+01  0.44463481407E+01  0.59158668399E+01  0.51100000000E-03 0.  1.
        -12    1    3    3    0    0  0.23053461046E+02  0.20281880348E+02  0.36188020570E+01  0.30917834093E+02  0.00000000000E+00 0.  1.
</event>
<event>
 7    1  0.2932676E-013  0.7246150E+02  0.7816164E-02  0.1226708E+00
        -11   -1    0    0    0    0  0.00000000000E+00  0.00000000000E+00  0.45593999997E+02  0.45594000000E+02  0.51100000000E-03 0.  1.
         11   -1    0    0    0    0 -0.00000000000E+00 -0.00000000000E+00 -0.45593999997E+02  0.45594000000E+02  0.51100000000E-03 0. -1.
    9900012    2    1    2    0    0 -0.15722127183E+02 -0.55439145060E+01  0.85300291246E+01  0.72461503582E+02  0.69999913095E+02 0.  0.
         12    1    1    2    0    0  0.15722127183E+02  0.55439145060E+01 -0.85300291246E+01  0.18726496418E+02  0.00000000000E+00 0. -1.
         11    1    3    3    0    0  0.42656947230E+01 -0.13311381869E+02 -0.64427296947E+01  0.15391484819E+02  0.51100000000E-03 0.  1.
        -11    1    3    3    0    0  0.16617947324E+02  0.12000186044E+01  0.10298672393E+02  0.19587211931E+02  0.51100000000E-03 0. -1.
        -12    1    3    3    0    0 -0.36605769230E+02  0.65674487591E+01  0.46740864259E+01  0.37482806832E+02  0.00000000000E+00 0.  1.
</event>
<event>
 7    1  0.2932676E-013  0.7246157E+02  0.7816164E-02  0.1226708E+00
        -11   -1    0    0    0    0  0.00000000000E+00  0.00000000000E+00  0.45593999997E+02  0.45594000000E+02  0.51100000000E-03 0. -1.
         11   -1    0    0    0    0 -0.00000000000E+00 -0.00000000000E+00 -0.45593999997E+02  0.45594000000E+02  0.51100000000E-03 0.  1.
    9900012    2    1    2    0    0 -0.18220211201E+02 -0.15796229027E+01 -0.40259116976E+01  0.72461567619E+02  0.69999996515E+02 0.  0.
         12    1    1    2    0    0  0.18220211201E+02  0.15796229027E+01  0.40259116976E+01  0.18726432381E+02  0.00000000000E+00 0. -1.
         11    1    3    3    0    0 -0.26798998680E+02  0.25036208639E+02  0.13784141422E+01  0.36700110341E+02  0.51100000000E-03 0. -1.
        -11    1    3    3    0    0 -0.62197876135E+01 -0.94639170780E+01 -0.65433069608E+01  0.13079233566E+02  0.51100000000E-03 0.  1.
        -12    1    3    3    0    0  0.14798575093E+02 -0.17151914464E+02  0.11389811210E+01  0.22682223712E+02  0.00000000000E+00 0.  1.
</event>
<event>
 7    1  0.2932676E-013  0.7246157E+02  0.7816164E-02  0.1226708E+00
        -11   -1    0    0    0    0  0.00000000000E+00  0.00000000000E+00  0.45593999997E+02  0.45594000000E+02  0.51100000000E-03 0.  1.
         11   -1    0    0    0    0 -0.00000000000E+00 -0.00000000000E+00 -0.45593999997E+02  0.45594000000E+02  0.51100000000E-03 0. -1.
    9900012    2    1    2    0    0  0.16851862699E+02  0.31639912034E+01 -0.75288219391E+01  0.72461567437E+02  0.69999996277E+02 0.  0.
         12    1    1    2    0    0 -0.16851862699E+02 -0.31639912034E+01  0.75288219391E+01  0.18726432563E+02  0.00000000000E+00 0. -1.
         11    1    3    3    0    0  0.23603080324E+01  0.26786734828E+01 -0.16092653443E+02  0.16483926739E+02  0.51100000000E-03 0. -1.
        -11    1    3    3    0    0 -0.56753215291E+01 -0.18498745266E+02 -0.10822259441E+02  0.22170569468E+02  0.51100000000E-03 0.  1.
        -12    1    3    3    0    0  0.20166876196E+02  0.18984062987E+02  0.19386090945E+02  0.33807071229E+02  0.00000000000E+00 0.  1.
</event>
<event>
 7    1  0.2932676E-013  0.7246157E+02  0.7816164E-02  0.1226708E+00
        -11   -1    0    0    0    0  0.00000000000E+00  0.00000000000E+00  0.45593999997E+02  0.45594000000E+02  0.51100000000E-03 0.  1.
         11   -1    0    0    0    0 -0.00000000000E+00 -0.00000000000E+00 -0.45593999997E+02  0.45594000000E+02  0.51100000000E-03 0. -1.
    9900012    2    1    2    0    0 -0.18641337381E+02  0.16518642050E+01 -0.67158101144E+00  0.72461571196E+02  0.70000001174E+02 0.  0.
         12    1    1    2    0    0  0.18641337381E+02 -0.16518642050E+01  0.67158101144E+00  0.18726428804E+02  0.00000000000E+00 0. -1.
         11    1    3    3    0    0 -0.47802396589E+01 -0.19335423598E+02  0.18083115217E+01  0.19999482187E+02  0.51100000000E-03 0. -1.
        -11    1    3    3    0    0 -0.28958404950E+02  0.94894924427E+01  0.69727418380E+01  0.31261139024E+02  0.51100000000E-03 0.  1.
         12    1    3    3    0    0  0.15097307228E+02  0.11497795361E+02 -0.94526343711E+01  0.21200949985E+02  0.00000000000E+00 0. -1.
</event>
<event>
 7    1  0.2932676E-013  0.7246159E+02  0.7816164E-02  0.1226708E+00
        -11   -1    0    0    0    0  0.00000000000E+00  0.00000000000E+00  0.45593999997E+02  0.45594000000E+02  0.51100000000E-03 0.  1.
         11   -1    0    0    0    0 -0.00000000000E+00 -0.00000000000E+00 -0.45593999997E+02  0.45594000000E+02  0.51100000000E-03 0. -1.
    9900012    2    1    2    0    0 -0.13125090419E+02  0.49524830863E+01  0.12404967734E+02  0.72461593198E+02  0.70000029836E+02 0.  0.
         12    1    1    2    0    0  0.13125090419E+02 -0.49524830863E+01 -0.12404967734E+02  0.18726406802E+02  0.00000000000E+00 0. -1.
         11    1    3    3    0    0  0.22386400840E+02 -0.26103664271E+01  0.11183203156E+01  0.22565805903E+02  0.51100000000E-03 0. -1.
        -11    1    3    3    0    0  0.46213460258E+01  0.18912811471E+01  0.77378282209E+01  0.92091133832E+01  0.51100000000E-03 0.  1.
        -12    1    3    3    0    0 -0.40132837285E+02  0.56715683663E+01  0.35488191977E+01  0.40686673912E+02  0.00000000000E+00 0.  1.
</event>
<event>
 7    1  0.2932676E-013  0.7246157E+02  0.7816164E-02  0.1226708E+00
        -11   -1    0    0    0    0  0.00000000000E+00  0.00000000000E+00  0.45593999997E+02  0.45594000000E+02  0.51100000000E-03 0.  1.
         11   -1    0    0    0    0 -0.00000000000E+00 -0.00000000000E+00 -0.45593999997E+02  0.45594000000E+02  0.51100000000E-03 0. -1.
    9900012    2    1    2    0    0  0.25047497287E+01 -0.13332703075E+02  0.12909081976E+02  0.72461571083E+02  0.70000001028E+02 0.  0.
         12    1    1    2    0    0 -0.25047497287E+01  0.13332703075E+02 -0.12909081976E+02  0.18726428917E+02  0.00000000000E+00 0. -1.
         11    1    3    3    0    0 -0.15723803904E+00 -0.56996482895E+01 -0.56786041687E+01  0.80471895710E+01  0.51100000000E-03 0. -1.
        -11    1    3    3    0    0 -0.10862470324E+02  0.18531985564E+02 -0.97066185457E+01  0.23572148700E+02  0.51100000000E-03 0.  1.
         12    1    3    3    0    0  0.13524458092E+02 -0.26165040350E+02  0.28294304691E+02  0.40842232812E+02  0.00000000000E+00 0. -1.
</event>
<event>
 7    1  0.2932676E-013  0.7246138E+02  0.7816164E-02  0.1226709E+00
        -11   -1    0    0    0    0  0.00000000000E+00  0.00000000000E+00  0.45593999997E+02  0.45594000000E+02  0.51100000000E-03 0. -1.
         11   -1    0    0    0    0 -0.00000000000E+00 -0.00000000000E+00 -0.45593999997E+02  0.45594000000E+02  0.51100000000E-03 0.  1.
    9900012    2    1    2    0    0  0.83962211886E+00 -0.71151023815E+01 -0.17301929855E+02  0.72461376602E+02  0.69999747679E+02 0.  0.
         12    1    1    2    0    0 -0.83962211886E+00  0.71151023815E+01  0.17301929855E+02  0.18726623398E+02  0.00000000000E+00 0. -1.
         11    1    3    3    0    0  0.23326852548E+02  0.44530108533E+01  0.58353966326E+01  0.24454513072E+02  0.51100000000E-03 0. -1.
        -11    1    3    3    0    0 -0.10529919864E+02  0.81602560343E+01  0.24611742008E+01  0.13547190469E+02  0.51100000000E-03 0.  1.
        -12    1    3    3    0    0 -0.11957310565E+02 -0.19728369269E+02 -0.25598500688E+02  0.34459673061E+02  0.00000000000E+00 0.  1.
</event>
<event>
 7    1  0.2932676E-013  0.7246162E+02  0.7816164E-02  0.1226708E+00
        -11   -1    0    0    0    0  0.00000000000E+00  0.00000000000E+00  0.45593999997E+02  0.45594000000E+02  0.51100000000E-03 0. -1.
         11   -1    0    0    0    0 -0.00000000000E+00 -0.00000000000E+00 -0.45593999997E+02  0.45594000000E+02  0.51100000000E-03 0.  1.
    9900012    2    1    2    0    0  0.11754840141E+01  0.16792904077E+02  0.82032899267E+01  0.72461618726E+02  0.70000063091E+02 0.  0.
         12    1    1    2    0    0 -0.11754840141E+01 -0.16792904077E+02 -0.82032899267E+01  0.18726381274E+02  0.00000000000E+00 0. -1.
         11    1    3    3    0    0 -0.68415854213E+01  0.12477747907E+02 -0.87844998089E+01  0.16723304729E+02  0.51100000000E-03 0. -1.
        -11    1    3    3    0    0  0.15111030406E+02  0.23106541679E+02 -0.25386178075E+01  0.27725441186E+02  0.51100000000E-03 0.  1.
         12    1    3    3    0    0 -0.70939609708E+01 -0.18791385509E+02  0.19526407543E+02  0.28012872811E+02  0.00000000000E+00 0. -1.
</event>
<event>
 7    1  0.2932676E-013  0.7246159E+02  0.7816164E-02  0.1226708E+00
        -11   -1    0    0    0    0  0.00000000000E+00  0.00000000000E+00  0.45593999997E+02  0.45594000000E+02  0.51100000000E-03 0.  1.
         11   -1    0    0    0    0 -0.00000000000E+00 -0.00000000000E+00 -0.45593999997E+02  0.45594000000E+02  0.51100000000E-03 0. -1.
    9900012    2    1    2    0    0  0.16556057485E+02  0.52960437895E+01  0.69661613638E+01  0.72461587546E+02  0.70000022473E+02 0.  0.
         12    1    1    2    0    0 -0.16556057485E+02 -0.52960437895E+01 -0.69661613638E+01  0.18726412454E+02  0.00000000000E+00 0. -1.
         11    1    3    3    0    0 -0.70703770876E+01 -0.21552567331E+01 -0.11969694911E+02  0.14068011952E+02  0.51100000000E-03 0. -1.
        -11    1    3    3    0    0 -0.12962033670E+02  0.81733192725E+01 -0.31579712127E+01  0.15645774101E+02  0.51100000000E-03 0.  1.
        -12    1    3    3    0    0  0.36588468242E+02 -0.72201874992E+00  0.22093827488E+02  0.42747801493E+02  0.00000000000E+00 0.  1.
</event>
<event>
 7    1  0.3696316E-013  0.7246159E+02  0.7816164E-02  0.1226708E+00
        -11   -1    0    0    0    0  0.00000000000E+00  0.00000000000E+00  0.45593999997E+02  0.45594000000E+02  0.51100000000E-03 0.  1.
         11   -1    0    0    0    0 -0.00000000000E+00 -0.00000000000E+00 -0.45593999997E+02  0.45594000000E+02  0.51100000000E-03 0. -1.
    9900012    2    1    2    0    0 -0.74421973594E+01  0.15883177362E+02 -0.65587056682E+01  0.72461594987E+02  0.70000032167E+02 0.  0.
         12    1    1    2    0    0  0.74421973594E+01 -0.15883177362E+02  0.65587056682E+01  0.18726405013E+02  0.00000000000E+00 0. -1.
         11    1    3    3    0    0  0.19599214039E+02 -0.50629937547E+01 -0.18928455754E+02  0.27713706613E+02  0.51100000000E-03 0. -1.
        -11    1    3    3    0    0 -0.19329584621E+02 -0.11392804314E+01  0.32200808384E+01  0.19629053018E+02  0.51100000000E-03 0.  1.
        -12    1    3    3    0    0 -0.77118267770E+01  0.22085451548E+02  0.91496692477E+01  0.25118835356E+02  0.00000000000E+00 0.  1.
</event>
<event>
 7    1  0.2932676E-013  0.7246158E+02  0.7816164E-02  0.1226708E+00
        -11   -1    0    0    0    0  0.00000000000E+00  0.00000000000E+00  0.45593999997E+02  0.45594000000E+02  0.51100000000E-03 0. -1.
         11   -1    0    0    0    0 -0.00000000000E+00 -0.00000000000E+00 -0.45593999997E+02  0.45594000000E+02  0.51100000000E-03 0.  1.
    9900012    2    1    2    0    0  0.10907963060E+01 -0.37708985368E+01 -0.18310362025E+02  0.72461578295E+02  0.70000010423E+02 0.  0.
         12    1    1    2    0    0 -0.10907963060E+01  0.37708985368E+01  0.18310362025E+02  0.18726421705E+02  0.00000000000E+00 0. -1.
         11    1    3    3    0    0  0.18499168710E+02 -0.18380595435E+02 -0.37939749265E+00  0.26080825796E+02  0.51100000000E-03 0. -1.
        -11    1    3    3    0    0 -0.38415828473E+01  0.19937743914E+02 -0.23247272542E+02  0.30865953283E+02  0.51100000000E-03 0.  1.
         12    1    3    3    0    0 -0.13566789556E+02 -0.53280470154E+01  0.53163080097E+01  0.15514799216E+02  0.00000000000E+00 0. -1.
</event>
<event>
 7    1  0.2932676E-013  0.7246157E+02  0.7816164E-02  0.1226708E+00
        -11   -1    0    0    0    0  0.00000000000E+00  0.00000000000E+00  0.45593999997E+02  0.45594000000E+02  0.51100000000E-03 0. -1.
         11   -1    0    0    0    0 -0.00000000000E+00 -0.00000000000E+00 -0.45593999997E+02  0.45594000000E+02  0.51100000000E-03 0.  1.
    9900012    2    1    2    0    0  0.13573710623E+02 -0.41689114028E+01 -0.12208763950E+02  0.72461565221E+02  0.69999993391E+02 0.  0.
         12    1    1    2    0    0 -0.13573710623E+02  0.41689114028E+01  0.12208763950E+02  0.18726434779E+02  0.00000000000E+00 0. -1.
         11    1    3    3    0    0  0.24657064239E+02  0.14961517613E+01  0.10641323949E+02  0.26896971254E+02  0.51100000000E-03 0. -1.
        -11    1    3    3    0    0  0.22341322748E+01 -0.37147667464E+00  0.97203647024E+01  0.99807230274E+01  0.51100000000E-03 0.  1.
        -12    1    3    3    0    0 -0.13317485891E+02 -0.52935864894E+01 -0.32570452601E+02  0.35583870939E+02  0.00000000000E+00 0.  1.
</event>
<event>
 7    1  0.2932676E-013  0.7246159E+02  0.7816164E-02  0.1226708E+00
        -11   -1    0    0    0    0  0.00000000000E+00  0.00000000000E+00  0.45593999997E+02  0.45594000000E+02  0.51100000000E-03 0. -1.
         11   -1    0    0    0    0 -0.00000000000E+00 -0.00000000000E+00 -0.45593999997E+02  0.45594000000E+02  0.51100000000E-03 0.  1.
    9900012    2    1    2    0    0  0.25556704506E+01  0.62647089213E+01 -0.17461398714E+02  0.72461588855E+02  0.70000024178E+02 0.  0.
         12    1    1    2    0    0 -0.25556704506E+01 -0.62647089213E+01  0.17461398714E+02  0.18726411145E+02  0.00000000000E+00 0. -1.
         11    1    3    3    0    0 -0.27947388867E+00  0.15004914461E+00 -0.10552657923E+02  0.10557424397E+02  0.51100000000E-03 0. -1.
        -11    1    3    3    0    0  0.23463025844E+02  0.16794407391E+02 -0.20124715000E+02  0.35179111067E+02  0.51100000000E-03 0.  1.
         12    1    3    3    0    0 -0.20627881505E+02 -0.10679747614E+02  0.13215974208E+02  0.26725053391E+02  0.00000000000E+00 0. -1.
</event>
<event>
 7    1  0.2932676E-013  0.7246161E+02  0.7816164E-02  0.1226708E+00
        -11   -1    0    0    0    0  0.00000000000E+00  0.00000000000E+00  0.45593999997E+02  0.45594000000E+02  0.51100000000E-03 0. -1.
         11   -1    0    0    0    0 -0.00000000000E+00 -0.00000000000E+00 -0.45593999997E+02  0.45594000000E+02  0.51100000000E-03 0.  1.
    9900012    2    1    2    0    0 -0.91066288359E+01 -0.85361890658E+01 -0.13959957216E+02  0.72461611721E+02  0.70000053966E+02 0.  0.
         12    1    1    2    0    0  0.91066288359E+01  0.85361890658E+01  0.13959957216E+02  0.18726388279E+02  0.00000000000E+00 0. -1.
         11    1    3    3    0    0  0.13169618542E+02 -0.17320777621E+02 -0.16198517594E+02  0.27126373927E+02  0.51100000000E-03 0. -1.
        -11    1    3    3    0    0  0.80518838386E+01  0.11322654611E+02 -0.35853397878E+01  0.14348867636E+02  0.51100000000E-03 0.  1.
         12    1    3    3    0    0 -0.30328131216E+02 -0.25380660555E+01  0.58239001660E+01  0.30986370157E+02  0.00000000000E+00 0. -1.
</event>
<event>
 7    1  0.2932676E-013  0.7246156E+02  0.7816164E-02  0.1226708E+00
        -11   -1    0    0    0    0  0.00000000000E+00  0.00000000000E+00  0.45593999997E+02  0.45594000000E+02  0.51100000000E-03 0.  1.
         11   -1    0    0    0    0 -0.00000000000E+00 -0.00000000000E+00 -0.45593999997E+02  0.45594000000E+02  0.51100000000E-03 0. -1.
    9900012    2    1    2    0    0  0.15286957349E+02  0.10815009224E+02  0.15532512777E+00  0.72461558389E+02  0.69999984491E+02 0.  0.
         12    1    1    2    0    0 -0.15286957349E+02 -0.10815009224E+02 -0.15532512777E+00  0.18726441611E+02  0.00000000000E+00 0. -1.
         11    1    3    3    0    0 -0.12379667668E+02 -0.12192262013E+02 -0.16586451021E+02  0.24021194439E+02  0.51100000000E-03 0. -1.
        -11    1    3    3    0    0  0.14871163498E+01  0.11308382307E+01 -0.67593228302E+01  0.70127566281E+01  0.51100000000E-03 0.  1.
        -12    1    3    3    0    0  0.26179508667E+02  0.21876433007E+02  0.23501098979E+02  0.41427607321E+02  0.00000000000E+00 0.  1.
</event>
<event>
 7    1  0.2932676E-013  0.7246151E+02  0.7816164E-02  0.1226708E+00
        -11   -1    0    0    0    0  0.00000000000E+00  0.00000000000E+00  0.45593999997E+02  0.45594000000E+02  0.51100000000E-03 0.  1.
         11   -1    0    0    0    0 -0.00000000000E+00 -0.00000000000E+00 -0.45593999997E+02  0.45594000000E+02  0.51100000000E-03 0. -1.
    9900012    2    1    2    0    0  0.10702292875E+02  0.14477140309E+02  0.51531360958E+01  0.72461508713E+02  0.69999919779E+02 0.  0.
         12    1    1    2    0    0 -0.10702292875E+02 -0.14477140309E+02 -0.51531360958E+01  0.18726491287E+02  0.00000000000E+00 0. -1.
         11    1    3    3    0    0 -0.22233147449E+01  0.26316113342E+02  0.13096519510E+01  0.26442317190E+02  0.51100000000E-03 0. -1.
        -11    1    3    3    0    0  0.16938429267E+02  0.76075205786E+01 -0.10677843307E+02  0.21419642699E+02  0.51100000000E-03 0.  1.
        -12    1    3    3    0    0 -0.40128216474E+01 -0.19446493612E+02  0.14521327452E+02  0.24599548824E+02  0.00000000000E+00 0.  1.
</event>
<event>
 7    1  0.2932676E-013  0.7246185E+02  0.7816164E-02  0.1226707E+00
        -11   -1    0    0    0    0  0.00000000000E+00  0.00000000000E+00  0.45593999997E+02  0.45594000000E+02  0.51100000000E-03 0.  1.
         11   -1    0    0    0    0 -0.00000000000E+00 -0.00000000000E+00 -0.45593999997E+02  0.45594000000E+02  0.51100000000E-03 0. -1.
    9900012    2    1    2    0    0 -0.20507174567E+01  0.10213796423E+02  0.15560903313E+02  0.72461847396E+02  0.70000360975E+02 0.  0.
         12    1    1    2    0    0  0.20507174567E+01 -0.10213796423E+02 -0.15560903313E+02  0.18726152604E+02  0.00000000000E+00 0. -1.
         11    1    3    3    0    0  0.81318668373E+01  0.16242126456E+02  0.71156499404E+01  0.19508111246E+02  0.51100000000E-03 0. -1.
        -11    1    3    3    0    0 -0.20556405958E+02  0.17048083857E+02  0.70179412164E+01  0.27612578443E+02  0.51100000000E-03 0.  1.
         12    1    3    3    0    0  0.10373821664E+02 -0.23076413890E+02  0.14273121558E+01  0.25341157707E+02  0.00000000000E+00 0. -1.
</event>
<event>
 7    1  0.2932676E-013  0.7246158E+02  0.7816164E-02  0.1226708E+00
        -11   -1    0    0    0    0  0.00000000000E+00  0.00000000000E+00  0.45593999997E+02  0.45594000000E+02  0.51100000000E-03 0. -1.
         11   -1    0    0    0    0 -0.00000000000E+00 -0.00000000000E+00 -0.45593999997E+02  0.45594000000E+02  0.51100000000E-03 0.  1.
    9900012    2    1    2    0    0 -0.25425662290E+01  0.73457156169E+01 -0.17036865549E+02  0.72461575657E+02  0.70000006986E+02 0.  0.
         12    1    1    2    0    0  0.25425662290E+01 -0.73457156169E+01  0.17036865549E+02  0.18726424343E+02  0.00000000000E+00 0. -1.
         11    1    3    3    0    0 -0.28447981083E+02 -0.11010475052E+02 -0.15315401545E+02  0.34133264030E+02  0.51100000000E-03 0. -1.
        -11    1    3    3    0    0 -0.33373496618E+01  0.49743501362E+01  0.92184086612E+00  0.60606808930E+01  0.51100000000E-03 0.  1.
        -12    1    3    3    0    0  0.29242764516E+02  0.13381840533E+02 -0.26433048695E+01  0.32267630734E+02  0.00000000000E+00 0.  1.
</event>
<event>
 7    1  0.3904363E-013  0.7246157E+02  0.7816164E-02  0.1226708E+00
        -11   -1    0    0    0    0  0.00000000000E+00  0.00000000000E+00  0.45593999997E+02  0.45594000000E+02  0.51100000000E-03 0. -1.
         11   -1    0    0    0    0 -0.00000000000E+00 -0.00000000000E+00 -0.45593999997E+02  0.45594000000E+02  0.51100000000E-03 0.  1.
    9900012    2    1    2    0    0  0.11732912419E+02 -0.82416755189E+01 -0.12045443479E+02  0.72461570607E+02  0.70000000408E+02 0.  0.
         12    1    1    2    0    0 -0.11732912419E+02  0.82416755189E+01  0.12045443479E+02  0.18726429393E+02  0.00000000000E+00 0. -1.
         11    1    3    3    0    0 -0.12678908383E+02 -0.12543435616E+02  0.75211611328E+01  0.19356145275E+02  0.51100000000E-03 0. -1.
        -11    1    3    3    0    0  0.24403950794E+02 -0.11675021998E+02  0.98906241815E+00  0.27070965955E+02  0.51100000000E-03 0.  1.
        -12    1    3    3    0    0  0.78700083461E-02  0.15976782095E+02 -0.20555667030E+02  0.26034459378E+02  0.00000000000E+00 0.  1.
</event>
<event>
 7    1  0.2932676E-013  0.7246158E+02  0.7816164E-02  0.1226708E+00
        -11   -1    0    0    0    0  0.00000000000E+00  0.00000000000E+00  0.45593999997E+02  0.45594000000E+02  0.51100000000E-03 0. -1.
         11   -1    0    0    0    0 -0.00000000000E+00 -0.00000000000E+00 -0.45593999997E+02  0.45594000000E+02  0.51100000000E-03 0.  1.
    9900012    2    1    2    0    0  0.14397743296E+02 -0.97247428929E+01  0.69866529990E+01  0.72461575983E+02  0.70000007410E+02 0.  0.
         12    1    1    2    0    0 -0.14397743296E+02  0.97247428929E+01 -0.69866529990E+01  0.18726424017E+02  0.00000000000E+00 0. -1.
         11    1    3    3    0    0 -0.11283818452E+02  0.24045113845E+02  0.89147308186E+01  0.28017217644E+02  0.51100000000E-03 0. -1.
        -11    1    3    3    0    0  0.25203703266E+00 -0.86622998161E+01 -0.27651079159E+00  0.86703759578E+01  0.51100000000E-03 0.  1.
        -12    1    3    3    0    0  0.25429524714E+02 -0.25107556922E+02 -0.16515670280E+01  0.35773982381E+02  0.00000000000E+00 0.  1.
</event>
<event>
 7    1  0.2932676E-013  0.7246161E+02  0.7816164E-02  0.1226708E+00
        -11   -1    0    0    0    0  0.00000000000E+00  0.00000000000E+00  0.45593999997E+02  0.45594000000E+02  0.51100000000E-03 0. -1.
         11   -1    0    0    0    0 -0.00000000000E+00 -0.00000000000E+00 -0.45593999997E+02  0.45594000000E+02  0.51100000000E-03 0.  1.
    9900012    2    1    2    0    0 -0.16388732493E+02  0.58352168543E+01  0.69309044356E+01  0.72461608336E+02  0.70000049557E+02 0.  0.
         12    1    1    2    0    0  0.16388732493E+02 -0.58352168543E+01 -0.69309044356E+01  0.18726391664E+02  0.00000000000E+00 0. -1.
         11    1    3    3    0    0 -0.73752482729E+00 -0.49519614139E+00  0.81095732085E+01  0.81580843324E+01  0.51100000000E-03 0. -1.
        -11    1    3    3    0    0  0.23192221732E+02  0.56254908705E+00 -0.78096448803E+01  0.24478279428E+02  0.51100000000E-03 0.  1.
         12    1    3    3    0    0 -0.38843429397E+02  0.57678639087E+01  0.66309761075E+01  0.39825244576E+02  0.00000000000E+00 0. -1.
</event>
<event>
 7    1  0.2932676E-013  0.7246158E+02  0.7816164E-02  0.1226708E+00
        -11   -1    0    0    0    0  0.00000000000E+00  0.00000000000E+00  0.45593999997E+02  0.45594000000E+02  0.51100000000E-03 0. -1.
         11   -1    0    0    0    0 -0.00000000000E+00 -0.00000000000E+00 -0.45593999997E+02  0.45594000000E+02  0.51100000000E-03 0.  1.
    9900012    2    1    2    0    0 -0.10370298359E+02 -0.15506792856E+02  0.16355569859E+01  0.72461581245E+02  0.70000014266E+02 0.  0.
         12    1    1    2    0    0  0.10370298359E+02  0.15506792856E+02 -0.16355569859E+01  0.18726418755E+02  0.00000000000E+00 0. -1.
         11    1    3    3    0    0 -0.12454568875E+02 -0.21158093069E+02 -0.28057808964E+01  0.24711406170E+02  0.51100000000E-03 0. -1.
        -11    1    3    3    0    0  0.13797406493E+02 -0.52433508323E+01 -0.16016636718E+02  0.21780583231E+02  0.51100000000E-03 0.  1.
         12    1    3    3    0    0 -0.11713135978E+02  0.10894651046E+02  0.20457974600E+02  0.25969591845E+02  0.00000000000E+00 0. -1.
</event>
<event>
 7    1  0.2932676E-013  0.7246157E+02  0.7816164E-02  0.1226708E+00
        -11   -1    0    0    0    0  0.00000000000E+00  0.00000000000E+00  0.45593999997E+02  0.45594000000E+02  0.51100000000E-03 0.  1.
         11   -1    0    0    0    0 -0.00000000000E+00 -0.00000000000E+00 -0.45593999997E+02  0.45594000000E+02  0.51100000000E-03 0. -1.
    9900012    2    1    2    0    0 -0.12033996916E+02 -0.58085324643E+01  0.13119569666E+02  0.72461568429E+02  0.69999997570E+02 0.  0.
         12    1    1    2    0    0  0.12033996916E+02  0.58085324643E+01 -0.13119569666E+02  0.18726431571E+02  0.00000000000E+00 0. -1.
         11    1    3    3    0    0 -0.18339507603E+01 -0.55862167379E+01  0.20023645442E+02  0.20869009796E+02  0.51100000000E-03 0.  1.
        -11    1    3    3    0    0 -0.25287827866E+02  0.48212770910E+01 -0.18674267965E+02  0.31803258250E+02  0.51100000000E-03 0. -1.
         12    1    3    3    0    0  0.15087781711E+02 -0.50435928174E+01  0.11770192190E+02  0.19789300383E+02  0.00000000000E+00 0. -1.
</event>
<event>
 7    1  0.2932676E-013  0.7246149E+02  0.7816164E-02  0.1226708E+00
        -11   -1    0    0    0    0  0.00000000000E+00  0.00000000000E+00  0.45593999997E+02  0.45594000000E+02  0.51100000000E-03 0.  1.
         11   -1    0    0    0    0 -0.00000000000E+00 -0.00000000000E+00 -0.45593999997E+02  0.45594000000E+02  0.51100000000E-03 0. -1.
    9900012    2    1    2    0    0 -0.16085361453E+02  0.25021636976E+01  0.92564825153E+01  0.72461490854E+02  0.69999896514E+02 0.  0.
         12    1    1    2    0    0  0.16085361453E+02 -0.25021636976E+01 -0.92564825153E+01  0.18726509146E+02  0.00000000000E+00 0. -1.
         11    1    3    3    0    0 -0.46393392511E+01 -0.24015895963E+02  0.45110777386E+01  0.24872405397E+02  0.51100000000E-03 0. -1.
        -11    1    3    3    0    0 -0.23155850138E+02  0.63498730750E+01  0.17151184306E+01  0.24071890561E+02  0.51100000000E-03 0.  1.
        -12    1    3    3    0    0  0.11709827936E+02  0.20168186585E+02  0.30302863461E+01  0.23517194896E+02  0.00000000000E+00 0.  1.
</event>
<event>
 7    1  0.2932676E-013  0.7246157E+02  0.7816164E-02  0.1226708E+00
        -11   -1    0    0    0    0  0.00000000000E+00  0.00000000000E+00  0.45593999997E+02  0.45594000000E+02  0.51100000000E-03 0. -1.
         11   -1    0    0    0    0 -0.00000000000E+00 -0.00000000000E+00 -0.45593999997E+02  0.45594000000E+02  0.51100000000E-03 0.  1.
    9900012    2    1    2    0    0 -0.11122994192E+01 -0.89464624665E+01 -0.16413492218E+02  0.72461571418E+02  0.70000001463E+02 0.  0.
         12    1    1    2    0    0  0.11122994192E+01  0.89464624665E+01  0.16413492218E+02  0.18726428582E+02  0.00000000000E+00 0. -1.
         11    1    3    3    0    0  0.25520400779E+02  0.47562254574E+01  0.98801998201E+01  0.27776444792E+02  0.51100000000E-03 0. -1.
        -11    1    3    3    0    0 -0.90218371274E+00 -0.98217662396E+01 -0.96337309285E+01  0.13787305733E+02  0.51100000000E-03 0.  1.
        -12    1    3    3    0    0 -0.25730516486E+02 -0.38809216844E+01 -0.16659961110E+02  0.30897820893E+02  0.00000000000E+00 0.  1.
</event>
<event>
 7    1  0.2932676E-013  0.7246151E+02  0.7816164E-02  0.1226708E+00
        -11   -1    0    0    0    0  0.00000000000E+00  0.00000000000E+00  0.45593999997E+02  0.45594000000E+02  0.51100000000E-03 0. -1.
         11   -1    0    0    0    0 -0.00000000000E+00 -0.00000000000E+00 -0.45593999997E+02  0.45594000000E+02  0.51100000000E-03 0.  1.
    9900012    2    1    2    0    0 -0.75430451506E+01  0.11872331560E+02 -0.12362510342E+02  0.72461509438E+02  0.69999920723E+02 0.  0.
         12    1    1    2    0    0  0.75430451506E+01 -0.11872331560E+02  0.12362510342E+02  0.18726490562E+02  0.00000000000E+00 0. -1.
         11    1    3    3    0    0 -0.31243653893E+02 -0.44977802517E+01 -0.20360569798E+02  0.37562597601E+02  0.51100000000E-03 0.  1.
        -11    1    3    3    0    0  0.18817692072E+01  0.11432819736E+02  0.22735521212E+01  0.11807601872E+02  0.51100000000E-03 0. -1.
        -12    1    3    3    0    0  0.21818839535E+02  0.49372920753E+01  0.57245073345E+01  0.23091309965E+02  0.00000000000E+00 0.  1.
</event>
<event>
 7    1  0.2932676E-013  0.7246161E+02  0.7816164E-02  0.1226708E+00
        -11   -1    0    0    0    0  0.00000000000E+00  0.00000000000E+00  0.45593999997E+02  0.45594000000E+02  0.51100000000E-03 0. -1.
         11   -1    0    0    0    0 -0.00000000000E+00 -0.00000000000E+00 -0.45593999997E+02  0.45594000000E+02  0.51100000000E-03 0.  1.
    9900012    2    1    2    0    0  0.14018658901E+02  0.12281565481E+02 -0.18215791532E+01  0.72461606897E+02  0.70000047682E+02 0.  0.
         12    1    1    2    0    0 -0.14018658901E+02 -0.12281565481E+02  0.18215791532E+01  0.18726393103E+02  0.00000000000E+00 0. -1.
         11    1    3    3    0    0 -0.73767576653E+01  0.24889653879E+01  0.39047521434E+01  0.87096838012E+01  0.51100000000E-03 0. -1.
        -11    1    3    3    0    0  0.50121963594E+01 -0.20558626143E+02 -0.17340585419E+02  0.27358273414E+02  0.51100000000E-03 0.  1.
         12    1    3    3    0    0  0.16383220207E+02  0.30351226236E+02  0.11614254123E+02  0.36393649682E+02  0.00000000000E+00 0. -1.
</event>
<event>
 7    1  0.2932676E-013  0.7246163E+02  0.7816164E-02  0.1226708E+00
        -11   -1    0    0    0    0  0.00000000000E+00  0.00000000000E+00  0.45593999997E+02  0.45594000000E+02  0.51100000000E-03 0. -1.
         11   -1    0    0    0    0 -0.00000000000E+00 -0.00000000000E+00 -0.45593999997E+02  0.45594000000E+02  0.51100000000E-03 0.  1.
    9900012    2    1    2    0    0 -0.75930715120E+01 -0.15965024035E+02 -0.61757886017E+01  0.72461625758E+02  0.70000072251E+02 0.  0.
         12    1    1    2    0    0  0.75930715120E+01  0.15965024035E+02  0.61757886017E+01  0.18726374242E+02  0.00000000000E+00 0. -1.
         11    1    3    3    0    0  0.14241265603E+02  0.77087460161E+01  0.15722514834E+01  0.16269922744E+02  0.51100000000E-03 0. -1.
        -11    1    3    3    0    0 -0.14383947629E+02 -0.66355573340E+01  0.18289285320E+02  0.24195589026E+02  0.51100000000E-03 0.  1.
        -12    1    3    3    0    0 -0.74503894860E+01 -0.17038212717E+02 -0.26037325405E+02  0.31996113988E+02  0.00000000000E+00 0.  1.
</event>
<event>
 7    1  0.2932676E-013  0.7246162E+02  0.7816164E-02  0.1226708E+00
        -11   -1    0    0    0    0  0.00000000000E+00  0.00000000000E+00  0.45593999997E+02  0.45594000000E+02  0.51100000000E-03 0.  1.
         11   -1    0    0    0    0 -0.00000000000E+00 -0.00000000000E+00 -0.45593999997E+02  0.45594000000E+02  0.51100000000E-03 0. -1.
    9900012    2    1    2    0    0 -0.69346899816E+01  0.51065627935E+01  0.16628601607E+02  0.72461620209E+02  0.70000065022E+02 0.  0.
         12    1    1    2    0    0  0.69346899816E+01 -0.51065627935E+01 -0.16628601607E+02  0.18726379791E+02  0.00000000000E+00 0. -1.
         11    1    3    3    0    0  0.40415298275E+01  0.53076142648E+01  0.13472829426E+01  0.68058727669E+01  0.51100000000E-03 0. -1.
        -11    1    3    3    0    0  0.16633284095E+02  0.38882970452E+01  0.29684029938E+02  0.34248016400E+02  0.51100000000E-03 0.  1.
         12    1    3    3    0    0 -0.27609503904E+02 -0.40893485165E+01 -0.14402711274E+02  0.31407731042E+02  0.00000000000E+00 0. -1.
</event>
<event>
 7    1  0.2932676E-013  0.7246158E+02  0.7816164E-02  0.1226708E+00
        -11   -1    0    0    0    0  0.00000000000E+00  0.00000000000E+00  0.45593999997E+02  0.45594000000E+02  0.51100000000E-03 0.  1.
         11   -1    0    0    0    0 -0.00000000000E+00 -0.00000000000E+00 -0.45593999997E+02  0.45594000000E+02  0.51100000000E-03 0. -1.
    9900012    2    1    2    0    0  0.24241200835E+01  0.16532846566E+02 -0.84538515307E+01  0.72461575369E+02  0.70000006610E+02 0.  0.
         12    1    1    2    0    0 -0.24241200835E+01 -0.16532846566E+02  0.84538515307E+01  0.18726424631E+02  0.00000000000E+00 0. -1.
         11    1    3    3    0    0  0.15671293619E+02  0.13464288723E+02 -0.30507614374E+02  0.36845502433E+02  0.51100000000E-03 0. -1.
        -11    1    3    3    0    0 -0.19461738305E+01  0.45460700865E+01 -0.45211006075E+01  0.67003504964E+01  0.51100000000E-03 0.  1.
        -12    1    3    3    0    0 -0.11300999705E+02 -0.14775122432E+01  0.26574863451E+02  0.28915722439E+02  0.00000000000E+00 0.  1.
</event>
<event>
 7    1  0.2932676E-013  0.7246158E+02  0.7816164E-02  0.1226708E+00
        -11   -1    0    0    0    0  0.00000000000E+00  0.00000000000E+00  0.45593999997E+02  0.45594000000E+02  0.51100000000E-03 0.  1.
         11   -1    0    0    0    0 -0.00000000000E+00 -0.00000000000E+00 -0.45593999997E+02  0.45594000000E+02  0.51100000000E-03 0. -1.
    9900012    2    1    2    0    0  0.16673331871E+01 -0.14876370625E+02  0.11251330768E+02  0.72461578906E+02  0.70000011219E+02 0.  0.
         12    1    1    2    0    0 -0.16673331871E+01  0.14876370625E+02 -0.11251330768E+02  0.18726421094E+02  0.00000000000E+00 0. -1.
         11    1    3    3    0    0  0.37433195796E+01  0.31558184409E+01  0.60454448843E+01  0.77793981526E+01  0.51100000000E-03 0. -1.
        -11    1    3    3    0    0 -0.48977258564E+01  0.22726263401E+02  0.52168489291E+01  0.23826167962E+02  0.51100000000E-03 0.  1.
         12    1    3    3    0    0  0.28217394639E+01 -0.40758452467E+02 -0.10963045781E-01  0.40856012792E+02  0.00000000000E+00 0. -1.
</event>
<event>
 7    1  0.2932676E-013  0.7246158E+02  0.7816164E-02  0.1226708E+00
        -11   -1    0    0    0    0  0.00000000000E+00  0.00000000000E+00  0.45593999997E+02  0.45594000000E+02  0.51100000000E-03 0.  1.
         11   -1    0    0    0    0 -0.00000000000E+00 -0.00000000000E+00 -0.45593999997E+02  0.45594000000E+02  0.51100000000E-03 0. -1.
    9900012    2    1    2    0    0 -0.14185369697E+02 -0.11864379529E+02  0.29479720386E+01  0.72461581384E+02  0.70000014447E+02 0.  0.
         12    1    1    2    0    0  0.14185369697E+02  0.11864379529E+02 -0.29479720386E+01  0.18726418616E+02  0.00000000000E+00 0. -1.
         11    1    3    3    0    0  0.13954655646E+02 -0.88278945390E+01  0.90563373396E+01  0.18832986552E+02  0.51100000000E-03 0. -1.
        -11    1    3    3    0    0 -0.11189849586E+02 -0.19514501444E+02  0.10412554403E+02  0.24788097744E+02  0.51100000000E-03 0.  1.
         12    1    3    3    0    0 -0.16950175757E+02  0.16478016454E+02 -0.16520919704E+02  0.28840497088E+02  0.00000000000E+00 0. -1.
</event>
<event>
 7    1  0.2932676E-013  0.7246157E+02  0.7816164E-02  0.1226708E+00
        -11   -1    0    0    0    0  0.00000000000E+00  0.00000000000E+00  0.45593999997E+02  0.45594000000E+02  0.51100000000E-03 0.  1.
         11   -1    0    0    0    0 -0.00000000000E+00 -0.00000000000E+00 -0.45593999997E+02  0.45594000000E+02  0.51100000000E-03 0. -1.
    9900012    2    1    2    0    0  0.11286621044E+02  0.13551627752E+02  0.62964194243E+01  0.72461566093E+02  0.69999994527E+02 0.  0.
         12    1    1    2    0    0 -0.11286621044E+02 -0.13551627752E+02 -0.62964194243E+01  0.18726433907E+02  0.00000000000E+00 0. -1.
         11    1    3    3    0    0 -0.30035211975E+01 -0.21393654081E+02  0.16840053193E+02  0.27391549177E+02  0.51100000000E-03 0. -1.
        -11    1    3    3    0    0 -0.16529543467E+01 -0.69920812807E+00 -0.53935112295E+01  0.56842865623E+01  0.51100000000E-03 0.  1.
        -12    1    3    3    0    0  0.15943096588E+02  0.35644489960E+02 -0.51501225390E+01  0.39385730354E+02  0.00000000000E+00 0.  1.
</event>
<event>
 7    1  0.2932676E-013  0.7246159E+02  0.7816164E-02  0.1226708E+00
        -11   -1    0    0    0    0  0.00000000000E+00  0.00000000000E+00  0.45593999997E+02  0.45594000000E+02  0.51100000000E-03 0.  1.
         11   -1    0    0    0    0 -0.00000000000E+00 -0.00000000000E+00 -0.45593999997E+02  0.45594000000E+02  0.51100000000E-03 0. -1.
    9900012    2    1    2    0    0 -0.11902819924E+02  0.10976406104E+02 -0.94085058459E+01  0.72461585624E+02  0.70000019970E+02 0.  0.
         12    1    1    2    0    0  0.11902819924E+02 -0.10976406104E+02  0.94085058459E+01  0.18726414376E+02  0.00000000000E+00 0. -1.
         11    1    3    3    0    0 -0.73413692920E+01  0.19064900542E+02 -0.11969689182E+02  0.23677829190E+02  0.51100000000E-03 0. -1.
        -11    1    3    3    0    0 -0.16470405124E+02  0.14880942636E+02 -0.27629614251E+01  0.22368519280E+02  0.51100000000E-03 0.  1.
         12    1    3    3    0    0  0.11908954491E+02 -0.22969437073E+02  0.53241447615E+01  0.26415237155E+02  0.00000000000E+00 0. -1.
</event>
<event>
 7    1  0.2932676E-013  0.7246159E+02  0.7816164E-02  0.1226708E+00
        -11   -1    0    0    0    0  0.00000000000E+00  0.00000000000E+00  0.45593999997E+02  0.45594000000E+02  0.51100000000E-03 0.  1.
         11   -1    0    0    0    0 -0.00000000000E+00 -0.00000000000E+00 -0.45593999997E+02  0.45594000000E+02  0.51100000000E-03 0. -1.
    9900012    2    1    2    0    0 -0.11036403215E+02  0.40004909048E+01  0.14590142336E+02  0.72461591460E+02  0.70000027573E+02 0.  0.
         12    1    1    2    0    0  0.11036403215E+02 -0.40004909048E+01 -0.14590142336E+02  0.18726408540E+02  0.00000000000E+00 0. -1.
         11    1    3    3    0    0  0.11273536112E+02 -0.68022467903E+01 -0.40587858327E+01  0.13778131969E+02  0.51100000000E-03 0. -1.
        -11    1    3    3    0    0 -0.60374280776E+01  0.11054398316E+02 -0.16023577181E+02  0.20381493710E+02  0.51100000000E-03 0.  1.
        -12    1    3    3    0    0 -0.16272511250E+02 -0.25166062130E+00  0.34672505350E+02  0.38301965781E+02  0.00000000000E+00 0.  1.
</event>
<event>
 7    1  0.2932676E-013  0.7246165E+02  0.7816164E-02  0.1226708E+00
        -11   -1    0    0    0    0  0.00000000000E+00  0.00000000000E+00  0.45593999997E+02  0.45594000000E+02  0.51100000000E-03 0. -1.
         11   -1    0    0    0    0 -0.00000000000E+00 -0.00000000000E+00 -0.45593999997E+02  0.45594000000E+02  0.51100000000E-03 0.  1.
    9900012    2    1    2    0    0  0.49686020938E+01 -0.63007949290E+01 -0.16920081159E+02  0.72461650385E+02  0.70000104332E+02 0.  0.
         12    1    1    2    0    0 -0.49686020938E+01  0.63007949290E+01  0.16920081159E+02  0.18726349615E+02  0.00000000000E+00 0. -1.
         11    1    3    3    0    0 -0.45051210540E+01 -0.20919044461E+02 -0.36771991075E+01  0.21712308270E+02  0.51100000000E-03 0. -1.
        -11    1    3    3    0    0  0.50016632489E+01  0.30494582780E+01 -0.29626673007E+02  0.30200258025E+02  0.51100000000E-03 0.  1.
         12    1    3    3    0    0  0.44720598989E+01  0.11568791254E+02  0.16383790956E+02  0.20549084089E+02  0.00000000000E+00 0. -1.
</event>
<event>
 7    1  0.2932676E-013  0.7246154E+02  0.7816164E-02  0.1226708E+00
        -11   -1    0    0    0    0  0.00000000000E+00  0.00000000000E+00  0.45593999997E+02  0.45594000000E+02  0.51100000000E-03 0.  1.
         11   -1    0    0    0    0 -0.00000000000E+00 -0.00000000000E+00 -0.45593999997E+02  0.45594000000E+02  0.51100000000E-03 0. -1.
    9900012    2    1    2    0    0  0.11085671201E+02  0.68980680752E+01  0.13424038572E+02  0.72461541159E+02  0.69999962046E+02 0.  0.
         12    1    1    2    0    0 -0.11085671201E+02 -0.68980680752E+01 -0.13424038572E+02  0.18726458841E+02  0.00000000000E+00 0. -1.
         11    1    3    3    0    0  0.28827944554E+02 -0.23206373887E+01 -0.29439472385E+01  0.29070647923E+02  0.51100000000E-03 0. -1.
        -11    1    3    3    0    0 -0.65437578539E+01 -0.13257545857E+02  0.35849960034E+01  0.15213003832E+02  0.51100000000E-03 0.  1.
        -12    1    3    3    0    0 -0.11198515499E+02  0.22476251321E+02  0.12782989807E+02  0.28177889403E+02  0.00000000000E+00 0.  1.
</event>
<event>
 7    1  0.2932676E-013  0.7246142E+02  0.7816164E-02  0.1226708E+00
        -11   -1    0    0    0    0  0.00000000000E+00  0.00000000000E+00  0.45593999997E+02  0.45594000000E+02  0.51100000000E-03 0.  1.
         11   -1    0    0    0    0 -0.00000000000E+00 -0.00000000000E+00 -0.45593999997E+02  0.45594000000E+02  0.51100000000E-03 0. -1.
    9900012    2    1    2    0    0 -0.85116279400E+00 -0.19148699258E+01  0.18608962778E+02  0.72461422613E+02  0.69999807618E+02 0.  0.
         12    1    1    2    0    0  0.85116279400E+00  0.19148699258E+01 -0.18608962778E+02  0.18726577387E+02  0.00000000000E+00 0. -1.
         11    1    3    3    0    0  0.25987176187E+01 -0.39662179052E+01  0.28801130126E+02  0.29188855999E+02  0.51100000000E-03 0. -1.
        -11    1    3    3    0    0 -0.10638275258E+02  0.15205973884E+02  0.75591982551E+01  0.20038363725E+02  0.51100000000E-03 0.  1.
         12    1    3    3    0    0  0.71883948457E+01 -0.13154625905E+02 -0.17751365603E+02  0.23234202890E+02  0.00000000000E+00 0. -1.
</event>
<event>
 7    1  0.2932676E-013  0.7246161E+02  0.7816164E-02  0.1226708E+00
        -11   -1    0    0    0    0  0.00000000000E+00  0.00000000000E+00  0.45593999997E+02  0.45594000000E+02  0.51100000000E-03 0. -1.
         11   -1    0    0    0    0 -0.00000000000E+00 -0.00000000000E+00 -0.45593999997E+02  0.45594000000E+02  0.51100000000E-03 0.  1.
    9900012    2    1    2    0    0 -0.13319672296E+02 -0.10280315574E+02 -0.82206629639E+01  0.72461605314E+02  0.70000045620E+02 0.  0.
         12    1    1    2    0    0  0.13319672296E+02  0.10280315574E+02  0.82206629639E+01  0.18726394686E+02  0.00000000000E+00 0. -1.
         11    1    3    3    0    0 -0.83256275801E+01 -0.32224651250E+02  0.64357151902E+01  0.33899301660E+02  0.51100000000E-03 0. -1.
        -11    1    3    3    0    0 -0.39894997731E+01 -0.27026940350E+00  0.66536260369E+01  0.77627246306E+01  0.51100000000E-03 0.  1.
        -12    1    3    3    0    0 -0.10045449429E+01  0.22214605080E+02 -0.21310004191E+02  0.30799579023E+02  0.00000000000E+00 0.  1.
</event>
<event>
 7    1  0.2932676E-013  0.7246155E+02  0.7816164E-02  0.1226708E+00
        -11   -1    0    0    0    0  0.00000000000E+00  0.00000000000E+00  0.45593999997E+02  0.45594000000E+02  0.51100000000E-03 0.  1.
         11   -1    0    0    0    0 -0.00000000000E+00 -0.00000000000E+00 -0.45593999997E+02  0.45594000000E+02  0.51100000000E-03 0. -1.
    9900012    2    1    2    0    0 -0.17334344536E+02  0.61037010456E+01 -0.35979569800E+01  0.72461549151E+02  0.69999972457E+02 0.  0.
         12    1    1    2    0    0  0.17334344536E+02 -0.61037010456E+01  0.35979569800E+01  0.18726450849E+02  0.00000000000E+00 0. -1.
         11    1    3    3    0    0  0.94270239308E+00  0.92839637571E+00  0.19731570032E+01  0.23757012550E+01  0.51100000000E-03 0. -1.
        -11    1    3    3    0    0 -0.90722785217E+01 -0.21073459361E+02  0.21375684084E+02  0.31357882539E+02  0.51100000000E-03 0.  1.
         12    1    3    3    0    0 -0.92047684078E+01  0.26248764031E+02 -0.26946798067E+02  0.38727965357E+02  0.00000000000E+00 0. -1.
</event>
<event>
 7    1  0.2932676E-013  0.7246157E+02  0.7816164E-02  0.1226708E+00
        -11   -1    0    0    0    0  0.00000000000E+00  0.00000000000E+00  0.45593999997E+02  0.45594000000E+02  0.51100000000E-03 0. -1.
         11   -1    0    0    0    0 -0.00000000000E+00 -0.00000000000E+00 -0.45593999997E+02  0.45594000000E+02  0.51100000000E-03 0.  1.
    9900012    2    1    2    0    0 -0.17923553472E+02 -0.40292983698E+01 -0.36318357692E+01  0.72461568267E+02  0.69999997358E+02 0.  0.
         12    1    1    2    0    0  0.17923553472E+02  0.40292983698E+01  0.36318357692E+01  0.18726431733E+02  0.00000000000E+00 0. -1.
         11    1    3    3    0    0 -0.11422735078E+02 -0.35262153084E+02 -0.73005307945E+01  0.37778248595E+02  0.51100000000E-03 0. -1.
        -11    1    3    3    0    0  0.16783021823E+01 -0.43934726891E-01  0.15507059592E+01  0.22854578772E+01  0.51100000000E-03 0.  1.
        -12    1    3    3    0    0 -0.81791205767E+01  0.31276789441E+02  0.21179890661E+01  0.32397861794E+02  0.00000000000E+00 0.  1.
</event>
<event>
 7    1  0.2932676E-013  0.7246153E+02  0.7816164E-02  0.1226708E+00
        -11   -1    0    0    0    0  0.00000000000E+00  0.00000000000E+00  0.45593999997E+02  0.45594000000E+02  0.51100000000E-03 0. -1.
         11   -1    0    0    0    0 -0.00000000000E+00 -0.00000000000E+00 -0.45593999997E+02  0.45594000000E+02  0.51100000000E-03 0.  1.
    9900012    2    1    2    0    0  0.13649012806E+02  0.26708446445E+01 -0.12540011690E+02  0.72461525295E+02  0.69999941379E+02 0.  0.
         12    1    1    2    0    0 -0.13649012806E+02 -0.26708446445E+01  0.12540011690E+02  0.18726474705E+02  0.00000000000E+00 0. -1.
         11    1    3    3    0    0  0.73442858513E+01  0.32449411665E+02 -0.17635847198E+02  0.37655357636E+02  0.51100000000E-03 0. -1.
        -11    1    3    3    0    0  0.82402955998E+01 -0.73621603307E+01  0.54118216200E+01  0.12304133038E+02  0.51100000000E-03 0.  1.
        -12    1    3    3    0    0 -0.19355686447E+01 -0.22416406689E+02 -0.31598611179E+00  0.22502034621E+02  0.00000000000E+00 0.  1.
</event>
<event>
 7    1  0.2932676E-013  0.7246147E+02  0.7816164E-02  0.1226708E+00
        -11   -1    0    0    0    0  0.00000000000E+00  0.00000000000E+00  0.45593999997E+02  0.45594000000E+02  0.51100000000E-03 0. -1.
         11   -1    0    0    0    0 -0.00000000000E+00 -0.00000000000E+00 -0.45593999997E+02  0.45594000000E+02  0.51100000000E-03 0.  1.
    9900012    2    1    2    0    0 -0.14672985662E+01  0.16173999500E+02  0.93237085984E+01  0.72461474243E+02  0.69999874875E+02 0.  0.
         12    1    1    2    0    0  0.14672985662E+01 -0.16173999500E+02 -0.93237085984E+01  0.18726525757E+02  0.00000000000E+00 0. -1.
         11    1    3    3    0    0  0.78871740347E+01 -0.50839414694E+00 -0.18478632745E+01  0.81166851488E+01  0.51100000000E-03 0. -1.
        -11    1    3    3    0    0  0.13437647493E+02  0.31195990923E+02  0.14856368757E+02  0.37073871025E+02  0.51100000000E-03 0.  1.
         12    1    3    3    0    0 -0.22792120094E+02 -0.14513597277E+02 -0.36847968843E+01  0.27270918070E+02  0.00000000000E+00 0. -1.
</event>
<event>
 7    1  0.2932676E-013  0.7246155E+02  0.7816164E-02  0.1226708E+00
        -11   -1    0    0    0    0  0.00000000000E+00  0.00000000000E+00  0.45593999997E+02  0.45594000000E+02  0.51100000000E-03 0. -1.
         11   -1    0    0    0    0 -0.00000000000E+00 -0.00000000000E+00 -0.45593999997E+02  0.45594000000E+02  0.51100000000E-03 0.  1.
    9900012    2    1    2    0    0 -0.13378578945E+02  0.91933562588E+01  0.93367903052E+01  0.72461552737E+02  0.69999977129E+02 0.  0.
         12    1    1    2    0    0  0.13378578945E+02 -0.91933562588E+01 -0.93367903052E+01  0.18726447263E+02  0.00000000000E+00 0. -1.
         11    1    3    3    0    0 -0.19585543975E+02  0.13611141284E+02  0.29915157662E+02  0.38259291134E+02  0.51100000000E-03 0. -1.
        -11    1    3    3    0    0 -0.35457737025E+01 -0.12890055996E+02 -0.15106078226E+02  0.20172249611E+02  0.51100000000E-03 0.  1.
        -12    1    3    3    0    0  0.97527387326E+01  0.84722709702E+01 -0.54722891313E+01  0.14030011993E+02  0.00000000000E+00 0.  1.
</event>
<event>
 7    1  0.2932676E-013  0.7246158E+02  0.7816164E-02  0.1226708E+00
        -11   -1    0    0    0    0  0.00000000000E+00  0.00000000000E+00  0.45593999997E+02  0.45594000000E+02  0.51100000000E-03 0. -1.
         11   -1    0    0    0    0 -0.00000000000E+00 -0.00000000000E+00 -0.45593999997E+02  0.45594000000E+02  0.51100000000E-03 0.  1.
    9900012    2    1    2    0    0 -0.10012472390E+02  0.84322920736E+01 -0.13391255305E+02  0.72461578248E+02  0.70000010362E+02 0.  0.
         12    1    1    2    0    0  0.10012472390E+02 -0.84322920736E+01  0.13391255305E+02  0.18726421752E+02  0.00000000000E+00 0. -1.
         11    1    3    3    0    0  0.16742734169E+02 -0.37916798678E+01  0.10859918726E+02  0.20313390132E+02  0.51100000000E-03 0. -1.
        -11    1    3    3    0    0 -0.30474492168E+01 -0.55360974855E+01  0.67660725329E+01  0.92582428073E+01  0.51100000000E-03 0.  1.
        -12    1    3    3    0    0 -0.23707757342E+02  0.17760069427E+02 -0.31017246563E+02  0.42889945309E+02  0.00000000000E+00 0.  1.
</event>
<event>
 7    1  0.2932676E-013  0.7246169E+02  0.7816164E-02  0.1226708E+00
        -11   -1    0    0    0    0  0.00000000000E+00  0.00000000000E+00  0.45593999997E+02  0.45594000000E+02  0.51100000000E-03 0. -1.
         11   -1    0    0    0    0 -0.00000000000E+00 -0.00000000000E+00 -0.45593999997E+02  0.45594000000E+02  0.51100000000E-03 0.  1.
    9900012    2    1    2    0    0 -0.16677538049E+01 -0.17275184021E+02 -0.70328836037E+01  0.72461685961E+02  0.70000150677E+02 0.  0.
         12    1    1    2    0    0  0.16677538049E+01  0.17275184021E+02  0.70328836037E+01  0.18726314039E+02  0.00000000000E+00 0. -1.
         11    1    3    3    0    0 -0.12579211247E+02  0.14146655191E+02  0.49453109958E+00  0.18936973622E+02  0.51100000000E-03 0. -1.
        -11    1    3    3    0    0  0.24461706312E+01 -0.60003272515E+01  0.16380181122E+02  0.17615277794E+02  0.51100000000E-03 0.  1.
        -12    1    3    3    0    0  0.84652868111E+01 -0.25421511961E+02 -0.23907595826E+02  0.35909434545E+02  0.00000000000E+00 0.  1.
</event>
<event>
 7    1  0.2932676E-013  0.7246158E+02  0.7816164E-02  0.1226708E+00
        -11   -1    0    0    0    0  0.00000000000E+00  0.00000000000E+00  0.45593999997E+02  0.45594000000E+02  0.51100000000E-03 0.  1.
         11   -1    0    0    0    0 -0.00000000000E+00 -0.00000000000E+00 -0.45593999997E+02  0.45594000000E+02  0.51100000000E-03 0. -1.
    9900012    2    1    2    0    0  0.39158229834E+01 -0.18275378189E+02 -0.11643859218E+01  0.72461577166E+02  0.70000008951E+02 0.  0.
         12    1    1    2    0    0 -0.39158229834E+01  0.18275378189E+02  0.11643859218E+01  0.18726422834E+02  0.00000000000E+00 0. -1.
         11    1    3    3    0    0  0.86547876749E+01 -0.26222571465E+02 -0.25202200179E+02  0.37385551996E+02  0.51100000000E-03 0. -1.
        -11    1    3    3    0    0  0.52725386707E+01  0.60056651191E+01 -0.98758057008E+00  0.80525147128E+01  0.51100000000E-03 0.  1.
        -12    1    3    3    0    0 -0.10011503362E+02  0.19415281565E+01  0.25025394827E+02  0.27023510457E+02  0.00000000000E+00 0.  1.
</event>
<event>
 7    1  0.2932676E-013  0.7246154E+02  0.7816164E-02  0.1226708E+00
        -11   -1    0    0    0    0  0.00000000000E+00  0.00000000000E+00  0.45593999997E+02  0.45594000000E+02  0.51100000000E-03 0.  1.
         11   -1    0    0    0    0 -0.00000000000E+00 -0.00000000000E+00 -0.45593999997E+02  0.45594000000E+02  0.51100000000E-03 0. -1.
    9900012    2    1    2    0    0  0.10069628760E+02  0.56979886278E+01  0.14724671196E+02  0.72461536383E+02  0.69999955824E+02 0.  0.
         12    1    1    2    0    0 -0.10069628760E+02 -0.56979886278E+01 -0.14724671196E+02  0.18726463617E+02  0.00000000000E+00 0. -1.
         11    1    3    3    0    0 -0.20558822744E+02  0.10647359911E+02 -0.70979049036E+01  0.24215939378E+02  0.51100000000E-03 0. -1.
        -11    1    3    3    0    0  0.22804872673E+01 -0.11082434122E+01 -0.71158915520E+01  0.75541206290E+01  0.51100000000E-03 0.  1.
        -12    1    3    3    0    0  0.28347964236E+02 -0.38411278706E+01  0.28938467652E+02  0.40691476376E+02  0.00000000000E+00 0.  1.
</event>
<event>
 7    1  0.2932676E-013  0.7246155E+02  0.7816164E-02  0.1226708E+00
        -11   -1    0    0    0    0  0.00000000000E+00  0.00000000000E+00  0.45593999997E+02  0.45594000000E+02  0.51100000000E-03 0.  1.
         11   -1    0    0    0    0 -0.00000000000E+00 -0.00000000000E+00 -0.45593999997E+02  0.45594000000E+02  0.51100000000E-03 0. -1.
    9900012    2    1    2    0    0  0.44105975777E+01  0.17668077571E+02  0.43664039987E+01  0.72461552928E+02  0.69999977377E+02 0.  0.
         12    1    1    2    0    0 -0.44105975777E+01 -0.17668077571E+02 -0.43664039987E+01  0.18726447072E+02  0.00000000000E+00 0. -1.
         11    1    3    3    0    0  0.10353736111E+02  0.19370522698E+02 -0.15784807780E+02  0.27047683042E+02  0.51100000000E-03 0. -1.
        -11    1    3    3    0    0  0.12488644701E+02  0.68154832460E+01 -0.30829800026E+01  0.14557534966E+02  0.51100000000E-03 0.  1.
        -12    1    3    3    0    0 -0.18431783234E+02 -0.85179283721E+01  0.23234191781E+02  0.30856334920E+02  0.00000000000E+00 0.  1.
</event>
<event>
 7    1  0.2932676E-013  0.7246155E+02  0.7816164E-02  0.1226708E+00
        -11   -1    0    0    0    0  0.00000000000E+00  0.00000000000E+00  0.45593999997E+02  0.45594000000E+02  0.51100000000E-03 0. -1.
         11   -1    0    0    0    0 -0.00000000000E+00 -0.00000000000E+00 -0.45593999997E+02  0.45594000000E+02  0.51100000000E-03 0.  1.
    9900012    2    1    2    0    0 -0.17095680813E+02 -0.76386296109E+01 -0.26230207249E+00  0.72461554337E+02  0.69999979212E+02 0.  0.
         12    1    1    2    0    0  0.17095680813E+02  0.76386296109E+01  0.26230207249E+00  0.18726445663E+02  0.00000000000E+00 0. -1.
         11    1    3    3    0    0  0.63197843869E+01 -0.96713674279E+00 -0.18408488659E+02  0.19487110693E+02  0.51100000000E-03 0. -1.
        -11    1    3    3    0    0 -0.35478003632E+02 -0.37881942306E+00  0.90744193121E+01  0.36622088034E+02  0.51100000000E-03 0.  1.
        -12    1    3    3    0    0  0.12062538432E+02 -0.62926734451E+01  0.90717672745E+01  0.16352355610E+02  0.00000000000E+00 0.  1.
</event>
<event>
 7    1  0.2932676E-013  0.7246157E+02  0.7816164E-02  0.1226708E+00
        -11   -1    0    0    0    0  0.00000000000E+00  0.00000000000E+00  0.45593999997E+02  0.45594000000E+02  0.51100000000E-03 0. -1.
         11   -1    0    0    0    0 -0.00000000000E+00 -0.00000000000E+00 -0.45593999997E+02  0.45594000000E+02  0.51100000000E-03 0.  1.
    9900012    2    1    2    0    0  0.28539069679E+01  0.12122335910E+01 -0.18467942851E+02  0.72461569256E+02  0.69999998648E+02 0.  0.
         12    1    1    2    0    0 -0.28539069679E+01 -0.12122335910E+01  0.18467942851E+02  0.18726430744E+02  0.00000000000E+00 0. -1.
         11    1    3    3    0    0 -0.72174166823E+01  0.18714289199E+01 -0.89977573229E+01  0.11685588854E+02  0.51100000000E-03 0. -1.
        -11    1    3    3    0    0 -0.54415029992E+01  0.18899165842E+02 -0.24669357233E+02  0.31549415382E+02  0.51100000000E-03 0.  1.
         12    1    3    3    0    0  0.15512826649E+02 -0.19558361171E+02  0.15199171705E+02  0.29226565020E+02  0.00000000000E+00 0. -1.
</event>
<event>
 7    1  0.2932676E-013  0.7246145E+02  0.7816164E-02  0.1226708E+00
        -11   -1    0    0    0    0  0.00000000000E+00  0.00000000000E+00  0.45593999997E+02  0.45594000000E+02  0.51100000000E-03 0.  1.
         11   -1    0    0    0    0 -0.00000000000E+00 -0.00000000000E+00 -0.45593999997E+02  0.45594000000E+02  0.51100000000E-03 0. -1.
    9900012    2    1    2    0    0  0.53500039574E+01  0.12475362229E+01  0.17902643537E+02  0.72461453747E+02  0.69999848175E+02 0.  0.
         12    1    1    2    0    0 -0.53500039574E+01 -0.12475362229E+01 -0.17902643537E+02  0.18726546253E+02  0.00000000000E+00 0. -1.
         11    1    3    3    0    0  0.19877821588E+01 -0.31268606204E+01 -0.21311097780E+01  0.42743612853E+01  0.51100000000E-03 0. -1.
        -11    1    3    3    0    0  0.22587466025E+02 -0.21546533515E+01  0.35865765473E+02  0.42440420424E+02  0.51100000000E-03 0.  1.
         12    1    3    3    0    0 -0.19225244227E+02  0.65290501947E+01 -0.15832012158E+02  0.25746672038E+02  0.00000000000E+00 0. -1.
</event>
<event>
 7    1  0.2932676E-013  0.7246157E+02  0.7816164E-02  0.1226708E+00
        -11   -1    0    0    0    0  0.00000000000E+00  0.00000000000E+00  0.45593999997E+02  0.45594000000E+02  0.51100000000E-03 0. -1.
         11   -1    0    0    0    0 -0.00000000000E+00 -0.00000000000E+00 -0.45593999997E+02  0.45594000000E+02  0.51100000000E-03 0.  1.
    9900012    2    1    2    0    0  0.99087066309E+01  0.15763302795E+02  0.20037131058E+01  0.72461573531E+02  0.70000004216E+02 0.  0.
         12    1    1    2    0    0 -0.99087066309E+01 -0.15763302795E+02 -0.20037131058E+01  0.18726426469E+02  0.00000000000E+00 0. -1.
         11    1    3    3    0    0  0.52445278400E+01 -0.75466408449E+01  0.19123697054E+02  0.21217272435E+02  0.51100000000E-03 0. -1.
        -11    1    3    3    0    0 -0.81388049718E+01  0.25521606386E+02  0.33526436504E+01  0.26996902759E+02  0.51100000000E-03 0.  1.
         12    1    3    3    0    0  0.12802983763E+02 -0.22116627459E+01 -0.20472627598E+02  0.24247398337E+02  0.00000000000E+00 0. -1.
</event>
<event>
 7    1  0.2932676E-013  0.7246157E+02  0.7816164E-02  0.1226708E+00
        -11   -1    0    0    0    0  0.00000000000E+00  0.00000000000E+00  0.45593999997E+02  0.45594000000E+02  0.51100000000E-03 0.  1.
         11   -1    0    0    0    0 -0.00000000000E+00 -0.00000000000E+00 -0.45593999997E+02  0.45594000000E+02  0.51100000000E-03 0. -1.
    9900012    2    1    2    0    0  0.64208815886E+01  0.17347969695E+02 -0.29153674128E+01  0.72461571081E+02  0.70000001025E+02 0.  0.
         12    1    1    2    0    0 -0.64208815886E+01 -0.17347969695E+02  0.29153674128E+01  0.18726428919E+02  0.00000000000E+00 0. -1.
         11    1    3    3    0    0 -0.19538088054E+02  0.75705793705E+01 -0.41562703199E+01  0.21361768187E+02  0.51100000000E-03 0. -1.
        -11    1    3    3    0    0 -0.22066447166E+00 -0.78424573075E+01 -0.14005235304E+02  0.16053019828E+02  0.51100000000E-03 0.  1.
        -12    1    3    3    0    0  0.26179634115E+02  0.17619847632E+02  0.15246138211E+02  0.35046783066E+02  0.00000000000E+00 0.  1.
</event>
<event>
 7    1  0.2932676E-013  0.7246161E+02  0.7816164E-02  0.1226708E+00
        -11   -1    0    0    0    0  0.00000000000E+00  0.00000000000E+00  0.45593999997E+02  0.45594000000E+02  0.51100000000E-03 0.  1.
         11   -1    0    0    0    0 -0.00000000000E+00 -0.00000000000E+00 -0.45593999997E+02  0.45594000000E+02  0.51100000000E-03 0. -1.
    9900012    2    1    2    0    0  0.87949453043E+01  0.12353010339E+02  0.10987706150E+02  0.72461611833E+02  0.70000054112E+02 0.  0.
         12    1    1    2    0    0 -0.87949453043E+01 -0.12353010339E+02 -0.10987706150E+02  0.18726388167E+02  0.00000000000E+00 0. -1.
         11    1    3    3    0    0 -0.25377659353E+00  0.41189887738E+01 -0.13131162024E+01  0.43306749475E+01  0.51100000000E-03 0. -1.
        -11    1    3    3    0    0  0.38982978460E+01  0.26879947543E+02  0.31007407426E+02  0.41221203543E+02  0.51100000000E-03 0.  1.
         12    1    3    3    0    0  0.51504240518E+01 -0.18645925978E+02 -0.18706585073E+02  0.26909733343E+02  0.00000000000E+00 0. -1.
</event>
<event>
 7    1  0.2932676E-013  0.7246157E+02  0.7816164E-02  0.1226708E+00
        -11   -1    0    0    0    0  0.00000000000E+00  0.00000000000E+00  0.45593999997E+02  0.45594000000E+02  0.51100000000E-03 0. -1.
         11   -1    0    0    0    0 -0.00000000000E+00 -0.00000000000E+00 -0.45593999997E+02  0.45594000000E+02  0.51100000000E-03 0.  1.
    9900012    2    1    2    0    0 -0.96144042762E+01  0.78214984047E+01  0.14038036121E+02  0.72461573085E+02  0.70000003635E+02 0.  0.
         12    1    1    2    0    0  0.96144042762E+01 -0.78214984047E+01 -0.14038036121E+02  0.18726426915E+02  0.00000000000E+00 0. -1.
         11    1    3    3    0    0  0.48246609609E+01 -0.48573707378E+01 -0.77729524060E+00  0.68902534078E+01  0.51100000000E-03 0. -1.
        -11    1    3    3    0    0 -0.13716535376E+02  0.10192931672E+02 -0.22451095054E+02  0.28215082282E+02  0.51100000000E-03 0.  1.
         12    1    3    3    0    0 -0.72252986125E+00  0.24859374707E+01  0.37266426416E+02  0.37356237395E+02  0.00000000000E+00 0. -1.
</event>
<event>
 7    1  0.2932676E-013  0.7246158E+02  0.7816164E-02  0.1226708E+00
        -11   -1    0    0    0    0  0.00000000000E+00  0.00000000000E+00  0.45593999997E+02  0.45594000000E+02  0.51100000000E-03 0. -1.
         11   -1    0    0    0    0 -0.00000000000E+00 -0.00000000000E+00 -0.45593999997E+02  0.45594000000E+02  0.51100000000E-03 0.  1.
    9900012    2    1    2    0    0 -0.16671607182E+02  0.33394025580E+01  0.78475816464E+01  0.72461584615E+02  0.70000018655E+02 0.  0.
         12    1    1    2    0    0  0.16671607182E+02 -0.33394025580E+01 -0.78475816464E+01  0.18726415385E+02  0.00000000000E+00 0. -1.
         11    1    3    3    0    0  0.13404179884E+02  0.15749688606E+02 -0.93407574477E+01  0.22693049145E+02  0.51100000000E-03 0. -1.
        -11    1    3    3    0    0 -0.15360539864E+01  0.10155677625E+02  0.28235150548E+01  0.10652205753E+02  0.51100000000E-03 0.  1.
        -12    1    3    3    0    0 -0.28539733080E+02 -0.22565963673E+02  0.14364824039E+02  0.39116329716E+02  0.00000000000E+00 0.  1.
</event>
<event>
 7    1  0.2932676E-013  0.7246143E+02  0.7816164E-02  0.1226708E+00
        -11   -1    0    0    0    0  0.00000000000E+00  0.00000000000E+00  0.45593999997E+02  0.45594000000E+02  0.51100000000E-03 0.  1.
         11   -1    0    0    0    0 -0.00000000000E+00 -0.00000000000E+00 -0.45593999997E+02  0.45594000000E+02  0.51100000000E-03 0. -1.
    9900012    2    1    2    0    0  0.16364563138E+01 -0.58148271355E+01  0.17725520099E+02  0.72461434200E+02  0.69999822712E+02 0.  0.
         12    1    1    2    0    0 -0.16364563138E+01  0.58148271355E+01 -0.17725520099E+02  0.18726565800E+02  0.00000000000E+00 0. -1.
         11    1    3    3    0    0  0.12974908476E+02 -0.79951707108E+01  0.85294424057E+00  0.15264289004E+02  0.51100000000E-03 0. -1.
        -11    1    3    3    0    0  0.13262282028E+02  0.14889808773E+02  0.21276120298E+02  0.29159352275E+02  0.51100000000E-03 0.  1.
        -12    1    3    3    0    0 -0.24600734190E+02 -0.12709465197E+02 -0.44035444402E+01  0.28037792922E+02  0.00000000000E+00 0.  1.
</event>
<event>
 7    1  0.2932676E-013  0.7246157E+02  0.7816164E-02  0.1226708E+00
        -11   -1    0    0    0    0  0.00000000000E+00  0.00000000000E+00  0.45593999997E+02  0.45594000000E+02  0.51100000000E-03 0.  1.
         11   -1    0    0    0    0 -0.00000000000E+00 -0.00000000000E+00 -0.45593999997E+02  0.45594000000E+02  0.51100000000E-03 0. -1.
    9900012    2    1    2    0    0 -0.65982651162E+00 -0.77844625487E+01  0.17018991669E+02  0.72461566660E+02  0.69999995266E+02 0.  0.
         12    1    1    2    0    0  0.65982651162E+00  0.77844625487E+01 -0.17018991669E+02  0.18726433340E+02  0.00000000000E+00 0. -1.
         11    1    3    3    0    0 -0.14233692633E+02  0.10698099087E+02 -0.16367274571E+01  0.17880889437E+02  0.51100000000E-03 0. -1.
        -11    1    3    3    0    0  0.10811104163E+01 -0.16174423434E+02 -0.12801013852E+02  0.20655428562E+02  0.51100000000E-03 0.  1.
        -12    1    3    3    0    0  0.12492755705E+02 -0.23081382015E+01  0.31456732978E+02  0.33925248661E+02  0.00000000000E+00 0.  1.
</event>
<event>
 7    1  0.2932676E-013  0.7246147E+02  0.7816164E-02  0.1226708E+00
        -11   -1    0    0    0    0  0.00000000000E+00  0.00000000000E+00  0.45593999997E+02  0.45594000000E+02  0.51100000000E-03 0.  1.
         11   -1    0    0    0    0 -0.00000000000E+00 -0.00000000000E+00 -0.45593999997E+02  0.45594000000E+02  0.51100000000E-03 0. -1.
    9900012    2    1    2    0    0 -0.51065186152E+01  0.38479879483E+01  0.17601120103E+02  0.72461468755E+02  0.69999867726E+02 0.  0.
         12    1    1    2    0    0  0.51065186152E+01 -0.38479879483E+01 -0.17601120103E+02  0.18726531245E+02  0.00000000000E+00 0. -1.
         11    1    3    3    0    0 -0.17229990847E+02  0.99573238242E+01 -0.60911993822E+01  0.20811621573E+02  0.51100000000E-03 0. -1.
        -11    1    3    3    0    0  0.57068094725E+01  0.12625869070E+02 -0.66876432784E+01  0.15385214233E+02  0.51100000000E-03 0.  1.
         12    1    3    3    0    0  0.64166627598E+01 -0.18735204946E+02  0.30379962763E+02  0.36264632948E+02  0.00000000000E+00 0. -1.
</event>
<event>
 7    1  0.2932676E-013  0.7246161E+02  0.7816164E-02  0.1226708E+00
        -11   -1    0    0    0    0  0.00000000000E+00  0.00000000000E+00  0.45593999997E+02  0.45594000000E+02  0.51100000000E-03 0. -1.
         11   -1    0    0    0    0 -0.00000000000E+00 -0.00000000000E+00 -0.45593999997E+02  0.45594000000E+02  0.51100000000E-03 0.  1.
    9900012    2    1    2    0    0 -0.18245796896E+02 -0.42074076825E+01  0.25720377491E+00  0.72461613868E+02  0.70000056763E+02 0.  0.
         12    1    1    2    0    0  0.18245796896E+02  0.42074076825E+01 -0.25720377491E+00  0.18726386132E+02  0.00000000000E+00 0. -1.
         11    1    3    3    0    0 -0.28009412906E+01 -0.60762125694E+00  0.18969817062E+02  0.19185109729E+02  0.51100000000E-03 0. -1.
        -11    1    3    3    0    0 -0.15553820165E+02 -0.12456260103E+02  0.10658963570E+02  0.22598523008E+02  0.51100000000E-03 0.  1.
        -12    1    3    3    0    0  0.10896456030E+00  0.88564736774E+01 -0.29371576856E+02  0.30677981132E+02  0.00000000000E+00 0.  1.
</event>
<event>
 7    1  0.2932676E-013  0.7246165E+02  0.7816164E-02  0.1226708E+00
        -11   -1    0    0    0    0  0.00000000000E+00  0.00000000000E+00  0.45593999997E+02  0.45594000000E+02  0.51100000000E-03 0.  1.
         11   -1    0    0    0    0 -0.00000000000E+00 -0.00000000000E+00 -0.45593999997E+02  0.45594000000E+02  0.51100000000E-03 0. -1.
    9900012    2    1    2    0    0 -0.12296028413E+01  0.43166228149E+01  0.18180514977E+02  0.72461647432E+02  0.70000100486E+02 0.  0.
         12    1    1    2    0    0  0.12296028413E+01 -0.43166228149E+01 -0.18180514977E+02  0.18726352568E+02  0.00000000000E+00 0. -1.
         11    1    3    3    0    0 -0.64583727139E+01 -0.90458872087E+01 -0.19531339702E+02  0.22472469476E+02  0.51100000000E-03 0. -1.
        -11    1    3    3    0    0  0.97130293139E+01 -0.12291155611E+01  0.54046353791E+00  0.98053946689E+01  0.51100000000E-03 0.  1.
        -12    1    3    3    0    0 -0.44842594413E+01  0.14591625585E+02  0.37171391141E+02  0.40183783288E+02  0.00000000000E+00 0.  1.
</event>
<event>
 7    1  0.2932676E-013  0.7246145E+02  0.7816164E-02  0.1226708E+00
        -11   -1    0    0    0    0  0.00000000000E+00  0.00000000000E+00  0.45593999997E+02  0.45594000000E+02  0.51100000000E-03 0. -1.
         11   -1    0    0    0    0 -0.00000000000E+00 -0.00000000000E+00 -0.45593999997E+02  0.45594000000E+02  0.51100000000E-03 0.  1.
    9900012    2    1    2    0    0 -0.55672217244E+01 -0.53023119136E+01 -0.17075574005E+02  0.72461449411E+02  0.69999842527E+02 0.  0.
         12    1    1    2    0    0  0.55672217244E+01  0.53023119136E+01  0.17075574005E+02  0.18726550589E+02  0.00000000000E+00 0. -1.
         11    1    3    3    0    0  0.38916291913E+01 -0.96029882685E+00 -0.37194820987E+02  0.37410181236E+02  0.51100000000E-03 0. -1.
        -11    1    3    3    0    0 -0.81734652983E+01  0.65163508481E+01 -0.17521513531E+01  0.10598980988E+02  0.51100000000E-03 0.  1.
         12    1    3    3    0    0 -0.12853856174E+01 -0.10858363935E+02  0.21871398335E+02  0.24452287187E+02  0.00000000000E+00 0. -1.
</event>
<event>
 7    1  0.2932676E-013  0.7246170E+02  0.7816164E-02  0.1226708E+00
        -11   -1    0    0    0    0  0.00000000000E+00  0.00000000000E+00  0.45593999997E+02  0.45594000000E+02  0.51100000000E-03 0. -1.
         11   -1    0    0    0    0 -0.00000000000E+00 -0.00000000000E+00 -0.45593999997E+02  0.45594000000E+02  0.51100000000E-03 0.  1.
    9900012    2    1    2    0    0 -0.16257554879E+02 -0.37452906483E+01 -0.85052325171E+01  0.72461701037E+02  0.70000170316E+02 0.  0.
         12    1    1    2    0    0  0.16257554879E+02  0.37452906483E+01  0.85052325171E+01  0.18726298963E+02  0.00000000000E+00 0. -1.
         11    1    3    3    0    0  0.71406358272E+01 -0.16037029447E+01 -0.15956077404E+02  0.17554399721E+02  0.51100000000E-03 0. -1.
        -11    1    3    3    0    0 -0.35153037165E+01 -0.23742767868E+02 -0.19485227084E+01  0.24080554962E+02  0.51100000000E-03 0.  1.
         12    1    3    3    0    0 -0.19882886990E+02  0.21601180165E+02  0.93993675958E+01  0.30826746354E+02  0.00000000000E+00 0. -1.
</event>
<event>
 7    1  0.2932676E-013  0.7246157E+02  0.7816164E-02  0.1226708E+00
        -11   -1    0    0    0    0  0.00000000000E+00  0.00000000000E+00  0.45593999997E+02  0.45594000000E+02  0.51100000000E-03 0. -1.
         11   -1    0    0    0    0 -0.00000000000E+00 -0.00000000000E+00 -0.45593999997E+02  0.45594000000E+02  0.51100000000E-03 0.  1.
    9900012    2    1    2    0    0 -0.40804884161E+01  0.10167467880E+02 -0.15187211821E+02  0.72461569702E+02  0.69999999228E+02 0.  0.
         12    1    1    2    0    0  0.40804884161E+01 -0.10167467880E+02  0.15187211821E+02  0.18726430298E+02  0.00000000000E+00 0. -1.
         11    1    3    3    0    0 -0.27346079116E+02 -0.29223868932E+00 -0.91528285229E+01  0.28838649703E+02  0.51100000000E-03 0. -1.
        -11    1    3    3    0    0 -0.48419259053E+01  0.49574403941E+01 -0.12471539149E+02  0.14267436726E+02  0.51100000000E-03 0.  1.
        -12    1    3    3    0    0  0.28107516605E+02  0.55022661748E+01  0.64371558504E+01  0.29355483273E+02  0.00000000000E+00 0.  1.
</event>
<event>
 7    1  0.2932676E-013  0.7246159E+02  0.7816164E-02  0.1226708E+00
        -11   -1    0    0    0    0  0.00000000000E+00  0.00000000000E+00  0.45593999997E+02  0.45594000000E+02  0.51100000000E-03 0.  1.
         11   -1    0    0    0    0 -0.00000000000E+00 -0.00000000000E+00 -0.45593999997E+02  0.45594000000E+02  0.51100000000E-03 0. -1.
    9900012    2    1    2    0    0 -0.19841104072E+01  0.18420549862E+02 -0.27248843972E+01  0.72461592275E+02  0.70000028634E+02 0.  0.
         12    1    1    2    0    0  0.19841104072E+01 -0.18420549862E+02  0.27248843972E+01  0.18726407725E+02  0.00000000000E+00 0. -1.
         11    1    3    3    0    0  0.20663856503E+02  0.26421582309E+02 -0.75337180438E+01  0.34378072737E+02  0.51100000000E-03 0. -1.
        -11    1    3    3    0    0  0.18558906876E+01  0.81208855126E+01 -0.17086002683E+00  0.83320048705E+01  0.51100000000E-03 0.  1.
        -12    1    3    3    0    0 -0.24503857598E+02 -0.16121917960E+02  0.49796936734E+01  0.29751514667E+02  0.00000000000E+00 0.  1.
</event>
<event>
 7    1  0.2932676E-013  0.7246158E+02  0.7816164E-02  0.1226708E+00
        -11   -1    0    0    0    0  0.00000000000E+00  0.00000000000E+00  0.45593999997E+02  0.45594000000E+02  0.51100000000E-03 0.  1.
         11   -1    0    0    0    0 -0.00000000000E+00 -0.00000000000E+00 -0.45593999997E+02  0.45594000000E+02  0.51100000000E-03 0. -1.
    9900012    2    1    2    0    0 -0.21148313444E+01 -0.28295241245E+01  0.18390219719E+02  0.72461577499E+02  0.70000009385E+02 0.  0.
         12    1    1    2    0    0  0.21148313444E+01  0.28295241245E+01 -0.18390219719E+02  0.18726422501E+02  0.00000000000E+00 0. -1.
         11    1    3    3    0    0  0.15009498427E+02 -0.20643230240E+01  0.16127509689E+02  0.22127879284E+02  0.51100000000E-03 0. -1.
        -11    1    3    3    0    0 -0.22255369349E+01 -0.17576310337E+02  0.16109600973E+02  0.23945750009E+02  0.51100000000E-03 0.  1.
         12    1    3    3    0    0 -0.14898792837E+02  0.16811109236E+02 -0.13846890944E+02  0.26387948206E+02  0.00000000000E+00 0. -1.
</event>
<event>
 7    1  0.2932676E-013  0.7246156E+02  0.7816164E-02  0.1226708E+00
        -11   -1    0    0    0    0  0.00000000000E+00  0.00000000000E+00  0.45593999997E+02  0.45594000000E+02  0.51100000000E-03 0.  1.
         11   -1    0    0    0    0 -0.00000000000E+00 -0.00000000000E+00 -0.45593999997E+02  0.45594000000E+02  0.51100000000E-03 0. -1.
    9900012    2    1    2    0    0  0.15125734142E+01 -0.15639157833E+02 -0.10188635465E+02  0.72461563374E+02  0.69999990985E+02 0.  0.
         12    1    1    2    0    0 -0.15125734142E+01  0.15639157833E+02  0.10188635465E+02  0.18726436626E+02  0.00000000000E+00 0. -1.
         11    1    3    3    0    0 -0.17434503736E+02 -0.37805086745E+01 -0.15870498059E+02  0.23877329735E+02  0.51100000000E-03 0. -1.
        -11    1    3    3    0    0  0.20577323652E+01  0.13385003446E+02  0.11371419993E+02  0.17683375601E+02  0.51100000000E-03 0.  1.
        -12    1    3    3    0    0  0.16889344785E+02 -0.25243652605E+02 -0.56895573991E+01  0.30900858038E+02  0.00000000000E+00 0.  1.
</event>
<event>
 7    1  0.2932676E-013  0.7246157E+02  0.7816164E-02  0.1226708E+00
        -11   -1    0    0    0    0  0.00000000000E+00  0.00000000000E+00  0.45593999997E+02  0.45594000000E+02  0.51100000000E-03 0. -1.
         11   -1    0    0    0    0 -0.00000000000E+00 -0.00000000000E+00 -0.45593999997E+02  0.45594000000E+02  0.51100000000E-03 0.  1.
    9900012    2    1    2    0    0 -0.13760635550E+02 -0.35048844406E+01 -0.12208183358E+02  0.72461573577E+02  0.70000004276E+02 0.  0.
         12    1    1    2    0    0  0.13760635550E+02  0.35048844406E+01  0.12208183358E+02  0.18726426423E+02  0.00000000000E+00 0. -1.
         11    1    3    3    0    0 -0.18672393420E+02 -0.37911610808E+01  0.15775309447E+02  0.24736442080E+02  0.51100000000E-03 0. -1.
        -11    1    3    3    0    0  0.22841852596E+01 -0.62623496425E+01  0.83660983462E+01  0.10697014871E+02  0.51100000000E-03 0.  1.
        -12    1    3    3    0    0  0.26275726108E+01  0.65486262826E+01 -0.36349591151E+02  0.37028116626E+02  0.00000000000E+00 0.  1.
</event>
<event>
 7    1  0.2932676E-013  0.7246155E+02  0.7816164E-02  0.1226708E+00
        -11   -1    0    0    0    0  0.00000000000E+00  0.00000000000E+00  0.45593999997E+02  0.45594000000E+02  0.51100000000E-03 0.  1.
         11   -1    0    0    0    0 -0.00000000000E+00 -0.00000000000E+00 -0.45593999997E+02  0.45594000000E+02  0.51100000000E-03 0. -1.
    9900012    2    1    2    0    0  0.30428100770E+01  0.16580654690E+02  0.81549451075E+01  0.72461549914E+02  0.69999973451E+02 0.  0.
         12    1    1    2    0    0 -0.30428100770E+01 -0.16580654690E+02 -0.81549451075E+01  0.18726450086E+02  0.00000000000E+00 0. -1.
         11    1    3    3    0    0  0.11460276877E+02  0.75017277506E+01 -0.34789504929E+01  0.14132125181E+02  0.51100000000E-03 0. -1.
        -11    1    3    3    0    0  0.20625685836E+02 -0.94596154272E+01  0.40739305137E+01  0.23054287027E+02  0.51100000000E-03 0.  1.
         12    1    3    3    0    0 -0.29043152636E+02  0.18538542366E+02  0.75599650867E+01  0.35275137706E+02  0.00000000000E+00 0. -1.
</event>
<event>
 7    1  0.2932676E-013  0.7246138E+02  0.7816164E-02  0.1226709E+00
        -11   -1    0    0    0    0  0.00000000000E+00  0.00000000000E+00  0.45593999997E+02  0.45594000000E+02  0.51100000000E-03 0.  1.
         11   -1    0    0    0    0 -0.00000000000E+00 -0.00000000000E+00 -0.45593999997E+02  0.45594000000E+02  0.51100000000E-03 0. -1.
    9900012    2    1    2    0    0  0.57850171713E+01  0.24776207405E+01  0.17637491514E+02  0.72461384313E+02  0.69999757724E+02 0.  0.
         12    1    1    2    0    0 -0.57850171713E+01 -0.24776207405E+01 -0.17637491514E+02  0.18726615687E+02  0.00000000000E+00 0. -1.
         11    1    3    3    0    0 -0.17094716592E+02  0.84217178886E+01  0.53426789781E+01  0.19791384148E+02  0.51100000000E-03 0. -1.
        -11    1    3    3    0    0  0.73079683374E+01 -0.41182069678E+01  0.28745656475E+02  0.29944595444E+02  0.51100000000E-03 0.  1.
         12    1    3    3    0    0  0.15571765426E+02 -0.18258901803E+01 -0.16450843939E+02  0.22725404721E+02  0.00000000000E+00 0. -1.
</event>
<event>
 7    1  0.2932676E-013  0.7246151E+02  0.7816164E-02  0.1226708E+00
        -11   -1    0    0    0    0  0.00000000000E+00  0.00000000000E+00  0.45593999997E+02  0.45594000000E+02  0.51100000000E-03 0. -1.
         11   -1    0    0    0    0 -0.00000000000E+00 -0.00000000000E+00 -0.45593999997E+02  0.45594000000E+02  0.51100000000E-03 0.  1.
    9900012    2    1    2    0    0 -0.85738769133E+01 -0.16203752166E+02 -0.38221201380E+01  0.72461506683E+02  0.69999917135E+02 0.  0.
         12    1    1    2    0    0  0.85738769133E+01  0.16203752166E+02  0.38221201380E+01  0.18726493317E+02  0.00000000000E+00 0. -1.
         11    1    3    3    0    0 -0.85602989343E-01 -0.25599890349E+02  0.20031408514E+02  0.32505677059E+02  0.51100000000E-03 0. -1.
        -11    1    3    3    0    0  0.15145717616E+01 -0.11848045118E+01  0.62374294974E+01  0.65271139372E+01  0.51100000000E-03 0.  1.
        -12    1    3    3    0    0 -0.10002845686E+02  0.10580942695E+02 -0.30090958149E+02  0.33428715687E+02  0.00000000000E+00 0.  1.
</event>
<event>
 7    1  0.2932676E-013  0.7246162E+02  0.7816164E-02  0.1226708E+00
        -11   -1    0    0    0    0  0.00000000000E+00  0.00000000000E+00  0.45593999997E+02  0.45594000000E+02  0.51100000000E-03 0. -1.
         11   -1    0    0    0    0 -0.00000000000E+00 -0.00000000000E+00 -0.45593999997E+02  0.45594000000E+02  0.51100000000E-03 0.  1.
    9900012    2    1    2    0    0  0.68518137565E+01  0.17099666739E+02  0.33661876390E+01  0.72461623587E+02  0.70000069423E+02 0.  0.
         12    1    1    2    0    0 -0.68518137565E+01 -0.17099666739E+02 -0.33661876390E+01  0.18726376413E+02  0.00000000000E+00 0. -1.
         11    1    3    3    0    0 -0.36506286616E+01  0.11140794303E+02  0.25050191352E+02  0.27657846524E+02  0.51100000000E-03 0. -1.
        -11    1    3    3    0    0 -0.13806581999E+02  0.48080744750E+01 -0.57211828977E+01  0.15699401920E+02  0.51100000000E-03 0.  1.
        -12    1    3    3    0    0  0.24309024417E+02  0.11507979609E+01 -0.15962820815E+02  0.29104375142E+02  0.00000000000E+00 0.  1.
</event>
<event>
 7    1  0.2932676E-013  0.7246158E+02  0.7816164E-02  0.1226708E+00
        -11   -1    0    0    0    0  0.00000000000E+00  0.00000000000E+00  0.45593999997E+02  0.45594000000E+02  0.51100000000E-03 0.  1.
         11   -1    0    0    0    0 -0.00000000000E+00 -0.00000000000E+00 -0.45593999997E+02  0.45594000000E+02  0.51100000000E-03 0. -1.
    9900012    2    1    2    0    0 -0.37742096727E+01 -0.48111576313E+01  0.17699916310E+02  0.72461576589E+02  0.70000008200E+02 0.  0.
         12    1    1    2    0    0  0.37742096727E+01  0.48111576313E+01 -0.17699916310E+02  0.18726423411E+02  0.00000000000E+00 0. -1.
         11    1    3    3    0    0  0.17866104421E+02 -0.12894270834E+01 -0.14453559727E+02  0.23016639599E+02  0.51100000000E-03 0. -1.
        -11    1    3    3    0    0  0.34462644170E+01 -0.69346973367E+01 -0.91479180295E+00  0.77976669516E+01  0.51100000000E-03 0.  1.
        -12    1    3    3    0    0 -0.25086578511E+02  0.34129667888E+01  0.33068267840E+02  0.41647270038E+02  0.00000000000E+00 0.  1.
</event>
<event>
 7    1  0.2964372E-013  0.7246156E+02  0.7816164E-02  0.1226708E+00
        -11   -1    0    0    0    0  0.00000000000E+00  0.00000000000E+00  0.45593999997E+02  0.45594000000E+02  0.51100000000E-03 0. -1.
         11   -1    0    0    0    0 -0.00000000000E+00 -0.00000000000E+00 -0.45593999997E+02  0.45594000000E+02  0.51100000000E-03 0.  1.
    9900012    2    1    2    0    0  0.79530363668E+01 -0.47609297260E+01 -0.16271522293E+02  0.72461556743E+02  0.69999982347E+02 0.  0.
         12    1    1    2    0    0 -0.79530363668E+01  0.47609297260E+01  0.16271522293E+02  0.18726443257E+02  0.00000000000E+00 0. -1.
         11    1    3    3    0    0  0.39302938561E+01 -0.10689538554E+02  0.13597775381E+01  0.11470067110E+02  0.51100000000E-03 0. -1.
        -11    1    3    3    0    0  0.62510037108E+01 -0.33697768010E+01 -0.37911173772E+02  0.38570552759E+02  0.51100000000E-03 0.  1.
         12    1    3    3    0    0 -0.22282612000E+01  0.92983856287E+01  0.20279873941E+02  0.22420936875E+02  0.00000000000E+00 0. -1.
</event>
<event>
 7    1  0.2932676E-013  0.7246152E+02  0.7816164E-02  0.1226708E+00
        -11   -1    0    0    0    0  0.00000000000E+00  0.00000000000E+00  0.45593999997E+02  0.45594000000E+02  0.51100000000E-03 0.  1.
         11   -1    0    0    0    0 -0.00000000000E+00 -0.00000000000E+00 -0.45593999997E+02  0.45594000000E+02  0.51100000000E-03 0. -1.
    9900012    2    1    2    0    0 -0.29387198199E+01 -0.96360783271E+01  0.15785780615E+02  0.72461522773E+02  0.69999938095E+02 0.  0.
         12    1    1    2    0    0  0.29387198199E+01  0.96360783271E+01 -0.15785780615E+02  0.18726477227E+02  0.00000000000E+00 0. -1.
         11    1    3    3    0    0  0.63306879403E+01 -0.83917542768E+01 -0.25547344229E+01  0.10817847192E+02  0.51100000000E-03 0. -1.
        -11    1    3    3    0    0 -0.17979873333E+02 -0.25024349030E+02  0.77596058961E+00  0.30823627374E+02  0.51100000000E-03 0.  1.
         12    1    3    3    0    0  0.87104655723E+01  0.23780024979E+02  0.17564554448E+02  0.30820048207E+02  0.00000000000E+00 0. -1.
</event>
<event>
 7    1  0.2932676E-013  0.7246161E+02  0.7816164E-02  0.1226708E+00
        -11   -1    0    0    0    0  0.00000000000E+00  0.00000000000E+00  0.45593999997E+02  0.45594000000E+02  0.51100000000E-03 0. -1.
         11   -1    0    0    0    0 -0.00000000000E+00 -0.00000000000E+00 -0.45593999997E+02  0.45594000000E+02  0.51100000000E-03 0.  1.
    9900012    2    1    2    0    0 -0.77562185716E+01 -0.13760050048E+02 -0.10058817282E+02  0.72461609291E+02  0.70000050801E+02 0.  0.
         12    1    1    2    0    0  0.77562185716E+01  0.13760050048E+02  0.10058817282E+02  0.18726390709E+02  0.00000000000E+00 0. -1.
         11    1    3    3    0    0  0.35165929084E+01 -0.71281641179E+01 -0.66924181806E+01  0.10390650160E+02  0.51100000000E-03 0. -1.
        -11    1    3    3    0    0 -0.20353264985E+02 -0.29583312192E+02  0.44433090290E+01  0.36182464692E+02  0.51100000000E-03 0.  1.
         12    1    3    3    0    0  0.90804535048E+01  0.22951426261E+02 -0.78097081306E+01  0.25888494440E+02  0.00000000000E+00 0. -1.
</event>
<event>
 7    1  0.2932676E-013  0.7246161E+02  0.7816164E-02  0.1226708E+00
        -11   -1    0    0    0    0  0.00000000000E+00  0.00000000000E+00  0.45593999997E+02  0.45594000000E+02  0.51100000000E-03 0. -1.
         11   -1    0    0    0    0 -0.00000000000E+00 -0.00000000000E+00 -0.45593999997E+02  0.45594000000E+02  0.51100000000E-03 0.  1.
    9900012    2    1    2    0    0  0.11992843972E+02 -0.83528263927E+01 -0.11708095856E+02  0.72461614234E+02  0.70000057240E+02 0.  0.
         12    1    1    2    0    0 -0.11992843972E+02  0.83528263927E+01  0.11708095856E+02  0.18726385766E+02  0.00000000000E+00 0. -1.
         11    1    3    3    0    0 -0.80773067021E+01  0.16594564170E+02  0.64759311550E+01  0.19559144361E+02  0.51100000000E-03 0. -1.
        -11    1    3    3    0    0 -0.90313596807E+01 -0.12860257726E+02 -0.14125927583E+02  0.21130393201E+02  0.51100000000E-03 0.  1.
         12    1    3    3    0    0  0.29101510355E+02 -0.12087132836E+02 -0.40580994276E+01  0.31772076673E+02  0.00000000000E+00 0. -1.
</event>
<event>
 7    1  0.2932676E-013  0.7246154E+02  0.7816164E-02  0.1226708E+00
        -11   -1    0    0    0    0  0.00000000000E+00  0.00000000000E+00  0.45593999997E+02  0.45594000000E+02  0.51100000000E-03 0. -1.
         11   -1    0    0    0    0 -0.00000000000E+00 -0.00000000000E+00 -0.45593999997E+02  0.45594000000E+02  0.51100000000E-03 0.  1.
    9900012    2    1    2    0    0  0.15984105512E+02 -0.96562105479E+01  0.13950283603E+01  0.72461544508E+02  0.69999966409E+02 0.  0.
         12    1    1    2    0    0 -0.15984105512E+02  0.96562105479E+01 -0.13950283603E+01  0.18726455492E+02  0.00000000000E+00 0. -1.
         11    1    3    3    0    0  0.13904678878E+02  0.22428064719E+01  0.25323438808E+01  0.14310242534E+02  0.51100000000E-03 0. -1.
        -11    1    3    3    0    0  0.28105104933E+02 -0.13545182782E+02 -0.55914811970E+01  0.31695954981E+02  0.51100000000E-03 0.  1.
         12    1    3    3    0    0 -0.26025678300E+02  0.16461657625E+01  0.44541656765E+01  0.26455346994E+02  0.00000000000E+00 0. -1.
</event>
<event>
 7    1  0.2932676E-013  0.7246159E+02  0.7816164E-02  0.1226708E+00
        -11   -1    0    0    0    0  0.00000000000E+00  0.00000000000E+00  0.45593999997E+02  0.45594000000E+02  0.51100000000E-03 0. -1.
         11   -1    0    0    0    0 -0.00000000000E+00 -0.00000000000E+00 -0.45593999997E+02  0.45594000000E+02  0.51100000000E-03 0.  1.
    9900012    2    1    2    0    0  0.11003805032E+02 -0.72327866780E+01 -0.13314715184E+02  0.72461586335E+02  0.70000020896E+02 0.  0.
         12    1    1    2    0    0 -0.11003805032E+02  0.72327866780E+01  0.13314715184E+02  0.18726413665E+02  0.00000000000E+00 0. -1.
         11    1    3    3    0    0  0.12717836311E+02 -0.23693336575E+02 -0.11076545714E+01  0.26913648162E+02  0.51100000000E-03 0. -1.
        -11    1    3    3    0    0  0.26021302040E+01 -0.13168973384E+01 -0.23742402949E+02  0.23920848610E+02  0.51100000000E-03 0.  1.
        -12    1    3    3    0    0 -0.43161614837E+01  0.17777447235E+02  0.11535342336E+02  0.21627089563E+02  0.00000000000E+00 0.  1.
</event>
<event>
 7    1  0.2932676E-013  0.7246157E+02  0.7816164E-02  0.1226708E+00
        -11   -1    0    0    0    0  0.00000000000E+00  0.00000000000E+00  0.45593999997E+02  0.45594000000E+02  0.51100000000E-03 0.  1.
         11   -1    0    0    0    0 -0.00000000000E+00 -0.00000000000E+00 -0.45593999997E+02  0.45594000000E+02  0.51100000000E-03 0. -1.
    9900012    2    1    2    0    0  0.49394903666E+01  0.49262386508E+00  0.18056520759E+02  0.72461569874E+02  0.69999999452E+02 0.  0.
         12    1    1    2    0    0 -0.49394903666E+01 -0.49262386508E+00 -0.18056520759E+02  0.18726430126E+02  0.00000000000E+00 0. -1.
         11    1    3    3    0    0 -0.15526387988E+02  0.29650476956E+01 -0.16686576972E+02  0.22984822886E+02  0.51100000000E-03 0. -1.
        -11    1    3    3    0    0  0.11235010018E+01 -0.13105344470E+02  0.12891482915E+02  0.18417454770E+02  0.51100000000E-03 0.  1.
        -12    1    3    3    0    0  0.19342377353E+02  0.10632920640E+02  0.21851614816E+02  0.31059292218E+02  0.00000000000E+00 0.  1.
</event>
<event>
 7    1  0.2932676E-013  0.7246157E+02  0.7816164E-02  0.1226708E+00
        -11   -1    0    0    0    0  0.00000000000E+00  0.00000000000E+00  0.45593999997E+02  0.45594000000E+02  0.51100000000E-03 0. -1.
         11   -1    0    0    0    0 -0.00000000000E+00 -0.00000000000E+00 -0.45593999997E+02  0.45594000000E+02  0.51100000000E-03 0.  1.
    9900012    2    1    2    0    0 -0.16979695666E+02  0.49436557412E+01 -0.61586893137E+01  0.72461568117E+02  0.69999997164E+02 0.  0.
         12    1    1    2    0    0  0.16979695666E+02 -0.49436557412E+01  0.61586893137E+01  0.18726431883E+02  0.00000000000E+00 0. -1.
         11    1    3    3    0    0 -0.13911817173E+02  0.76444681578E+01  0.34888014010E+01  0.16252639353E+02  0.51100000000E-03 0. -1.
        -11    1    3    3    0    0 -0.27177817866E+02 -0.12197451186E+01  0.54194615121E+01  0.27739721077E+02  0.51100000000E-03 0.  1.
         12    1    3    3    0    0  0.24109939373E+02 -0.14810672979E+01 -0.15066952227E+02  0.28469207687E+02  0.00000000000E+00 0. -1.
</event>
<event>
 7    1  0.2932676E-013  0.7246162E+02  0.7816164E-02  0.1226708E+00
        -11   -1    0    0    0    0  0.00000000000E+00  0.00000000000E+00  0.45593999997E+02  0.45594000000E+02  0.51100000000E-03 0.  1.
         11   -1    0    0    0    0 -0.00000000000E+00 -0.00000000000E+00 -0.45593999997E+02  0.45594000000E+02  0.51100000000E-03 0. -1.
    9900012    2    1    2    0    0 -0.10348055817E+02 -0.14524484380E+02  0.57126552983E+01  0.72461619243E+02  0.70000063765E+02 0.  0.
         12    1    1    2    0    0  0.10348055817E+02  0.14524484380E+02 -0.57126552983E+01  0.18726380757E+02  0.00000000000E+00 0. -1.
         11    1    3    3    0    0  0.15513194303E+02  0.37229551831E+01 -0.81981044557E+01  0.17936792068E+02  0.51100000000E-03 0. -1.
        -11    1    3    3    0    0  0.51261790540E+01  0.70071370654E+01  0.11591513780E+02  0.14482433274E+02  0.51100000000E-03 0.  1.
         12    1    3    3    0    0 -0.30987429173E+02 -0.25254576629E+02  0.23192459737E+01  0.40042393901E+02  0.00000000000E+00 0. -1.
</event>
<event>
 7    1  0.2932676E-013  0.7246119E+02  0.7816164E-02  0.1226709E+00
        -11   -1    0    0    0    0  0.00000000000E+00  0.00000000000E+00  0.45593999997E+02  0.45594000000E+02  0.51100000000E-03 0. -1.
         11   -1    0    0    0    0 -0.00000000000E+00 -0.00000000000E+00 -0.45593999997E+02  0.45594000000E+02  0.51100000000E-03 0.  1.
    9900012    2    1    2    0    0  0.16912760276E+02  0.77993128648E+01  0.19551357572E+01  0.72461193087E+02  0.69999508616E+02 0.  0.
         12    1    1    2    0    0 -0.16912760276E+02 -0.77993128648E+01 -0.19551357572E+01  0.18726806913E+02  0.00000000000E+00 0. -1.
         11    1    3    3    0    0 -0.85857422606E-01 -0.30874951300E+01  0.93944758886E+01  0.98891948690E+01  0.51100000000E-03 0. -1.
        -11    1    3    3    0    0  0.11763245959E+02  0.21871146161E+02  0.20432921527E+02  0.32159373008E+02  0.51100000000E-03 0.  1.
        -12    1    3    3    0    0  0.52353717401E+01 -0.10984338166E+02 -0.27872261659E+02  0.30412625210E+02  0.00000000000E+00 0.  1.
</event>
<event>
 7    1  0.2932676E-013  0.7246095E+02  0.7816164E-02  0.1226710E+00
        -11   -1    0    0    0    0  0.00000000000E+00  0.00000000000E+00  0.45593999997E+02  0.45594000000E+02  0.51100000000E-03 0.  1.
         11   -1    0    0    0    0 -0.00000000000E+00 -0.00000000000E+00 -0.45593999997E+02  0.45594000000E+02  0.51100000000E-03 0. -1.
    9900012    2    1    2    0    0  0.11444642434E+02 -0.74722319113E+01  0.12801892246E+02  0.72460946435E+02  0.69999187302E+02 0.  0.
         12    1    1    2    0    0 -0.11444642434E+02  0.74722319113E+01 -0.12801892246E+02  0.18727053565E+02  0.00000000000E+00 0. -1.
         11    1    3    3    0    0 -0.28068029223E+00 -0.35359274380E+01 -0.12169560286E+02  0.12675952117E+02  0.51100000000E-03 0. -1.
        -11    1    3    3    0    0 -0.16100187556E+02  0.89471326745E+01 -0.25342033646E+01  0.18592724636E+02  0.51100000000E-03 0.  1.
        -12    1    3    3    0    0  0.27825510282E+02 -0.12883437148E+02  0.27505655896E+02  0.41192269681E+02  0.00000000000E+00 0.  1.
</event>
<event>
 7    1  0.2932676E-013  0.7246165E+02  0.7816164E-02  0.1226708E+00
        -11   -1    0    0    0    0  0.00000000000E+00  0.00000000000E+00  0.45593999997E+02  0.45594000000E+02  0.51100000000E-03 0.  1.
         11   -1    0    0    0    0 -0.00000000000E+00 -0.00000000000E+00 -0.45593999997E+02  0.45594000000E+02  0.51100000000E-03 0. -1.
    9900012    2    1    2    0    0 -0.18038063448E+01 -0.40349505987E+00  0.18634901005E+02  0.72461653291E+02  0.70000108118E+02 0.  0.
         12    1    1    2    0    0  0.18038063448E+01  0.40349505987E+00 -0.18634901005E+02  0.18726346709E+02  0.00000000000E+00 0. -1.
         11    1    3    3    0    0  0.18086046784E+02 -0.10114523588E+02 -0.18582346034E+00  0.20723011516E+02  0.51100000000E-03 0. -1.
        -11    1    3    3    0    0  0.15333306044E+01 -0.11028518170E+02  0.18882679213E+02  0.21921106046E+02  0.51100000000E-03 0.  1.
        -12    1    3    3    0    0 -0.21423183733E+02  0.20739546699E+02 -0.61954747148E-01  0.29817535728E+02  0.00000000000E+00 0.  1.
</event>
<event>
 7    1  0.2932676E-013  0.7246156E+02  0.7816164E-02  0.1226708E+00
        -11   -1    0    0    0    0  0.00000000000E+00  0.00000000000E+00  0.45593999997E+02  0.45594000000E+02  0.51100000000E-03 0. -1.
         11   -1    0    0    0    0 -0.00000000000E+00 -0.00000000000E+00 -0.45593999997E+02  0.45594000000E+02  0.51100000000E-03 0.  1.
    9900012    2    1    2    0    0 -0.22453286512E+01  0.13960770720E+01 -0.18538855736E+02  0.72461556025E+02  0.69999981412E+02 0.  0.
         12    1    1    2    0    0  0.22453286512E+01 -0.13960770720E+01  0.18538855736E+02  0.18726443975E+02  0.00000000000E+00 0. -1.
         11    1    3    3    0    0  0.80864001341E+01 -0.13657605173E+01 -0.26768692192E+02  0.27996750720E+02  0.51100000000E-03 0. -1.
        -11    1    3    3    0    0 -0.19270015296E+02 -0.87514397244E+01 -0.80227664719E+01  0.22633735195E+02  0.51100000000E-03 0.  1.
         12    1    3    3    0    0  0.89382865103E+01  0.11513277314E+02  0.16252602928E+02  0.21831070111E+02  0.00000000000E+00 0. -1.
</event>
<event>
 7    1  0.3119672E-013  0.7246160E+02  0.7816164E-02  0.1226708E+00
        -11   -1    0    0    0    0  0.00000000000E+00  0.00000000000E+00  0.45593999997E+02  0.45594000000E+02  0.51100000000E-03 0. -1.
         11   -1    0    0    0    0 -0.00000000000E+00 -0.00000000000E+00 -0.45593999997E+02  0.45594000000E+02  0.51100000000E-03 0.  1.
    9900012    2    1    2    0    0  0.82645462082E+01  0.48388349480E+01 -0.16092269253E+02  0.72461596784E+02  0.70000034508E+02 0.  0.
         12    1    1    2    0    0 -0.82645462082E+01 -0.48388349480E+01  0.16092269253E+02  0.18726403216E+02  0.00000000000E+00 0. -1.
         11    1    3    3    0    0 -0.11970312479E+02 -0.87111723684E+01  0.10675574352E+02  0.18252144885E+02  0.51100000000E-03 0.  1.
        -11    1    3    3    0    0  0.16385088023E+02  0.11570961710E+02  0.61715824233E+01  0.20986821920E+02  0.51100000000E-03 0. -1.
        -12    1    3    3    0    0  0.38497706643E+01  0.19790456066E+01 -0.32939426029E+02  0.33222629980E+02  0.00000000000E+00 0.  1.
</event>
<event>
 7    1  0.2932676E-013  0.7246104E+02  0.7816164E-02  0.1226709E+00
        -11   -1    0    0    0    0  0.00000000000E+00  0.00000000000E+00  0.45593999997E+02  0.45594000000E+02  0.51100000000E-03 0.  1.
         11   -1    0    0    0    0 -0.00000000000E+00 -0.00000000000E+00 -0.45593999997E+02  0.45594000000E+02  0.51100000000E-03 0. -1.
    9900012    2    1    2    0    0 -0.66598415519E+01  0.32070361876E+01  0.17206409246E+02  0.72461038427E+02  0.69999307140E+02 0.  0.
         12    1    1    2    0    0  0.66598415519E+01 -0.32070361876E+01 -0.17206409246E+02  0.18726961573E+02  0.00000000000E+00 0. -1.
         11    1    3    3    0    0 -0.10351901090E+02  0.65246958555E+01  0.30651847945E+01  0.12614629216E+02  0.51100000000E-03 0. -1.
        -11    1    3    3    0    0 -0.11744815427E+02 -0.80889174605E+01  0.32439393539E+02  0.35435653353E+02  0.51100000000E-03 0.  1.
         12    1    3    3    0    0  0.15436874964E+02  0.47712577926E+01 -0.18298169087E+02  0.24410755858E+02  0.00000000000E+00 0. -1.
</event>
<event>
 7    1  0.2932676E-013  0.7246159E+02  0.7816164E-02  0.1226708E+00
        -11   -1    0    0    0    0  0.00000000000E+00  0.00000000000E+00  0.45593999997E+02  0.45594000000E+02  0.51100000000E-03 0. -1.
         11   -1    0    0    0    0 -0.00000000000E+00 -0.00000000000E+00 -0.45593999997E+02  0.45594000000E+02  0.51100000000E-03 0.  1.
    9900012    2    1    2    0    0 -0.14145694484E+02  0.64620044460E+01  0.10431702559E+02  0.72461585710E+02  0.70000020081E+02 0.  0.
         12    1    1    2    0    0  0.14145694484E+02 -0.64620044460E+01 -0.10431702559E+02  0.18726414290E+02  0.00000000000E+00 0. -1.
         11    1    3    3    0    0 -0.90087128633E+01 -0.67016545024E+01 -0.11143606858E+02  0.15819262138E+02  0.51100000000E-03 0. -1.
        -11    1    3    3    0    0  0.13010304819E+02  0.22241057353E+02 -0.16281106510E+01  0.25818276632E+02  0.51100000000E-03 0.  1.
         12    1    3    3    0    0 -0.18147286440E+02 -0.90773984050E+01  0.23203420067E+02  0.30824046940E+02  0.00000000000E+00 0. -1.
</event>
<event>
 7    1  0.2932676E-013  0.7246153E+02  0.7816164E-02  0.1226708E+00
        -11   -1    0    0    0    0  0.00000000000E+00  0.00000000000E+00  0.45593999997E+02  0.45594000000E+02  0.51100000000E-03 0.  1.
         11   -1    0    0    0    0 -0.00000000000E+00 -0.00000000000E+00 -0.45593999997E+02  0.45594000000E+02  0.51100000000E-03 0. -1.
    9900012    2    1    2    0    0  0.95150230217E+01 -0.91951556810E+01  0.13251198517E+02  0.72461526407E+02  0.69999942828E+02 0.  0.
         12    1    1    2    0    0 -0.95150230217E+01  0.91951556810E+01 -0.13251198517E+02  0.18726473593E+02  0.00000000000E+00 0. -1.
         11    1    3    3    0    0 -0.83714408677E+01 -0.15437949538E+02  0.23828532932E+02  0.29600849483E+02  0.51100000000E-03 0. -1.
        -11    1    3    3    0    0  0.12118827952E+01 -0.14700531166E+02 -0.42917268835E+01  0.15362070055E+02  0.51100000000E-03 0.  1.
         12    1    3    3    0    0  0.16674581094E+02  0.20943325023E+02 -0.62856075319E+01  0.27498606869E+02  0.00000000000E+00 0. -1.
</event>
<event>
 7    1  0.2932676E-013  0.7246154E+02  0.7816164E-02  0.1226708E+00
        -11   -1    0    0    0    0  0.00000000000E+00  0.00000000000E+00  0.45593999997E+02  0.45594000000E+02  0.51100000000E-03 0.  1.
         11   -1    0    0    0    0 -0.00000000000E+00 -0.00000000000E+00 -0.45593999997E+02  0.45594000000E+02  0.51100000000E-03 0. -1.
    9900012    2    1    2    0    0  0.12826366947E+02 -0.13619965883E+02 -0.81308530522E+00  0.72461540980E+02  0.69999961812E+02 0.  0.
         12    1    1    2    0    0 -0.12826366947E+02  0.13619965883E+02  0.81308530522E+00  0.18726459020E+02  0.00000000000E+00 0. -1.
         11    1    3    3    0    0  0.88336793763E+01  0.37248401589E+01  0.63022449407E+01  0.11472864380E+02  0.51100000000E-03 0. -1.
        -11    1    3    3    0    0  0.11443515819E+00  0.21454204982E+02 -0.65309106885E+00  0.21464448164E+02  0.51100000000E-03 0.  1.
         12    1    3    3    0    0  0.38782524129E+01 -0.38799011024E+02 -0.64622391771E+01  0.39524228435E+02  0.00000000000E+00 0. -1.
</event>
<event>
 7    1  0.2932676E-013  0.7246168E+02  0.7816164E-02  0.1226708E+00
        -11   -1    0    0    0    0  0.00000000000E+00  0.00000000000E+00  0.45593999997E+02  0.45594000000E+02  0.51100000000E-03 0. -1.
         11   -1    0    0    0    0 -0.00000000000E+00 -0.00000000000E+00 -0.45593999997E+02  0.45594000000E+02  0.51100000000E-03 0.  1.
    9900012    2    1    2    0    0  0.67804195799E+01  0.33389135078E+01 -0.17133372191E+02  0.72461684940E+02  0.70000149347E+02 0.  0.
         12    1    1    2    0    0 -0.67804195799E+01 -0.33389135078E+01  0.17133372191E+02  0.18726315060E+02  0.00000000000E+00 0. -1.
         11    1    3    3    0    0  0.92921118348E+01 -0.18736894466E+02  0.41966571047E-01  0.20914500186E+02  0.51100000000E-03 0. -1.
        -11    1    3    3    0    0 -0.99674773082E+01  0.88846680032E+01  0.12459851408E+02  0.18262963253E+02  0.51100000000E-03 0.  1.
        -12    1    3    3    0    0  0.74557850533E+01  0.13191139970E+02 -0.29635190170E+02  0.33284221501E+02  0.00000000000E+00 0.  1.
</event>
<event>
 7    1  0.2932676E-013  0.7246162E+02  0.7816164E-02  0.1226708E+00
        -11   -1    0    0    0    0  0.00000000000E+00  0.00000000000E+00  0.45593999997E+02  0.45594000000E+02  0.51100000000E-03 0. -1.
         11   -1    0    0    0    0 -0.00000000000E+00 -0.00000000000E+00 -0.45593999997E+02  0.45594000000E+02  0.51100000000E-03 0.  1.
    9900012    2    1    2    0    0 -0.68905303436E+01 -0.71462309844E+00 -0.17397911747E+02  0.72461616801E+02  0.70000060583E+02 0.  0.
         12    1    1    2    0    0  0.68905303436E+01  0.71462309844E+00  0.17397911747E+02  0.18726383199E+02  0.00000000000E+00 0. -1.
         11    1    3    3    0    0 -0.76589625132E+01 -0.20088242864E+02 -0.26936799067E+02  0.34464305483E+02  0.51100000000E-03 0. -1.
        -11    1    3    3    0    0  0.29381596261E+01  0.24878925203E+01 -0.10804635841E+02  0.11470071800E+02  0.51100000000E-03 0.  1.
         12    1    3    3    0    0 -0.21697274565E+01  0.16885727246E+02  0.20343523161E+02  0.26527239518E+02  0.00000000000E+00 0. -1.
</event>
<event>
 7    1  0.2932676E-013  0.7246158E+02  0.7816164E-02  0.1226708E+00
        -11   -1    0    0    0    0  0.00000000000E+00  0.00000000000E+00  0.45593999997E+02  0.45594000000E+02  0.51100000000E-03 0.  1.
         11   -1    0    0    0    0 -0.00000000000E+00 -0.00000000000E+00 -0.45593999997E+02  0.45594000000E+02  0.51100000000E-03 0. -1.
    9900012    2    1    2    0    0 -0.16070763000E+02 -0.37202933330E+01  0.88639109069E+01  0.72461576891E+02  0.70000008594E+02 0.  0.
         12    1    1    2    0    0  0.16070763000E+02  0.37202933330E+01 -0.88639109069E+01  0.18726423109E+02  0.00000000000E+00 0. -1.
         11    1    3    3    0    0 -0.10092787014E+02 -0.11154586110E+02  0.25107621465E+02  0.29269127026E+02  0.51100000000E-03 0.  1.
        -11    1    3    3    0    0 -0.35179164114E+01 -0.76172032092E+01 -0.24466923630E+02  0.25865573119E+02  0.51100000000E-03 0. -1.
         12    1    3    3    0    0 -0.24600595748E+01  0.15051495986E+02  0.82232130723E+01  0.17326876746E+02  0.00000000000E+00 0. -1.
</event>
<event>
 7    1  0.2932676E-013  0.7246158E+02  0.7816164E-02  0.1226708E+00
        -11   -1    0    0    0    0  0.00000000000E+00  0.00000000000E+00  0.45593999997E+02  0.45594000000E+02  0.51100000000E-03 0.  1.
         11   -1    0    0    0    0 -0.00000000000E+00 -0.00000000000E+00 -0.45593999997E+02  0.45594000000E+02  0.51100000000E-03 0. -1.
    9900012    2    1    2    0    0  0.70632227638E+01  0.97254432729E+01  0.14359857903E+02  0.72461577981E+02  0.70000010013E+02 0.  0.
         12    1    1    2    0    0 -0.70632227638E+01 -0.97254432729E+01 -0.14359857903E+02  0.18726422019E+02  0.00000000000E+00 0. -1.
         11    1    3    3    0    0  0.34002835435E+02 -0.22762799105E+01  0.92644133208E+01  0.35315770164E+02  0.51100000000E-03 0. -1.
        -11    1    3    3    0    0 -0.24645127322E+01  0.10370532528E+02  0.66560580432E+01  0.12566816496E+02  0.51100000000E-03 0.  1.
        -12    1    3    3    0    0 -0.24475099939E+02  0.16311906554E+01 -0.15606134614E+01  0.24578991320E+02  0.00000000000E+00 0.  1.
</event>
<event>
 7    1  0.2932676E-013  0.7246154E+02  0.7816164E-02  0.1226708E+00
        -11   -1    0    0    0    0  0.00000000000E+00  0.00000000000E+00  0.45593999997E+02  0.45594000000E+02  0.51100000000E-03 0.  1.
         11   -1    0    0    0    0 -0.00000000000E+00 -0.00000000000E+00 -0.45593999997E+02  0.45594000000E+02  0.51100000000E-03 0. -1.
    9900012    2    1    2    0    0 -0.11626039385E+02 -0.14658049191E+02  0.81056651771E+00  0.72461542354E+02  0.69999963603E+02 0.  0.
         12    1    1    2    0    0  0.11626039385E+02  0.14658049191E+02 -0.81056651771E+00  0.18726457646E+02  0.00000000000E+00 0. -1.
         11    1    3    3    0    0  0.36861720587E+01  0.34782968639E+01 -0.12272341789E+02  0.13277680022E+02  0.51100000000E-03 0. -1.
        -11    1    3    3    0    0  0.10078281592E+02 -0.11942752431E+02  0.25765561958E+02  0.30134121503E+02  0.51100000000E-03 0.  1.
         12    1    3    3    0    0 -0.25390493036E+02 -0.61935936239E+01 -0.12682653651E+02  0.29049740829E+02  0.00000000000E+00 0. -1.
</event>
<event>
 7    1  0.2932676E-013  0.7246162E+02  0.7816164E-02  0.1226708E+00
        -11   -1    0    0    0    0  0.00000000000E+00  0.00000000000E+00  0.45593999997E+02  0.45594000000E+02  0.51100000000E-03 0. -1.
         11   -1    0    0    0    0 -0.00000000000E+00 -0.00000000000E+00 -0.45593999997E+02  0.45594000000E+02  0.51100000000E-03 0.  1.
    9900012    2    1    2    0    0 -0.15450401792E+02  0.94575061291E+01 -0.47453033872E+01  0.72461621761E+02  0.70000067045E+02 0.  0.
         12    1    1    2    0    0  0.15450401792E+02 -0.94575061291E+01  0.47453033872E+01  0.18726378239E+02  0.00000000000E+00 0. -1.
         11    1    3    3    0    0  0.49409471670E+01  0.93912717604E+01  0.54333962921E+01  0.11921859742E+02  0.51100000000E-03 0. -1.
        -11    1    3    3    0    0  0.19595921587E+01  0.22346923263E+02 -0.17128432254E+02  0.28224247953E+02  0.51100000000E-03 0.  1.
        -12    1    3    3    0    0 -0.22350941117E+02 -0.22280688895E+02  0.69497325752E+01  0.32315514066E+02  0.00000000000E+00 0.  1.
</event>
<event>
 7    1  0.2932676E-013  0.7246159E+02  0.7816164E-02  0.1226708E+00
        -11   -1    0    0    0    0  0.00000000000E+00  0.00000000000E+00  0.45593999997E+02  0.45594000000E+02  0.51100000000E-03 0.  1.
         11   -1    0    0    0    0 -0.00000000000E+00 -0.00000000000E+00 -0.45593999997E+02  0.45594000000E+02  0.51100000000E-03 0. -1.
    9900012    2    1    2    0    0  0.12757607387E+02  0.64100721119E+01  0.12117458602E+02  0.72461591543E+02  0.70000027681E+02 0.  0.
         12    1    1    2    0    0 -0.12757607387E+02 -0.64100721119E+01 -0.12117458602E+02  0.18726408457E+02  0.00000000000E+00 0. -1.
         11    1    3    3    0    0 -0.92884554422E+01  0.28540932170E+02 -0.56366571748E+01  0.30539026147E+02  0.51100000000E-03 0. -1.
        -11    1    3    3    0    0  0.28292807065E+01 -0.14893340308E+02  0.14782744138E+02  0.21174180961E+02  0.51100000000E-03 0.  1.
        -12    1    3    3    0    0  0.19216782122E+02 -0.72375197504E+01  0.29713716386E+01  0.20748384436E+02  0.00000000000E+00 0.  1.
</event>
<event>
 7    1  0.2932676E-013  0.7246158E+02  0.7816164E-02  0.1226708E+00
        -11   -1    0    0    0    0  0.00000000000E+00  0.00000000000E+00  0.45593999997E+02  0.45594000000E+02  0.51100000000E-03 0.  1.
         11   -1    0    0    0    0 -0.00000000000E+00 -0.00000000000E+00 -0.45593999997E+02  0.45594000000E+02  0.51100000000E-03 0. -1.
    9900012    2    1    2    0    0  0.79459610322E+00  0.15718237419E+02  0.10148131955E+02  0.72461576083E+02  0.70000007541E+02 0.  0.
         12    1    1    2    0    0 -0.79459610322E+00 -0.15718237419E+02 -0.10148131955E+02  0.18726423917E+02  0.00000000000E+00 0. -1.
         11    1    3    3    0    0  0.22483046071E+01  0.13070061187E+02 -0.11441281030E+02  0.17515258631E+02  0.51100000000E-03 0. -1.
        -11    1    3    3    0    0 -0.10441091530E+02  0.41013458515E+01 -0.14154808872E+02  0.18060898222E+02  0.51100000000E-03 0.  1.
        -12    1    3    3    0    0  0.89873830257E+01 -0.14531696191E+01  0.35744221858E+02  0.36885419230E+02  0.00000000000E+00 0.  1.
</event>
<event>
 7    1  0.2932676E-013  0.7246151E+02  0.7816164E-02  0.1226708E+00
        -11   -1    0    0    0    0  0.00000000000E+00  0.00000000000E+00  0.45593999997E+02  0.45594000000E+02  0.51100000000E-03 0.  1.
         11   -1    0    0    0    0 -0.00000000000E+00 -0.00000000000E+00 -0.45593999997E+02  0.45594000000E+02  0.51100000000E-03 0. -1.
    9900012    2    1    2    0    0  0.15825501684E+02  0.20835827220E+01  0.97925317725E+01  0.72461508096E+02  0.69999918975E+02 0.  0.
         12    1    1    2    0    0 -0.15825501684E+02 -0.20835827220E+01 -0.97925317725E+01  0.18726491904E+02  0.00000000000E+00 0. -1.
         11    1    3    3    0    0  0.29810068518E+00 -0.21583169205E+02  0.28667916912E+01  0.21774768697E+02  0.51100000000E-03 0. -1.
        -11    1    3    3    0    0  0.14976873702E+02 -0.74360815632E+01  0.99081462682E+01  0.19436394152E+02  0.51100000000E-03 0.  1.
        -12    1    3    3    0    0  0.55052729743E+00  0.31102833490E+02 -0.29824061869E+01  0.31250345247E+02  0.00000000000E+00 0.  1.
</event>
<event>
 7    1  0.2932676E-013  0.7246155E+02  0.7816164E-02  0.1226708E+00
        -11   -1    0    0    0    0  0.00000000000E+00  0.00000000000E+00  0.45593999997E+02  0.45594000000E+02  0.51100000000E-03 0.  1.
         11   -1    0    0    0    0 -0.00000000000E+00 -0.00000000000E+00 -0.45593999997E+02  0.45594000000E+02  0.51100000000E-03 0. -1.
    9900012    2    1    2    0    0 -0.18151318885E+02 -0.36456838827E+01 -0.28139982458E+01  0.72461548805E+02  0.69999972006E+02 0.  0.
         12    1    1    2    0    0  0.18151318885E+02  0.36456838827E+01  0.28139982458E+01  0.18726451195E+02  0.00000000000E+00 0. -1.
         11    1    3    3    0    0  0.11227490339E+02 -0.80388186912E+01 -0.22483363850E+02  0.26385238213E+02  0.51100000000E-03 0. -1.
        -11    1    3    3    0    0 -0.90341042943E+01  0.12358260632E+01 -0.76260385617E+01  0.11886915953E+02  0.51100000000E-03 0.  1.
        -12    1    3    3    0    0 -0.20344704930E+02  0.31573087454E+01  0.27295404166E+02  0.34189394639E+02  0.00000000000E+00 0.  1.
</event>
<event>
 7    1  0.2932676E-013  0.7246162E+02  0.7816164E-02  0.1226708E+00
        -11   -1    0    0    0    0  0.00000000000E+00  0.00000000000E+00  0.45593999997E+02  0.45594000000E+02  0.51100000000E-03 0. -1.
         11   -1    0    0    0    0 -0.00000000000E+00 -0.00000000000E+00 -0.45593999997E+02  0.45594000000E+02  0.51100000000E-03 0.  1.
    9900012    2    1    2    0    0  0.20339682649E+01 -0.32246666703E+01 -0.18334173323E+02  0.72461617181E+02  0.70000061079E+02 0.  0.
         12    1    1    2    0    0 -0.20339682649E+01  0.32246666703E+01  0.18334173323E+02  0.18726382819E+02  0.00000000000E+00 0. -1.
         11    1    3    3    0    0  0.29217719546E+02 -0.10966863452E+02 -0.13919581196E+02  0.34171654487E+02  0.51100000000E-03 0. -1.
        -11    1    3    3    0    0 -0.19621928136E+01 -0.46107716788E+01 -0.85427823620E+01  0.99039662185E+01  0.51100000000E-03 0.  1.
        -12    1    3    3    0    0 -0.25221558468E+02  0.12352968460E+02  0.41281902348E+01  0.28385996476E+02  0.00000000000E+00 0.  1.
</event>
<event>
 7    1  0.2932676E-013  0.7246154E+02  0.7816164E-02  0.1226708E+00
        -11   -1    0    0    0    0  0.00000000000E+00  0.00000000000E+00  0.45593999997E+02  0.45594000000E+02  0.51100000000E-03 0.  1.
         11   -1    0    0    0    0 -0.00000000000E+00 -0.00000000000E+00 -0.45593999997E+02  0.45594000000E+02  0.51100000000E-03 0. -1.
    9900012    2    1    2    0    0 -0.13725520198E+02  0.63536899084E+00  0.12723472324E+02  0.72461538870E+02  0.69999959064E+02 0.  0.
         12    1    1    2    0    0  0.13725520198E+02 -0.63536899084E+00 -0.12723472324E+02  0.18726461130E+02  0.00000000000E+00 0. -1.
         11    1    3    3    0    0 -0.62190236892E+01 -0.31448421395E+01 -0.84211798094E+01  0.10930807718E+02  0.51100000000E-03 0. -1.
        -11    1    3    3    0    0 -0.11114205693E+02 -0.23353786799E+02 -0.16406590260E+01  0.25915568456E+02  0.51100000000E-03 0.  1.
        -12    1    3    3    0    0  0.36077091842E+01  0.27133997930E+02  0.22785311160E+02  0.35615162696E+02  0.00000000000E+00 0.  1.
</event>
<event>
 7    1  0.2932676E-013  0.7246164E+02  0.7816164E-02  0.1226708E+00
        -11   -1    0    0    0    0  0.00000000000E+00  0.00000000000E+00  0.45593999997E+02  0.45594000000E+02  0.51100000000E-03 0.  1.
         11   -1    0    0    0    0 -0.00000000000E+00 -0.00000000000E+00 -0.45593999997E+02  0.45594000000E+02  0.51100000000E-03 0. -1.
    9900012    2    1    2    0    0  0.11510785505E+02  0.10856916881E+02  0.10015269128E+02  0.72461643098E+02  0.70000094840E+02 0.  0.
         12    1    1    2    0    0 -0.11510785505E+02 -0.10856916881E+02 -0.10015269128E+02  0.18726356902E+02  0.00000000000E+00 0. -1.
         11    1    3    3    0    0 -0.12002351576E+01  0.24567766403E+02 -0.95472903375E+00  0.24615588927E+02  0.51100000000E-03 0. -1.
        -11    1    3    3    0    0  0.17331671577E+02  0.52604122712E+01  0.19433017552E+02  0.26565032436E+02  0.51100000000E-03 0.  1.
        -12    1    3    3    0    0 -0.46206509140E+01 -0.18971261793E+02 -0.84630193896E+01  0.21281021734E+02  0.00000000000E+00 0.  1.
</event>
<event>
 7    1  0.2932676E-013  0.7246160E+02  0.7816164E-02  0.1226708E+00
        -11   -1    0    0    0    0  0.00000000000E+00  0.00000000000E+00  0.45593999997E+02  0.45594000000E+02  0.51100000000E-03 0.  1.
         11   -1    0    0    0    0 -0.00000000000E+00 -0.00000000000E+00 -0.45593999997E+02  0.45594000000E+02  0.51100000000E-03 0. -1.
    9900012    2    1    2    0    0  0.13538803035E+02  0.16268181349E+01  0.12834803144E+02  0.72461604281E+02  0.70000044274E+02 0.  0.
         12    1    1    2    0    0 -0.13538803035E+02 -0.16268181349E+01 -0.12834803144E+02  0.18726395719E+02  0.00000000000E+00 0. -1.
         11    1    3    3    0    0 -0.26897866591E+01 -0.34015475428E+01  0.31787339485E+00  0.43481630275E+01  0.51100000000E-03 0. -1.
        -11    1    3    3    0    0 -0.17830817394E+02  0.24827485422E+01 -0.15641065165E+02  0.23848375396E+02  0.51100000000E-03 0.  1.
         12    1    3    3    0    0  0.34059407088E+02  0.25456171355E+01  0.28157994914E+02  0.44265065858E+02  0.00000000000E+00 0. -1.
</event>
<event>
 7    1  0.2932676E-013  0.7246156E+02  0.7816164E-02  0.1226708E+00
        -11   -1    0    0    0    0  0.00000000000E+00  0.00000000000E+00  0.45593999997E+02  0.45594000000E+02  0.51100000000E-03 0.  1.
         11   -1    0    0    0    0 -0.00000000000E+00 -0.00000000000E+00 -0.45593999997E+02  0.45594000000E+02  0.51100000000E-03 0. -1.
    9900012    2    1    2    0    0 -0.59463163462E+01  0.17548263982E+02 -0.27164868131E+01  0.72461560203E+02  0.69999986854E+02 0.  0.
         12    1    1    2    0    0  0.59463163462E+01 -0.17548263982E+02  0.27164868131E+01  0.18726439797E+02  0.00000000000E+00 0. -1.
         11    1    3    3    0    0  0.63177922703E+01  0.90252392927E+01 -0.21536222799E+02  0.24190459611E+02  0.51100000000E-03 0. -1.
        -11    1    3    3    0    0 -0.10867689214E+02  0.25339525529E+02  0.11315368979E+02  0.29803285025E+02  0.51100000000E-03 0.  1.
        -12    1    3    3    0    0 -0.13964194024E+01 -0.16816500840E+02  0.75043670070E+01  0.18467815567E+02  0.00000000000E+00 0.  1.
</event>
<event>
 7    1  0.2932676E-013  0.7246158E+02  0.7816164E-02  0.1226708E+00
        -11   -1    0    0    0    0  0.00000000000E+00  0.00000000000E+00  0.45593999997E+02  0.45594000000E+02  0.51100000000E-03 0.  1.
         11   -1    0    0    0    0 -0.00000000000E+00 -0.00000000000E+00 -0.45593999997E+02  0.45594000000E+02  0.51100000000E-03 0. -1.
    9900012    2    1    2    0    0 -0.10661785580E+01 -0.78563476945E+01  0.16965254482E+02  0.72461580282E+02  0.70000013011E+02 0.  0.
         12    1    1    2    0    0  0.10661785580E+01  0.78563476945E+01 -0.16965254482E+02  0.18726419718E+02  0.00000000000E+00 0. -1.
         11    1    3    3    0    0 -0.11778850474E+02  0.45205395633E+01  0.11561864048E+02  0.17112956991E+02  0.51100000000E-03 0. -1.
        -11    1    3    3    0    0  0.75909934533E+01 -0.41425995108E+01  0.28947451676E+02  0.30211575118E+02  0.51100000000E-03 0.  1.
         12    1    3    3    0    0  0.31216784626E+01 -0.82342877469E+01 -0.23544061242E+02  0.25137048174E+02  0.00000000000E+00 0. -1.
</event>
<event>
 7    1  0.2932676E-013  0.7246187E+02  0.7816164E-02  0.1226707E+00
        -11   -1    0    0    0    0  0.00000000000E+00  0.00000000000E+00  0.45593999997E+02  0.45594000000E+02  0.51100000000E-03 0. -1.
         11   -1    0    0    0    0 -0.00000000000E+00 -0.00000000000E+00 -0.45593999997E+02  0.45594000000E+02  0.51100000000E-03 0.  1.
    9900012    2    1    2    0    0 -0.26873544049E+01 -0.14274728935E+02 -0.11818553584E+02  0.72461869362E+02  0.70000389590E+02 0.  0.
         12    1    1    2    0    0  0.26873544049E+01  0.14274728935E+02  0.11818553584E+02  0.18726130638E+02  0.00000000000E+00 0. -1.
         11    1    3    3    0    0  0.81460288280E+01 -0.28195434020E+01  0.24988579062E+02  0.26433628099E+02  0.51100000000E-03 0. -1.
        -11    1    3    3    0    0  0.29361174694E+01  0.41605853186E+01 -0.15167468206E+02  0.15999479617E+02  0.51100000000E-03 0.  1.
        -12    1    3    3    0    0 -0.13769500702E+02 -0.15615770852E+02 -0.21639664440E+02  0.30028761646E+02  0.00000000000E+00 0.  1.
</event>
<event>
 7    1  0.2932676E-013  0.7246157E+02  0.7816164E-02  0.1226708E+00
        -11   -1    0    0    0    0  0.00000000000E+00  0.00000000000E+00  0.45593999997E+02  0.45594000000E+02  0.51100000000E-03 0.  1.
         11   -1    0    0    0    0 -0.00000000000E+00 -0.00000000000E+00 -0.45593999997E+02  0.45594000000E+02  0.51100000000E-03 0. -1.
    9900012    2    1    2    0    0 -0.14408846281E+02 -0.80107829327E+01  0.88820987230E+01  0.72461570227E+02  0.69999999912E+02 0.  0.
         12    1    1    2    0    0  0.14408846281E+02  0.80107829327E+01 -0.88820987230E+01  0.18726429773E+02  0.00000000000E+00 0. -1.
         11    1    3    3    0    0  0.79820748531E+01  0.22386366432E+02 -0.20454993779E+01  0.23854705803E+02  0.51100000000E-03 0. -1.
        -11    1    3    3    0    0  0.17713064366E+01 -0.20641431117E+01 -0.68307661995E+01  0.73523860353E+01  0.51100000000E-03 0.  1.
        -12    1    3    3    0    0 -0.24162227570E+02 -0.28333006253E+02  0.17758364300E+02  0.41254478388E+02  0.00000000000E+00 0.  1.
</event>
<event>
 7    1  0.2932676E-013  0.7246155E+02  0.7816164E-02  0.1226708E+00
        -11   -1    0    0    0    0  0.00000000000E+00  0.00000000000E+00  0.45593999997E+02  0.45594000000E+02  0.51100000000E-03 0.  1.
         11   -1    0    0    0    0 -0.00000000000E+00 -0.00000000000E+00 -0.45593999997E+02  0.45594000000E+02  0.51100000000E-03 0. -1.
    9900012    2    1    2    0    0  0.18691021270E+02 -0.37177981127E+00  0.10896162909E+01  0.72461554528E+02  0.69999979462E+02 0.  0.
         12    1    1    2    0    0 -0.18691021270E+02  0.37177981127E+00 -0.10896162909E+01  0.18726445472E+02  0.00000000000E+00 0. -1.
         11    1    3    3    0    0  0.15297637467E+02  0.16204078383E+02 -0.12253663384E+02  0.25431125318E+02  0.51100000000E-03 0. -1.
        -11    1    3    3    0    0  0.17238826589E+01  0.14116774197E+02  0.25238558324E+01  0.14443854529E+02  0.51100000000E-03 0.  1.
        -12    1    3    3    0    0  0.16695011439E+01 -0.30692632391E+02  0.10819423843E+02  0.32586574681E+02  0.00000000000E+00 0.  1.
</event>
<event>
 7    1  0.2932676E-013  0.7246156E+02  0.7816164E-02  0.1226708E+00
        -11   -1    0    0    0    0  0.00000000000E+00  0.00000000000E+00  0.45593999997E+02  0.45594000000E+02  0.51100000000E-03 0.  1.
         11   -1    0    0    0    0 -0.00000000000E+00 -0.00000000000E+00 -0.45593999997E+02  0.45594000000E+02  0.51100000000E-03 0. -1.
    9900012    2    1    2    0    0  0.10054260240E+02 -0.12498729037E+02  0.96629764852E+01  0.72461561709E+02  0.69999988816E+02 0.  0.
         12    1    1    2    0    0 -0.10054260240E+02  0.12498729037E+02 -0.96629764852E+01  0.18726438291E+02  0.00000000000E+00 0. -1.
         11    1    3    3    0    0  0.32984930602E+01 -0.68884064528E+01 -0.98878159636E+01  0.12493962731E+02  0.51100000000E-03 0. -1.
        -11    1    3    3    0    0  0.16200240371E+02 -0.28006222324E+02  0.10180957498E+02  0.33918257219E+02  0.51100000000E-03 0.  1.
         12    1    3    3    0    0 -0.94444731913E+01  0.22395899741E+02  0.93698349512E+01  0.26049341759E+02  0.00000000000E+00 0. -1.
</event>
<event>
 7    1  0.2932676E-013  0.7246134E+02  0.7816164E-02  0.1226709E+00
        -11   -1    0    0    0    0  0.00000000000E+00  0.00000000000E+00  0.45593999997E+02  0.45594000000E+02  0.51100000000E-03 0.  1.
         11   -1    0    0    0    0 -0.00000000000E+00 -0.00000000000E+00 -0.45593999997E+02  0.45594000000E+02  0.51100000000E-03 0. -1.
    9900012    2    1    2    0    0  0.36132877237E+01  0.45298327617E+01  0.17807659691E+02  0.72461335143E+02  0.69999693670E+02 0.  0.
         12    1    1    2    0    0 -0.36132877237E+01 -0.45298327617E+01 -0.17807659691E+02  0.18726664857E+02  0.00000000000E+00 0. -1.
         11    1    3    3    0    0 -0.20194429967E+02  0.16024025630E+02  0.10893486735E+01  0.25802540182E+02  0.51100000000E-03 0. -1.
        -11    1    3    3    0    0  0.16272721781E+02 -0.11755754722E+02 -0.73955287669E+01  0.21393762859E+02  0.51100000000E-03 0.  1.
        -12    1    3    3    0    0  0.75349959096E+01  0.26156185428E+00  0.24113839784E+02  0.25265032102E+02  0.00000000000E+00 0.  1.
</event>
<event>
 7    1  0.2932676E-013  0.7246213E+02  0.7816164E-02  0.1226707E+00
        -11   -1    0    0    0    0  0.00000000000E+00  0.00000000000E+00  0.45593999997E+02  0.45594000000E+02  0.51100000000E-03 0.  1.
         11   -1    0    0    0    0 -0.00000000000E+00 -0.00000000000E+00 -0.45593999997E+02  0.45594000000E+02  0.51100000000E-03 0. -1.
    9900012    2    1    2    0    0 -0.16679574028E+02 -0.13302525156E+01  0.84071713657E+01  0.72462127740E+02  0.70000726173E+02 0.  0.
         12    1    1    2    0    0  0.16679574028E+02  0.13302525156E+01 -0.84071713657E+01  0.18725872260E+02  0.00000000000E+00 0. -1.
         11    1    3    3    0    0 -0.72376930074E+01 -0.41663765278E+01  0.18639015707E+02  0.20424392285E+02  0.51100000000E-03 0.  1.
        -11    1    3    3    0    0  0.53383360578E+01 -0.19676735247E+02  0.51433204924E+01  0.21026780252E+02  0.51100000000E-03 0. -1.
         12    1    3    3    0    0 -0.14780217079E+02  0.22512859259E+02 -0.15375164834E+02  0.31010955202E+02  0.00000000000E+00 0. -1.
</event>
<event>
 7    1  0.2932676E-013  0.7246157E+02  0.7816164E-02  0.1226708E+00
        -11   -1    0    0    0    0  0.00000000000E+00  0.00000000000E+00  0.45593999997E+02  0.45594000000E+02  0.51100000000E-03 0. -1.
         11   -1    0    0    0    0 -0.00000000000E+00 -0.00000000000E+00 -0.45593999997E+02  0.45594000000E+02  0.51100000000E-03 0.  1.
    9900012    2    1    2    0    0 -0.43275238133E+01  0.16973067430E+01 -0.18140309316E+02  0.72461571226E+02  0.70000001214E+02 0.  0.
         12    1    1    2    0    0  0.43275238133E+01 -0.16973067430E+01  0.18140309316E+02  0.18726428774E+02  0.00000000000E+00 0. -1.
         11    1    3    3    0    0  0.95496337676E+01  0.44543393324E+01 -0.37020371894E+02  0.38490837604E+02  0.51100000000E-03 0. -1.
        -11    1    3    3    0    0 -0.40987187640E+01  0.61905761768E+01 -0.33057883041E+01  0.81271745078E+01  0.51100000000E-03 0.  1.
         12    1    3    3    0    0 -0.97784388169E+01 -0.89476087662E+01  0.22185850882E+02  0.25843559114E+02  0.00000000000E+00 0. -1.
</event>
<event>
 7    1  0.2932676E-013  0.7246157E+02  0.7816164E-02  0.1226708E+00
        -11   -1    0    0    0    0  0.00000000000E+00  0.00000000000E+00  0.45593999997E+02  0.45594000000E+02  0.51100000000E-03 0. -1.
         11   -1    0    0    0    0 -0.00000000000E+00 -0.00000000000E+00 -0.45593999997E+02  0.45594000000E+02  0.51100000000E-03 0.  1.
    9900012    2    1    2    0    0 -0.34346800414E+01 -0.18283059073E+02 -0.21475691191E+01  0.72461566031E+02  0.69999994447E+02 0.  0.
         12    1    1    2    0    0  0.34346800414E+01  0.18283059073E+02  0.21475691191E+01  0.18726433969E+02  0.00000000000E+00 0. -1.
         11    1    3    3    0    0 -0.13798674293E+02 -0.22262537841E+02 -0.51020610600E+01  0.26684359290E+02  0.51100000000E-03 0. -1.
        -11    1    3    3    0    0 -0.11061671566E+02 -0.87419203697E+01  0.12744390344E+02  0.19005294922E+02  0.51100000000E-03 0.  1.
         12    1    3    3    0    0  0.21425665817E+02  0.12721399138E+02 -0.97898984034E+01  0.26771911820E+02  0.00000000000E+00 0. -1.
</event>
<event>
 7    1  0.2932676E-013  0.7246157E+02  0.7816164E-02  0.1226708E+00
        -11   -1    0    0    0    0  0.00000000000E+00  0.00000000000E+00  0.45593999997E+02  0.45594000000E+02  0.51100000000E-03 0. -1.
         11   -1    0    0    0    0 -0.00000000000E+00 -0.00000000000E+00 -0.45593999997E+02  0.45594000000E+02  0.51100000000E-03 0.  1.
    9900012    2    1    2    0    0 -0.11294061599E+02  0.93352821864E+01 -0.11660869625E+02  0.72461569445E+02  0.69999998894E+02 0.  0.
         12    1    1    2    0    0  0.11294061599E+02 -0.93352821864E+01  0.11660869625E+02  0.18726430555E+02  0.00000000000E+00 0. -1.
         11    1    3    3    0    0 -0.29617387074E+01 -0.20776186266E+02 -0.83675034485E+01  0.22592851218E+02  0.51100000000E-03 0. -1.
        -11    1    3    3    0    0 -0.57417147829E+01 -0.37839805864E+01 -0.12834738617E+02  0.14560779971E+02  0.51100000000E-03 0.  1.
         12    1    3    3    0    0 -0.25906081089E+01  0.33895449039E+02  0.95413724406E+01  0.35307938257E+02  0.00000000000E+00 0. -1.
</event>
<event>
 7    1  0.2932676E-013  0.7246196E+02  0.7816164E-02  0.1226707E+00
        -11   -1    0    0    0    0  0.00000000000E+00  0.00000000000E+00  0.45593999997E+02  0.45594000000E+02  0.51100000000E-03 0.  1.
         11   -1    0    0    0    0 -0.00000000000E+00 -0.00000000000E+00 -0.45593999997E+02  0.45594000000E+02  0.51100000000E-03 0. -1.
    9900012    2    1    2    0    0 -0.10495643681E+02  0.79955360380E+01  0.13288250660E+02  0.72461955613E+02  0.70000501947E+02 0.  0.
         12    1    1    2    0    0  0.10495643681E+02 -0.79955360380E+01 -0.13288250660E+02  0.18726044387E+02  0.00000000000E+00 0. -1.
         11    1    3    3    0    0 -0.21630056292E+02  0.13566584284E+02 -0.47203155949E+01  0.25965225281E+02  0.51100000000E-03 0. -1.
        -11    1    3    3    0    0 -0.10968843570E+02 -0.15096167167E+02  0.97279037895E+01  0.21043809180E+02  0.51100000000E-03 0.  1.
         12    1    3    3    0    0  0.22103256181E+02  0.95251189212E+01  0.82806624650E+01  0.25452921151E+02  0.00000000000E+00 0. -1.
</event>
<event>
 7    1  0.2932676E-013  0.7246157E+02  0.7816164E-02  0.1226708E+00
        -11   -1    0    0    0    0  0.00000000000E+00  0.00000000000E+00  0.45593999997E+02  0.45594000000E+02  0.51100000000E-03 0.  1.
         11   -1    0    0    0    0 -0.00000000000E+00 -0.00000000000E+00 -0.45593999997E+02  0.45594000000E+02  0.51100000000E-03 0. -1.
    9900012    2    1    2    0    0 -0.19689499120E-02 -0.15614538775E+02  0.10337563830E+02  0.72461573459E+02  0.70000004123E+02 0.  0.
         12    1    1    2    0    0  0.19689499120E-02  0.15614538775E+02 -0.10337563830E+02  0.18726426541E+02  0.00000000000E+00 0. -1.
         11    1    3    3    0    0  0.59641115200E+01  0.52633729013E+01  0.67224283085E+01  0.10414641767E+02  0.51100000000E-03 0. -1.
        -11    1    3    3    0    0 -0.14127073084E+02  0.16296954889E+02 -0.67524542612E+01  0.22600012642E+02  0.51100000000E-03 0.  1.
        -12    1    3    3    0    0  0.81609926142E+01 -0.37174866566E+02  0.10367589783E+02  0.39446919050E+02  0.00000000000E+00 0.  1.
</event>
<event>
 7    1  0.2932676E-013  0.7246158E+02  0.7816164E-02  0.1226708E+00
        -11   -1    0    0    0    0  0.00000000000E+00  0.00000000000E+00  0.45593999997E+02  0.45594000000E+02  0.51100000000E-03 0.  1.
         11   -1    0    0    0    0 -0.00000000000E+00 -0.00000000000E+00 -0.45593999997E+02  0.45594000000E+02  0.51100000000E-03 0. -1.
    9900012    2    1    2    0    0  0.79332309905E+00 -0.16906312234E+02 -0.80141084789E+01  0.72461583109E+02  0.70000016693E+02 0.  0.
         12    1    1    2    0    0 -0.79332309905E+00  0.16906312234E+02  0.80141084789E+01  0.18726416891E+02  0.00000000000E+00 0. -1.
         11    1    3    3    0    0  0.17856113669E+02 -0.76702822502E+01 -0.58826521413E+00  0.19442738525E+02  0.51100000000E-03 0. -1.
        -11    1    3    3    0    0  0.73773961142E+01  0.71097221359E+01  0.13487221948E+02  0.16937510987E+02  0.51100000000E-03 0.  1.
         12    1    3    3    0    0 -0.24440186684E+02 -0.16345752119E+02 -0.20913065213E+02  0.36081333596E+02  0.00000000000E+00 0. -1.
</event>
<event>
 7    1  0.2932676E-013  0.7246158E+02  0.7816164E-02  0.1226708E+00
        -11   -1    0    0    0    0  0.00000000000E+00  0.00000000000E+00  0.45593999997E+02  0.45594000000E+02  0.51100000000E-03 0.  1.
         11   -1    0    0    0    0 -0.00000000000E+00 -0.00000000000E+00 -0.45593999997E+02  0.45594000000E+02  0.51100000000E-03 0. -1.
    9900012    2    1    2    0    0 -0.18059396920E+02  0.17860602079E+01  0.46202853207E+01  0.72461578436E+02  0.70000010605E+02 0.  0.
         12    1    1    2    0    0  0.18059396920E+02 -0.17860602079E+01 -0.46202853207E+01  0.18726421564E+02  0.00000000000E+00 0. -1.
         11    1    3    3    0    0 -0.24335904682E+02  0.59116207162E+01  0.13344597639E+02  0.28377135208E+02  0.51100000000E-03 0. -1.
        -11    1    3    3    0    0  0.33749895444E+01  0.61078301519E-01  0.17269466213E+02  0.17596270870E+02  0.51100000000E-03 0.  1.
        -12    1    3    3    0    0  0.29015182181E+01 -0.41866388097E+01 -0.25993778532E+02  0.26488172358E+02  0.00000000000E+00 0.  1.
</event>
<event>
 7    1  0.2932676E-013  0.7246157E+02  0.7816164E-02  0.1226708E+00
        -11   -1    0    0    0    0  0.00000000000E+00  0.00000000000E+00  0.45593999997E+02  0.45594000000E+02  0.51100000000E-03 0.  1.
         11   -1    0    0    0    0 -0.00000000000E+00 -0.00000000000E+00 -0.45593999997E+02  0.45594000000E+02  0.51100000000E-03 0. -1.
    9900012    2    1    2    0    0 -0.76720348416E+01 -0.14295863576E+02  0.93513197969E+01  0.72461574395E+02  0.70000005342E+02 0.  0.
         12    1    1    2    0    0  0.76720348416E+01  0.14295863576E+02 -0.93513197969E+01  0.18726425605E+02  0.00000000000E+00 0. -1.
         11    1    3    3    0    0  0.42757594221E+01 -0.25937032573E+02  0.19330924830E+02  0.32629686366E+02  0.51100000000E-03 0. -1.
        -11    1    3    3    0    0 -0.16328737402E+02 -0.12831493336E+01  0.72000167692E+01  0.17891740528E+02  0.51100000000E-03 0.  1.
         12    1    3    3    0    0  0.43809431387E+01  0.12924318331E+02 -0.17179621803E+02  0.21940147501E+02  0.00000000000E+00 0. -1.
</event>
<event>
 7    1  0.2932676E-013  0.7246158E+02  0.7816164E-02  0.1226708E+00
        -11   -1    0    0    0    0  0.00000000000E+00  0.00000000000E+00  0.45593999997E+02  0.45594000000E+02  0.51100000000E-03 0.  1.
         11   -1    0    0    0    0 -0.00000000000E+00 -0.00000000000E+00 -0.45593999997E+02  0.45594000000E+02  0.51100000000E-03 0. -1.
    9900012    2    1    2    0    0 -0.60194921815E+01  0.10293137360E+02  0.14439390018E+02  0.72461576238E+02  0.70000007742E+02 0.  0.
         12    1    1    2    0    0  0.60194921815E+01 -0.10293137360E+02 -0.14439390018E+02  0.18726423762E+02  0.00000000000E+00 0. -1.
         11    1    3    3    0    0 -0.25038536536E+01 -0.75110564842E+00  0.19924932818E+01  0.32868636347E+01  0.51100000000E-03 0. -1.
        -11    1    3    3    0    0 -0.85533514353E+01  0.28042440713E+02  0.31579567192E+02  0.43090687697E+02  0.51100000000E-03 0.  1.
         12    1    3    3    0    0  0.50377129074E+01 -0.16998197704E+02 -0.19132670456E+02  0.26084024906E+02  0.00000000000E+00 0. -1.
</event>
<event>
 7    1  0.2932676E-013  0.7246157E+02  0.7816164E-02  0.1226708E+00
        -11   -1    0    0    0    0  0.00000000000E+00  0.00000000000E+00  0.45593999997E+02  0.45594000000E+02  0.51100000000E-03 0. -1.
         11   -1    0    0    0    0 -0.00000000000E+00 -0.00000000000E+00 -0.45593999997E+02  0.45594000000E+02  0.51100000000E-03 0.  1.
    9900012    2    1    2    0    0 -0.12820915291E+02 -0.31354866382E+01 -0.13284279135E+02  0.72461569014E+02  0.69999998332E+02 0.  0.
         12    1    1    2    0    0  0.12820915291E+02  0.31354866382E+01  0.13284279135E+02  0.18726430986E+02  0.00000000000E+00 0. -1.
         11    1    3    3    0    0 -0.90844409877E+01  0.12488033463E+02  0.21539761709E+01  0.15592230804E+02  0.51100000000E-03 0. -1.
        -11    1    3    3    0    0 -0.23887222254E+02 -0.28872360106E+01 -0.21505448718E+02  0.32271037226E+02  0.51100000000E-03 0.  1.
        -12    1    3    3    0    0  0.20150747951E+02 -0.12736284090E+02  0.60671934120E+01  0.24598300984E+02  0.00000000000E+00 0.  1.
</event>
<event>
 7    1  0.2932676E-013  0.7246156E+02  0.7816164E-02  0.1226708E+00
        -11   -1    0    0    0    0  0.00000000000E+00  0.00000000000E+00  0.45593999997E+02  0.45594000000E+02  0.51100000000E-03 0.  1.
         11   -1    0    0    0    0 -0.00000000000E+00 -0.00000000000E+00 -0.45593999997E+02  0.45594000000E+02  0.51100000000E-03 0. -1.
    9900012    2    1    2    0    0  0.16444928283E+02 -0.14474973776E+01  0.88401705835E+01  0.72461560647E+02  0.69999987433E+02 0.  0.
         12    1    1    2    0    0 -0.16444928283E+02  0.14474973776E+01 -0.88401705835E+01  0.18726439353E+02  0.00000000000E+00 0. -1.
         11    1    3    3    0    0  0.25058271983E+02  0.56867802051E+01 -0.21564204748E+02  0.33545065070E+02  0.51100000000E-03 0. -1.
        -11    1    3    3    0    0  0.61791651121E+01  0.23696464779E+01  0.98666215086E+01  0.11880552435E+02  0.51100000000E-03 0.  1.
        -12    1    3    3    0    0 -0.14792508812E+02 -0.95039240606E+01  0.20537753822E+02  0.27035943142E+02  0.00000000000E+00 0.  1.
</event>
<event>
 7    1  0.2932676E-013  0.7246156E+02  0.7816164E-02  0.1226708E+00
        -11   -1    0    0    0    0  0.00000000000E+00  0.00000000000E+00  0.45593999997E+02  0.45594000000E+02  0.51100000000E-03 0. -1.
         11   -1    0    0    0    0 -0.00000000000E+00 -0.00000000000E+00 -0.45593999997E+02  0.45594000000E+02  0.51100000000E-03 0.  1.
    9900012    2    1    2    0    0  0.61353106277E+01 -0.71692455708E+01 -0.16175277116E+02  0.72461555908E+02  0.69999981260E+02 0.  0.
         12    1    1    2    0    0 -0.61353106277E+01  0.71692455708E+01  0.16175277116E+02  0.18726444092E+02  0.00000000000E+00 0. -1.
         11    1    3    3    0    0 -0.86575779237E+01 -0.18084339683E+01 -0.15989956886E+02  0.18273007700E+02  0.51100000000E-03 0. -1.
        -11    1    3    3    0    0  0.28194830838E+02  0.57440612754E+01 -0.13970125360E+02  0.31986045845E+02  0.51100000000E-03 0.  1.
         12    1    3    3    0    0 -0.13401942287E+02 -0.11104872878E+02  0.13784805131E+02  0.22202502363E+02  0.00000000000E+00 0. -1.
</event>
<event>
 7    1  0.2932676E-013  0.7246153E+02  0.7816164E-02  0.1226708E+00
        -11   -1    0    0    0    0  0.00000000000E+00  0.00000000000E+00  0.45593999997E+02  0.45594000000E+02  0.51100000000E-03 0.  1.
         11   -1    0    0    0    0 -0.00000000000E+00 -0.00000000000E+00 -0.45593999997E+02  0.45594000000E+02  0.51100000000E-03 0. -1.
    9900012    2    1    2    0    0 -0.52843851208E+01  0.46644045552E+01  0.17349328730E+02  0.72461532011E+02  0.69999950129E+02 0.  0.
         12    1    1    2    0    0  0.52843851208E+01 -0.46644045552E+01 -0.17349328730E+02  0.18726467989E+02  0.00000000000E+00 0. -1.
         11    1    3    3    0    0 -0.40893324766E+01 -0.24423598318E+01 -0.34957488034E+01  0.59083010764E+01  0.51100000000E-03 0. -1.
        -11    1    3    3    0    0 -0.28279983051E+02 -0.11300521790E+02  0.97493603188E+01  0.31976698719E+02  0.51100000000E-03 0.  1.
         12    1    3    3    0    0  0.27084930407E+02  0.18407286177E+02  0.11095717215E+02  0.34576532215E+02  0.00000000000E+00 0. -1.
</event>
<event>
 7    1  0.2932676E-013  0.7246162E+02  0.7816164E-02  0.1226708E+00
        -11   -1    0    0    0    0  0.00000000000E+00  0.00000000000E+00  0.45593999997E+02  0.45594000000E+02  0.51100000000E-03 0.  1.
         11   -1    0    0    0    0 -0.00000000000E+00 -0.00000000000E+00 -0.45593999997E+02  0.45594000000E+02  0.51100000000E-03 0. -1.
    9900012    2    1    2    0    0  0.62210233070E+01  0.75084236929E+00  0.17646883772E+02  0.72461617484E+02  0.70000061474E+02 0.  0.
         12    1    1    2    0    0 -0.62210233070E+01 -0.75084236929E+00 -0.17646883772E+02  0.18726382516E+02  0.00000000000E+00 0. -1.
         11    1    3    3    0    0 -0.10328717595E+02  0.71605250406E+01  0.99306103494E+00  0.12607208116E+02  0.51100000000E-03 0. -1.
        -11    1    3    3    0    0 -0.18225063857E+02  0.52488591865E+01 -0.13165755499E+01  0.19011492493E+02  0.51100000000E-03 0.  1.
         12    1    3    3    0    0  0.34774804759E+02 -0.11658541858E+02  0.17970398287E+02  0.40842916875E+02  0.00000000000E+00 0. -1.
</event>
<event>
 7    1  0.2932676E-013  0.7246155E+02  0.7816164E-02  0.1226708E+00
        -11   -1    0    0    0    0  0.00000000000E+00  0.00000000000E+00  0.45593999997E+02  0.45594000000E+02  0.51100000000E-03 0.  1.
         11   -1    0    0    0    0 -0.00000000000E+00 -0.00000000000E+00 -0.45593999997E+02  0.45594000000E+02  0.51100000000E-03 0. -1.
    9900012    2    1    2    0    0 -0.15355390149E+02  0.81480461742E+01  0.69642946510E+01  0.72461546437E+02  0.69999968921E+02 0.  0.
         12    1    1    2    0    0  0.15355390149E+02 -0.81480461742E+01 -0.69642946510E+01  0.18726453563E+02  0.00000000000E+00 0. -1.
         11    1    3    3    0    0 -0.13488523700E+02  0.63995399920E+01 -0.22378966866E+02  0.26901905918E+02  0.51100000000E-03 0. -1.
        -11    1    3    3    0    0  0.32511040943E+01 -0.78257370898E+01 -0.47950041990E+01  0.97367296543E+01  0.51100000000E-03 0.  1.
        -12    1    3    3    0    0 -0.51179705426E+01  0.95742432720E+01  0.34138265716E+02  0.35822910865E+02  0.00000000000E+00 0.  1.
</event>
<event>
 7    1  0.2932676E-013  0.7246166E+02  0.7816164E-02  0.1226708E+00
        -11   -1    0    0    0    0  0.00000000000E+00  0.00000000000E+00  0.45593999997E+02  0.45594000000E+02  0.51100000000E-03 0. -1.
         11   -1    0    0    0    0 -0.00000000000E+00 -0.00000000000E+00 -0.45593999997E+02  0.45594000000E+02  0.51100000000E-03 0.  1.
    9900012    2    1    2    0    0 -0.17259129581E+02  0.55852966444E+01 -0.46478872162E+01  0.72461656308E+02  0.70000112049E+02 0.  0.
         12    1    1    2    0    0  0.17259129581E+02 -0.55852966444E+01  0.46478872162E+01  0.18726343692E+02  0.00000000000E+00 0. -1.
         11    1    3    3    0    0 -0.11850511042E+02 -0.21486284330E+02  0.17462832222E+02  0.30117196678E+02  0.51100000000E-03 0. -1.
        -11    1    3    3    0    0  0.89478521526E+01  0.83895548836E+01 -0.50972307144E+01  0.13282712468E+02  0.51100000000E-03 0.  1.
        -12    1    3    3    0    0 -0.14356470692E+02  0.18682026090E+02 -0.17013488724E+02  0.29061747162E+02  0.00000000000E+00 0.  1.
</event>
<event>
 7    1  0.2932676E-013  0.7246162E+02  0.7816164E-02  0.1226708E+00
        -11   -1    0    0    0    0  0.00000000000E+00  0.00000000000E+00  0.45593999997E+02  0.45594000000E+02  0.51100000000E-03 0.  1.
         11   -1    0    0    0    0 -0.00000000000E+00 -0.00000000000E+00 -0.45593999997E+02  0.45594000000E+02  0.51100000000E-03 0. -1.
    9900012    2    1    2    0    0 -0.36231567577E+00 -0.18494243275E+02  0.29170008807E+01  0.72461622852E+02  0.70000068466E+02 0.  0.
         12    1    1    2    0    0  0.36231567577E+00  0.18494243275E+02 -0.29170008807E+01  0.18726377148E+02  0.00000000000E+00 0. -1.
         11    1    3    3    0    0 -0.46073739252E+01 -0.26818319899E+02 -0.58415701288E+01  0.27831171706E+02  0.51100000000E-03 0. -1.
        -11    1    3    3    0    0  0.65899492874E+01 -0.17005414029E+02  0.22717470474E+01  0.18378584625E+02  0.51100000000E-03 0.  1.
        -12    1    3    3    0    0 -0.23448910380E+01  0.25329490653E+02  0.64868239620E+01  0.26251866521E+02  0.00000000000E+00 0.  1.
</event>
<event>
 7    1  0.2932676E-013  0.7246163E+02  0.7816164E-02  0.1226708E+00
        -11   -1    0    0    0    0  0.00000000000E+00  0.00000000000E+00  0.45593999997E+02  0.45594000000E+02  0.51100000000E-03 0.  1.
         11   -1    0    0    0    0 -0.00000000000E+00 -0.00000000000E+00 -0.45593999997E+02  0.45594000000E+02  0.51100000000E-03 0. -1.
    9900012    2    1    2    0    0 -0.20233584114E+01  0.57819189884E+01  0.17696110795E+02  0.72461630792E+02  0.70000078809E+02 0.  0.
         12    1    1    2    0    0  0.20233584114E+01 -0.57819189884E+01 -0.17696110795E+02  0.18726369208E+02  0.00000000000E+00 0. -1.
         11    1    3    3    0    0 -0.48070495046E+01 -0.12075742532E+02 -0.41076769136E+01  0.13631004824E+02  0.51100000000E-03 0. -1.
        -11    1    3    3    0    0  0.75045507218E+01 -0.13098220373E+02  0.22979993012E+02  0.27494758366E+02  0.51100000000E-03 0.  1.
         12    1    3    3    0    0 -0.47208596287E+01  0.30955881894E+02 -0.11762053040E+01  0.31335867602E+02  0.00000000000E+00 0. -1.
</event>
<event>
 7    1  0.2932676E-013  0.7246154E+02  0.7816164E-02  0.1226708E+00
        -11   -1    0    0    0    0  0.00000000000E+00  0.00000000000E+00  0.45593999997E+02  0.45594000000E+02  0.51100000000E-03 0. -1.
         11   -1    0    0    0    0 -0.00000000000E+00 -0.00000000000E+00 -0.45593999997E+02  0.45594000000E+02  0.51100000000E-03 0.  1.
    9900012    2    1    2    0    0 -0.17645683317E+02  0.11465948880E+01  0.61640420851E+01  0.72461541862E+02  0.69999962962E+02 0.  0.
         12    1    1    2    0    0  0.17645683317E+02 -0.11465948880E+01 -0.61640420851E+01  0.18726458138E+02  0.00000000000E+00 0. -1.
         11    1    3    3    0    0 -0.35501769653E+01 -0.90687945698E+01  0.64423049402E+01  0.11676903898E+02  0.51100000000E-03 0. -1.
        -11    1    3    3    0    0 -0.29557149089E+02  0.50081694019E+01  0.19028489703E+02  0.35507608250E+02  0.51100000000E-03 0.  1.
        -12    1    3    3    0    0  0.15461642737E+02  0.52072200559E+01 -0.19306752558E+02  0.25277029714E+02  0.00000000000E+00 0.  1.
</event>
<event>
 7    1  0.2932676E-013  0.7246144E+02  0.7816164E-02  0.1226708E+00
        -11   -1    0    0    0    0  0.00000000000E+00  0.00000000000E+00  0.45593999997E+02  0.45594000000E+02  0.51100000000E-03 0. -1.
         11   -1    0    0    0    0 -0.00000000000E+00 -0.00000000000E+00 -0.45593999997E+02  0.45594000000E+02  0.51100000000E-03 0.  1.
    9900012    2    1    2    0    0 -0.83562512144E+01  0.16758745084E+02  0.37567999892E-01  0.72461444457E+02  0.69999836074E+02 0.  0.
         12    1    1    2    0    0  0.83562512144E+01 -0.16758745084E+02 -0.37567999892E-01  0.18726555543E+02  0.00000000000E+00 0. -1.
         11    1    3    3    0    0  0.11292130586E+02  0.20709413080E+01  0.74097477845E+01  0.13664017475E+02  0.51100000000E-03 0. -1.
        -11    1    3    3    0    0  0.16257999303E+02  0.13767677996E+02 -0.83084773517E+01  0.22867056979E+02  0.51100000000E-03 0.  1.
         12    1    3    3    0    0 -0.35906381103E+02  0.92012577930E+00  0.93629756701E+00  0.35930370002E+02  0.00000000000E+00 0. -1.
</event>
<event>
 7    1  0.2932676E-013  0.7246164E+02  0.7816164E-02  0.1226708E+00
        -11   -1    0    0    0    0  0.00000000000E+00  0.00000000000E+00  0.45593999997E+02  0.45594000000E+02  0.51100000000E-03 0.  1.
         11   -1    0    0    0    0 -0.00000000000E+00 -0.00000000000E+00 -0.45593999997E+02  0.45594000000E+02  0.51100000000E-03 0. -1.
    9900012    2    1    2    0    0 -0.17717516851E+02  0.60060673513E+01  0.83267596296E+00  0.72461638964E+02  0.70000089455E+02 0.  0.
         12    1    1    2    0    0  0.17717516851E+02 -0.60060673513E+01 -0.83267596296E+00  0.18726361036E+02  0.00000000000E+00 0. -1.
         11    1    3    3    0    0 -0.24365874754E+01 -0.46372869574E+01 -0.16486856418E+02  0.17299070023E+02  0.51100000000E-03 0. -1.
        -11    1    3    3    0    0 -0.56499241185E+01  0.26285857646E+02 -0.38206281227E+01  0.27156309658E+02  0.51100000000E-03 0.  1.
        -12    1    3    3    0    0 -0.96310052570E+01 -0.15642503337E+02  0.21140160504E+02  0.28006259283E+02  0.00000000000E+00 0.  1.
</event>
<event>
 7    1  0.2932676E-013  0.7246152E+02  0.7816164E-02  0.1226708E+00
        -11   -1    0    0    0    0  0.00000000000E+00  0.00000000000E+00  0.45593999997E+02  0.45594000000E+02  0.51100000000E-03 0. -1.
         11   -1    0    0    0    0 -0.00000000000E+00 -0.00000000000E+00 -0.45593999997E+02  0.45594000000E+02  0.51100000000E-03 0.  1.
    9900012    2    1    2    0    0  0.92963025628E+01  0.16138810651E+02  0.19489970772E+01  0.72461520347E+02  0.69999934935E+02 0.  0.
         12    1    1    2    0    0 -0.92963025628E+01 -0.16138810651E+02 -0.19489970772E+01  0.18726479653E+02  0.00000000000E+00 0. -1.
         11    1    3    3    0    0  0.20665399016E+01 -0.19128435380E+01 -0.13489587091E+02  0.13780367111E+02  0.51100000000E-03 0.  1.
        -11    1    3    3    0    0 -0.15959507440E+02  0.12292897136E+02 -0.11075926378E+02  0.22989070079E+02  0.51100000000E-03 0. -1.
         12    1    3    3    0    0  0.23189270101E+02  0.57587570533E+01  0.26514510546E+02  0.35692083157E+02  0.00000000000E+00 0. -1.
</event>
<event>
 7    1  0.2932676E-013  0.7246159E+02  0.7816164E-02  0.1226708E+00
        -11   -1    0    0    0    0  0.00000000000E+00  0.00000000000E+00  0.45593999997E+02  0.45594000000E+02  0.51100000000E-03 0.  1.
         11   -1    0    0    0    0 -0.00000000000E+00 -0.00000000000E+00 -0.45593999997E+02  0.45594000000E+02  0.51100000000E-03 0. -1.
    9900012    2    1    2    0    0  0.27222787674E+01 -0.41467133182E+00  0.18522843141E+02  0.72461588918E+02  0.70000024260E+02 0.  0.
         12    1    1    2    0    0 -0.27222787674E+01  0.41467133182E+00 -0.18522843141E+02  0.18726411082E+02  0.00000000000E+00 0. -1.
         11    1    3    3    0    0  0.73414217695E+01  0.44363058525E+01  0.24941059663E+01  0.89329641243E+01  0.51100000000E-03 0. -1.
        -11    1    3    3    0    0  0.15455618556E+02  0.14982731592E+02  0.25858563950E+02  0.33645560193E+02  0.51100000000E-03 0.  1.
         12    1    3    3    0    0 -0.20074761558E+02 -0.19833708776E+02 -0.98298267751E+01  0.29883064600E+02  0.00000000000E+00 0. -1.
</event>
<event>
 7    1  0.2932676E-013  0.7246161E+02  0.7816164E-02  0.1226708E+00
        -11   -1    0    0    0    0  0.00000000000E+00  0.00000000000E+00  0.45593999997E+02  0.45594000000E+02  0.51100000000E-03 0. -1.
         11   -1    0    0    0    0 -0.00000000000E+00 -0.00000000000E+00 -0.45593999997E+02  0.45594000000E+02  0.51100000000E-03 0.  1.
    9900012    2    1    2    0    0 -0.13086009146E+02  0.13282969762E+02  0.17310631266E+01  0.72461614854E+02  0.70000058047E+02 0.  0.
         12    1    1    2    0    0  0.13086009146E+02 -0.13282969762E+02 -0.17310631266E+01  0.18726385146E+02  0.00000000000E+00 0. -1.
         11    1    3    3    0    0 -0.16389847027E+02  0.77729334581E+01  0.18732877949E+02  0.26076163380E+02  0.51100000000E-03 0. -1.
        -11    1    3    3    0    0  0.49329468675E+01  0.12429506658E+02  0.11111981245E+02  0.17386855035E+02  0.51100000000E-03 0.  1.
         12    1    3    3    0    0 -0.16291089865E+01 -0.69194703539E+01 -0.28113796068E+02  0.28998596439E+02  0.00000000000E+00 0. -1.
</event>
<event>
 7    1  0.2932676E-013  0.7246160E+02  0.7816164E-02  0.1226708E+00
        -11   -1    0    0    0    0  0.00000000000E+00  0.00000000000E+00  0.45593999997E+02  0.45594000000E+02  0.51100000000E-03 0. -1.
         11   -1    0    0    0    0 -0.00000000000E+00 -0.00000000000E+00 -0.45593999997E+02  0.45594000000E+02  0.51100000000E-03 0.  1.
    9900012    2    1    2    0    0  0.15599118287E+02  0.71912313771E+01 -0.74586679060E+01  0.72461600801E+02  0.70000039740E+02 0.  0.
         12    1    1    2    0    0 -0.15599118287E+02 -0.71912313771E+01  0.74586679060E+01  0.18726399199E+02  0.00000000000E+00 0. -1.
         11    1    3    3    0    0 -0.79973601193E+01  0.33442620247E+01  0.17180006956E+02  0.19243037615E+02  0.51100000000E-03 0. -1.
        -11    1    3    3    0    0  0.11797633542E+02 -0.18287934102E+02 -0.83468001699E+01  0.23308834467E+02  0.51100000000E-03 0.  1.
        -12    1    3    3    0    0  0.11798844864E+02  0.22134903454E+02 -0.16291874692E+02  0.29909728719E+02  0.00000000000E+00 0.  1.
</event>
<event>
 7    1  0.2932676E-013  0.7246155E+02  0.7816164E-02  0.1226708E+00
        -11   -1    0    0    0    0  0.00000000000E+00  0.00000000000E+00  0.45593999997E+02  0.45594000000E+02  0.51100000000E-03 0.  1.
         11   -1    0    0    0    0 -0.00000000000E+00 -0.00000000000E+00 -0.45593999997E+02  0.45594000000E+02  0.51100000000E-03 0. -1.
    9900012    2    1    2    0    0 -0.13617749450E+02  0.10674090790E+02  0.71624321884E+01  0.72461554819E+02  0.69999979840E+02 0.  0.
         12    1    1    2    0    0  0.13617749450E+02 -0.10674090790E+02 -0.71624321884E+01  0.18726445181E+02  0.00000000000E+00 0. -1.
         11    1    3    3    0    0 -0.56128012748E+01 -0.11936593281E+02 -0.24191584681E+02  0.27553921082E+02  0.51100000000E-03 0. -1.
        -11    1    3    3    0    0 -0.76321622307E+01  0.16239334422E+02  0.62433072790E+01  0.18998546493E+02  0.51100000000E-03 0.  1.
        -12    1    3    3    0    0 -0.37278594411E+00  0.63713496489E+01  0.25110709591E+02  0.25909087245E+02  0.00000000000E+00 0.  1.
</event>
<event>
 7    1  0.2932676E-013  0.7246149E+02  0.7816164E-02  0.1226708E+00
        -11   -1    0    0    0    0  0.00000000000E+00  0.00000000000E+00  0.45593999997E+02  0.45594000000E+02  0.51100000000E-03 0. -1.
         11   -1    0    0    0    0 -0.00000000000E+00 -0.00000000000E+00 -0.45593999997E+02  0.45594000000E+02  0.51100000000E-03 0.  1.
    9900012    2    1    2    0    0 -0.97719092975E+01  0.15892328932E+02 -0.16204022728E+01  0.72461493820E+02  0.69999900378E+02 0.  0.
         12    1    1    2    0    0  0.97719092975E+01 -0.15892328932E+02  0.16204022728E+01  0.18726506180E+02  0.00000000000E+00 0. -1.
         11    1    3    3    0    0 -0.93293558122E+01  0.11570196598E+02 -0.30115648198E+01  0.15164954735E+02  0.51100000000E-03 0. -1.
        -11    1    3    3    0    0 -0.68087984083E-02  0.91618917542E+00 -0.27844677933E+02  0.27859747637E+02  0.51100000000E-03 0.  1.
         12    1    3    3    0    0 -0.43574468686E+00  0.34059431585E+01  0.29235840480E+02  0.29436791448E+02  0.00000000000E+00 0. -1.
</event>
<event>
 7    1  0.2932676E-013  0.7246156E+02  0.7816164E-02  0.1226708E+00
        -11   -1    0    0    0    0  0.00000000000E+00  0.00000000000E+00  0.45593999997E+02  0.45594000000E+02  0.51100000000E-03 0. -1.
         11   -1    0    0    0    0 -0.00000000000E+00 -0.00000000000E+00 -0.45593999997E+02  0.45594000000E+02  0.51100000000E-03 0.  1.
    9900012    2    1    2    0    0  0.76193631310E+01 -0.49781110281E+01 -0.16365923167E+02  0.72461555462E+02  0.69999980678E+02 0.  0.
         12    1    1    2    0    0 -0.76193631310E+01  0.49781110281E+01  0.16365923167E+02  0.18726444538E+02  0.00000000000E+00 0. -1.
         11    1    3    3    0    0  0.15410196626E+02 -0.12893451499E+02 -0.65099657184E+00  0.20103209903E+02  0.51100000000E-03 0. -1.
        -11    1    3    3    0    0  0.15954812200E+02  0.52764815138E+01 -0.21971174032E+02  0.27660979342E+02  0.51100000000E-03 0.  1.
         12    1    3    3    0    0 -0.23745645695E+02  0.26388589575E+01  0.62562474373E+01  0.24697366217E+02  0.00000000000E+00 0. -1.
</event>
<event>
 7    1  0.2932676E-013  0.7246157E+02  0.7816164E-02  0.1226708E+00
        -11   -1    0    0    0    0  0.00000000000E+00  0.00000000000E+00  0.45593999997E+02  0.45594000000E+02  0.51100000000E-03 0. -1.
         11   -1    0    0    0    0 -0.00000000000E+00 -0.00000000000E+00 -0.45593999997E+02  0.45594000000E+02  0.51100000000E-03 0.  1.
    9900012    2    1    2    0    0 -0.15318235137E+02 -0.20704486429E+01  0.10570909363E+02  0.72461569212E+02  0.69999998590E+02 0.  0.
         12    1    1    2    0    0  0.15318235137E+02  0.20704486429E+01 -0.10570909363E+02  0.18726430788E+02  0.00000000000E+00 0. -1.
         11    1    3    3    0    0  0.21132889981E+01  0.10537694976E+01 -0.60232402025E+01  0.64696092109E+01  0.51100000000E-03 0. -1.
        -11    1    3    3    0    0 -0.23746451456E+02  0.24736097804E+02  0.31931355400E+01  0.34437836839E+02  0.51100000000E-03 0.  1.
         12    1    3    3    0    0  0.63149273210E+01 -0.27860315945E+02  0.13401014026E+02  0.31554123162E+02  0.00000000000E+00 0. -1.
</event>
<event>
 7    1  0.2932676E-013  0.7246161E+02  0.7816164E-02  0.1226708E+00
        -11   -1    0    0    0    0  0.00000000000E+00  0.00000000000E+00  0.45593999997E+02  0.45594000000E+02  0.51100000000E-03 0. -1.
         11   -1    0    0    0    0 -0.00000000000E+00 -0.00000000000E+00 -0.45593999997E+02  0.45594000000E+02  0.51100000000E-03 0.  1.
    9900012    2    1    2    0    0  0.17322219086E+02  0.14159874252E+01 -0.69723236052E+01  0.72461612444E+02  0.70000054908E+02 0.  0.
         12    1    1    2    0    0 -0.17322219086E+02 -0.14159874252E+01  0.69723236052E+01  0.18726387556E+02  0.00000000000E+00 0. -1.
         11    1    3    3    0    0 -0.27658893813E+01 -0.22414276740E+01  0.28596413513E+02  0.28817165166E+02  0.51100000000E-03 0. -1.
        -11    1    3    3    0    0  0.90993853566E+01  0.51649162060E+00 -0.37856427504E+01  0.98689750611E+01  0.51100000000E-03 0.  1.
        -12    1    3    3    0    0  0.10988723110E+02  0.31409234785E+01 -0.31783094368E+02  0.33775472217E+02  0.00000000000E+00 0.  1.
</event>
<event>
 7    1  0.2932676E-013  0.7246130E+02  0.7816164E-02  0.1226709E+00
        -11   -1    0    0    0    0  0.00000000000E+00  0.00000000000E+00  0.45593999997E+02  0.45594000000E+02  0.51100000000E-03 0.  1.
         11   -1    0    0    0    0 -0.00000000000E+00 -0.00000000000E+00 -0.45593999997E+02  0.45594000000E+02  0.51100000000E-03 0. -1.
    9900012    2    1    2    0    0 -0.79410293039E+00  0.71548879943E+01  0.17287749017E+02  0.72461300137E+02  0.69999648069E+02 0.  0.
         12    1    1    2    0    0  0.79410293039E+00 -0.71548879943E+01 -0.17287749017E+02  0.18726699863E+02  0.00000000000E+00 0. -1.
         11    1    3    3    0    0  0.36100248888E+01 -0.21317879152E+02  0.15989262566E+02  0.26891276818E+02  0.51100000000E-03 0. -1.
        -11    1    3    3    0    0 -0.38611482055E+01  0.96046940716E+01 -0.16596250124E+02  0.19560013602E+02  0.51100000000E-03 0.  1.
        -12    1    3    3    0    0 -0.54297961369E+00  0.18868073074E+02  0.17894736575E+02  0.26010009717E+02  0.00000000000E+00 0.  1.
</event>
<event>
 7    1  0.2932676E-013  0.7246152E+02  0.7816164E-02  0.1226708E+00
        -11   -1    0    0    0    0  0.00000000000E+00  0.00000000000E+00  0.45593999997E+02  0.45594000000E+02  0.51100000000E-03 0. -1.
         11   -1    0    0    0    0 -0.00000000000E+00 -0.00000000000E+00 -0.45593999997E+02  0.45594000000E+02  0.51100000000E-03 0.  1.
    9900012    2    1    2    0    0  0.15707604704E+02 -0.10192966590E+02 -0.23571747317E+00  0.72461522056E+02  0.69999937161E+02 0.  0.
         12    1    1    2    0    0 -0.15707604704E+02  0.10192966590E+02  0.23571747317E+00  0.18726477944E+02  0.00000000000E+00 0. -1.
         11    1    3    3    0    0  0.20473800207E+02 -0.20186150848E+02  0.14757041300E+02  0.32317602775E+02  0.51100000000E-03 0. -1.
        -11    1    3    3    0    0 -0.13035398235E+02  0.60888916990E-01  0.68788870820E+01  0.14739213084E+02  0.51100000000E-03 0.  1.
        -12    1    3    3    0    0  0.82692027322E+01  0.99322953405E+01 -0.21871645855E+02  0.25404706197E+02  0.00000000000E+00 0.  1.
</event>
<event>
 7    1  0.2932676E-013  0.7246151E+02  0.7816164E-02  0.1226708E+00
        -11   -1    0    0    0    0  0.00000000000E+00  0.00000000000E+00  0.45593999997E+02  0.45594000000E+02  0.51100000000E-03 0.  1.
         11   -1    0    0    0    0 -0.00000000000E+00 -0.00000000000E+00 -0.45593999997E+02  0.45594000000E+02  0.51100000000E-03 0. -1.
    9900012    2    1    2    0    0 -0.57390310982E+01  0.13192969527E+02  0.11987100101E+02  0.72461508291E+02  0.69999919230E+02 0.  0.
         12    1    1    2    0    0  0.57390310982E+01 -0.13192969527E+02 -0.11987100101E+02  0.18726491709E+02  0.00000000000E+00 0. -1.
         11    1    3    3    0    0  0.94870251171E+01 -0.32890899928E+01 -0.65432847837E+01  0.11984837695E+02  0.51100000000E-03 0. -1.
        -11    1    3    3    0    0  0.18654847451E+02  0.46531650775E+00  0.12644784044E+02  0.22541304680E+02  0.51100000000E-03 0.  1.
        -12    1    3    3    0    0 -0.33880903667E+02  0.16016743012E+02  0.58856008403E+01  0.37935365917E+02  0.00000000000E+00 0.  1.
</event>
<event>
 7    1  0.2932676E-013  0.7246165E+02  0.7816164E-02  0.1226708E+00
        -11   -1    0    0    0    0  0.00000000000E+00  0.00000000000E+00  0.45593999997E+02  0.45594000000E+02  0.51100000000E-03 0.  1.
         11   -1    0    0    0    0 -0.00000000000E+00 -0.00000000000E+00 -0.45593999997E+02  0.45594000000E+02  0.51100000000E-03 0. -1.
    9900012    2    1    2    0    0 -0.79450031409E+01 -0.15605261462E+02  0.66354299295E+01  0.72461649833E+02  0.70000103614E+02 0.  0.
         12    1    1    2    0    0  0.79450031409E+01  0.15605261462E+02 -0.66354299295E+01  0.18726350167E+02  0.00000000000E+00 0. -1.
         11    1    3    3    0    0  0.11610149105E+02 -0.79401814246E+01 -0.18142664845E+02  0.22956444220E+02  0.51100000000E-03 0. -1.
        -11    1    3    3    0    0  0.71205124714E+01 -0.12780877325E+01 -0.51716389392E+01  0.88927529868E+01  0.51100000000E-03 0.  1.
        -12    1    3    3    0    0 -0.26675664717E+02 -0.63869923052E+01  0.29949733714E+02  0.40612452626E+02  0.00000000000E+00 0.  1.
</event>
<event>
 7    1  0.2932676E-013  0.7246153E+02  0.7816164E-02  0.1226708E+00
        -11   -1    0    0    0    0  0.00000000000E+00  0.00000000000E+00  0.45593999997E+02  0.45594000000E+02  0.51100000000E-03 0. -1.
         11   -1    0    0    0    0 -0.00000000000E+00 -0.00000000000E+00 -0.45593999997E+02  0.45594000000E+02  0.51100000000E-03 0.  1.
    9900012    2    1    2    0    0 -0.59273124866E+01 -0.86286196484E+01 -0.15527215267E+02  0.72461534122E+02  0.69999952878E+02 0.  0.
         12    1    1    2    0    0  0.59273124866E+01  0.86286196484E+01  0.15527215267E+02  0.18726465878E+02  0.00000000000E+00 0. -1.
         11    1    3    3    0    0  0.27394875396E+01 -0.60328716176E+01 -0.70753127550E+01  0.96933163972E+01  0.51100000000E-03 0. -1.
        -11    1    3    3    0    0 -0.15832891389E+02  0.62384361121E+01 -0.32208978237E+02  0.36428241986E+02  0.51100000000E-03 0.  1.
         12    1    3    3    0    0  0.71660913631E+01 -0.88341841428E+01  0.23757075725E+02  0.26339975738E+02  0.00000000000E+00 0. -1.
</event>
<event>
 7    1  0.2932676E-013  0.7246163E+02  0.7816164E-02  0.1226708E+00
        -11   -1    0    0    0    0  0.00000000000E+00  0.00000000000E+00  0.45593999997E+02  0.45594000000E+02  0.51100000000E-03 0.  1.
         11   -1    0    0    0    0 -0.00000000000E+00 -0.00000000000E+00 -0.45593999997E+02  0.45594000000E+02  0.51100000000E-03 0. -1.
    9900012    2    1    2    0    0  0.16539934491E+02 -0.58312310605E+01  0.65653764103E+01  0.72461632065E+02  0.70000080467E+02 0.  0.
         12    1    1    2    0    0 -0.16539934491E+02  0.58312310605E+01 -0.65653764103E+01  0.18726367935E+02  0.00000000000E+00 0. -1.
         11    1    3    3    0    0 -0.80964263741E+01  0.16427410801E+01 -0.54982401540E+01  0.99237776749E+01  0.51100000000E-03 0. -1.
        -11    1    3    3    0    0  0.23313704863E+02  0.21835239903E+02  0.46727938465E+01  0.32282217065E+02  0.51100000000E-03 0.  1.
        -12    1    3    3    0    0  0.13226560017E+01 -0.29309212043E+02  0.73908227179E+01  0.30255637325E+02  0.00000000000E+00 0.  1.
</event>
<event>
 7    1  0.2932676E-013  0.7246148E+02  0.7816164E-02  0.1226708E+00
        -11   -1    0    0    0    0  0.00000000000E+00  0.00000000000E+00  0.45593999997E+02  0.45594000000E+02  0.51100000000E-03 0.  1.
         11   -1    0    0    0    0 -0.00000000000E+00 -0.00000000000E+00 -0.45593999997E+02  0.45594000000E+02  0.51100000000E-03 0. -1.
    9900012    2    1    2    0    0 -0.97929125510E+01  0.27862988739E+01  0.15716809989E+02  0.72461475659E+02  0.69999876720E+02 0.  0.
         12    1    1    2    0    0  0.97929125510E+01 -0.27862988739E+01 -0.15716809989E+02  0.18726524341E+02  0.00000000000E+00 0. -1.
         11    1    3    3    0    0  0.33949894694E+01  0.31541446000E+02  0.39937523262E+00  0.31726144898E+02  0.51100000000E-03 0. -1.
        -11    1    3    3    0    0  0.19448085905E+01  0.13688866065E-01 -0.28853725372E+01  0.34796325636E+01  0.51100000000E-03 0.  1.
        -12    1    3    3    0    0 -0.15132710611E+02 -0.28768835992E+02  0.18202807294E+02  0.37255698197E+02  0.00000000000E+00 0.  1.
</event>
<event>
 7    1  0.2932676E-013  0.7246162E+02  0.7816164E-02  0.1226708E+00
        -11   -1    0    0    0    0  0.00000000000E+00  0.00000000000E+00  0.45593999997E+02  0.45594000000E+02  0.51100000000E-03 0.  1.
         11   -1    0    0    0    0 -0.00000000000E+00 -0.00000000000E+00 -0.45593999997E+02  0.45594000000E+02  0.51100000000E-03 0. -1.
    9900012    2    1    2    0    0  0.41303113477E+01  0.90362152964E+01  0.15873395510E+02  0.72461619043E+02  0.70000063504E+02 0.  0.
         12    1    1    2    0    0 -0.41303113477E+01 -0.90362152964E+01 -0.15873395510E+02  0.18726380957E+02  0.00000000000E+00 0. -1.
         11    1    3    3    0    0 -0.93426949822E+01 -0.10568168784E+02  0.10886696494E+01  0.14147697440E+02  0.51100000000E-03 0. -1.
        -11    1    3    3    0    0  0.19630128190E+02 -0.11922891905E+02  0.12404340714E+02  0.26102968279E+02  0.51100000000E-03 0.  1.
         12    1    3    3    0    0 -0.61571218603E+01  0.31527275985E+02  0.23803851467E+01  0.32210953325E+02  0.00000000000E+00 0. -1.
</event>
<event>
 7    1  0.2932676E-013  0.7246190E+02  0.7816164E-02  0.1226707E+00
        -11   -1    0    0    0    0  0.00000000000E+00  0.00000000000E+00  0.45593999997E+02  0.45594000000E+02  0.51100000000E-03 0. -1.
         11   -1    0    0    0    0 -0.00000000000E+00 -0.00000000000E+00 -0.45593999997E+02  0.45594000000E+02  0.51100000000E-03 0.  1.
    9900012    2    1    2    0    0 -0.15207302856E+02 -0.30140539399E+01 -0.10503352208E+02  0.72461895523E+02  0.70000423669E+02 0.  0.
         12    1    1    2    0    0  0.15207302856E+02  0.30140539399E+01  0.10503352208E+02  0.18726104477E+02  0.00000000000E+00 0. -1.
         11    1    3    3    0    0 -0.26804739474E+02 -0.45852005571E+01  0.29628691304E+01  0.27355012633E+02  0.51100000000E-03 0. -1.
        -11    1    3    3    0    0  0.12732561751E+02 -0.72475311790E+01  0.11486858748E+02  0.18617001936E+02  0.51100000000E-03 0.  1.
        -12    1    3    3    0    0 -0.11351251331E+01  0.88186777962E+01 -0.24953080086E+02  0.26489880953E+02  0.00000000000E+00 0.  1.
</event>
<event>
 7    1  0.2932676E-013  0.7246182E+02  0.7816164E-02  0.1226707E+00
        -11   -1    0    0    0    0  0.00000000000E+00  0.00000000000E+00  0.45593999997E+02  0.45594000000E+02  0.51100000000E-03 0. -1.
         11   -1    0    0    0    0 -0.00000000000E+00 -0.00000000000E+00 -0.45593999997E+02  0.45594000000E+02  0.51100000000E-03 0.  1.
    9900012    2    1    2    0    0  0.40756846084E+01  0.17470185072E+02 -0.53713336932E+01  0.72461820542E+02  0.70000325993E+02 0.  0.
         12    1    1    2    0    0 -0.40756846084E+01 -0.17470185072E+02  0.53713336932E+01  0.18726179458E+02  0.00000000000E+00 0. -1.
         11    1    3    3    0    0  0.77661661671E+01 -0.87538953846E+01  0.35016851771E+01  0.12214983450E+02  0.51100000000E-03 0. -1.
        -11    1    3    3    0    0  0.21625252549E+02  0.14747299032E+02  0.84376486415E+01  0.27501423444E+02  0.51100000000E-03 0.  1.
         12    1    3    3    0    0 -0.25315734108E+02  0.11476781424E+02 -0.17310667512E+02  0.32745413648E+02  0.00000000000E+00 0. -1.
</event>
<event>
 7    1  0.2932676E-013  0.7246159E+02  0.7816164E-02  0.1226708E+00
        -11   -1    0    0    0    0  0.00000000000E+00  0.00000000000E+00  0.45593999997E+02  0.45594000000E+02  0.51100000000E-03 0.  1.
         11   -1    0    0    0    0 -0.00000000000E+00 -0.00000000000E+00 -0.45593999997E+02  0.45594000000E+02  0.51100000000E-03 0. -1.
    9900012    2    1    2    0    0 -0.70581871499E+01  0.23743826556E+01  0.17182046351E+02  0.72461590423E+02  0.70000026222E+02 0.  0.
         12    1    1    2    0    0  0.70581871499E+01 -0.23743826556E+01 -0.17182046351E+02  0.18726409577E+02  0.00000000000E+00 0. -1.
         11    1    3    3    0    0  0.33055068171E+01 -0.35394215405E+01  0.52540448889E+01  0.71455488323E+01  0.51100000000E-03 0. -1.
        -11    1    3    3    0    0 -0.22069585047E+02  0.27182509633E+02  0.19252852786E+02  0.39957824700E+02  0.51100000000E-03 0.  1.
         12    1    3    3    0    0  0.11705891080E+02 -0.21268705437E+02 -0.73248513248E+01  0.25358216891E+02  0.00000000000E+00 0. -1.
</event>
<event>
 7    1  0.2932676E-013  0.7246165E+02  0.7816164E-02  0.1226708E+00
        -11   -1    0    0    0    0  0.00000000000E+00  0.00000000000E+00  0.45593999997E+02  0.45594000000E+02  0.51100000000E-03 0.  1.
         11   -1    0    0    0    0 -0.00000000000E+00 -0.00000000000E+00 -0.45593999997E+02  0.45594000000E+02  0.51100000000E-03 0. -1.
    9900012    2    1    2    0    0 -0.18675192692E+01 -0.17091591689E+02  0.74206545663E+01  0.72461648276E+02  0.70000101586E+02 0.  0.
         12    1    1    2    0    0  0.18675192692E+01  0.17091591689E+02 -0.74206545663E+01  0.18726351724E+02  0.00000000000E+00 0. -1.
         11    1    3    3    0    0  0.67919770594E+01 -0.12895313503E+02 -0.14423452567E+01  0.14645832950E+02  0.51100000000E-03 0. -1.
        -11    1    3    3    0    0 -0.10577046816E+02 -0.43633639716E+01 -0.23108747489E+02  0.25786179928E+02  0.51100000000E-03 0.  1.
        -12    1    3    3    0    0  0.19175504870E+01  0.16708578497E+00  0.31971747312E+02  0.32029635398E+02  0.00000000000E+00 0.  1.
</event>
<event>
 7    1  0.2932676E-013  0.7246158E+02  0.7816164E-02  0.1226708E+00
        -11   -1    0    0    0    0  0.00000000000E+00  0.00000000000E+00  0.45593999997E+02  0.45594000000E+02  0.51100000000E-03 0. -1.
         11   -1    0    0    0    0 -0.00000000000E+00 -0.00000000000E+00 -0.45593999997E+02  0.45594000000E+02  0.51100000000E-03 0.  1.
    9900012    2    1    2    0    0  0.82230663110E+01 -0.39416532811E+00 -0.16819771093E+02  0.72461577878E+02  0.70000009879E+02 0.  0.
         12    1    1    2    0    0 -0.82230663110E+01  0.39416532811E+00  0.16819771093E+02  0.18726422122E+02  0.00000000000E+00 0. -1.
         11    1    3    3    0    0  0.61918616781E+01  0.17336312361E+02 -0.82030625415E+01  0.20153836177E+02  0.51100000000E-03 0. -1.
        -11    1    3    3    0    0 -0.93238105642E+01  0.14445198379E+02 -0.33349360271E+00  0.17196174513E+02  0.51100000000E-03 0.  1.
        -12    1    3    3    0    0  0.11355015197E+02 -0.32175676068E+02 -0.82832149488E+01  0.35111567188E+02  0.00000000000E+00 0.  1.
</event>
<event>
 7    1  0.2932676E-013  0.7246146E+02  0.7816164E-02  0.1226708E+00
        -11   -1    0    0    0    0  0.00000000000E+00  0.00000000000E+00  0.45593999997E+02  0.45594000000E+02  0.51100000000E-03 0. -1.
         11   -1    0    0    0    0 -0.00000000000E+00 -0.00000000000E+00 -0.45593999997E+02  0.45594000000E+02  0.51100000000E-03 0.  1.
    9900012    2    1    2    0    0 -0.17845244281E+02  0.13238480883E+00 -0.56756454545E+01  0.72461462132E+02  0.69999859098E+02 0.  0.
         12    1    1    2    0    0  0.17845244281E+02 -0.13238480883E+00  0.56756454545E+01  0.18726537868E+02  0.00000000000E+00 0. -1.
         11    1    3    3    0    0 -0.14921048867E+02 -0.17300642078E+01 -0.82937978570E+01  0.17158610218E+02  0.51100000000E-03 0. -1.
        -11    1    3    3    0    0 -0.25555412030E+02  0.14355796208E+02  0.28629416751E+01  0.29451050984E+02  0.51100000000E-03 0.  1.
         12    1    3    3    0    0  0.22631216615E+02 -0.12493347191E+02 -0.24478927264E+00  0.25851800930E+02  0.00000000000E+00 0. -1.
</event>
<event>
 7    1  0.2932676E-013  0.7246160E+02  0.7816164E-02  0.1226708E+00
        -11   -1    0    0    0    0  0.00000000000E+00  0.00000000000E+00  0.45593999997E+02  0.45594000000E+02  0.51100000000E-03 0.  1.
         11   -1    0    0    0    0 -0.00000000000E+00 -0.00000000000E+00 -0.45593999997E+02  0.45594000000E+02  0.51100000000E-03 0. -1.
    9900012    2    1    2    0    0  0.86101471470E+01 -0.13380267596E+02  0.98748070062E+01  0.72461601301E+02  0.70000040391E+02 0.  0.
         12    1    1    2    0    0 -0.86101471470E+01  0.13380267596E+02 -0.98748070062E+01  0.18726398699E+02  0.00000000000E+00 0. -1.
         11    1    3    3    0    0 -0.16835058883E+02 -0.56355259607E+01  0.44471867218E+01  0.18301798557E+02  0.51100000000E-03 0. -1.
        -11    1    3    3    0    0  0.88044910517E+01 -0.11294968459E+02 -0.19367940619E+02  0.24087600529E+02  0.51100000000E-03 0.  1.
        -12    1    3    3    0    0  0.16640714978E+02  0.35502268236E+01  0.24795560903E+02  0.30072202214E+02  0.00000000000E+00 0.  1.
</event>
<event>
 7    1  0.2932676E-013  0.7246160E+02  0.7816164E-02  0.1226708E+00
        -11   -1    0    0    0    0  0.00000000000E+00  0.00000000000E+00  0.45593999997E+02  0.45594000000E+02  0.51100000000E-03 0.  1.
         11   -1    0    0    0    0 -0.00000000000E+00 -0.00000000000E+00 -0.45593999997E+02  0.45594000000E+02  0.51100000000E-03 0. -1.
    9900012    2    1    2    0    0  0.21211832281E+01 -0.17234773569E+02  0.70100694206E+01  0.72461603883E+02  0.70000043755E+02 0.  0.
         12    1    1    2    0    0 -0.21211832281E+01  0.17234773569E+02 -0.70100694206E+01  0.18726396117E+02  0.00000000000E+00 0. -1.
         11    1    3    3    0    0  0.14868674935E+02 -0.34290985598E+02  0.17242628995E+02  0.41161358609E+02  0.51100000000E-03 0. -1.
        -11    1    3    3    0    0 -0.34593499020E+01  0.45529475074E+01  0.63531888863E+01  0.85474816195E+01  0.51100000000E-03 0.  1.
        -12    1    3    3    0    0 -0.92881418050E+01  0.12503264522E+02 -0.16585748461E+02  0.22752763654E+02  0.00000000000E+00 0.  1.
</event>
<event>
 7    1  0.2932676E-013  0.7246159E+02  0.7816164E-02  0.1226708E+00
        -11   -1    0    0    0    0  0.00000000000E+00  0.00000000000E+00  0.45593999997E+02  0.45594000000E+02  0.51100000000E-03 0.  1.
         11   -1    0    0    0    0 -0.00000000000E+00 -0.00000000000E+00 -0.45593999997E+02  0.45594000000E+02  0.51100000000E-03 0. -1.
    9900012    2    1    2    0    0  0.14436754129E+02  0.19683533024E+01  0.11763680878E+02  0.72461588911E+02  0.70000024251E+02 0.  0.
         12    1    1    2    0    0 -0.14436754129E+02 -0.19683533024E+01 -0.11763680878E+02  0.18726411089E+02  0.00000000000E+00 0. -1.
         11    1    3    3    0    0 -0.15944454562E+02  0.11158527416E+02  0.75148437883E+00  0.19475705235E+02  0.51100000000E-03 0. -1.
        -11    1    3    3    0    0  0.68956930081E+01 -0.18741510251E+02 -0.77752780900E+01  0.21430112883E+02  0.51100000000E-03 0.  1.
        -12    1    3    3    0    0  0.23485515682E+02  0.95513361380E+01  0.18787474589E+02  0.31555770793E+02  0.00000000000E+00 0.  1.
</event>
<event>
 7    1  0.2932676E-013  0.7246216E+02  0.7816164E-02  0.1226706E+00
        -11   -1    0    0    0    0  0.00000000000E+00  0.00000000000E+00  0.45593999997E+02  0.45594000000E+02  0.51100000000E-03 0. -1.
         11   -1    0    0    0    0 -0.00000000000E+00 -0.00000000000E+00 -0.45593999997E+02  0.45594000000E+02  0.51100000000E-03 0.  1.
    9900012    2    1    2    0    0 -0.16658049058E+02  0.84116050016E+01 -0.15528403892E+01  0.72462161958E+02  0.70000770747E+02 0.  0.
         12    1    1    2    0    0  0.16658049058E+02 -0.84116050016E+01  0.15528403892E+01  0.18725838042E+02  0.00000000000E+00 0. -1.
         11    1    3    3    0    0 -0.23462457079E+01  0.15029943615E+02 -0.40587535860E+01  0.15744127633E+02  0.51100000000E-03 0. -1.
        -11    1    3    3    0    0 -0.26503951913E+02 -0.63034896887E+01 -0.18146250378E+02  0.32733466854E+02  0.51100000000E-03 0.  1.
        -12    1    3    3    0    0  0.12192148563E+02 -0.31484892514E+00  0.20652163574E+02  0.23984567470E+02  0.00000000000E+00 0.  1.
</event>
<event>
 7    1  0.2932676E-013  0.7246150E+02  0.7816164E-02  0.1226708E+00
        -11   -1    0    0    0    0  0.00000000000E+00  0.00000000000E+00  0.45593999997E+02  0.45594000000E+02  0.51100000000E-03 0. -1.
         11   -1    0    0    0    0 -0.00000000000E+00 -0.00000000000E+00 -0.45593999997E+02  0.45594000000E+02  0.51100000000E-03 0.  1.
    9900012    2    1    2    0    0 -0.49149109959E+01 -0.18671619263E+01 -0.17973292500E+02  0.72461497736E+02  0.69999905479E+02 0.  0.
         12    1    1    2    0    0  0.49149109959E+01  0.18671619263E+01  0.17973292500E+02  0.18726502264E+02  0.00000000000E+00 0. -1.
         11    1    3    3    0    0 -0.85966221219E+01  0.42925579082E+01  0.91538633640E+01  0.13271065521E+02  0.51100000000E-03 0. -1.
        -11    1    3    3    0    0 -0.23180834159E+02  0.35191937427E+01 -0.77943702694E+01  0.24708055469E+02  0.51100000000E-03 0.  1.
        -12    1    3    3    0    0  0.26862545285E+02 -0.96789135773E+01 -0.19332785595E+02  0.34482376746E+02  0.00000000000E+00 0.  1.
</event>
<event>
 7    1  0.2932676E-013  0.7246164E+02  0.7816164E-02  0.1226708E+00
        -11   -1    0    0    0    0  0.00000000000E+00  0.00000000000E+00  0.45593999997E+02  0.45594000000E+02  0.51100000000E-03 0.  1.
         11   -1    0    0    0    0 -0.00000000000E+00 -0.00000000000E+00 -0.45593999997E+02  0.45594000000E+02  0.51100000000E-03 0. -1.
    9900012    2    1    2    0    0  0.15466900059E+02 -0.61250363392E+01  0.85985782384E+01  0.72461638493E+02  0.70000088841E+02 0.  0.
         12    1    1    2    0    0 -0.15466900059E+02  0.61250363392E+01 -0.85985782384E+01  0.18726361507E+02  0.00000000000E+00 0. -1.
         11    1    3    3    0    0  0.38988463849E+01  0.70848421550E+01  0.24239774574E+02  0.25553134117E+02  0.51100000000E-03 0. -1.
        -11    1    3    3    0    0 -0.54726634373E+01 -0.29553275454E+01  0.11610416112E+02  0.13171399642E+02  0.51100000000E-03 0.  1.
         12    1    3    3    0    0  0.17040717111E+02 -0.10254550949E+02 -0.27251612448E+02  0.33737104734E+02  0.00000000000E+00 0. -1.
</event>
<event>
 7    1  0.2932676E-013  0.7246152E+02  0.7816164E-02  0.1226708E+00
        -11   -1    0    0    0    0  0.00000000000E+00  0.00000000000E+00  0.45593999997E+02  0.45594000000E+02  0.51100000000E-03 0.  1.
         11   -1    0    0    0    0 -0.00000000000E+00 -0.00000000000E+00 -0.45593999997E+02  0.45594000000E+02  0.51100000000E-03 0. -1.
    9900012    2    1    2    0    0 -0.89188249462E+01 -0.51313317302E+01  0.15646244987E+02  0.72461521796E+02  0.69999936821E+02 0.  0.
         12    1    1    2    0    0  0.89188249462E+01  0.51313317302E+01 -0.15646244987E+02  0.18726478204E+02  0.00000000000E+00 0. -1.
         11    1    3    3    0    0  0.54063466797E+01 -0.91119212449E+01  0.70865084724E+01  0.12746540542E+02  0.51100000000E-03 0. -1.
        -11    1    3    3    0    0 -0.29697797886E+02 -0.12685484606E+02 -0.58932427113E+01  0.32826986289E+02  0.51100000000E-03 0.  1.
         12    1    3    3    0    0  0.15372626260E+02  0.16666074120E+02  0.14452979226E+02  0.26887994964E+02  0.00000000000E+00 0. -1.
</event>
<event>
 7    1  0.2932676E-013  0.7246146E+02  0.7816164E-02  0.1226708E+00
        -11   -1    0    0    0    0  0.00000000000E+00  0.00000000000E+00  0.45593999997E+02  0.45594000000E+02  0.51100000000E-03 0. -1.
         11   -1    0    0    0    0 -0.00000000000E+00 -0.00000000000E+00 -0.45593999997E+02  0.45594000000E+02  0.51100000000E-03 0.  1.
    9900012    2    1    2    0    0  0.99354692348E+01  0.13810482479E+02  0.78256296869E+01  0.72461455866E+02  0.69999850936E+02 0.  0.
         12    1    1    2    0    0 -0.99354692348E+01 -0.13810482479E+02 -0.78256296869E+01  0.18726544134E+02  0.00000000000E+00 0. -1.
         11    1    3    3    0    0  0.76038856471E+00  0.86586482087E+01 -0.63933882702E+01  0.10790078471E+02  0.51100000000E-03 0. -1.
        -11    1    3    3    0    0  0.25352903318E+02  0.76664247762E+01 -0.13309203052E+02  0.29642514428E+02  0.51100000000E-03 0.  1.
         12    1    3    3    0    0 -0.16177822648E+02 -0.25145905063E+01  0.27528221009E+02  0.32028862967E+02  0.00000000000E+00 0. -1.
</event>
<event>
 7    1  0.2932676E-013  0.7246159E+02  0.7816164E-02  0.1226708E+00
        -11   -1    0    0    0    0  0.00000000000E+00  0.00000000000E+00  0.45593999997E+02  0.45594000000E+02  0.51100000000E-03 0.  1.
         11   -1    0    0    0    0 -0.00000000000E+00 -0.00000000000E+00 -0.45593999997E+02  0.45594000000E+02  0.51100000000E-03 0. -1.
    9900012    2    1    2    0    0  0.10886123894E+02 -0.11346002119E+02  0.10170495016E+02  0.72461590136E+02  0.70000025847E+02 0.  0.
         12    1    1    2    0    0 -0.10886123894E+02  0.11346002119E+02 -0.10170495016E+02  0.18726409864E+02  0.00000000000E+00 0. -1.
         11    1    3    3    0    0  0.16295497742E+02  0.24153427095E+02  0.20908361848E+01  0.29211348536E+02  0.51100000000E-03 0. -1.
        -11    1    3    3    0    0 -0.49039037083E+01 -0.58042654666E+01 -0.66511031229E+01  0.10098264316E+02  0.51100000000E-03 0.  1.
        -12    1    3    3    0    0 -0.50547013980E+00 -0.29695163747E+02  0.14730761955E+02  0.33151977284E+02  0.00000000000E+00 0.  1.
</event>
<event>
 7    1  0.2932676E-013  0.7246164E+02  0.7816164E-02  0.1226708E+00
        -11   -1    0    0    0    0  0.00000000000E+00  0.00000000000E+00  0.45593999997E+02  0.45594000000E+02  0.51100000000E-03 0.  1.
         11   -1    0    0    0    0 -0.00000000000E+00 -0.00000000000E+00 -0.45593999997E+02  0.45594000000E+02  0.51100000000E-03 0. -1.
    9900012    2    1    2    0    0 -0.12333911435E+02  0.12165570117E+02 -0.71098659043E+01  0.72461637279E+02  0.70000087260E+02 0.  0.
         12    1    1    2    0    0  0.12333911435E+02 -0.12165570117E+02  0.71098659043E+01  0.18726362721E+02  0.00000000000E+00 0. -1.
         11    1    3    3    0    0 -0.31015253408E+02  0.27960871452E+01 -0.10553565428E+02  0.32880720655E+02  0.51100000000E-03 0. -1.
        -11    1    3    3    0    0 -0.38141561308E+01  0.15031071447E+02 -0.23162991861E+01  0.15679481434E+02  0.51100000000E-03 0.  1.
        -12    1    3    3    0    0  0.22495498104E+02 -0.56615884754E+01  0.57599987100E+01  0.23901435190E+02  0.00000000000E+00 0.  1.
</event>
<event>
 7    1  0.2932676E-013  0.7246150E+02  0.7816164E-02  0.1226708E+00
        -11   -1    0    0    0    0  0.00000000000E+00  0.00000000000E+00  0.45593999997E+02  0.45594000000E+02  0.51100000000E-03 0. -1.
         11   -1    0    0    0    0 -0.00000000000E+00 -0.00000000000E+00 -0.45593999997E+02  0.45594000000E+02  0.51100000000E-03 0.  1.
    9900012    2    1    2    0    0 -0.69784084061E+01 -0.63805124306E+01  0.16163933437E+02  0.72461498273E+02  0.69999906179E+02 0.  0.
         12    1    1    2    0    0  0.69784084061E+01  0.63805124306E+01 -0.16163933437E+02  0.18726501727E+02  0.00000000000E+00 0. -1.
         11    1    3    3    0    0 -0.32011430639E+02 -0.21237760928E+02  0.25951229790E+01  0.38503361468E+02  0.51100000000E-03 0.  1.
        -11    1    3    3    0    0  0.34478485076E+01  0.29463131577E+01  0.71765936043E+01  0.84895180416E+01  0.51100000000E-03 0. -1.
        -12    1    3    3    0    0  0.21585173725E+02  0.11910935340E+02  0.63922168538E+01  0.25468618764E+02  0.00000000000E+00 0.  1.
</event>
<event>
 7    1  0.2932676E-013  0.7246159E+02  0.7816164E-02  0.1226708E+00
        -11   -1    0    0    0    0  0.00000000000E+00  0.00000000000E+00  0.45593999997E+02  0.45594000000E+02  0.51100000000E-03 0. -1.
         11   -1    0    0    0    0 -0.00000000000E+00 -0.00000000000E+00 -0.45593999997E+02  0.45594000000E+02  0.51100000000E-03 0.  1.
    9900012    2    1    2    0    0 -0.26740147803E+01 -0.17934768690E+02  0.46767562258E+01  0.72461592661E+02  0.70000029137E+02 0.  0.
         12    1    1    2    0    0  0.26740147803E+01  0.17934768690E+02 -0.46767562258E+01  0.18726407339E+02  0.00000000000E+00 0. -1.
         11    1    3    3    0    0  0.97754216366E+01 -0.11012094771E+02 -0.14434033378E+02  0.20619563993E+02  0.51100000000E-03 0. -1.
        -11    1    3    3    0    0 -0.33548595264E+01 -0.23743647209E+01 -0.15361213027E+02  0.15901558294E+02  0.51100000000E-03 0.  1.
         12    1    3    3    0    0 -0.90945768906E+01 -0.45483091982E+01  0.34472002631E+02  0.35940470375E+02  0.00000000000E+00 0. -1.
</event>
<event>
 7    1  0.2932676E-013  0.7246159E+02  0.7816164E-02  0.1226708E+00
        -11   -1    0    0    0    0  0.00000000000E+00  0.00000000000E+00  0.45593999997E+02  0.45594000000E+02  0.51100000000E-03 0.  1.
         11   -1    0    0    0    0 -0.00000000000E+00 -0.00000000000E+00 -0.45593999997E+02  0.45594000000E+02  0.51100000000E-03 0. -1.
    9900012    2    1    2    0    0 -0.14832419474E+02 -0.10137460932E+02  0.52829450573E+01  0.72461593776E+02  0.70000030589E+02 0.  0.
         12    1    1    2    0    0  0.14832419474E+02  0.10137460932E+02 -0.52829450573E+01  0.18726406224E+02  0.00000000000E+00 0. -1.
         11    1    3    3    0    0 -0.10065120109E+02 -0.23051138308E+02  0.17299245217E+02  0.30527454945E+02  0.51100000000E-03 0.  1.
        -11    1    3    3    0    0  0.32260441065E+01  0.17288589394E+02  0.84643157180E+01  0.19517871929E+02  0.51100000000E-03 0. -1.
         12    1    3    3    0    0 -0.79933434719E+01 -0.43749120181E+01 -0.20480615878E+02  0.22416266901E+02  0.00000000000E+00 0. -1.
</event>
<event>
 7    1  0.2932676E-013  0.7246160E+02  0.7816164E-02  0.1226708E+00
        -11   -1    0    0    0    0  0.00000000000E+00  0.00000000000E+00  0.45593999997E+02  0.45594000000E+02  0.51100000000E-03 0. -1.
         11   -1    0    0    0    0 -0.00000000000E+00 -0.00000000000E+00 -0.45593999997E+02  0.45594000000E+02  0.51100000000E-03 0.  1.
    9900012    2    1    2    0    0  0.20854708675E+01 -0.62392534511E+01 -0.17532846075E+02  0.72461597146E+02  0.70000034979E+02 0.  0.
         12    1    1    2    0    0 -0.20854708675E+01  0.62392534511E+01  0.17532846075E+02  0.18726402854E+02  0.00000000000E+00 0. -1.
         11    1    3    3    0    0  0.14806667514E+02 -0.14612689126E+02 -0.38659097913E+00  0.20806670546E+02  0.51100000000E-03 0. -1.
        -11    1    3    3    0    0 -0.60345309672E+01 -0.19163818626E+02 -0.43239565838E+01  0.20551498951E+02  0.51100000000E-03 0.  1.
         12    1    3    3    0    0 -0.66866656796E+01  0.27537254301E+02 -0.12822298512E+02  0.31103427649E+02  0.00000000000E+00 0. -1.
</event>
<event>
 7    1  0.3443598E-013  0.7246155E+02  0.7816164E-02  0.1226708E+00
        -11   -1    0    0    0    0  0.00000000000E+00  0.00000000000E+00  0.45593999997E+02  0.45594000000E+02  0.51100000000E-03 0. -1.
         11   -1    0    0    0    0 -0.00000000000E+00 -0.00000000000E+00 -0.45593999997E+02  0.45594000000E+02  0.51100000000E-03 0.  1.
    9900012    2    1    2    0    0 -0.80787997706E+01 -0.41959044243E+01 -0.16364815498E+02  0.72461553302E+02  0.69999977864E+02 0.  0.
         12    1    1    2    0    0  0.80787997706E+01  0.41959044243E+01  0.16364815498E+02  0.18726446698E+02  0.00000000000E+00 0. -1.
         11    1    3    3    0    0  0.22017263465E+01 -0.58881201331E+01  0.20737798669E+02  0.21669652778E+02  0.51100000000E-03 0. -1.
        -11    1    3    3    0    0 -0.37493513469E+01 -0.14458153820E+02 -0.81846173091E+01  0.17031846880E+02  0.51100000000E-03 0.  1.
        -12    1    3    3    0    0 -0.65311747702E+01  0.16150369528E+02 -0.28917996858E+02  0.33760053644E+02  0.00000000000E+00 0.  1.
</event>
<event>
 7    1  0.2932676E-013  0.7246156E+02  0.7816164E-02  0.1226708E+00
        -11   -1    0    0    0    0  0.00000000000E+00  0.00000000000E+00  0.45593999997E+02  0.45594000000E+02  0.51100000000E-03 0. -1.
         11   -1    0    0    0    0 -0.00000000000E+00 -0.00000000000E+00 -0.45593999997E+02  0.45594000000E+02  0.51100000000E-03 0.  1.
    9900012    2    1    2    0    0  0.10770318354E+02 -0.13328089524E+02  0.75526115573E+01  0.72461556955E+02  0.69999982623E+02 0.  0.
         12    1    1    2    0    0 -0.10770318354E+02  0.13328089524E+02 -0.75526115573E+01  0.18726443045E+02  0.00000000000E+00 0. -1.
         11    1    3    3    0    0  0.62375762908E+01 -0.14812521731E+02  0.31121730442E+02  0.35026850615E+02  0.51100000000E-03 0. -1.
        -11    1    3    3    0    0 -0.68085122026E+01  0.53812797292E+01  0.22510772662E+01  0.89655651833E+01  0.51100000000E-03 0.  1.
         12    1    3    3    0    0  0.11341254265E+02 -0.38968475218E+01 -0.25820196151E+02  0.28469141157E+02  0.00000000000E+00 0. -1.
</event>
<event>
 7    1  0.2932676E-013  0.7246157E+02  0.7816164E-02  0.1226708E+00
        -11   -1    0    0    0    0  0.00000000000E+00  0.00000000000E+00  0.45593999997E+02  0.45594000000E+02  0.51100000000E-03 0. -1.
         11   -1    0    0    0    0 -0.00000000000E+00 -0.00000000000E+00 -0.45593999997E+02  0.45594000000E+02  0.51100000000E-03 0.  1.
    9900012    2    1    2    0    0  0.35580903664E+01 -0.16699357041E+02  0.76909418918E+01  0.72461571622E+02  0.70000001729E+02 0.  0.
         12    1    1    2    0    0 -0.35580903664E+01  0.16699357041E+02 -0.76909418918E+01  0.18726428378E+02  0.00000000000E+00 0. -1.
         11    1    3    3    0    0  0.22122852283E+02  0.10422581202E+02 -0.58299631513E+00  0.24462025203E+02  0.51100000000E-03 0. -1.
        -11    1    3    3    0    0  0.69789133542E+01 -0.11436483777E+02  0.11754166353E+02  0.17822985712E+02  0.51100000000E-03 0.  1.
        -12    1    3    3    0    0 -0.25543675271E+02 -0.15685454466E+02 -0.34802281460E+01  0.30176560707E+02  0.00000000000E+00 0.  1.
</event>
<event>
 7    1  0.2932676E-013  0.7246166E+02  0.7816164E-02  0.1226708E+00
        -11   -1    0    0    0    0  0.00000000000E+00  0.00000000000E+00  0.45593999997E+02  0.45594000000E+02  0.51100000000E-03 0.  1.
         11   -1    0    0    0    0 -0.00000000000E+00 -0.00000000000E+00 -0.45593999997E+02  0.45594000000E+02  0.51100000000E-03 0. -1.
    9900012    2    1    2    0    0 -0.10145977627E+02 -0.48681739441E+01  0.14967826532E+02  0.72461659978E+02  0.70000116829E+02 0.  0.
         12    1    1    2    0    0  0.10145977627E+02  0.48681739441E+01 -0.14967826532E+02  0.18726340022E+02  0.00000000000E+00 0. -1.
         11    1    3    3    0    0 -0.30215965008E+02 -0.23641919194E+02 -0.36068371907E+01  0.38535102949E+02  0.51100000000E-03 0. -1.
        -11    1    3    3    0    0  0.45360801005E+01  0.71843588983E+01  0.87549518611E+01  0.12200008927E+02  0.51100000000E-03 0.  1.
        -12    1    3    3    0    0  0.15533907280E+02  0.11589386351E+02  0.98197118612E+01  0.21726548102E+02  0.00000000000E+00 0.  1.
</event>
<event>
 7    1  0.2932676E-013  0.7246159E+02  0.7816164E-02  0.1226708E+00
        -11   -1    0    0    0    0  0.00000000000E+00  0.00000000000E+00  0.45593999997E+02  0.45594000000E+02  0.51100000000E-03 0. -1.
         11   -1    0    0    0    0 -0.00000000000E+00 -0.00000000000E+00 -0.45593999997E+02  0.45594000000E+02  0.51100000000E-03 0.  1.
    9900012    2    1    2    0    0  0.16873785301E+01  0.10140191248E+02 -0.15652719283E+02  0.72461592288E+02  0.70000028651E+02 0.  0.
         12    1    1    2    0    0 -0.16873785301E+01 -0.10140191248E+02  0.15652719283E+02  0.18726407712E+02  0.00000000000E+00 0. -1.
         11    1    3    3    0    0  0.29625794204E+02 -0.30250572480E+01 -0.13207736719E+01  0.29809110972E+02  0.51100000000E-03 0. -1.
        -11    1    3    3    0    0 -0.19432454393E+01  0.94184244199E+01  0.42151257410E+01  0.10500009841E+02  0.51100000000E-03 0.  1.
        -12    1    3    3    0    0 -0.25995170235E+02  0.37468240761E+01 -0.18547071352E+02  0.32152471475E+02  0.00000000000E+00 0.  1.
</event>
<event>
 7    1  0.2932676E-013  0.7246141E+02  0.7816164E-02  0.1226708E+00
        -11   -1    0    0    0    0  0.00000000000E+00  0.00000000000E+00  0.45593999997E+02  0.45594000000E+02  0.51100000000E-03 0. -1.
         11   -1    0    0    0    0 -0.00000000000E+00 -0.00000000000E+00 -0.45593999997E+02  0.45594000000E+02  0.51100000000E-03 0.  1.
    9900012    2    1    2    0    0  0.16535893342E+01 -0.10055899423E+02  0.15710815584E+02  0.72461409354E+02  0.69999790345E+02 0.  0.
         12    1    1    2    0    0 -0.16535893342E+01  0.10055899423E+02 -0.15710815584E+02  0.18726590646E+02  0.00000000000E+00 0. -1.
         11    1    3    3    0    0 -0.17238625548E+02  0.18517568593E+02  0.17954349588E+02  0.31023043480E+02  0.51100000000E-03 0. -1.
        -11    1    3    3    0    0  0.53868722308E+00 -0.12506034639E+01  0.70948877242E+01  0.72243771377E+01  0.51100000000E-03 0.  1.
        -12    1    3    3    0    0  0.18353527659E+02 -0.27322864553E+02 -0.93384217279E+01  0.34213988736E+02  0.00000000000E+00 0.  1.
</event>
<event>
 7    1  0.2932676E-013  0.7246144E+02  0.7816164E-02  0.1226708E+00
        -11   -1    0    0    0    0  0.00000000000E+00  0.00000000000E+00  0.45593999997E+02  0.45594000000E+02  0.51100000000E-03 0. -1.
         11   -1    0    0    0    0 -0.00000000000E+00 -0.00000000000E+00 -0.45593999997E+02  0.45594000000E+02  0.51100000000E-03 0.  1.
    9900012    2    1    2    0    0 -0.78422819179E+01 -0.12402173016E+02 -0.11634809294E+02  0.72461439491E+02  0.69999829604E+02 0.  0.
         12    1    1    2    0    0  0.78422819179E+01  0.12402173016E+02  0.11634809294E+02  0.18726560509E+02  0.00000000000E+00 0. -1.
         11    1    3    3    0    0  0.75936179279E+01  0.17947652835E+01 -0.13610504083E+02  0.15688532032E+02  0.51100000000E-03 0. -1.
        -11    1    3    3    0    0  0.10472261754E+02 -0.18832704684E+02 -0.14268202777E+02  0.25844160708E+02  0.51100000000E-03 0.  1.
         12    1    3    3    0    0 -0.25908161599E+02  0.46357663846E+01  0.16243897566E+02  0.30928746751E+02  0.00000000000E+00 0. -1.
</event>
<event>
 7    1  0.2932676E-013  0.7246158E+02  0.7816164E-02  0.1226708E+00
        -11   -1    0    0    0    0  0.00000000000E+00  0.00000000000E+00  0.45593999997E+02  0.45594000000E+02  0.51100000000E-03 0.  1.
         11   -1    0    0    0    0 -0.00000000000E+00 -0.00000000000E+00 -0.45593999997E+02  0.45594000000E+02  0.51100000000E-03 0. -1.
    9900012    2    1    2    0    0 -0.16292847634E+02  0.41144229726E+01  0.82639824998E+01  0.72461581037E+02  0.70000013994E+02 0.  0.
         12    1    1    2    0    0  0.16292847634E+02 -0.41144229726E+01 -0.82639824998E+01  0.18726418963E+02  0.00000000000E+00 0. -1.
         11    1    3    3    0    0  0.28220636074E+01  0.23563251491E+00 -0.11062922264E+02  0.11419624117E+02  0.51100000000E-03 0. -1.
        -11    1    3    3    0    0 -0.19080814088E+02  0.21519918916E+02 -0.67652227464E+01  0.29545771533E+02  0.51100000000E-03 0.  1.
        -12    1    3    3    0    0 -0.34097153708E-01 -0.17641128458E+02  0.26092127511E+02  0.31496185387E+02  0.00000000000E+00 0.  1.
</event>
<event>
 7    1  0.2932676E-013  0.7246157E+02  0.7816164E-02  0.1226708E+00
        -11   -1    0    0    0    0  0.00000000000E+00  0.00000000000E+00  0.45593999997E+02  0.45594000000E+02  0.51100000000E-03 0.  1.
         11   -1    0    0    0    0 -0.00000000000E+00 -0.00000000000E+00 -0.45593999997E+02  0.45594000000E+02  0.51100000000E-03 0. -1.
    9900012    2    1    2    0    0 -0.11179588058E+02 -0.11013511642E+02  0.10217562069E+02  0.72461569414E+02  0.69999998854E+02 0.  0.
         12    1    1    2    0    0  0.11179588058E+02  0.11013511642E+02 -0.10217562069E+02  0.18726430586E+02  0.00000000000E+00 0. -1.
         11    1    3    3    0    0 -0.10504427832E+01  0.69124640945E+01 -0.73343881797E+01  0.10133056801E+02  0.51100000000E-03 0. -1.
        -11    1    3    3    0    0  0.19621617170E+02 -0.42903136339E+01 -0.71562749631E+01  0.21321982156E+02  0.51100000000E-03 0.  1.
        -12    1    3    3    0    0 -0.29750762445E+02 -0.13635662103E+02  0.24708225212E+02  0.41006530457E+02  0.00000000000E+00 0.  1.
</event>
<event>
 7    1  0.2932676E-013  0.7246159E+02  0.7816164E-02  0.1226708E+00
        -11   -1    0    0    0    0  0.00000000000E+00  0.00000000000E+00  0.45593999997E+02  0.45594000000E+02  0.51100000000E-03 0.  1.
         11   -1    0    0    0    0 -0.00000000000E+00 -0.00000000000E+00 -0.45593999997E+02  0.45594000000E+02  0.51100000000E-03 0. -1.
    9900012    2    1    2    0    0  0.66632722291E+01  0.16614582849E+02 -0.54986365696E+01  0.72461586458E+02  0.70000021056E+02 0.  0.
         12    1    1    2    0    0 -0.66632722291E+01 -0.16614582849E+02  0.54986365696E+01  0.18726413542E+02  0.00000000000E+00 0. -1.
         11    1    3    3    0    0  0.12988906668E+02  0.39916651464E+01 -0.22023769691E+02  0.25878398689E+02  0.51100000000E-03 0. -1.
        -11    1    3    3    0    0  0.11393193789E+02  0.21037986223E+02  0.85116749761E+01  0.25393903603E+02  0.51100000000E-03 0.  1.
         12    1    3    3    0    0 -0.17718828228E+02 -0.84150685212E+01  0.80134581449E+01  0.21189284165E+02  0.00000000000E+00 0. -1.
</event>
<event>
 7    1  0.2932676E-013  0.7246158E+02  0.7816164E-02  0.1226708E+00
        -11   -1    0    0    0    0  0.00000000000E+00  0.00000000000E+00  0.45593999997E+02  0.45594000000E+02  0.51100000000E-03 0.  1.
         11   -1    0    0    0    0 -0.00000000000E+00 -0.00000000000E+00 -0.45593999997E+02  0.45594000000E+02  0.51100000000E-03 0. -1.
    9900012    2    1    2    0    0 -0.15633978149E+02  0.53319528527E+01 -0.88219972362E+01  0.72461584720E+02  0.70000018793E+02 0.  0.
         12    1    1    2    0    0  0.15633978149E+02 -0.53319528527E+01  0.88219972362E+01  0.18726415280E+02  0.00000000000E+00 0. -1.
         11    1    3    3    0    0  0.27881604747E+01 -0.67622841041E+01  0.10045759980E+02  0.12426569075E+02  0.51100000000E-03 0. -1.
        -11    1    3    3    0    0 -0.14864543438E+02 -0.70888998120E+01  0.14131018461E+02  0.21700065326E+02  0.51100000000E-03 0.  1.
         12    1    3    3    0    0 -0.35575951860E+01  0.19183136769E+02 -0.32998775677E+02  0.38334950319E+02  0.00000000000E+00 0. -1.
</event>
<event>
 7    1  0.2932676E-013  0.7246160E+02  0.7816164E-02  0.1226708E+00
        -11   -1    0    0    0    0  0.00000000000E+00  0.00000000000E+00  0.45593999997E+02  0.45594000000E+02  0.51100000000E-03 0. -1.
         11   -1    0    0    0    0 -0.00000000000E+00 -0.00000000000E+00 -0.45593999997E+02  0.45594000000E+02  0.51100000000E-03 0.  1.
    9900012    2    1    2    0    0  0.17114064001E+02  0.65945409099E+01 -0.37813731333E+01  0.72461603144E+02  0.70000042793E+02 0.  0.
         12    1    1    2    0    0 -0.17114064001E+02 -0.65945409099E+01  0.37813731333E+01  0.18726396856E+02  0.00000000000E+00 0. -1.
         11    1    3    3    0    0  0.13334897611E+02  0.22113058690E+01  0.19092464483E+02  0.23392981175E+02  0.51100000000E-03 0. -1.
        -11    1    3    3    0    0  0.95263316830E+01 -0.17697521753E+02 -0.70381535420E+01  0.21295278281E+02  0.51100000000E-03 0.  1.
        -12    1    3    3    0    0 -0.57471652931E+01  0.22080756794E+02 -0.15835684075E+02  0.27773343688E+02  0.00000000000E+00 0.  1.
</event>
<event>
 7    1  0.2932676E-013  0.7246157E+02  0.7816164E-02  0.1226708E+00
        -11   -1    0    0    0    0  0.00000000000E+00  0.00000000000E+00  0.45593999997E+02  0.45594000000E+02  0.51100000000E-03 0. -1.
         11   -1    0    0    0    0 -0.00000000000E+00 -0.00000000000E+00 -0.45593999997E+02  0.45594000000E+02  0.51100000000E-03 0.  1.
    9900012    2    1    2    0    0 -0.15794554624E+02  0.89876664732E+01  0.45202763205E+01  0.72461574756E+02  0.70000005812E+02 0.  0.
         12    1    1    2    0    0  0.15794554624E+02 -0.89876664732E+01 -0.45202763205E+01  0.18726425244E+02  0.00000000000E+00 0. -1.
         11    1    3    3    0    0  0.86400132575E+01  0.87386894049E+01  0.22913517887E+02  0.26000842752E+02  0.51100000000E-03 0. -1.
        -11    1    3    3    0    0 -0.19158695573E+02  0.15225491952E+02 -0.35560069635E+01  0.24728857779E+02  0.51100000000E-03 0.  1.
         12    1    3    3    0    0 -0.52758723089E+01 -0.14976514884E+02 -0.14837234603E+02  0.21731874225E+02  0.00000000000E+00 0. -1.
</event>
<event>
 7    1  0.2932676E-013  0.7246158E+02  0.7816164E-02  0.1226708E+00
        -11   -1    0    0    0    0  0.00000000000E+00  0.00000000000E+00  0.45593999997E+02  0.45594000000E+02  0.51100000000E-03 0.  1.
         11   -1    0    0    0    0 -0.00000000000E+00 -0.00000000000E+00 -0.45593999997E+02  0.45594000000E+02  0.51100000000E-03 0. -1.
    9900012    2    1    2    0    0  0.33702448650E+00 -0.15083593180E+02  0.11092807663E+02  0.72461581480E+02  0.70000014571E+02 0.  0.
         12    1    1    2    0    0 -0.33702448650E+00  0.15083593180E+02 -0.11092807663E+02  0.18726418520E+02  0.00000000000E+00 0. -1.
         11    1    3    3    0    0 -0.56493294433E+01 -0.21442226888E+02 -0.12199141725E+02  0.25308162244E+02  0.51100000000E-03 0. -1.
        -11    1    3    3    0    0  0.83362020430E+01  0.36732216038E+01 -0.10082764219E+02  0.13588486156E+02  0.51100000000E-03 0.  1.
        -12    1    3    3    0    0 -0.23498481132E+01  0.26854121037E+01  0.33374713607E+02  0.33564933080E+02  0.00000000000E+00 0.  1.
</event>
<event>
 7    1  0.2932676E-013  0.7246139E+02  0.7816164E-02  0.1226709E+00
        -11   -1    0    0    0    0  0.00000000000E+00  0.00000000000E+00  0.45593999997E+02  0.45594000000E+02  0.51100000000E-03 0.  1.
         11   -1    0    0    0    0 -0.00000000000E+00 -0.00000000000E+00 -0.45593999997E+02  0.45594000000E+02  0.51100000000E-03 0. -1.
    9900012    2    1    2    0    0  0.20985127577E+01  0.47012572998E+01  0.18005012887E+02  0.72461386183E+02  0.69999760161E+02 0.  0.
         12    1    1    2    0    0 -0.20985127577E+01 -0.47012572998E+01 -0.18005012887E+02  0.18726613817E+02  0.00000000000E+00 0. -1.
         11    1    3    3    0    0  0.75206591393E+01 -0.13931607202E+02  0.25691806534E+02  0.30178119828E+02  0.51100000000E-03 0. -1.
        -11    1    3    3    0    0  0.80607887763E+01  0.12600543101E+01  0.10813040195E+02  0.13545696405E+02  0.51100000000E-03 0.  1.
         12    1    3    3    0    0 -0.13482935158E+02  0.17372810192E+02 -0.18499833843E+02  0.28737569950E+02  0.00000000000E+00 0. -1.
</event>
<event>
 7    1  0.2932676E-013  0.7246152E+02  0.7816164E-02  0.1226708E+00
        -11   -1    0    0    0    0  0.00000000000E+00  0.00000000000E+00  0.45593999997E+02  0.45594000000E+02  0.51100000000E-03 0.  1.
         11   -1    0    0    0    0 -0.00000000000E+00 -0.00000000000E+00 -0.45593999997E+02  0.45594000000E+02  0.51100000000E-03 0. -1.
    9900012    2    1    2    0    0  0.24687767110E+01 -0.17117780598E+02  0.71810761986E+01  0.72461518044E+02  0.69999931935E+02 0.  0.
         12    1    1    2    0    0 -0.24687767110E+01  0.17117780598E+02 -0.71810761986E+01  0.18726481956E+02  0.00000000000E+00 0. -1.
         11    1    3    3    0    0  0.13461445894E+02  0.38877404298E+01  0.53423734286E+01  0.14995532846E+02  0.51100000000E-03 0. -1.
        -11    1    3    3    0    0 -0.82785853979E+01  0.13110546740E+02 -0.12932162790E+02  0.20190647506E+02  0.51100000000E-03 0.  1.
        -12    1    3    3    0    0 -0.27140837853E+01 -0.34116067768E+02  0.14770865560E+02  0.37275337693E+02  0.00000000000E+00 0.  1.
</event>
<event>
 7    1  0.2932676E-013  0.7246163E+02  0.7816164E-02  0.1226708E+00
        -11   -1    0    0    0    0  0.00000000000E+00  0.00000000000E+00  0.45593999997E+02  0.45594000000E+02  0.51100000000E-03 0.  1.
         11   -1    0    0    0    0 -0.00000000000E+00 -0.00000000000E+00 -0.45593999997E+02  0.45594000000E+02  0.51100000000E-03 0. -1.
    9900012    2    1    2    0    0 -0.13473688862E+02 -0.12981788772E+02 -0.78099387789E+00  0.72461626013E+02  0.70000072584E+02 0.  0.
         12    1    1    2    0    0  0.13473688862E+02  0.12981788772E+02  0.78099387789E+00  0.18726373987E+02  0.00000000000E+00 0. -1.
         11    1    3    3    0    0 -0.66517846171E+00 -0.25042195062E+01 -0.93787964905E+00  0.27555754787E+01  0.51100000000E-03 0. -1.
        -11    1    3    3    0    0  0.24679461594E+02 -0.11479759051E+02  0.12870372920E+02  0.30108257867E+02  0.51100000000E-03 0.  1.
        -12    1    3    3    0    0 -0.37487971994E+02  0.10021897855E+01 -0.12713487149E+02  0.39597792667E+02  0.00000000000E+00 0.  1.
</event>
<event>
 7    1  0.2932676E-013  0.7246156E+02  0.7816164E-02  0.1226708E+00
        -11   -1    0    0    0    0  0.00000000000E+00  0.00000000000E+00  0.45593999997E+02  0.45594000000E+02  0.51100000000E-03 0.  1.
         11   -1    0    0    0    0 -0.00000000000E+00 -0.00000000000E+00 -0.45593999997E+02  0.45594000000E+02  0.51100000000E-03 0. -1.
    9900012    2    1    2    0    0 -0.51708559755E+01 -0.49584208438E+01  0.17301905303E+02  0.72461558376E+02  0.69999984474E+02 0.  0.
         12    1    1    2    0    0  0.51708559755E+01  0.49584208438E+01 -0.17301905303E+02  0.18726441624E+02  0.00000000000E+00 0. -1.
         11    1    3    3    0    0  0.10620465580E+01  0.15647056312E+02 -0.16214674851E+02  0.22558235634E+02  0.51100000000E-03 0. -1.
        -11    1    3    3    0    0 -0.11286428254E+02 -0.11651225746E+01  0.26155497830E+02  0.28510542617E+02  0.51100000000E-03 0.  1.
        -12    1    3    3    0    0  0.50535257201E+01 -0.19440354581E+02  0.73610823249E+01  0.21392780124E+02  0.00000000000E+00 0.  1.
</event>
<event>
 7    1  0.2932676E-013  0.7246154E+02  0.7816164E-02  0.1226708E+00
        -11   -1    0    0    0    0  0.00000000000E+00  0.00000000000E+00  0.45593999997E+02  0.45594000000E+02  0.51100000000E-03 0. -1.
         11   -1    0    0    0    0 -0.00000000000E+00 -0.00000000000E+00 -0.45593999997E+02  0.45594000000E+02  0.51100000000E-03 0.  1.
    9900012    2    1    2    0    0  0.36290618275E+00 -0.18173098157E+02 -0.45041003687E+01  0.72461544979E+02  0.69999967022E+02 0.  0.
         12    1    1    2    0    0 -0.36290618275E+00  0.18173098157E+02  0.45041003687E+01  0.18726455021E+02  0.00000000000E+00 0. -1.
         11    1    3    3    0    0  0.63395097158E+01 -0.89993266160E+01  0.30166097662E+01  0.11413903702E+02  0.51100000000E-03 0. -1.
        -11    1    3    3    0    0  0.21581933371E+02 -0.54855416563E+01 -0.20586788118E+02  0.30326339386E+02  0.51100000000E-03 0.  1.
         12    1    3    3    0    0 -0.27558536904E+02 -0.36882298848E+01  0.13066077983E+02  0.30721301890E+02  0.00000000000E+00 0. -1.
</event>
<event>
 7    1  0.2932676E-013  0.7246181E+02  0.7816164E-02  0.1226707E+00
        -11   -1    0    0    0    0  0.00000000000E+00  0.00000000000E+00  0.45593999997E+02  0.45594000000E+02  0.51100000000E-03 0. -1.
         11   -1    0    0    0    0 -0.00000000000E+00 -0.00000000000E+00 -0.45593999997E+02  0.45594000000E+02  0.51100000000E-03 0.  1.
    9900012    2    1    2    0    0  0.15401286133E+02  0.10474052716E+02 -0.19403039263E+01  0.72461810474E+02  0.70000312878E+02 0.  0.
         12    1    1    2    0    0 -0.15401286133E+02 -0.10474052716E+02  0.19403039263E+01  0.18726189526E+02  0.00000000000E+00 0. -1.
         11    1    3    3    0    0 -0.19097406962E+02 -0.79625720115E+01 -0.14115276606E+02  0.25047046525E+02  0.51100000000E-03 0. -1.
        -11    1    3    3    0    0  0.13176934178E+01  0.35323638654E+01 -0.57402394474E+01  0.68676240139E+01  0.51100000000E-03 0.  1.
        -12    1    3    3    0    0  0.33180999676E+02  0.14904260862E+02  0.17915212127E+02  0.40547139935E+02  0.00000000000E+00 0.  1.
</event>
<event>
 7    1  0.2932676E-013  0.7246157E+02  0.7816164E-02  0.1226708E+00
        -11   -1    0    0    0    0  0.00000000000E+00  0.00000000000E+00  0.45593999997E+02  0.45594000000E+02  0.51100000000E-03 0. -1.
         11   -1    0    0    0    0 -0.00000000000E+00 -0.00000000000E+00 -0.45593999997E+02  0.45594000000E+02  0.51100000000E-03 0.  1.
    9900012    2    1    2    0    0 -0.14376222188E+01 -0.66274005829E+01 -0.17455373923E+02  0.72461567480E+02  0.69999996334E+02 0.  0.
         12    1    1    2    0    0  0.14376222188E+01  0.66274005829E+01  0.17455373923E+02  0.18726432520E+02  0.00000000000E+00 0. -1.
         11    1    3    3    0    0  0.81982342295E+01  0.59054770225E+00 -0.19844243320E+01  0.84556331083E+01  0.51100000000E-03 0. -1.
        -11    1    3    3    0    0  0.10430387218E+02  0.17956850840E+02 -0.22954527197E+02  0.30954027019E+02  0.51100000000E-03 0.  1.
         12    1    3    3    0    0 -0.20066243666E+02 -0.25174799125E+02  0.74835776056E+01  0.33051907353E+02  0.00000000000E+00 0. -1.
</event>
<event>
 7    1  0.2932676E-013  0.7246159E+02  0.7816164E-02  0.1226708E+00
        -11   -1    0    0    0    0  0.00000000000E+00  0.00000000000E+00  0.45593999997E+02  0.45594000000E+02  0.51100000000E-03 0. -1.
         11   -1    0    0    0    0 -0.00000000000E+00 -0.00000000000E+00 -0.45593999997E+02  0.45594000000E+02  0.51100000000E-03 0.  1.
    9900012    2    1    2    0    0 -0.17780482346E+01 -0.18566862052E+02  0.16699459637E+01  0.72461587062E+02  0.70000021843E+02 0.  0.
         12    1    1    2    0    0  0.17780482346E+01  0.18566862052E+02 -0.16699459637E+01  0.18726412938E+02  0.00000000000E+00 0. -1.
         11    1    3    3    0    0 -0.34850566358E+01  0.14194582571E+02 -0.13015885208E+02  0.19571537040E+02  0.51100000000E-03 0. -1.
        -11    1    3    3    0    0 -0.13998682222E+02 -0.25833690941E+01 -0.29991936451E+01  0.14547579270E+02  0.51100000000E-03 0.  1.
        -12    1    3    3    0    0  0.15705690624E+02 -0.30178075529E+02  0.17685024817E+02  0.38342470752E+02  0.00000000000E+00 0.  1.
</event>
<event>
 7    1  0.2932676E-013  0.7246157E+02  0.7816164E-02  0.1226708E+00
        -11   -1    0    0    0    0  0.00000000000E+00  0.00000000000E+00  0.45593999997E+02  0.45594000000E+02  0.51100000000E-03 0. -1.
         11   -1    0    0    0    0 -0.00000000000E+00 -0.00000000000E+00 -0.45593999997E+02  0.45594000000E+02  0.51100000000E-03 0.  1.
    9900012    2    1    2    0    0  0.76417677353E+01  0.13167051049E+01 -0.17045496337E+02  0.72461567563E+02  0.69999996442E+02 0.  0.
         12    1    1    2    0    0 -0.76417677353E+01 -0.13167051049E+01  0.17045496337E+02  0.18726432437E+02  0.00000000000E+00 0. -1.
         11    1    3    3    0    0 -0.91620584435E+01  0.15697461950E+02 -0.10067517940E+00  0.18175911596E+02  0.51100000000E-03 0. -1.
        -11    1    3    3    0    0  0.70064643744E+01  0.13467026366E+02  0.65725776522E+01  0.16542373452E+02  0.51100000000E-03 0.  1.
        -12    1    3    3    0    0  0.97973618044E+01 -0.27847783212E+02 -0.23517398810E+02  0.37743282514E+02  0.00000000000E+00 0.  1.
</event>
<event>
 7    1  0.2932676E-013  0.7246154E+02  0.7816164E-02  0.1226708E+00
        -11   -1    0    0    0    0  0.00000000000E+00  0.00000000000E+00  0.45593999997E+02  0.45594000000E+02  0.51100000000E-03 0.  1.
         11   -1    0    0    0    0 -0.00000000000E+00 -0.00000000000E+00 -0.45593999997E+02  0.45594000000E+02  0.51100000000E-03 0. -1.
    9900012    2    1    2    0    0 -0.99215525950E+01 -0.11375829869E+02  0.11083033621E+02  0.72461538900E+02  0.69999959103E+02 0.  0.
         12    1    1    2    0    0  0.99215525950E+01  0.11375829869E+02 -0.11083033621E+02  0.18726461100E+02  0.00000000000E+00 0. -1.
         11    1    3    3    0    0 -0.19635196064E+02  0.54646887686E+01 -0.78801965808E+01  0.21851801899E+02  0.51100000000E-03 0. -1.
        -11    1    3    3    0    0 -0.68785268248E+01 -0.25446554319E+02  0.17949784229E+02  0.31891002055E+02  0.51100000000E-03 0.  1.
         12    1    3    3    0    0  0.16592170294E+02  0.86060356813E+01  0.10134459732E+01  0.18718734945E+02  0.00000000000E+00 0. -1.
</event>
<event>
 7    1  0.2932676E-013  0.7246155E+02  0.7816164E-02  0.1226708E+00
        -11   -1    0    0    0    0  0.00000000000E+00  0.00000000000E+00  0.45593999997E+02  0.45594000000E+02  0.51100000000E-03 0. -1.
         11   -1    0    0    0    0 -0.00000000000E+00 -0.00000000000E+00 -0.45593999997E+02  0.45594000000E+02  0.51100000000E-03 0.  1.
    9900012    2    1    2    0    0 -0.11119573252E+02 -0.15067660396E+02 -0.28027285124E-01  0.72461545861E+02  0.69999968171E+02 0.  0.
         12    1    1    2    0    0  0.11119573252E+02  0.15067660396E+02  0.28027285124E-01  0.18726454139E+02  0.00000000000E+00 0. -1.
         11    1    3    3    0    0  0.27700238328E+01  0.90166248955E+01  0.42466399510E+01  0.10344394988E+02  0.51100000000E-03 0. -1.
        -11    1    3    3    0    0 -0.31768505935E+02 -0.35972860387E+01 -0.11508857187E+02  0.33979879785E+02  0.51100000000E-03 0.  1.
         12    1    3    3    0    0  0.17878908850E+02 -0.20486999252E+02  0.72341899507E+01  0.28137271088E+02  0.00000000000E+00 0. -1.
</event>
<event>
 7    1  0.2932676E-013  0.7246160E+02  0.7816164E-02  0.1226708E+00
        -11   -1    0    0    0    0  0.00000000000E+00  0.00000000000E+00  0.45593999997E+02  0.45594000000E+02  0.51100000000E-03 0.  1.
         11   -1    0    0    0    0 -0.00000000000E+00 -0.00000000000E+00 -0.45593999997E+02  0.45594000000E+02  0.51100000000E-03 0. -1.
    9900012    2    1    2    0    0 -0.11751993159E+02  0.64645161253E+01  0.13068236773E+02  0.72461598202E+02  0.70000036355E+02 0.  0.
         12    1    1    2    0    0  0.11751993159E+02 -0.64645161253E+01 -0.13068236773E+02  0.18726401798E+02  0.00000000000E+00 0. -1.
         11    1    3    3    0    0  0.10566530894E+02  0.30021322922E+01  0.30491413947E+02  0.32409731535E+02  0.51100000000E-03 0. -1.
        -11    1    3    3    0    0 -0.52778330233E+01  0.67859371555E+01  0.62972619965E+01  0.10656452196E+02  0.51100000000E-03 0.  1.
         12    1    3    3    0    0 -0.17040691030E+02 -0.33235533224E+01 -0.23720439171E+02  0.29395414471E+02  0.00000000000E+00 0. -1.
</event>
<event>
 7    1  0.2932676E-013  0.7246157E+02  0.7816164E-02  0.1226708E+00
        -11   -1    0    0    0    0  0.00000000000E+00  0.00000000000E+00  0.45593999997E+02  0.45594000000E+02  0.51100000000E-03 0.  1.
         11   -1    0    0    0    0 -0.00000000000E+00 -0.00000000000E+00 -0.45593999997E+02  0.45594000000E+02  0.51100000000E-03 0. -1.
    9900012    2    1    2    0    0 -0.11976918658E+02  0.69840695871E+01 -0.12587898429E+02  0.72461574944E+02  0.70000006057E+02 0.  0.
         12    1    1    2    0    0  0.11976918658E+02 -0.69840695871E+01  0.12587898429E+02  0.18726425056E+02  0.00000000000E+00 0. -1.
         11    1    3    3    0    0  0.75375824593E+01  0.10052679130E+02 -0.88753109692E+01  0.15383193819E+02  0.51100000000E-03 0. -1.
        -11    1    3    3    0    0  0.61653086164E+01 -0.22552049518E+02  0.45125919272E+01  0.23811120384E+02  0.51100000000E-03 0.  1.
         12    1    3    3    0    0 -0.25679809734E+02  0.19483439975E+02 -0.82251793869E+01  0.33267260740E+02  0.00000000000E+00 0. -1.
</event>
<event>
 7    1  0.2932676E-013  0.7246140E+02  0.7816164E-02  0.1226708E+00
        -11   -1    0    0    0    0  0.00000000000E+00  0.00000000000E+00  0.45593999997E+02  0.45594000000E+02  0.51100000000E-03 0. -1.
         11   -1    0    0    0    0 -0.00000000000E+00 -0.00000000000E+00 -0.45593999997E+02  0.45594000000E+02  0.51100000000E-03 0.  1.
    9900012    2    1    2    0    0 -0.13327578945E+02 -0.12937303980E+02 -0.23848186007E+01  0.72461399813E+02  0.69999777916E+02 0.  0.
         12    1    1    2    0    0  0.13327578945E+02  0.12937303980E+02  0.23848186007E+01  0.18726600187E+02  0.00000000000E+00 0. -1.
         11    1    3    3    0    0 -0.17387420691E+02 -0.17713355289E+02 -0.87823515295E-01  0.24821222112E+02  0.51100000000E-03 0. -1.
        -11    1    3    3    0    0  0.92482575944E+01  0.15525896689E+02 -0.19574086488E+02  0.26640731946E+02  0.51100000000E-03 0.  1.
         12    1    3    3    0    0 -0.51884158479E+01 -0.10749845380E+02  0.17277091402E+02  0.20999445755E+02  0.00000000000E+00 0. -1.
</event>
<event>
 7    1  0.2932676E-013  0.7246155E+02  0.7816164E-02  0.1226708E+00
        -11   -1    0    0    0    0  0.00000000000E+00  0.00000000000E+00  0.45593999997E+02  0.45594000000E+02  0.51100000000E-03 0.  1.
         11   -1    0    0    0    0 -0.00000000000E+00 -0.00000000000E+00 -0.45593999997E+02  0.45594000000E+02  0.51100000000E-03 0. -1.
    9900012    2    1    2    0    0  0.69375042607E+01  0.10748701876E+02  0.13675397592E+02  0.72461546607E+02  0.69999969142E+02 0.  0.
         12    1    1    2    0    0 -0.69375042607E+01 -0.10748701876E+02 -0.13675397592E+02  0.18726453393E+02  0.00000000000E+00 0. -1.
         11    1    3    3    0    0  0.15099113724E+01  0.18678468966E+02 -0.15889179019E+02  0.24568904034E+02  0.51100000000E-03 0. -1.
        -11    1    3    3    0    0  0.60023984672E+01  0.13104976955E+02  0.43607986055E+01  0.15059408126E+02  0.51100000000E-03 0.  1.
         12    1    3    3    0    0 -0.57480557888E+00 -0.21034744045E+02  0.25203778006E+02  0.32833234447E+02  0.00000000000E+00 0. -1.
</event>
<event>
 7    1  0.2932676E-013  0.7246156E+02  0.7816164E-02  0.1226708E+00
        -11   -1    0    0    0    0  0.00000000000E+00  0.00000000000E+00  0.45593999997E+02  0.45594000000E+02  0.51100000000E-03 0. -1.
         11   -1    0    0    0    0 -0.00000000000E+00 -0.00000000000E+00 -0.45593999997E+02  0.45594000000E+02  0.51100000000E-03 0.  1.
    9900012    2    1    2    0    0 -0.60900498843E+01  0.47371351735E+01 -0.17063126498E+02  0.72461562989E+02  0.69999990483E+02 0.  0.
         12    1    1    2    0    0  0.60900498843E+01 -0.47371351735E+01  0.17063126498E+02  0.18726437011E+02  0.00000000000E+00 0. -1.
         11    1    3    3    0    0  0.44033918077E+01 -0.10633800535E+02  0.96739263562E+00  0.11550039913E+02  0.51100000000E-03 0. -1.
        -11    1    3    3    0    0  0.80689377228E+01  0.15892176451E+02 -0.32703156592E+02  0.37244670487E+02  0.51100000000E-03 0.  1.
         12    1    3    3    0    0 -0.18562379415E+02 -0.52124074268E+00  0.14672637459E+02  0.23666852588E+02  0.00000000000E+00 0. -1.
</event>
<event>
 7    1  0.2932676E-013  0.7246153E+02  0.7816164E-02  0.1226708E+00
        -11   -1    0    0    0    0  0.00000000000E+00  0.00000000000E+00  0.45593999997E+02  0.45594000000E+02  0.51100000000E-03 0.  1.
         11   -1    0    0    0    0 -0.00000000000E+00 -0.00000000000E+00 -0.45593999997E+02  0.45594000000E+02  0.51100000000E-03 0. -1.
    9900012    2    1    2    0    0  0.11370492367E+02 -0.71365641103E+01 -0.13056114901E+02  0.72461527286E+02  0.69999943974E+02 0.  0.
         12    1    1    2    0    0 -0.11370492367E+02  0.71365641103E+01  0.13056114901E+02  0.18726472714E+02  0.00000000000E+00 0. -1.
         11    1    3    3    0    0 -0.87100382310E+01 -0.19881857654E+02  0.31842464661E+01  0.21938378600E+02  0.51100000000E-03 0. -1.
        -11    1    3    3    0    0 -0.12956084392E+02  0.21234892115E+01 -0.49360846000E+01  0.14026199081E+02  0.51100000000E-03 0.  1.
        -12    1    3    3    0    0  0.33036614990E+02  0.10621804333E+02 -0.11304276767E+02  0.36496949606E+02  0.00000000000E+00 0.  1.
</event>
<event>
 7    1  0.2932676E-013  0.7246159E+02  0.7816164E-02  0.1226708E+00
        -11   -1    0    0    0    0  0.00000000000E+00  0.00000000000E+00  0.45593999997E+02  0.45594000000E+02  0.51100000000E-03 0.  1.
         11   -1    0    0    0    0 -0.00000000000E+00 -0.00000000000E+00 -0.45593999997E+02  0.45594000000E+02  0.51100000000E-03 0. -1.
    9900012    2    1    2    0    0  0.49893366911E+00  0.95521643638E+01  0.16099244004E+02  0.72461589870E+02  0.70000025501E+02 0.  0.
         12    1    1    2    0    0 -0.49893366911E+00 -0.95521643638E+01 -0.16099244004E+02  0.18726410130E+02  0.00000000000E+00 0. -1.
         11    1    3    3    0    0  0.61381322443E+01  0.20115953184E+00  0.59928125596E+01  0.85808470002E+01  0.51100000000E-03 0. -1.
        -11    1    3    3    0    0  0.27775016295E+02  0.83593465249E+01  0.16955969384E+00  0.29006188224E+02  0.51100000000E-03 0.  1.
         12    1    3    3    0    0 -0.33414214870E+02  0.99165830707E+00  0.99368717510E+01  0.34874554646E+02  0.00000000000E+00 0. -1.
</event>
<event>
 7    1  0.2932676E-013  0.7246157E+02  0.7816164E-02  0.1226708E+00
        -11   -1    0    0    0    0  0.00000000000E+00  0.00000000000E+00  0.45593999997E+02  0.45594000000E+02  0.51100000000E-03 0. -1.
         11   -1    0    0    0    0 -0.00000000000E+00 -0.00000000000E+00 -0.45593999997E+02  0.45594000000E+02  0.51100000000E-03 0.  1.
    9900012    2    1    2    0    0  0.44769430607E+01  0.13902907390E+02 -0.11719435793E+02  0.72461574063E+02  0.70000004909E+02 0.  0.
         12    1    1    2    0    0 -0.44769430607E+01 -0.13902907390E+02  0.11719435793E+02  0.18726425937E+02  0.00000000000E+00 0. -1.
         11    1    3    3    0    0 -0.15665277172E+02  0.66774247155E+01 -0.22836372728E+02  0.28486642998E+02  0.51100000000E-03 0. -1.
        -11    1    3    3    0    0  0.78811446402E+01  0.21912051087E+02  0.77982064050E+01  0.24557329803E+02  0.51100000000E-03 0.  1.
         12    1    3    3    0    0  0.12261075592E+02 -0.14686568412E+02  0.33187305297E+01  0.19417601261E+02  0.00000000000E+00 0. -1.
</event>
<event>
 7    1  0.2932676E-013  0.7246154E+02  0.7816164E-02  0.1226708E+00
        -11   -1    0    0    0    0  0.00000000000E+00  0.00000000000E+00  0.45593999997E+02  0.45594000000E+02  0.51100000000E-03 0. -1.
         11   -1    0    0    0    0 -0.00000000000E+00 -0.00000000000E+00 -0.45593999997E+02  0.45594000000E+02  0.51100000000E-03 0.  1.
    9900012    2    1    2    0    0 -0.17125449011E+01  0.13566055458E+02 -0.12794906128E+02  0.72461540282E+02  0.69999960904E+02 0.  0.
         12    1    1    2    0    0  0.17125449011E+01 -0.13566055458E+02  0.12794906128E+02  0.18726459718E+02  0.00000000000E+00 0. -1.
         11    1    3    3    0    0 -0.96694986235E+01  0.15147076147E+02 -0.14289009041E+01  0.18027059591E+02  0.51100000000E-03 0. -1.
        -11    1    3    3    0    0 -0.17175433999E+02  0.12858539274E+02 -0.13535560831E+02  0.25368267040E+02  0.51100000000E-03 0.  1.
         12    1    3    3    0    0  0.25132387722E+02 -0.14439559964E+02  0.21695556063E+01  0.29066213652E+02  0.00000000000E+00 0. -1.
</event>
<event>
 7    1  0.2932676E-013  0.7246159E+02  0.7816164E-02  0.1226708E+00
        -11   -1    0    0    0    0  0.00000000000E+00  0.00000000000E+00  0.45593999997E+02  0.45594000000E+02  0.51100000000E-03 0. -1.
         11   -1    0    0    0    0 -0.00000000000E+00 -0.00000000000E+00 -0.45593999997E+02  0.45594000000E+02  0.51100000000E-03 0.  1.
    9900012    2    1    2    0    0  0.12181977536E+02  0.14199359692E+02 -0.81004099492E+00  0.72461586601E+02  0.70000021243E+02 0.  0.
         12    1    1    2    0    0 -0.12181977536E+02 -0.14199359692E+02  0.81004099492E+00  0.18726413399E+02  0.00000000000E+00 0. -1.
         11    1    3    3    0    0 -0.35518715722E+01  0.28977928472E+02  0.57320224730E+01  0.29752179955E+02  0.51100000000E-03 0. -1.
        -11    1    3    3    0    0  0.74513122519E+01  0.95045448603E+01  0.67272190620E+01  0.13824395243E+02  0.51100000000E-03 0.  1.
        -12    1    3    3    0    0  0.82825368568E+01 -0.24283113641E+02 -0.13269282530E+02  0.28885011403E+02  0.00000000000E+00 0.  1.
</event>
<event>
 7    1  0.2932676E-013  0.7246159E+02  0.7816164E-02  0.1226708E+00
        -11   -1    0    0    0    0  0.00000000000E+00  0.00000000000E+00  0.45593999997E+02  0.45594000000E+02  0.51100000000E-03 0. -1.
         11   -1    0    0    0    0 -0.00000000000E+00 -0.00000000000E+00 -0.45593999997E+02  0.45594000000E+02  0.51100000000E-03 0.  1.
    9900012    2    1    2    0    0 -0.90498375555E+01  0.12601952019E+01 -0.16345965774E+02  0.72461594877E+02  0.70000032024E+02 0.  0.
         12    1    1    2    0    0  0.90498375555E+01 -0.12601952019E+01  0.16345965774E+02  0.18726405123E+02  0.00000000000E+00 0. -1.
         11    1    3    3    0    0  0.95347395194E+01  0.34190985879E+01 -0.12110557932E+01  0.10201379772E+02  0.51100000000E-03 0. -1.
        -11    1    3    3    0    0  0.17079224806E+02 -0.35539850787E+01  0.85476657301E+01  0.19426613694E+02  0.51100000000E-03 0.  1.
         12    1    3    3    0    0 -0.35663801881E+02  0.13950816927E+01 -0.23682575711E+02  0.42833601411E+02  0.00000000000E+00 0. -1.
</event>
<event>
 7    1  0.2932676E-013  0.7246157E+02  0.7816164E-02  0.1226708E+00
        -11   -1    0    0    0    0  0.00000000000E+00  0.00000000000E+00  0.45593999997E+02  0.45594000000E+02  0.51100000000E-03 0.  1.
         11   -1    0    0    0    0 -0.00000000000E+00 -0.00000000000E+00 -0.45593999997E+02  0.45594000000E+02  0.51100000000E-03 0. -1.
    9900012    2    1    2    0    0 -0.16640778643E+02 -0.84801121977E+01 -0.13606073983E+01  0.72461572973E+02  0.70000003489E+02 0.  0.
         12    1    1    2    0    0  0.16640778643E+02  0.84801121977E+01  0.13606073983E+01  0.18726427027E+02  0.00000000000E+00 0. -1.
         11    1    3    3    0    0  0.16823469743E+01  0.83713803138E+01  0.40304387171E-03  0.85387528436E+01  0.51100000000E-03 0. -1.
        -11    1    3    3    0    0 -0.74200854702E+01  0.21321022828E+02  0.64156545629E+01  0.23469220408E+02  0.51100000000E-03 0.  1.
         12    1    3    3    0    0 -0.10903040147E+02 -0.38172515340E+02 -0.77766650051E+01  0.40453599721E+02  0.00000000000E+00 0. -1.
</event>
<event>
 7    1  0.2932676E-013  0.7246160E+02  0.7816164E-02  0.1226708E+00
        -11   -1    0    0    0    0  0.00000000000E+00  0.00000000000E+00  0.45593999997E+02  0.45594000000E+02  0.51100000000E-03 0. -1.
         11   -1    0    0    0    0 -0.00000000000E+00 -0.00000000000E+00 -0.45593999997E+02  0.45594000000E+02  0.51100000000E-03 0.  1.
    9900012    2    1    2    0    0  0.76233789480E+01 -0.24646006110E+01 -0.16925957740E+02  0.72461595963E+02  0.70000033438E+02 0.  0.
         12    1    1    2    0    0 -0.76233789480E+01  0.24646006110E+01  0.16925957740E+02  0.18726404037E+02  0.00000000000E+00 0. -1.
         11    1    3    3    0    0  0.13186599960E+02  0.11416533866E+02  0.12486986399E+02  0.21451072085E+02  0.51100000000E-03 0. -1.
        -11    1    3    3    0    0 -0.24186095877E+01 -0.12922691395E+02  0.66947513199E+01  0.14753485037E+02  0.51100000000E-03 0.  1.
         12    1    3    3    0    0 -0.31446114243E+01 -0.95844308204E+00 -0.36107695459E+02  0.36257038841E+02  0.00000000000E+00 0. -1.
</event>
<event>
 7    1  0.2932676E-013  0.7246160E+02  0.7816164E-02  0.1226708E+00
        -11   -1    0    0    0    0  0.00000000000E+00  0.00000000000E+00  0.45593999997E+02  0.45594000000E+02  0.51100000000E-03 0.  1.
         11   -1    0    0    0    0 -0.00000000000E+00 -0.00000000000E+00 -0.45593999997E+02  0.45594000000E+02  0.51100000000E-03 0. -1.
    9900012    2    1    2    0    0 -0.76593584399E+01  0.38391275821E+01  0.16651524281E+02  0.72461603305E+02  0.70000043002E+02 0.  0.
         12    1    1    2    0    0  0.76593584399E+01 -0.38391275821E+01 -0.16651524281E+02  0.18726396695E+02  0.00000000000E+00 0. -1.
         11    1    3    3    0    0  0.57332380184E+01 -0.16154980260E+02 -0.14673249355E+02  0.22564521982E+02  0.51100000000E-03 0. -1.
        -11    1    3    3    0    0 -0.62637437649E+01 -0.43809300388E+00  0.27138917622E+02  0.27855829936E+02  0.51100000000E-03 0.  1.
        -12    1    3    3    0    0 -0.71288526935E+01  0.20432200846E+02  0.41858560141E+01  0.22041251387E+02  0.00000000000E+00 0.  1.
</event>
<event>
 7    1  0.2932676E-013  0.7246133E+02  0.7816164E-02  0.1226709E+00
        -11   -1    0    0    0    0  0.00000000000E+00  0.00000000000E+00  0.45593999997E+02  0.45594000000E+02  0.51100000000E-03 0. -1.
         11   -1    0    0    0    0 -0.00000000000E+00 -0.00000000000E+00 -0.45593999997E+02  0.45594000000E+02  0.51100000000E-03 0.  1.
    9900012    2    1    2    0    0 -0.40798561343E+01  0.20927068362E-01 -0.18276834243E+02  0.72461325603E+02  0.69999681243E+02 0.  0.
         12    1    1    2    0    0  0.40798561343E+01 -0.20927068362E-01  0.18276834243E+02  0.18726674397E+02  0.00000000000E+00 0. -1.
         11    1    3    3    0    0  0.26735729327E+01 -0.22894793702E+01  0.20119986358E+02  0.20425561420E+02  0.51100000000E-03 0. -1.
        -11    1    3    3    0    0 -0.16251869772E+02 -0.10083983664E+02 -0.17307523093E+02  0.25794579925E+02  0.51100000000E-03 0.  1.
        -12    1    3    3    0    0  0.94984407051E+01  0.12394390102E+02 -0.21089297509E+02  0.26241184258E+02  0.00000000000E+00 0.  1.
</event>
<event>
 7    1  0.2932676E-013  0.7246157E+02  0.7816164E-02  0.1226708E+00
        -11   -1    0    0    0    0  0.00000000000E+00  0.00000000000E+00  0.45593999997E+02  0.45594000000E+02  0.51100000000E-03 0. -1.
         11   -1    0    0    0    0 -0.00000000000E+00 -0.00000000000E+00 -0.45593999997E+02  0.45594000000E+02  0.51100000000E-03 0.  1.
    9900012    2    1    2    0    0 -0.18120164658E+02  0.46616909234E+01  0.77932421263E+00  0.72461572799E+02  0.70000003262E+02 0.  0.
         12    1    1    2    0    0  0.18120164658E+02 -0.46616909234E+01 -0.77932421263E+00  0.18726427201E+02  0.00000000000E+00 0. -1.
         11    1    3    3    0    0 -0.32224895047E+02 -0.24224841684E+01  0.41325254867E+01  0.32578981837E+02  0.51100000000E-03 0. -1.
        -11    1    3    3    0    0 -0.89844995974E+01 -0.75808976867E+01  0.22316701822E+01  0.11965433332E+02  0.51100000000E-03 0.  1.
        -12    1    3    3    0    0  0.23089229986E+02  0.14665072779E+02 -0.55848714563E+01  0.27917157630E+02  0.00000000000E+00 0.  1.
</event>
<event>
 7    1  0.2932676E-013  0.7246154E+02  0.7816164E-02  0.1226708E+00
        -11   -1    0    0    0    0  0.00000000000E+00  0.00000000000E+00  0.45593999997E+02  0.45594000000E+02  0.51100000000E-03 0.  1.
         11   -1    0    0    0    0 -0.00000000000E+00 -0.00000000000E+00 -0.45593999997E+02  0.45594000000E+02  0.51100000000E-03 0. -1.
    9900012    2    1    2    0    0  0.50039779179E+01  0.42655007301E+01  0.17534138168E+02  0.72461540303E+02  0.69999960930E+02 0.  0.
         12    1    1    2    0    0 -0.50039779179E+01 -0.42655007301E+01 -0.17534138168E+02  0.18726459697E+02  0.00000000000E+00 0. -1.
         11    1    3    3    0    0 -0.13650276220E+01 -0.10724470406E+02  0.11551467453E+02  0.15821313677E+02  0.51100000000E-03 0. -1.
        -11    1    3    3    0    0 -0.20771109937E+02 -0.23389427962E-01  0.13440376646E+02  0.24740316888E+02  0.51100000000E-03 0.  1.
         12    1    3    3    0    0  0.27140115477E+02  0.15013360564E+02 -0.74577059309E+01  0.31899909737E+02  0.00000000000E+00 0. -1.
</event>
<event>
 7    1  0.2932676E-013  0.7246156E+02  0.7816164E-02  0.1226708E+00
        -11   -1    0    0    0    0  0.00000000000E+00  0.00000000000E+00  0.45593999997E+02  0.45594000000E+02  0.51100000000E-03 0. -1.
         11   -1    0    0    0    0 -0.00000000000E+00 -0.00000000000E+00 -0.45593999997E+02  0.45594000000E+02  0.51100000000E-03 0.  1.
    9900012    2    1    2    0    0  0.99065954405E+01  0.15159133857E+02 -0.47686146564E+01  0.72461557245E+02  0.69999983001E+02 0.  0.
         12    1    1    2    0    0 -0.99065954405E+01 -0.15159133857E+02  0.47686146564E+01  0.18726442755E+02  0.00000000000E+00 0. -1.
         11    1    3    3    0    0 -0.12785688194E+02  0.14671054082E+02  0.22396336235E+02  0.29670010575E+02  0.51100000000E-03 0. -1.
        -11    1    3    3    0    0  0.13034833268E+02  0.11952241393E+02 -0.11417640949E+02  0.21050545782E+02  0.51100000000E-03 0.  1.
        -12    1    3    3    0    0  0.96574503667E+01 -0.11464161618E+02 -0.15747309942E+02  0.21741000888E+02  0.00000000000E+00 0.  1.
</event>
<event>
 7    1  0.2932676E-013  0.7246162E+02  0.7816164E-02  0.1226708E+00
        -11   -1    0    0    0    0  0.00000000000E+00  0.00000000000E+00  0.45593999997E+02  0.45594000000E+02  0.51100000000E-03 0. -1.
         11   -1    0    0    0    0 -0.00000000000E+00 -0.00000000000E+00 -0.45593999997E+02  0.45594000000E+02  0.51100000000E-03 0.  1.
    9900012    2    1    2    0    0 -0.15200472725E+02  0.61210128058E+01 -0.90640105059E+01  0.72461616065E+02  0.70000059625E+02 0.  0.
         12    1    1    2    0    0  0.15200472725E+02 -0.61210128058E+01  0.90640105059E+01  0.18726383935E+02  0.00000000000E+00 0. -1.
         11    1    3    3    0    0 -0.12140789422E+02 -0.42963340318E+01  0.23233331702E+02  0.26563978545E+02  0.51100000000E-03 0. -1.
        -11    1    3    3    0    0 -0.26798051734E+01 -0.65380658913E+01  0.22470033638E+01  0.74146264737E+01  0.51100000000E-03 0.  1.
        -12    1    3    3    0    0 -0.37987812941E+00  0.16955412729E+02 -0.34544345572E+02  0.38483011046E+02  0.00000000000E+00 0.  1.
</event>
<event>
 7    1  0.2932676E-013  0.7246162E+02  0.7816164E-02  0.1226708E+00
        -11   -1    0    0    0    0  0.00000000000E+00  0.00000000000E+00  0.45593999997E+02  0.45594000000E+02  0.51100000000E-03 0. -1.
         11   -1    0    0    0    0 -0.00000000000E+00 -0.00000000000E+00 -0.45593999997E+02  0.45594000000E+02  0.51100000000E-03 0.  1.
    9900012    2    1    2    0    0  0.99541021894E+01 -0.60244753469E+01 -0.14673067930E+02  0.72461618180E+02  0.70000062379E+02 0.  0.
         12    1    1    2    0    0 -0.99541021894E+01  0.60244753469E+01  0.14673067930E+02  0.18726381820E+02  0.00000000000E+00 0. -1.
         11    1    3    3    0    0  0.31006136921E+02 -0.92886146842E+01  0.11647338955E+02  0.34399409799E+02  0.51100000000E-03 0. -1.
        -11    1    3    3    0    0 -0.41330857117E+01  0.62099402647E+01 -0.10857981232E+01  0.75382168592E+01  0.51100000000E-03 0.  1.
        -12    1    3    3    0    0 -0.16918949020E+02 -0.29458009274E+01 -0.25234608762E+02  0.30523991521E+02  0.00000000000E+00 0.  1.
</event>
<event>
 7    1  0.2932676E-013  0.7246153E+02  0.7816164E-02  0.1226708E+00
        -11   -1    0    0    0    0  0.00000000000E+00  0.00000000000E+00  0.45593999997E+02  0.45594000000E+02  0.51100000000E-03 0.  1.
         11   -1    0    0    0    0 -0.00000000000E+00 -0.00000000000E+00 -0.45593999997E+02  0.45594000000E+02  0.51100000000E-03 0. -1.
    9900012    2    1    2    0    0  0.14180074645E+02 -0.11246988633E+02  0.48074253379E+01  0.72461531870E+02  0.69999949945E+02 0.  0.
         12    1    1    2    0    0 -0.14180074645E+02  0.11246988633E+02 -0.48074253379E+01  0.18726468130E+02  0.00000000000E+00 0. -1.
         11    1    3    3    0    0  0.13813410175E+02 -0.11841724921E+02  0.69296171095E+01  0.19469369361E+02  0.51100000000E-03 0. -1.
        -11    1    3    3    0    0 -0.64144859228E+01 -0.74466870587E+01  0.23403777080E+02  0.25383765672E+02  0.51100000000E-03 0.  1.
         12    1    3    3    0    0  0.67811503924E+01  0.80414233460E+01 -0.25525968852E+02  0.27608396837E+02  0.00000000000E+00 0. -1.
</event>
<event>
 7    1  0.2932676E-013  0.7246176E+02  0.7816164E-02  0.1226708E+00
        -11   -1    0    0    0    0  0.00000000000E+00  0.00000000000E+00  0.45593999997E+02  0.45594000000E+02  0.51100000000E-03 0.  1.
         11   -1    0    0    0    0 -0.00000000000E+00 -0.00000000000E+00 -0.45593999997E+02  0.45594000000E+02  0.51100000000E-03 0. -1.
    9900012    2    1    2    0    0  0.43456705104E+01  0.71097927684E+01  0.16770153789E+02  0.72461760027E+02  0.70000247162E+02 0.  0.
         12    1    1    2    0    0 -0.43456705104E+01 -0.71097927684E+01 -0.16770153789E+02  0.18726239973E+02  0.00000000000E+00 0. -1.
         11    1    3    3    0    0 -0.51605553583E+01 -0.20034798323E+01  0.60396399053E+01  0.81928330564E+01  0.51100000000E-03 0. -1.
        -11    1    3    3    0    0  0.10964586997E+02 -0.38467297316E+01  0.34911875484E+02  0.36794816859E+02  0.51100000000E-03 0.  1.
         12    1    3    3    0    0 -0.14583611279E+01  0.12960002332E+02 -0.24181361600E+02  0.27474110112E+02  0.00000000000E+00 0. -1.
</event>
<event>
 7    1  0.2932676E-013  0.7246156E+02  0.7816164E-02  0.1226708E+00
        -11   -1    0    0    0    0  0.00000000000E+00  0.00000000000E+00  0.45593999997E+02  0.45594000000E+02  0.51100000000E-03 0. -1.
         11   -1    0    0    0    0 -0.00000000000E+00 -0.00000000000E+00 -0.45593999997E+02  0.45594000000E+02  0.51100000000E-03 0.  1.
    9900012    2    1    2    0    0 -0.31199369455E+00  0.46262965698E+01 -0.18143302732E+02  0.72461564300E+02  0.69999992191E+02 0.  0.
         12    1    1    2    0    0  0.31199369455E+00 -0.46262965698E+01  0.18143302732E+02  0.18726435700E+02  0.00000000000E+00 0. -1.
         11    1    3    3    0    0  0.12638288345E+02 -0.54004426057E+01  0.16465871269E+02  0.21447984277E+02  0.51100000000E-03 0. -1.
        -11    1    3    3    0    0  0.36801983653E+01  0.12035148314E+02 -0.24093840419E-01  0.12585278532E+02  0.51100000000E-03 0.  1.
        -12    1    3    3    0    0 -0.16630480404E+02 -0.20084091390E+01 -0.34585080161E+02  0.38428301491E+02  0.00000000000E+00 0.  1.
</event>
<event>
 7    1  0.2932676E-013  0.7246152E+02  0.7816164E-02  0.1226708E+00
        -11   -1    0    0    0    0  0.00000000000E+00  0.00000000000E+00  0.45593999997E+02  0.45594000000E+02  0.51100000000E-03 0.  1.
         11   -1    0    0    0    0 -0.00000000000E+00 -0.00000000000E+00 -0.45593999997E+02  0.45594000000E+02  0.51100000000E-03 0. -1.
    9900012    2    1    2    0    0  0.76438037547E+01 -0.70547755019E+01  0.15571875172E+02  0.72461524368E+02  0.69999940172E+02 0.  0.
         12    1    1    2    0    0 -0.76438037547E+01  0.70547755019E+01 -0.15571875172E+02  0.18726475632E+02  0.00000000000E+00 0. -1.
         11    1    3    3    0    0  0.12966805354E+01  0.45529030350E+00 -0.26220749245E+01  0.29603963995E+01  0.51100000000E-03 0. -1.
        -11    1    3    3    0    0  0.26755589224E+02  0.19402975511E+02  0.59959262308E+01  0.33590000670E+02  0.51100000000E-03 0.  1.
         12    1    3    3    0    0 -0.20408466005E+02 -0.26913041317E+02  0.12198023866E+02  0.35911127298E+02  0.00000000000E+00 0. -1.
</event>
<event>
 7    1  0.2932676E-013  0.7246165E+02  0.7816164E-02  0.1226708E+00
        -11   -1    0    0    0    0  0.00000000000E+00  0.00000000000E+00  0.45593999997E+02  0.45594000000E+02  0.51100000000E-03 0.  1.
         11   -1    0    0    0    0 -0.00000000000E+00 -0.00000000000E+00 -0.45593999997E+02  0.45594000000E+02  0.51100000000E-03 0. -1.
    9900012    2    1    2    0    0 -0.11382745532E+02 -0.10485917124E+02  0.10543004389E+02  0.72461647036E+02  0.70000099971E+02 0.  0.
         12    1    1    2    0    0  0.11382745532E+02  0.10485917124E+02 -0.10543004389E+02  0.18726352964E+02  0.00000000000E+00 0. -1.
         11    1    3    3    0    0 -0.81460475769E+01  0.19280711182E+02 -0.91246306749E+01  0.22833370317E+02  0.51100000000E-03 0. -1.
        -11    1    3    3    0    0  0.38686006062E+01  0.70401724741E+01  0.26387080318E+01  0.84553462054E+01  0.51100000000E-03 0.  1.
        -12    1    3    3    0    0 -0.71052985611E+01 -0.36806800780E+02  0.17028927032E+02  0.41172930514E+02  0.00000000000E+00 0.  1.
</event>
<event>
 7    1  0.2932676E-013  0.7246151E+02  0.7816164E-02  0.1226708E+00
        -11   -1    0    0    0    0  0.00000000000E+00  0.00000000000E+00  0.45593999997E+02  0.45594000000E+02  0.51100000000E-03 0.  1.
         11   -1    0    0    0    0 -0.00000000000E+00 -0.00000000000E+00 -0.45593999997E+02  0.45594000000E+02  0.51100000000E-03 0. -1.
    9900012    2    1    2    0    0  0.98808056626E+01 -0.21438251902E+01  0.15762458330E+02  0.72461510751E+02  0.69999922434E+02 0.  0.
         12    1    1    2    0    0 -0.98808056626E+01  0.21438251902E+01 -0.15762458330E+02  0.18726489249E+02  0.00000000000E+00 0. -1.
         11    1    3    3    0    0 -0.15398266678E+02  0.77461337457E+01  0.45993535495E+01  0.17839934361E+02  0.51100000000E-03 0. -1.
        -11    1    3    3    0    0  0.18288585590E+02 -0.20737418231E+01  0.28755145393E+02  0.34141340847E+02  0.51100000000E-03 0.  1.
         12    1    3    3    0    0  0.69904867502E+01 -0.78162171128E+01 -0.17592040613E+02  0.20480235542E+02  0.00000000000E+00 0. -1.
</event>
<event>
 7    1  0.2932676E-013  0.7246150E+02  0.7816164E-02  0.1226708E+00
        -11   -1    0    0    0    0  0.00000000000E+00  0.00000000000E+00  0.45593999997E+02  0.45594000000E+02  0.51100000000E-03 0. -1.
         11   -1    0    0    0    0 -0.00000000000E+00 -0.00000000000E+00 -0.45593999997E+02  0.45594000000E+02  0.51100000000E-03 0.  1.
    9900012    2    1    2    0    0  0.15749613069E+02  0.69589976593E+01 -0.73623284956E+01  0.72461498962E+02  0.69999907077E+02 0.  0.
         12    1    1    2    0    0 -0.15749613069E+02 -0.69589976593E+01  0.73623284956E+01  0.18726501038E+02  0.00000000000E+00 0. -1.
         11    1    3    3    0    0 -0.11195977115E+02 -0.12718847994E+02 -0.81235996794E+00  0.16964048067E+02  0.51100000000E-03 0. -1.
        -11    1    3    3    0    0  0.31037317497E+01  0.33347912893E+01 -0.22175671246E+02  0.22638780426E+02  0.51100000000E-03 0.  1.
         12    1    3    3    0    0  0.23841858434E+02  0.16343054364E+02  0.15625702718E+02  0.32858670469E+02  0.00000000000E+00 0. -1.
</event>
<event>
 7    1  0.2932676E-013  0.7246155E+02  0.7816164E-02  0.1226708E+00
        -11   -1    0    0    0    0  0.00000000000E+00  0.00000000000E+00  0.45593999997E+02  0.45594000000E+02  0.51100000000E-03 0. -1.
         11   -1    0    0    0    0 -0.00000000000E+00 -0.00000000000E+00 -0.45593999997E+02  0.45594000000E+02  0.51100000000E-03 0.  1.
    9900012    2    1    2    0    0  0.75059625556E+01 -0.16575313259E+02 -0.44271050934E+01  0.72461554982E+02  0.69999980052E+02 0.  0.
         12    1    1    2    0    0 -0.75059625556E+01  0.16575313259E+02  0.44271050934E+01  0.18726445018E+02  0.00000000000E+00 0. -1.
         11    1    3    3    0    0  0.56438841874E+01 -0.24012305584E+00 -0.84614042903E+00  0.57120085512E+01  0.51100000000E-03 0. -1.
        -11    1    3    3    0    0  0.23931472798E+02  0.67292511625E+01 -0.19009210709E+02  0.31294541114E+02  0.51100000000E-03 0.  1.
        -12    1    3    3    0    0 -0.22069394430E+02 -0.23064441366E+02  0.15428246044E+02  0.35455005317E+02  0.00000000000E+00 0.  1.
</event>
<event>
 7    1  0.2932676E-013  0.7246154E+02  0.7816164E-02  0.1226708E+00
        -11   -1    0    0    0    0  0.00000000000E+00  0.00000000000E+00  0.45593999997E+02  0.45594000000E+02  0.51100000000E-03 0. -1.
         11   -1    0    0    0    0 -0.00000000000E+00 -0.00000000000E+00 -0.45593999997E+02  0.45594000000E+02  0.51100000000E-03 0.  1.
    9900012    2    1    2    0    0  0.39228896403E+01 -0.16527453568E+02  0.78825360995E+01  0.72461543850E+02  0.69999965551E+02 0.  0.
         12    1    1    2    0    0 -0.39228896403E+01  0.16527453568E+02 -0.78825360995E+01  0.18726456150E+02  0.00000000000E+00 0. -1.
         11    1    3    3    0    0  0.13675067386E+02 -0.13794508741E+02 -0.13861769357E+02  0.23863038142E+02  0.51100000000E-03 0. -1.
        -11    1    3    3    0    0 -0.10929052117E+02  0.17336880487E+02  0.22885591125E+01  0.20621569006E+02  0.51100000000E-03 0.  1.
         12    1    3    3    0    0  0.11768743715E+01 -0.20069825314E+02  0.19455746344E+02  0.27976936702E+02  0.00000000000E+00 0. -1.
</event>
<event>
 7    1  0.2932676E-013  0.7246163E+02  0.7816164E-02  0.1226708E+00
        -11   -1    0    0    0    0  0.00000000000E+00  0.00000000000E+00  0.45593999997E+02  0.45594000000E+02  0.51100000000E-03 0.  1.
         11   -1    0    0    0    0 -0.00000000000E+00 -0.00000000000E+00 -0.45593999997E+02  0.45594000000E+02  0.51100000000E-03 0. -1.
    9900012    2    1    2    0    0  0.94700600743E+01  0.51081514409E+01  0.15326500394E+02  0.72461631871E+02  0.70000080215E+02 0.  0.
         12    1    1    2    0    0 -0.94700600743E+01 -0.51081514409E+01 -0.15326500394E+02  0.18726368129E+02  0.00000000000E+00 0. -1.
         11    1    3    3    0    0 -0.11773460022E+02 -0.14526379375E+02 -0.93666698909E+00  0.18721842964E+02  0.51100000000E-03 0. -1.
        -11    1    3    3    0    0  0.15555760563E+02 -0.10762077880E+02  0.25400067941E+00  0.18917413237E+02  0.51100000000E-03 0.  1.
         12    1    3    3    0    0  0.56877595335E+01  0.30396608696E+02  0.16009166704E+02  0.34822375670E+02  0.00000000000E+00 0. -1.
</event>
<event>
 7    1  0.2932676E-013  0.7246162E+02  0.7816164E-02  0.1226708E+00
        -11   -1    0    0    0    0  0.00000000000E+00  0.00000000000E+00  0.45593999997E+02  0.45594000000E+02  0.51100000000E-03 0.  1.
         11   -1    0    0    0    0 -0.00000000000E+00 -0.00000000000E+00 -0.45593999997E+02  0.45594000000E+02  0.51100000000E-03 0. -1.
    9900012    2    1    2    0    0  0.17898256945E+02 -0.54174901164E+01  0.99015909710E+00  0.72461622457E+02  0.70000067952E+02 0.  0.
         12    1    1    2    0    0 -0.17898256945E+02  0.54174901164E+01 -0.99015909710E+00  0.18726377543E+02  0.00000000000E+00 0. -1.
         11    1    3    3    0    0  0.24734265976E+02  0.29020609984E+01  0.79866461883E+01  0.26153248154E+02  0.51100000000E-03 0. -1.
        -11    1    3    3    0    0  0.18143736701E+02 -0.99883372386E+01 -0.40019434463E+01  0.21094492501E+02  0.51100000000E-03 0.  1.
         12    1    3    3    0    0 -0.24979745731E+02  0.16687861238E+01 -0.29945436449E+01  0.25213881803E+02  0.00000000000E+00 0. -1.
</event>
<event>
 7    1  0.2932676E-013  0.7246161E+02  0.7816164E-02  0.1226708E+00
        -11   -1    0    0    0    0  0.00000000000E+00  0.00000000000E+00  0.45593999997E+02  0.45594000000E+02  0.51100000000E-03 0. -1.
         11   -1    0    0    0    0 -0.00000000000E+00 -0.00000000000E+00 -0.45593999997E+02  0.45594000000E+02  0.51100000000E-03 0.  1.
    9900012    2    1    2    0    0 -0.80572608021E+01  0.95620630335E+01 -0.13940053324E+02  0.72461612527E+02  0.70000055016E+02 0.  0.
         12    1    1    2    0    0  0.80572608021E+01 -0.95620630335E+01  0.13940053324E+02  0.18726387473E+02  0.00000000000E+00 0. -1.
         11    1    3    3    0    0  0.24710840629E+02  0.90567555936E-01 -0.13186404699E+02  0.28009196994E+02  0.51100000000E-03 0. -1.
        -11    1    3    3    0    0 -0.18303684023E+00  0.11578693841E+02  0.17134560915E+01  0.11706219953E+02  0.51100000000E-03 0.  1.
        -12    1    3    3    0    0 -0.32585064591E+02 -0.21071983633E+01 -0.24671047167E+01  0.32746195581E+02  0.00000000000E+00 0.  1.
</event>
<event>
 7    1  0.2932676E-013  0.7246106E+02  0.7816164E-02  0.1226709E+00
        -11   -1    0    0    0    0  0.00000000000E+00  0.00000000000E+00  0.45593999997E+02  0.45594000000E+02  0.51100000000E-03 0.  1.
         11   -1    0    0    0    0 -0.00000000000E+00 -0.00000000000E+00 -0.45593999997E+02  0.45594000000E+02  0.51100000000E-03 0. -1.
    9900012    2    1    2    0    0  0.13245355448E+02  0.84590797905E+01  0.10183464076E+02  0.72461056511E+02  0.69999330699E+02 0.  0.
         12    1    1    2    0    0 -0.13245355448E+02 -0.84590797905E+01 -0.10183464076E+02  0.18726943489E+02  0.00000000000E+00 0. -1.
         11    1    3    3    0    0  0.23564981744E+02 -0.14316968857E+02 -0.15241388730E+01  0.27615339241E+02  0.51100000000E-03 0. -1.
        -11    1    3    3    0    0  0.95187016857E+01  0.15481621594E+02 -0.38793103912E+01  0.18583200433E+02  0.51100000000E-03 0.  1.
         12    1    3    3    0    0 -0.19838327982E+02  0.72944270533E+01  0.15586913340E+02  0.26262516837E+02  0.00000000000E+00 0. -1.
</event>
<event>
 7    1  0.2932676E-013  0.7246159E+02  0.7816164E-02  0.1226708E+00
        -11   -1    0    0    0    0  0.00000000000E+00  0.00000000000E+00  0.45593999997E+02  0.45594000000E+02  0.51100000000E-03 0.  1.
         11   -1    0    0    0    0 -0.00000000000E+00 -0.00000000000E+00 -0.45593999997E+02  0.45594000000E+02  0.51100000000E-03 0. -1.
    9900012    2    1    2    0    0  0.62603658293E+01  0.17323237228E+02  0.33751830378E+01  0.72461585797E+02  0.70000020195E+02 0.  0.
         12    1    1    2    0    0 -0.62603658293E+01 -0.17323237228E+02 -0.33751830378E+01  0.18726414203E+02  0.00000000000E+00 0. -1.
         11    1    3    3    0    0  0.15473701756E+01  0.44045944924E+01  0.25333385001E+01  0.53115545107E+01  0.51100000000E-03 0. -1.
        -11    1    3    3    0    0  0.23167976569E+02  0.16030492007E+02 -0.23330481703E+02  0.36579272670E+02  0.51100000000E-03 0.  1.
         12    1    3    3    0    0 -0.18454980916E+02 -0.31118492719E+01  0.24172326241E+02  0.30570758616E+02  0.00000000000E+00 0. -1.
</event>
<event>
 7    1  0.2932676E-013  0.7246157E+02  0.7816164E-02  0.1226708E+00
        -11   -1    0    0    0    0  0.00000000000E+00  0.00000000000E+00  0.45593999997E+02  0.45594000000E+02  0.51100000000E-03 0. -1.
         11   -1    0    0    0    0 -0.00000000000E+00 -0.00000000000E+00 -0.45593999997E+02  0.45594000000E+02  0.51100000000E-03 0.  1.
    9900012    2    1    2    0    0 -0.14633949766E+02  0.16594071863E+01 -0.11566035175E+02  0.72461567141E+02  0.69999995892E+02 0.  0.
         12    1    1    2    0    0  0.14633949766E+02 -0.16594071863E+01  0.11566035175E+02  0.18726432859E+02  0.00000000000E+00 0. -1.
         11    1    3    3    0    0  0.87863324568E+01 -0.78341805618E+01  0.53505602226E+01  0.12930681269E+02  0.51100000000E-03 0. -1.
        -11    1    3    3    0    0 -0.24932883938E+02 -0.16752344628E+02 -0.42102195848E+01  0.30331760602E+02  0.51100000000E-03 0.  1.
         12    1    3    3    0    0  0.15126017154E+01  0.26245932376E+02 -0.12706375813E+02  0.29199125270E+02  0.00000000000E+00 0. -1.
</event>
<event>
 7    1  0.2932676E-013  0.7246206E+02  0.7816164E-02  0.1226707E+00
        -11   -1    0    0    0    0  0.00000000000E+00  0.00000000000E+00  0.45593999997E+02  0.45594000000E+02  0.51100000000E-03 0.  1.
         11   -1    0    0    0    0 -0.00000000000E+00 -0.00000000000E+00 -0.45593999997E+02  0.45594000000E+02  0.51100000000E-03 0. -1.
    9900012    2    1    2    0    0  0.86838886253E+01 -0.16457285630E+02  0.20996526757E+01  0.72462063085E+02  0.70000641949E+02 0.  0.
         12    1    1    2    0    0 -0.86838886253E+01  0.16457285630E+02 -0.20996526757E+01  0.18725936915E+02  0.00000000000E+00 0. -1.
         11    1    3    3    0    0 -0.13355050853E+02 -0.14911555348E+01 -0.67454019132E+01  0.15036002639E+02  0.51100000000E-03 0. -1.
        -11    1    3    3    0    0  0.64398322579E+01  0.93735308356E+01 -0.15779618423E+02  0.19450729489E+02  0.51100000000E-03 0.  1.
        -12    1    3    3    0    0  0.15599107221E+02 -0.24339660931E+02  0.24624673012E+02  0.37975330957E+02  0.00000000000E+00 0.  1.
</event>
<event>
 7    1  0.2932676E-013  0.7246161E+02  0.7816164E-02  0.1226708E+00
        -11   -1    0    0    0    0  0.00000000000E+00  0.00000000000E+00  0.45593999997E+02  0.45594000000E+02  0.51100000000E-03 0.  1.
         11   -1    0    0    0    0 -0.00000000000E+00 -0.00000000000E+00 -0.45593999997E+02  0.45594000000E+02  0.51100000000E-03 0. -1.
    9900012    2    1    2    0    0 -0.23465089177E+01 -0.69097123518E+01  0.17246083915E+02  0.72461611152E+02  0.70000053225E+02 0.  0.
         12    1    1    2    0    0  0.23465089177E+01  0.69097123518E+01 -0.17246083915E+02  0.18726388848E+02  0.00000000000E+00 0. -1.
         11    1    3    3    0    0 -0.86569355260E+01 -0.68433967647E+01  0.26092189725E+02  0.28329789566E+02  0.51100000000E-03 0. -1.
        -11    1    3    3    0    0  0.15324995467E+02 -0.13297181008E+02  0.71379680476E+01  0.21508628430E+02  0.51100000000E-03 0.  1.
         12    1    3    3    0    0 -0.90145688588E+01  0.13230865421E+02 -0.15984073858E+02  0.22623193156E+02  0.00000000000E+00 0. -1.
</event>
<event>
 7    1  0.2932676E-013  0.7246162E+02  0.7816164E-02  0.1226708E+00
        -11   -1    0    0    0    0  0.00000000000E+00  0.00000000000E+00  0.45593999997E+02  0.45594000000E+02  0.51100000000E-03 0.  1.
         11   -1    0    0    0    0 -0.00000000000E+00 -0.00000000000E+00 -0.45593999997E+02  0.45594000000E+02  0.51100000000E-03 0. -1.
    9900012    2    1    2    0    0  0.19479840405E+00  0.59541856927E-01  0.18725268639E+02  0.72461623489E+02  0.70000069295E+02 0.  0.
         12    1    1    2    0    0 -0.19479840405E+00 -0.59541856927E-01 -0.18725268639E+02  0.18726376511E+02  0.00000000000E+00 0. -1.
         11    1    3    3    0    0  0.22800641214E+01  0.59387851344E+01 -0.13332016231E+02  0.14771950389E+02  0.51100000000E-03 0. -1.
        -11    1    3    3    0    0 -0.23204406548E+02 -0.12451727553E-01  0.26206778510E+02  0.35003426667E+02  0.51100000000E-03 0.  1.
         12    1    3    3    0    0  0.21119140831E+02 -0.58667915499E+01  0.58505063591E+01  0.22686246432E+02  0.00000000000E+00 0. -1.
</event>
<event>
 7    1  0.2932676E-013  0.7246164E+02  0.7816164E-02  0.1226708E+00
        -11   -1    0    0    0    0  0.00000000000E+00  0.00000000000E+00  0.45593999997E+02  0.45594000000E+02  0.51100000000E-03 0. -1.
         11   -1    0    0    0    0 -0.00000000000E+00 -0.00000000000E+00 -0.45593999997E+02  0.45594000000E+02  0.51100000000E-03 0.  1.
    9900012    2    1    2    0    0 -0.86252380722E+01  0.82335489449E+01 -0.14439197623E+02  0.72461641891E+02  0.70000093268E+02 0.  0.
         12    1    1    2    0    0  0.86252380722E+01 -0.82335489449E+01  0.14439197623E+02  0.18726358109E+02  0.00000000000E+00 0. -1.
         11    1    3    3    0    0 -0.13950766107E+02  0.23807430721E+02 -0.15740956634E+02  0.31767835125E+02  0.51100000000E-03 0. -1.
        -11    1    3    3    0    0  0.64220770659E+01  0.74260736338E+01 -0.10870997305E+02  0.14648147532E+02  0.51100000000E-03 0.  1.
         12    1    3    3    0    0 -0.10965490313E+01 -0.22999955410E+02  0.12172756315E+02  0.26045659234E+02  0.00000000000E+00 0. -1.
</event>
<event>
 7    1  0.2932676E-013  0.7246155E+02  0.7816164E-02  0.1226708E+00
        -11   -1    0    0    0    0  0.00000000000E+00  0.00000000000E+00  0.45593999997E+02  0.45594000000E+02  0.51100000000E-03 0. -1.
         11   -1    0    0    0    0 -0.00000000000E+00 -0.00000000000E+00 -0.45593999997E+02  0.45594000000E+02  0.51100000000E-03 0.  1.
    9900012    2    1    2    0    0  0.75250254841E+01 -0.17089151073E+02  0.14194589442E+01  0.72461549279E+02  0.69999972623E+02 0.  0.
         12    1    1    2    0    0 -0.75250254841E+01  0.17089151073E+02 -0.14194589442E+01  0.18726450721E+02  0.00000000000E+00 0. -1.
         11    1    3    3    0    0  0.72660880731E+01 -0.12351584370E+02  0.11552204383E+02  0.18406822070E+02  0.51100000000E-03 0. -1.
        -11    1    3    3    0    0 -0.20923493339E+01 -0.26318318732E+02  0.59184572227E+01  0.27056606638E+02  0.51100000000E-03 0.  1.
         12    1    3    3    0    0  0.23512867448E+01  0.21580752029E+02 -0.16051202662E+02  0.26998120571E+02  0.00000000000E+00 0. -1.
</event>
<event>
 7    1  0.2932676E-013  0.7246156E+02  0.7816164E-02  0.1226708E+00
        -11   -1    0    0    0    0  0.00000000000E+00  0.00000000000E+00  0.45593999997E+02  0.45594000000E+02  0.51100000000E-03 0.  1.
         11   -1    0    0    0    0 -0.00000000000E+00 -0.00000000000E+00 -0.45593999997E+02  0.45594000000E+02  0.51100000000E-03 0. -1.
    9900012    2    1    2    0    0 -0.76551752186E+01 -0.70252143382E+01  0.15579611424E+02  0.72461557832E+02  0.69999983766E+02 0.  0.
         12    1    1    2    0    0  0.76551752186E+01  0.70252143382E+01 -0.15579611424E+02  0.18726442168E+02  0.00000000000E+00 0. -1.
         11    1    3    3    0    0  0.80933916287E+00 -0.22864335796E+02 -0.10618884785E+02  0.25222878416E+02  0.51100000000E-03 0. -1.
        -11    1    3    3    0    0  0.12250904733E+02  0.12433026335E+01  0.15335606943E+02  0.19667519132E+02  0.51100000000E-03 0.  1.
        -12    1    3    3    0    0 -0.20715419114E+02  0.14595818824E+02  0.10862889266E+02  0.27571160284E+02  0.00000000000E+00 0.  1.
</event>
<event>
 7    1  0.2932676E-013  0.7246152E+02  0.7816164E-02  0.1226708E+00
        -11   -1    0    0    0    0  0.00000000000E+00  0.00000000000E+00  0.45593999997E+02  0.45594000000E+02  0.51100000000E-03 0.  1.
         11   -1    0    0    0    0 -0.00000000000E+00 -0.00000000000E+00 -0.45593999997E+02  0.45594000000E+02  0.51100000000E-03 0. -1.
    9900012    2    1    2    0    0  0.45132708443E+01 -0.16461850000E+02  0.77018736344E+01  0.72461522044E+02  0.69999937146E+02 0.  0.
         12    1    1    2    0    0 -0.45132708443E+01  0.16461850000E+02 -0.77018736344E+01  0.18726477956E+02  0.00000000000E+00 0. -1.
         11    1    3    3    0    0 -0.45938234657E+01  0.22081204736E+01  0.10912658228E+02  0.12044298233E+02  0.51100000000E-03 0.  1.
        -11    1    3    3    0    0  0.11448203399E+02 -0.38601472750E+02 -0.21327053845E+01  0.40319765526E+02  0.51100000000E-03 0. -1.
         12    1    3    3    0    0 -0.23411090888E+01  0.19931502276E+02 -0.10780792094E+01  0.20097458286E+02  0.00000000000E+00 0. -1.
</event>
<event>
 7    1  0.2932676E-013  0.7246126E+02  0.7816164E-02  0.1226709E+00
        -11   -1    0    0    0    0  0.00000000000E+00  0.00000000000E+00  0.45593999997E+02  0.45594000000E+02  0.51100000000E-03 0. -1.
         11   -1    0    0    0    0 -0.00000000000E+00 -0.00000000000E+00 -0.45593999997E+02  0.45594000000E+02  0.51100000000E-03 0.  1.
    9900012    2    1    2    0    0 -0.15709941946E+02  0.10157020976E+02  0.85062741430E+00  0.72461256608E+02  0.69999591364E+02 0.  0.
         12    1    1    2    0    0  0.15709941946E+02 -0.10157020976E+02 -0.85062741430E+00  0.18726743392E+02  0.00000000000E+00 0. -1.
         11    1    3    3    0    0 -0.10604240832E+02  0.12115881913E+02  0.11450670394E+02  0.19757590209E+02  0.51100000000E-03 0. -1.
        -11    1    3    3    0    0 -0.22129993065E+02 -0.12082284594E+01  0.11362120672E+02  0.24905706083E+02  0.51100000000E-03 0.  1.
        -12    1    3    3    0    0  0.17024291950E+02 -0.75063247800E+00 -0.21962163651E+02  0.27797960316E+02  0.00000000000E+00 0.  1.
</event>
<event>
 7    1  0.2932676E-013  0.7246140E+02  0.7816164E-02  0.1226708E+00
        -11   -1    0    0    0    0  0.00000000000E+00  0.00000000000E+00  0.45593999997E+02  0.45594000000E+02  0.51100000000E-03 0.  1.
         11   -1    0    0    0    0 -0.00000000000E+00 -0.00000000000E+00 -0.45593999997E+02  0.45594000000E+02  0.51100000000E-03 0. -1.
    9900012    2    1    2    0    0  0.18427391572E+02  0.31050706962E+01  0.12145565223E+01  0.72461404695E+02  0.69999784276E+02 0.  0.
         12    1    1    2    0    0 -0.18427391572E+02 -0.31050706962E+01 -0.12145565223E+01  0.18726595305E+02  0.00000000000E+00 0. -1.
         11    1    3    3    0    0 -0.23958423440E+01 -0.18401544288E+02 -0.73464353435E+01  0.19958131307E+02  0.51100000000E-03 0.  1.
        -11    1    3    3    0    0 -0.80970116289E+01 -0.72310455891E+01  0.60427357723E-01  0.10856024565E+02  0.51100000000E-03 0. -1.
         12    1    3    3    0    0  0.28920245545E+02  0.28737660574E+02  0.85005645081E+01  0.41647248823E+02  0.00000000000E+00 0. -1.
</event>
<event>
 7    1  0.2932676E-013  0.7246160E+02  0.7816164E-02  0.1226708E+00
        -11   -1    0    0    0    0  0.00000000000E+00  0.00000000000E+00  0.45593999997E+02  0.45594000000E+02  0.51100000000E-03 0. -1.
         11   -1    0    0    0    0 -0.00000000000E+00 -0.00000000000E+00 -0.45593999997E+02  0.45594000000E+02  0.51100000000E-03 0.  1.
    9900012    2    1    2    0    0 -0.11113871681E+02 -0.11916781617E+02 -0.92276866046E+01  0.72461600776E+02  0.70000039708E+02 0.  0.
         12    1    1    2    0    0  0.11113871681E+02  0.11916781617E+02  0.92276866046E+01  0.18726399224E+02  0.00000000000E+00 0. -1.
         11    1    3    3    0    0  0.25854601428E+01  0.34142612378E+01 -0.14387324162E+02  0.15011225159E+02  0.51100000000E-03 0. -1.
        -11    1    3    3    0    0  0.55283312814E+01 -0.15089946238E+02 -0.20080694007E+02  0.25719704436E+02  0.51100000000E-03 0.  1.
         12    1    3    3    0    0 -0.19227663105E+02 -0.24109661703E+00  0.25240331565E+02  0.31730671181E+02  0.00000000000E+00 0. -1.
</event>
<event>
 7    1  0.2932676E-013  0.7246152E+02  0.7816164E-02  0.1226708E+00
        -11   -1    0    0    0    0  0.00000000000E+00  0.00000000000E+00  0.45593999997E+02  0.45594000000E+02  0.51100000000E-03 0.  1.
         11   -1    0    0    0    0 -0.00000000000E+00 -0.00000000000E+00 -0.45593999997E+02  0.45594000000E+02  0.51100000000E-03 0. -1.
    9900012    2    1    2    0    0  0.89614389247E+01 -0.34552383359E+01  0.16075918565E+02  0.72461515619E+02  0.69999928775E+02 0.  0.
         12    1    1    2    0    0 -0.89614389247E+01  0.34552383359E+01 -0.16075918565E+02  0.18726484381E+02  0.00000000000E+00 0. -1.
         11    1    3    3    0    0  0.98740283209E+00 -0.28786045396E+02 -0.29143511017E+01  0.28950040008E+02  0.51100000000E-03 0. -1.
        -11    1    3    3    0    0  0.51048446522E+01 -0.27199678902E+01 -0.40805875074E+01  0.70787611143E+01  0.51100000000E-03 0.  1.
        -12    1    3    3    0    0  0.28691914405E+01  0.28050774950E+02  0.23070857175E+02  0.36432714496E+02  0.00000000000E+00 0.  1.
</event>
<event>
 7    1  0.2932676E-013  0.7246160E+02  0.7816164E-02  0.1226708E+00
        -11   -1    0    0    0    0  0.00000000000E+00  0.00000000000E+00  0.45593999997E+02  0.45594000000E+02  0.51100000000E-03 0.  1.
         11   -1    0    0    0    0 -0.00000000000E+00 -0.00000000000E+00 -0.45593999997E+02  0.45594000000E+02  0.51100000000E-03 0. -1.
    9900012    2    1    2    0    0  0.10490103143E+02  0.13815389039E+02 -0.70548487746E+01  0.72461598064E+02  0.70000036175E+02 0.  0.
         12    1    1    2    0    0 -0.10490103143E+02 -0.13815389039E+02  0.70548487746E+01  0.18726401936E+02  0.00000000000E+00 0. -1.
         11    1    3    3    0    0  0.48093646483E+00  0.15133977071E+02 -0.13030699774E+02  0.19976678872E+02  0.51100000000E-03 0. -1.
        -11    1    3    3    0    0  0.10207787662E+02  0.34671884105E+01 -0.21788910538E+02  0.24310017423E+02  0.51100000000E-03 0.  1.
        -12    1    3    3    0    0 -0.19862098302E+00 -0.47857764428E+01  0.27764761537E+02  0.28174901769E+02  0.00000000000E+00 0.  1.
</event>
<event>
 7    1  0.2932676E-013  0.7246159E+02  0.7816164E-02  0.1226708E+00
        -11   -1    0    0    0    0  0.00000000000E+00  0.00000000000E+00  0.45593999997E+02  0.45594000000E+02  0.51100000000E-03 0.  1.
         11   -1    0    0    0    0 -0.00000000000E+00 -0.00000000000E+00 -0.45593999997E+02  0.45594000000E+02  0.51100000000E-03 0. -1.
    9900012    2    1    2    0    0  0.17554984386E+02  0.45479725444E+01 -0.46708422898E+01  0.72461593544E+02  0.70000030287E+02 0.  0.
         12    1    1    2    0    0 -0.17554984386E+02 -0.45479725444E+01  0.46708422898E+01  0.18726406456E+02  0.00000000000E+00 0. -1.
         11    1    3    3    0    0 -0.38147315865E+01 -0.93241913650E+01  0.87294048637E+01  0.13330237478E+02  0.51100000000E-03 0. -1.
        -11    1    3    3    0    0  0.33995273272E+02 -0.49910679719E+01 -0.11980199071E+02  0.36388384609E+02  0.51100000000E-03 0.  1.
         12    1    3    3    0    0 -0.12625557300E+02  0.18863231881E+02 -0.14200480822E+01  0.22742971457E+02  0.00000000000E+00 0. -1.
</event>
<event>
 7    1  0.2932676E-013  0.7246159E+02  0.7816164E-02  0.1226708E+00
        -11   -1    0    0    0    0  0.00000000000E+00  0.00000000000E+00  0.45593999997E+02  0.45594000000E+02  0.51100000000E-03 0.  1.
         11   -1    0    0    0    0 -0.00000000000E+00 -0.00000000000E+00 -0.45593999997E+02  0.45594000000E+02  0.51100000000E-03 0. -1.
    9900012    2    1    2    0    0  0.13384871363E+02 -0.51627976328E+01  0.12036158344E+02  0.72461591682E+02  0.70000027862E+02 0.  0.
         12    1    1    2    0    0 -0.13384871363E+02  0.51627976328E+01 -0.12036158344E+02  0.18726408318E+02  0.00000000000E+00 0. -1.
         11    1    3    3    0    0 -0.26537040364E+01 -0.16508978995E+02  0.17705690321E+02  0.24353233924E+02  0.51100000000E-03 0. -1.
        -11    1    3    3    0    0 -0.32700118000E+01 -0.26631847691E+01  0.15592523809E+02  0.16152780853E+02  0.51100000000E-03 0.  1.
         12    1    3    3    0    0  0.19308587200E+02  0.14009366131E+02 -0.21262055787E+02  0.31955576905E+02  0.00000000000E+00 0. -1.
</event>
<event>
 7    1  0.2932676E-013  0.7246159E+02  0.7816164E-02  0.1226708E+00
        -11   -1    0    0    0    0  0.00000000000E+00  0.00000000000E+00  0.45593999997E+02  0.45594000000E+02  0.51100000000E-03 0.  1.
         11   -1    0    0    0    0 -0.00000000000E+00 -0.00000000000E+00 -0.45593999997E+02  0.45594000000E+02  0.51100000000E-03 0. -1.
    9900012    2    1    2    0    0 -0.19976016872E+01 -0.17580492335E+02 -0.61330607358E+01  0.72461586642E+02  0.70000021296E+02 0.  0.
         12    1    1    2    0    0  0.19976016872E+01  0.17580492335E+02  0.61330607358E+01  0.18726413358E+02  0.00000000000E+00 0. -1.
         11    1    3    3    0    0 -0.13089536767E+02  0.13035763634E+02 -0.12504521700E+02  0.22307625815E+02  0.51100000000E-03 0. -1.
        -11    1    3    3    0    0 -0.10190010447E+02 -0.64530086858E+01  0.12507150700E+02  0.17375455473E+02  0.51100000000E-03 0.  1.
        -12    1    3    3    0    0  0.21281945526E+02 -0.24163247284E+02 -0.61356897361E+01  0.32778505354E+02  0.00000000000E+00 0.  1.
</event>
<event>
 7    1  0.2932676E-013  0.7246157E+02  0.7816164E-02  0.1226708E+00
        -11   -1    0    0    0    0  0.00000000000E+00  0.00000000000E+00  0.45593999997E+02  0.45594000000E+02  0.51100000000E-03 0.  1.
         11   -1    0    0    0    0 -0.00000000000E+00 -0.00000000000E+00 -0.45593999997E+02  0.45594000000E+02  0.51100000000E-03 0. -1.
    9900012    2    1    2    0    0  0.15505198321E+02  0.10058937248E+02  0.30142775387E+01  0.72461567809E+02  0.69999996762E+02 0.  0.
         12    1    1    2    0    0 -0.15505198321E+02 -0.10058937248E+02 -0.30142775387E+01  0.18726432191E+02  0.00000000000E+00 0. -1.
         11    1    3    3    0    0 -0.89709512204E+01  0.82817829681E+01  0.15839700879E+02  0.19999050456E+02  0.51100000000E-03 0. -1.
        -11    1    3    3    0    0 -0.72877228191E+01 -0.47315275370E+01  0.96692087726E+01  0.12999686737E+02  0.51100000000E-03 0.  1.
         12    1    3    3    0    0  0.31763872361E+02  0.65086818164E+01 -0.22494632113E+02  0.39462830616E+02  0.00000000000E+00 0. -1.
</event>
<event>
 7    1  0.2932676E-013  0.7246163E+02  0.7816164E-02  0.1226708E+00
        -11   -1    0    0    0    0  0.00000000000E+00  0.00000000000E+00  0.45593999997E+02  0.45594000000E+02  0.51100000000E-03 0.  1.
         11   -1    0    0    0    0 -0.00000000000E+00 -0.00000000000E+00 -0.45593999997E+02  0.45594000000E+02  0.51100000000E-03 0. -1.
    9900012    2    1    2    0    0 -0.12306891384E+02  0.53149417666E+01  0.13075505743E+02  0.72461627368E+02  0.70000074349E+02 0.  0.
         12    1    1    2    0    0  0.12306891384E+02 -0.53149417666E+01 -0.13075505743E+02  0.18726372632E+02  0.00000000000E+00 0. -1.
         11    1    3    3    0    0 -0.22811220061E+02 -0.17786997604E+02  0.14206492217E+02  0.32226595628E+02  0.51100000000E-03 0.  1.
        -11    1    3    3    0    0  0.30975152053E+00  0.63531450145E+01 -0.14950210158E+02  0.16247066862E+02  0.51100000000E-03 0. -1.
        -12    1    3    3    0    0  0.10194577156E+02  0.16748794356E+02  0.13819223684E+02  0.23987964878E+02  0.00000000000E+00 0.  1.
</event>
<event>
 7    1  0.2932676E-013  0.7246155E+02  0.7816164E-02  0.1226708E+00
        -11   -1    0    0    0    0  0.00000000000E+00  0.00000000000E+00  0.45593999997E+02  0.45594000000E+02  0.51100000000E-03 0. -1.
         11   -1    0    0    0    0 -0.00000000000E+00 -0.00000000000E+00 -0.45593999997E+02  0.45594000000E+02  0.51100000000E-03 0.  1.
    9900012    2    1    2    0    0  0.11031084378E+02  0.15108985535E+02  0.84474616966E+00  0.72461551791E+02  0.69999975895E+02 0.  0.
         12    1    1    2    0    0 -0.11031084378E+02 -0.15108985535E+02 -0.84474616966E+00  0.18726448209E+02  0.00000000000E+00 0. -1.
         11    1    3    3    0    0  0.33861542413E+02  0.71276989572E+01  0.56646811939E+01  0.35064180588E+02  0.51100000000E-03 0. -1.
        -11    1    3    3    0    0  0.45585223129E+01  0.43990643883E+01  0.50115976385E+01  0.80776236804E+01  0.51100000000E-03 0.  1.
        -12    1    3    3    0    0 -0.27388980347E+02  0.35822221892E+01 -0.98315326628E+01  0.29319747522E+02  0.00000000000E+00 0.  1.
</event>
<event>
 7    1  0.2932676E-013  0.7246156E+02  0.7816164E-02  0.1226708E+00
        -11   -1    0    0    0    0  0.00000000000E+00  0.00000000000E+00  0.45593999997E+02  0.45594000000E+02  0.51100000000E-03 0.  1.
         11   -1    0    0    0    0 -0.00000000000E+00 -0.00000000000E+00 -0.45593999997E+02  0.45594000000E+02  0.51100000000E-03 0. -1.
    9900012    2    1    2    0    0  0.66397031830E+01 -0.14579170307E+02 -0.96975090901E+01  0.72461560195E+02  0.69999986844E+02 0.  0.
         12    1    1    2    0    0 -0.66397031830E+01  0.14579170307E+02  0.96975090901E+01  0.18726439805E+02  0.00000000000E+00 0. -1.
         11    1    3    3    0    0 -0.23682033929E+02 -0.24256339652E+02 -0.78774818726E+01  0.34803210560E+02  0.51100000000E-03 0. -1.
        -11    1    3    3    0    0 -0.84678374940E+00  0.13871122950E+01  0.45073529026E+01  0.47913832749E+01  0.51100000000E-03 0.  1.
        -12    1    3    3    0    0  0.31168520861E+02  0.82900570497E+01 -0.63273801202E+01  0.32866966361E+02  0.00000000000E+00 0.  1.
</event>
<event>
 7    1  0.2932676E-013  0.7246158E+02  0.7816164E-02  0.1226708E+00
        -11   -1    0    0    0    0  0.00000000000E+00  0.00000000000E+00  0.45593999997E+02  0.45594000000E+02  0.51100000000E-03 0.  1.
         11   -1    0    0    0    0 -0.00000000000E+00 -0.00000000000E+00 -0.45593999997E+02  0.45594000000E+02  0.51100000000E-03 0. -1.
    9900012    2    1    2    0    0 -0.54926338811E+01 -0.70876797371E+00  0.17888755700E+02  0.72461575902E+02  0.70000007306E+02 0.  0.
         12    1    1    2    0    0  0.54926338811E+01  0.70876797371E+00 -0.17888755700E+02  0.18726424098E+02  0.00000000000E+00 0. -1.
         11    1    3    3    0    0  0.12170454881E+02 -0.10177844435E+02 -0.12577214085E+02  0.20245858929E+02  0.51100000000E-03 0. -1.
        -11    1    3    3    0    0  0.99447782730E+01  0.16228191523E+01 -0.37835818542E+00  0.10083417678E+02  0.51100000000E-03 0.  1.
        -12    1    3    3    0    0 -0.27607867035E+02  0.78462573090E+01  0.30844327970E+02  0.42132299295E+02  0.00000000000E+00 0.  1.
</event>
<event>
 7    1  0.2932676E-013  0.7246159E+02  0.7816164E-02  0.1226708E+00
        -11   -1    0    0    0    0  0.00000000000E+00  0.00000000000E+00  0.45593999997E+02  0.45594000000E+02  0.51100000000E-03 0. -1.
         11   -1    0    0    0    0 -0.00000000000E+00 -0.00000000000E+00 -0.45593999997E+02  0.45594000000E+02  0.51100000000E-03 0.  1.
    9900012    2    1    2    0    0 -0.13495557198E+02 -0.11904151898E+02 -0.51806716290E+01  0.72461594712E+02  0.70000031809E+02 0.  0.
         12    1    1    2    0    0  0.13495557198E+02  0.11904151898E+02  0.51806716290E+01  0.18726405288E+02  0.00000000000E+00 0. -1.
         11    1    3    3    0    0 -0.12749745661E+02  0.45662357583E+01  0.32264149045E+01  0.13921791437E+02  0.51100000000E-03 0. -1.
        -11    1    3    3    0    0 -0.83342845039E+01 -0.18642402065E+02  0.20284080705E+02  0.28782692426E+02  0.51100000000E-03 0.  1.
        -12    1    3    3    0    0  0.75884729676E+01  0.21720144091E+01 -0.28691167239E+02  0.29757110849E+02  0.00000000000E+00 0.  1.
</event>
<event>
 7    1  0.2932676E-013  0.7246119E+02  0.7816164E-02  0.1226709E+00
        -11   -1    0    0    0    0  0.00000000000E+00  0.00000000000E+00  0.45593999997E+02  0.45594000000E+02  0.51100000000E-03 0. -1.
         11   -1    0    0    0    0 -0.00000000000E+00 -0.00000000000E+00 -0.45593999997E+02  0.45594000000E+02  0.51100000000E-03 0.  1.
    9900012    2    1    2    0    0 -0.24457229685E+01  0.12818156498E+02 -0.13431557048E+02  0.72461189765E+02  0.69999504288E+02 0.  0.
         12    1    1    2    0    0  0.24457229685E+01 -0.12818156498E+02  0.13431557048E+02  0.18726810235E+02  0.00000000000E+00 0. -1.
         11    1    3    3    0    0  0.18220326903E+02 -0.20914249963E+02 -0.25034640815E+01  0.27850556487E+02  0.51100000000E-03 0. -1.
        -11    1    3    3    0    0 -0.36944154442E+00  0.52246611101E+01 -0.79085232188E+01  0.94856897764E+01  0.51100000000E-03 0.  1.
         12    1    3    3    0    0 -0.20296608327E+02  0.28507745351E+02 -0.30195697474E+01  0.35124943502E+02  0.00000000000E+00 0. -1.
</event>
<event>
 7    1  0.2932676E-013  0.7246157E+02  0.7816164E-02  0.1226708E+00
        -11   -1    0    0    0    0  0.00000000000E+00  0.00000000000E+00  0.45593999997E+02  0.45594000000E+02  0.51100000000E-03 0. -1.
         11   -1    0    0    0    0 -0.00000000000E+00 -0.00000000000E+00 -0.45593999997E+02  0.45594000000E+02  0.51100000000E-03 0.  1.
    9900012    2    1    2    0    0 -0.88449995957E+01 -0.52873438013E+01 -0.15636152850E+02  0.72461566857E+02  0.69999995522E+02 0.  0.
         12    1    1    2    0    0  0.88449995957E+01  0.52873438013E+01  0.15636152850E+02  0.18726433143E+02  0.00000000000E+00 0. -1.
         11    1    3    3    0    0 -0.45994247348E+01 -0.14924701965E+01  0.49524584511E+00  0.48608069172E+01  0.51100000000E-03 0. -1.
        -11    1    3    3    0    0 -0.31174965428E+02 -0.13766051338E+01 -0.24083201363E+02  0.39417941337E+02  0.51100000000E-03 0.  1.
         12    1    3    3    0    0  0.26929390567E+02 -0.24182684711E+01  0.79518026674E+01  0.28182818602E+02  0.00000000000E+00 0. -1.
</event>
<event>
 7    1  0.2932676E-013  0.7246152E+02  0.7816164E-02  0.1226708E+00
        -11   -1    0    0    0    0  0.00000000000E+00  0.00000000000E+00  0.45593999997E+02  0.45594000000E+02  0.51100000000E-03 0.  1.
         11   -1    0    0    0    0 -0.00000000000E+00 -0.00000000000E+00 -0.45593999997E+02  0.45594000000E+02  0.51100000000E-03 0. -1.
    9900012    2    1    2    0    0  0.32665242209E+01 -0.99291646733E+01  0.15537782125E+02  0.72461517016E+02  0.69999930594E+02 0.  0.
         12    1    1    2    0    0 -0.32665242209E+01  0.99291646733E+01 -0.15537782125E+02  0.18726482984E+02  0.00000000000E+00 0. -1.
         11    1    3    3    0    0 -0.60751777632E+01 -0.17165874745E+02 -0.18185972318E+02  0.25735279871E+02  0.51100000000E-03 0. -1.
        -11    1    3    3    0    0  0.11761972831E+01  0.55066356330E+01 -0.47442904059E+01  0.73630678226E+01  0.51100000000E-03 0.  1.
        -12    1    3    3    0    0  0.81655047009E+01  0.17300744387E+01  0.38468044849E+02  0.39363169322E+02  0.00000000000E+00 0.  1.
</event>
<event>
 7    1  0.2932676E-013  0.7246157E+02  0.7816164E-02  0.1226708E+00
        -11   -1    0    0    0    0  0.00000000000E+00  0.00000000000E+00  0.45593999997E+02  0.45594000000E+02  0.51100000000E-03 0.  1.
         11   -1    0    0    0    0 -0.00000000000E+00 -0.00000000000E+00 -0.45593999997E+02  0.45594000000E+02  0.51100000000E-03 0. -1.
    9900012    2    1    2    0    0 -0.11065372612E+01 -0.18693652022E+02 -0.44242364717E-01  0.72461574606E+02  0.70000005617E+02 0.  0.
         12    1    1    2    0    0  0.11065372612E+01  0.18693652022E+02  0.44242364717E-01  0.18726425394E+02  0.00000000000E+00 0. -1.
         11    1    3    3    0    0 -0.80402356040E+01 -0.34858083865E+02  0.41910091327E+01  0.36017994907E+02  0.51100000000E-03 0. -1.
        -11    1    3    3    0    0 -0.56787711777E+00 -0.82207000142E+01  0.46084017251E+01  0.94413854844E+01  0.51100000000E-03 0.  1.
        -12    1    3    3    0    0  0.75015754606E+01  0.24385131857E+02 -0.88436532225E+01  0.27002194215E+02  0.00000000000E+00 0.  1.
</event>
<event>
 7    1  0.2932676E-013  0.7246145E+02  0.7816164E-02  0.1226708E+00
        -11   -1    0    0    0    0  0.00000000000E+00  0.00000000000E+00  0.45593999997E+02  0.45594000000E+02  0.51100000000E-03 0.  1.
         11   -1    0    0    0    0 -0.00000000000E+00 -0.00000000000E+00 -0.45593999997E+02  0.45594000000E+02  0.51100000000E-03 0. -1.
    9900012    2    1    2    0    0  0.12828055231E+02 -0.80137158768E+01  0.11041068384E+02  0.72461445747E+02  0.69999837753E+02 0.  0.
         12    1    1    2    0    0 -0.12828055231E+02  0.80137158768E+01 -0.11041068384E+02  0.18726554253E+02  0.00000000000E+00 0. -1.
         11    1    3    3    0    0 -0.23308575915E+01  0.57685501374E+01 -0.22158350926E+02  0.23015246768E+02  0.51100000000E-03 0. -1.
        -11    1    3    3    0    0  0.94350464530E+01 -0.50871480462E+01 -0.35179652431E+01  0.11281633593E+02  0.51100000000E-03 0.  1.
        -12    1    3    3    0    0  0.57238663691E+01 -0.86951179679E+01  0.36717384552E+02  0.38164565385E+02  0.00000000000E+00 0.  1.
</event>
<event>
 7    1  0.2932676E-013  0.7246157E+02  0.7816164E-02  0.1226708E+00
        -11   -1    0    0    0    0  0.00000000000E+00  0.00000000000E+00  0.45593999997E+02  0.45594000000E+02  0.51100000000E-03 0. -1.
         11   -1    0    0    0    0 -0.00000000000E+00 -0.00000000000E+00 -0.45593999997E+02  0.45594000000E+02  0.51100000000E-03 0.  1.
    9900012    2    1    2    0    0 -0.41048340893E+01 -0.13901394874E+02 -0.11856674674E+02  0.72461570104E+02  0.69999999751E+02 0.  0.
         12    1    1    2    0    0  0.41048340893E+01  0.13901394874E+02  0.11856674674E+02  0.18726429896E+02  0.00000000000E+00 0. -1.
         11    1    3    3    0    0 -0.50228727359E+01  0.18689820505E+02 -0.36106873360E+01  0.19686942483E+02  0.51100000000E-03 0. -1.
        -11    1    3    3    0    0 -0.86319063383E+01 -0.19574923379E+01  0.11941975905E+02  0.14864466760E+02  0.51100000000E-03 0.  1.
        -12    1    3    3    0    0  0.95499449849E+01 -0.30633723041E+02 -0.20187963243E+02  0.37910160860E+02  0.00000000000E+00 0.  1.
</event>
<event>
 7    1  0.2932676E-013  0.7246157E+02  0.7816164E-02  0.1226708E+00
        -11   -1    0    0    0    0  0.00000000000E+00  0.00000000000E+00  0.45593999997E+02  0.45594000000E+02  0.51100000000E-03 0.  1.
         11   -1    0    0    0    0 -0.00000000000E+00 -0.00000000000E+00 -0.45593999997E+02  0.45594000000E+02  0.51100000000E-03 0. -1.
    9900012    2    1    2    0    0  0.56709052541E+01 -0.68984942740E+01  0.16459975793E+02  0.72461569674E+02  0.69999999191E+02 0.  0.
         12    1    1    2    0    0 -0.56709052541E+01  0.68984942740E+01 -0.16459975793E+02  0.18726430326E+02  0.00000000000E+00 0. -1.
         11    1    3    3    0    0  0.31431509360E+01  0.11460955444E+02  0.21437548225E+02  0.24511249900E+02  0.51100000000E-03 0.  1.
        -11    1    3    3    0    0 -0.14953623919E+02  0.68129475636E+01 -0.54098844470E+01  0.17300114821E+02  0.51100000000E-03 0. -1.
         12    1    3    3    0    0  0.17481378237E+02 -0.25172397282E+02  0.43231201523E+00  0.30650204953E+02  0.00000000000E+00 0. -1.
</event>
<event>
 7    1  0.2932676E-013  0.7246152E+02  0.7816164E-02  0.1226708E+00
        -11   -1    0    0    0    0  0.00000000000E+00  0.00000000000E+00  0.45593999997E+02  0.45594000000E+02  0.51100000000E-03 0.  1.
         11   -1    0    0    0    0 -0.00000000000E+00 -0.00000000000E+00 -0.45593999997E+02  0.45594000000E+02  0.51100000000E-03 0. -1.
    9900012    2    1    2    0    0 -0.10700790503E+02 -0.11644588301E+02 -0.10028842749E+02  0.72461520326E+02  0.69999934907E+02 0.  0.
         12    1    1    2    0    0  0.10700790503E+02  0.11644588301E+02  0.10028842749E+02  0.18726479674E+02  0.00000000000E+00 0. -1.
         11    1    3    3    0    0  0.77415780827E+01  0.26342467317E+00 -0.21978511697E+02  0.23303570551E+02  0.51100000000E-03 0. -1.
        -11    1    3    3    0    0 -0.73107092606E+01 -0.14416441265E+02 -0.13633107403E+02  0.21145729270E+02  0.51100000000E-03 0.  1.
        -12    1    3    3    0    0 -0.11131659325E+02  0.25084282906E+01  0.25582776351E+02  0.28012220505E+02  0.00000000000E+00 0.  1.
</event>
<event>
 7    1  0.2932676E-013  0.7246154E+02  0.7816164E-02  0.1226708E+00
        -11   -1    0    0    0    0  0.00000000000E+00  0.00000000000E+00  0.45593999997E+02  0.45594000000E+02  0.51100000000E-03 0.  1.
         11   -1    0    0    0    0 -0.00000000000E+00 -0.00000000000E+00 -0.45593999997E+02  0.45594000000E+02  0.51100000000E-03 0. -1.
    9900012    2    1    2    0    0  0.17390525958E+02  0.58671023993E+01  0.37184803990E+01  0.72461537971E+02  0.69999957893E+02 0.  0.
         12    1    1    2    0    0 -0.17390525958E+02 -0.58671023993E+01 -0.37184803990E+01  0.18726462029E+02  0.00000000000E+00 0. -1.
         11    1    3    3    0    0  0.27661440395E+02  0.25522402673E+01  0.10388003567E+01  0.27798351058E+02  0.51100000000E-03 0. -1.
        -11    1    3    3    0    0 -0.34381245824E+00 -0.35943923563E+01  0.21768108854E+02  0.22065548413E+02  0.51100000000E-03 0.  1.
        -12    1    3    3    0    0 -0.99271019790E+01  0.69092544882E+01 -0.19088428812E+02  0.22597638500E+02  0.00000000000E+00 0.  1.
</event>
<event>
 7    1  0.2932676E-013  0.7246160E+02  0.7816164E-02  0.1226708E+00
        -11   -1    0    0    0    0  0.00000000000E+00  0.00000000000E+00  0.45593999997E+02  0.45594000000E+02  0.51100000000E-03 0.  1.
         11   -1    0    0    0    0 -0.00000000000E+00 -0.00000000000E+00 -0.45593999997E+02  0.45594000000E+02  0.51100000000E-03 0. -1.
    9900012    2    1    2    0    0  0.14656699644E+02  0.75002577172E+01  0.89221745084E+01  0.72461603971E+02  0.70000043870E+02 0.  0.
         12    1    1    2    0    0 -0.14656699644E+02 -0.75002577172E+01 -0.89221745084E+01  0.18726396029E+02  0.00000000000E+00 0. -1.
         11    1    3    3    0    0 -0.13660286594E+02 -0.19507329124E+02 -0.42705436455E+00  0.23818515803E+02  0.51100000000E-03 0.  1.
        -11    1    3    3    0    0  0.62782132856E+01  0.22317050411E+02 -0.22647164199E+01  0.23293682445E+02  0.51100000000E-03 0. -1.
        -12    1    3    3    0    0  0.22038772952E+02  0.46905364295E+01  0.11613945293E+02  0.25349405723E+02  0.00000000000E+00 0.  1.
</event>
<event>
 7    1  0.2932676E-013  0.7246148E+02  0.7816164E-02  0.1226708E+00
        -11   -1    0    0    0    0  0.00000000000E+00  0.00000000000E+00  0.45593999997E+02  0.45594000000E+02  0.51100000000E-03 0.  1.
         11   -1    0    0    0    0 -0.00000000000E+00 -0.00000000000E+00 -0.45593999997E+02  0.45594000000E+02  0.51100000000E-03 0. -1.
    9900012    2    1    2    0    0 -0.97790831206E+01 -0.13387085725E+02 -0.87085066932E+01  0.72461478173E+02  0.69999879995E+02 0.  0.
         12    1    1    2    0    0  0.97790831206E+01  0.13387085725E+02  0.87085066932E+01  0.18726521827E+02  0.00000000000E+00 0. -1.
         11    1    3    3    0    0 -0.69810351578E+01 -0.26278771682E+01 -0.16020267427E+02  0.17671716356E+02  0.51100000000E-03 0. -1.
        -11    1    3    3    0    0 -0.24545409618E+02 -0.15702403843E+02 -0.46107061329E+01  0.29500868311E+02  0.51100000000E-03 0.  1.
        -12    1    3    3    0    0  0.21747361655E+02  0.49431952860E+01  0.11922466866E+02  0.25288893507E+02  0.00000000000E+00 0.  1.
</event>
<event>
 7    1  0.2932676E-013  0.7246156E+02  0.7816164E-02  0.1226708E+00
        -11   -1    0    0    0    0  0.00000000000E+00  0.00000000000E+00  0.45593999997E+02  0.45594000000E+02  0.51100000000E-03 0. -1.
         11   -1    0    0    0    0 -0.00000000000E+00 -0.00000000000E+00 -0.45593999997E+02  0.45594000000E+02  0.51100000000E-03 0.  1.
    9900012    2    1    2    0    0 -0.67364370208E+01 -0.12512703575E+02  0.12195583369E+02  0.72461559115E+02  0.69999985437E+02 0.  0.
         12    1    1    2    0    0  0.67364370208E+01  0.12512703575E+02 -0.12195583369E+02  0.18726440885E+02  0.00000000000E+00 0. -1.
         11    1    3    3    0    0  0.17138528305E+02 -0.55724792119E+01 -0.20262695186E+02  0.27117494233E+02  0.51100000000E-03 0.  1.
        -11    1    3    3    0    0 -0.78067340370E+01 -0.11403772788E+02  0.87468147438E+01  0.16355362990E+02  0.51100000000E-03 0. -1.
        -12    1    3    3    0    0 -0.16068231289E+02  0.44635484244E+01  0.23711463812E+02  0.28988701892E+02  0.00000000000E+00 0.  1.
</event>
<event>
 7    1  0.2932676E-013  0.7246145E+02  0.7816164E-02  0.1226708E+00
        -11   -1    0    0    0    0  0.00000000000E+00  0.00000000000E+00  0.45593999997E+02  0.45594000000E+02  0.51100000000E-03 0. -1.
         11   -1    0    0    0    0 -0.00000000000E+00 -0.00000000000E+00 -0.45593999997E+02  0.45594000000E+02  0.51100000000E-03 0.  1.
    9900012    2    1    2    0    0  0.18163508852E+02 -0.38736881422E+01 -0.24011033550E+01  0.72461446368E+02  0.69999838562E+02 0.  0.
         12    1    1    2    0    0 -0.18163508852E+02  0.38736881422E+01  0.24011033550E+01  0.18726553632E+02  0.00000000000E+00 0. -1.
         11    1    3    3    0    0  0.22757325951E+02 -0.13540307316E+02 -0.92487992870E+01  0.28049529322E+02  0.51100000000E-03 0. -1.
        -11    1    3    3    0    0 -0.52850020846E+01 -0.13310875303E+02 -0.86096962769E+01  0.16710401509E+02  0.51100000000E-03 0.  1.
        -12    1    3    3    0    0  0.69118498518E+00  0.22977494477E+02  0.15457392209E+02  0.27701515536E+02  0.00000000000E+00 0.  1.
</event>
<event>
 7    1  0.2932676E-013  0.7246156E+02  0.7816164E-02  0.1226708E+00
        -11   -1    0    0    0    0  0.00000000000E+00  0.00000000000E+00  0.45593999997E+02  0.45594000000E+02  0.51100000000E-03 0.  1.
         11   -1    0    0    0    0 -0.00000000000E+00 -0.00000000000E+00 -0.45593999997E+02  0.45594000000E+02  0.51100000000E-03 0. -1.
    9900012    2    1    2    0    0 -0.16598053320E+02 -0.67628354301E+01  0.54266385390E+01  0.72461555519E+02  0.69999980753E+02 0.  0.
         12    1    1    2    0    0  0.16598053320E+02  0.67628354301E+01 -0.54266385390E+01  0.18726444481E+02  0.00000000000E+00 0. -1.
         11    1    3    3    0    0 -0.26955217144E+02 -0.21216363196E+01  0.99903660171E+01  0.28825205730E+02  0.51100000000E-03 0. -1.
        -11    1    3    3    0    0  0.44221388489E+01  0.13274079596E+01  0.18509028801E+02  0.19076201700E+02  0.51100000000E-03 0.  1.
         12    1    3    3    0    0  0.59350249758E+01 -0.59686070701E+01 -0.23072756279E+02  0.24560148089E+02  0.00000000000E+00 0. -1.
</event>
<event>
 7    1  0.2932676E-013  0.7246155E+02  0.7816164E-02  0.1226708E+00
        -11   -1    0    0    0    0  0.00000000000E+00  0.00000000000E+00  0.45593999997E+02  0.45594000000E+02  0.51100000000E-03 0.  1.
         11   -1    0    0    0    0 -0.00000000000E+00 -0.00000000000E+00 -0.45593999997E+02  0.45594000000E+02  0.51100000000E-03 0. -1.
    9900012    2    1    2    0    0 -0.48747045685E+00 -0.24898430211E+01  0.18553781292E+02  0.72461554903E+02  0.69999979950E+02 0.  0.
         12    1    1    2    0    0  0.48747045685E+00  0.24898430211E+01 -0.18553781292E+02  0.18726445097E+02  0.00000000000E+00 0. -1.
         11    1    3    3    0    0  0.99660666996E+01  0.15124087777E+02 -0.19083290171E+02  0.26310311297E+02  0.51100000000E-03 0. -1.
        -11    1    3    3    0    0  0.44962369099E+01 -0.68159775460E+01  0.13468955531E+02  0.15750760605E+02  0.51100000000E-03 0.  1.
        -12    1    3    3    0    0 -0.14949774066E+02 -0.10797953252E+02  0.24168115932E+02  0.30400483002E+02  0.00000000000E+00 0.  1.
</event>
<event>
 7    1  0.2932676E-013  0.7246153E+02  0.7816164E-02  0.1226708E+00
        -11   -1    0    0    0    0  0.00000000000E+00  0.00000000000E+00  0.45593999997E+02  0.45594000000E+02  0.51100000000E-03 0.  1.
         11   -1    0    0    0    0 -0.00000000000E+00 -0.00000000000E+00 -0.45593999997E+02  0.45594000000E+02  0.51100000000E-03 0. -1.
    9900012    2    1    2    0    0  0.17273267250E+02  0.10980960319E+01  0.71490630946E+01  0.72461529978E+02  0.69999947480E+02 0.  0.
         12    1    1    2    0    0 -0.17273267250E+02 -0.10980960319E+01 -0.71490630946E+01  0.18726470022E+02  0.00000000000E+00 0. -1.
         11    1    3    3    0    0  0.18685777566E+00  0.13456850739E+02  0.39555029190E+01  0.14027392888E+02  0.51100000000E-03 0. -1.
        -11    1    3    3    0    0  0.27230027325E+02 -0.35400476812E+01 -0.18360885595E+02  0.33032233436E+02  0.51100000000E-03 0.  1.
         12    1    3    3    0    0 -0.10143617851E+02 -0.88187070260E+01  0.21554445770E+02  0.25401903653E+02  0.00000000000E+00 0. -1.
</event>
<event>
 7    1  0.2932676E-013  0.7246155E+02  0.7816164E-02  0.1226708E+00
        -11   -1    0    0    0    0  0.00000000000E+00  0.00000000000E+00  0.45593999997E+02  0.45594000000E+02  0.51100000000E-03 0.  1.
         11   -1    0    0    0    0 -0.00000000000E+00 -0.00000000000E+00 -0.45593999997E+02  0.45594000000E+02  0.51100000000E-03 0. -1.
    9900012    2    1    2    0    0 -0.96845744090E+01 -0.47225431042E+00  0.16020792436E+02  0.72461553570E+02  0.69999978213E+02 0.  0.
         12    1    1    2    0    0  0.96845744090E+01  0.47225431042E+00 -0.16020792436E+02  0.18726446430E+02  0.00000000000E+00 0. -1.
         11    1    3    3    0    0  0.14291192928E+01  0.22766178869E+02 -0.26257559825E+01  0.22961617473E+02  0.51100000000E-03 0. -1.
        -11    1    3    3    0    0  0.11839490130E+02  0.19315415950E+00  0.10201474484E+02  0.15629488698E+02  0.51100000000E-03 0.  1.
         12    1    3    3    0    0 -0.22953183831E+02 -0.23431587339E+02  0.84450739343E+01  0.33870447398E+02  0.00000000000E+00 0. -1.
</event>
<event>
 7    1  0.2932676E-013  0.7246159E+02  0.7816164E-02  0.1226708E+00
        -11   -1    0    0    0    0  0.00000000000E+00  0.00000000000E+00  0.45593999997E+02  0.45594000000E+02  0.51100000000E-03 0.  1.
         11   -1    0    0    0    0 -0.00000000000E+00 -0.00000000000E+00 -0.45593999997E+02  0.45594000000E+02  0.51100000000E-03 0. -1.
    9900012    2    1    2    0    0  0.39905217700E+01  0.11876901890E+02  0.13917371708E+02  0.72461593571E+02  0.70000030322E+02 0.  0.
         12    1    1    2    0    0 -0.39905217700E+01 -0.11876901890E+02 -0.13917371708E+02  0.18726406429E+02  0.00000000000E+00 0. -1.
         11    1    3    3    0    0 -0.33734780517E+01  0.68110357645E+01  0.22292247966E+02  0.23552385908E+02  0.51100000000E-03 0. -1.
        -11    1    3    3    0    0 -0.11533967785E+02  0.52248141230E+01  0.14491390614E+02  0.19243999004E+02  0.51100000000E-03 0.  1.
         12    1    3    3    0    0  0.18897967607E+02 -0.15894799773E+00 -0.22866266872E+02  0.29665208659E+02  0.00000000000E+00 0. -1.
</event>
<event>
 7    1  0.2932676E-013  0.7246159E+02  0.7816164E-02  0.1226708E+00
        -11   -1    0    0    0    0  0.00000000000E+00  0.00000000000E+00  0.45593999997E+02  0.45594000000E+02  0.51100000000E-03 0.  1.
         11   -1    0    0    0    0 -0.00000000000E+00 -0.00000000000E+00 -0.45593999997E+02  0.45594000000E+02  0.51100000000E-03 0. -1.
    9900012    2    1    2    0    0  0.12281488513E+02  0.12567742640E+02  0.64726482544E+01  0.72461593762E+02  0.70000030571E+02 0.  0.
         12    1    1    2    0    0 -0.12281488513E+02 -0.12567742640E+02 -0.64726482544E+01  0.18726406238E+02  0.00000000000E+00 0. -1.
         11    1    3    3    0    0  0.10324918966E+02 -0.41447729317E+01  0.15115647804E+02  0.18768748043E+02  0.51100000000E-03 0. -1.
        -11    1    3    3    0    0  0.17426558053E+02  0.25771516808E+02  0.45404836722E+01  0.31439974497E+02  0.51100000000E-03 0.  1.
         12    1    3    3    0    0 -0.15469988506E+02 -0.90590012365E+01 -0.13183483222E+02  0.22252871222E+02  0.00000000000E+00 0. -1.
</event>
<event>
 7    1  0.3588123E-013  0.7246158E+02  0.7816164E-02  0.1226708E+00
        -11   -1    0    0    0    0  0.00000000000E+00  0.00000000000E+00  0.45593999997E+02  0.45594000000E+02  0.51100000000E-03 0. -1.
         11   -1    0    0    0    0 -0.00000000000E+00 -0.00000000000E+00 -0.45593999997E+02  0.45594000000E+02  0.51100000000E-03 0.  1.
    9900012    2    1    2    0    0  0.12171806212E+02  0.11419391827E+02 -0.84925559884E+01  0.72461577934E+02  0.70000009953E+02 0.  0.
         12    1    1    2    0    0 -0.12171806212E+02 -0.11419391827E+02  0.84925559884E+01  0.18726422066E+02  0.00000000000E+00 0. -1.
         11    1    3    3    0    0 -0.14593872087E+02 -0.29170710146E+01  0.18681476724E+02  0.23884890174E+02  0.51100000000E-03 0. -1.
        -11    1    3    3    0    0  0.98541167764E+01  0.11671153783E+02  0.13233917230E+01  0.15332019241E+02  0.51100000000E-03 0.  1.
        -12    1    3    3    0    0  0.16911561523E+02  0.26653090579E+01 -0.28497424435E+02  0.33244668519E+02  0.00000000000E+00 0.  1.
</event>
<event>
 7    1  0.2932676E-013  0.7246160E+02  0.7816164E-02  0.1226708E+00
        -11   -1    0    0    0    0  0.00000000000E+00  0.00000000000E+00  0.45593999997E+02  0.45594000000E+02  0.51100000000E-03 0.  1.
         11   -1    0    0    0    0 -0.00000000000E+00 -0.00000000000E+00 -0.45593999997E+02  0.45594000000E+02  0.51100000000E-03 0. -1.
    9900012    2    1    2    0    0  0.73908379671E+01  0.93695061104E+01  0.14431417386E+02  0.72461603166E+02  0.70000042821E+02 0.  0.
         12    1    1    2    0    0 -0.73908379671E+01 -0.93695061104E+01 -0.14431417386E+02  0.18726396834E+02  0.00000000000E+00 0. -1.
         11    1    3    3    0    0  0.24806154052E+00  0.16606879805E+02 -0.79783894021E+01  0.18425653017E+02  0.51100000000E-03 0. -1.
        -11    1    3    3    0    0  0.14821101930E+02  0.17686953318E+02  0.98792655600E+01  0.25101658677E+02  0.51100000000E-03 0.  1.
        -12    1    3    3    0    0 -0.76783255033E+01 -0.24924327012E+02  0.12530541228E+02  0.28934291472E+02  0.00000000000E+00 0.  1.
</event>
<event>
 7    1  0.2932676E-013  0.7246163E+02  0.7816164E-02  0.1226708E+00
        -11   -1    0    0    0    0  0.00000000000E+00  0.00000000000E+00  0.45593999997E+02  0.45594000000E+02  0.51100000000E-03 0.  1.
         11   -1    0    0    0    0 -0.00000000000E+00 -0.00000000000E+00 -0.45593999997E+02  0.45594000000E+02  0.51100000000E-03 0. -1.
    9900012    2    1    2    0    0 -0.82918925312E+00  0.17926562588E+01  0.18621915456E+02  0.72461630716E+02  0.70000078711E+02 0.  0.
         12    1    1    2    0    0  0.82918925312E+00 -0.17926562588E+01 -0.18621915456E+02  0.18726369284E+02  0.00000000000E+00 0. -1.
         11    1    3    3    0    0  0.62702082833E+01  0.23495706728E+02  0.11340402313E+02  0.26832228224E+02  0.51100000000E-03 0. -1.
        -11    1    3    3    0    0  0.73800991307E-01 -0.74099522582E+01  0.22417294640E+02  0.23610335412E+02  0.51100000000E-03 0.  1.
         12    1    3    3    0    0 -0.71731985277E+01 -0.14293098211E+02 -0.15135781496E+02  0.22019067080E+02  0.00000000000E+00 0. -1.
</event>
<event>
 7    1  0.2932676E-013  0.7246159E+02  0.7816164E-02  0.1226708E+00
        -11   -1    0    0    0    0  0.00000000000E+00  0.00000000000E+00  0.45593999997E+02  0.45594000000E+02  0.51100000000E-03 0. -1.
         11   -1    0    0    0    0 -0.00000000000E+00 -0.00000000000E+00 -0.45593999997E+02  0.45594000000E+02  0.51100000000E-03 0.  1.
    9900012    2    1    2    0    0  0.83107090667E+01  0.14215086428E+02 -0.89186221452E+01  0.72461591153E+02  0.70000027172E+02 0.  0.
         12    1    1    2    0    0 -0.83107090667E+01 -0.14215086428E+02  0.89186221452E+01  0.18726408847E+02  0.00000000000E+00 0. -1.
         11    1    3    3    0    0 -0.12434028920E+02 -0.16834237214E+02 -0.49301699812E+01  0.21501237036E+02  0.51100000000E-03 0. -1.
        -11    1    3    3    0    0 -0.96777952570E+01  0.73504331145E+01  0.31764224559E+00  0.12156869863E+02  0.51100000000E-03 0.  1.
        -12    1    3    3    0    0  0.30422533244E+02  0.23698890527E+02 -0.43060944097E+01  0.38803484254E+02  0.00000000000E+00 0.  1.
</event>
<event>
 7    1  0.2932676E-013  0.7246097E+02  0.7816164E-02  0.1226710E+00
        -11   -1    0    0    0    0  0.00000000000E+00  0.00000000000E+00  0.45593999997E+02  0.45594000000E+02  0.51100000000E-03 0.  1.
         11   -1    0    0    0    0 -0.00000000000E+00 -0.00000000000E+00 -0.45593999997E+02  0.45594000000E+02  0.51100000000E-03 0. -1.
    9900012    2    1    2    0    0 -0.23775345666E+01  0.16403446799E+02  0.87164229770E+01  0.72460966946E+02  0.69999214022E+02 0.  0.
         12    1    1    2    0    0  0.23775345666E+01 -0.16403446799E+02 -0.87164229770E+01  0.18727033054E+02  0.00000000000E+00 0. -1.
         11    1    3    3    0    0  0.24124132729E+01  0.95478345926E+01 -0.26728474350E+02  0.28484947333E+02  0.51100000000E-03 0. -1.
        -11    1    3    3    0    0 -0.11762677346E+02  0.54400434991E+01  0.71520113978E+01  0.14802226823E+02  0.51100000000E-03 0.  1.
        -12    1    3    3    0    0  0.69727295066E+01  0.14155687068E+01  0.28292885930E+02  0.29173792790E+02  0.00000000000E+00 0.  1.
</event>
<event>
 7    1  0.2932676E-013  0.7246154E+02  0.7816164E-02  0.1226708E+00
        -11   -1    0    0    0    0  0.00000000000E+00  0.00000000000E+00  0.45593999997E+02  0.45594000000E+02  0.51100000000E-03 0.  1.
         11   -1    0    0    0    0 -0.00000000000E+00 -0.00000000000E+00 -0.45593999997E+02  0.45594000000E+02  0.51100000000E-03 0. -1.
    9900012    2    1    2    0    0 -0.80816920937E+00  0.13160432047E+02  0.13297757120E+02  0.72461536011E+02  0.69999955339E+02 0.  0.
         12    1    1    2    0    0  0.80816920937E+00 -0.13160432047E+02 -0.13297757120E+02  0.18726463989E+02  0.00000000000E+00 0. -1.
         11    1    3    3    0    0 -0.72345811808E+01  0.48295356116E+01 -0.92847669858E+01  0.12722832913E+02  0.51100000000E-03 0. -1.
        -11    1    3    3    0    0  0.24739126175E+01 -0.54149261678E+01 -0.16808369251E+02  0.17831515533E+02  0.51100000000E-03 0.  1.
        -12    1    3    3    0    0  0.39524993539E+01  0.13745822603E+02  0.39390893357E+02  0.41907187565E+02  0.00000000000E+00 0.  1.
</event>
<event>
 7    1  0.2932676E-013  0.7246184E+02  0.7816164E-02  0.1226707E+00
        -11   -1    0    0    0    0  0.00000000000E+00  0.00000000000E+00  0.45593999997E+02  0.45594000000E+02  0.51100000000E-03 0.  1.
         11   -1    0    0    0    0 -0.00000000000E+00 -0.00000000000E+00 -0.45593999997E+02  0.45594000000E+02  0.51100000000E-03 0. -1.
    9900012    2    1    2    0    0  0.72812998998E+01  0.14557028588E+02  0.92598311735E+01  0.72461844952E+02  0.70000357791E+02 0.  0.
         12    1    1    2    0    0 -0.72812998998E+01 -0.14557028588E+02 -0.92598311735E+01  0.18726155048E+02  0.00000000000E+00 0. -1.
         11    1    3    3    0    0  0.29468956111E+01  0.14346473136E+02 -0.33832986521E+01  0.15031706331E+02  0.51100000000E-03 0. -1.
        -11    1    3    3    0    0  0.19628776661E+02 -0.15869812369E+02 -0.86422623495E+01  0.26680114628E+02  0.51100000000E-03 0.  1.
         12    1    3    3    0    0 -0.15294372372E+02  0.16080367821E+02  0.21285392175E+02  0.30750023993E+02  0.00000000000E+00 0. -1.
</event>
<event>
 7    1  0.2932676E-013  0.7246157E+02  0.7816164E-02  0.1226708E+00
        -11   -1    0    0    0    0  0.00000000000E+00  0.00000000000E+00  0.45593999997E+02  0.45594000000E+02  0.51100000000E-03 0. -1.
         11   -1    0    0    0    0 -0.00000000000E+00 -0.00000000000E+00 -0.45593999997E+02  0.45594000000E+02  0.51100000000E-03 0.  1.
    9900012    2    1    2    0    0 -0.60423830320E+01  0.10130644324E+02  0.14544374097E+02  0.72461570415E+02  0.70000000157E+02 0.  0.
         12    1    1    2    0    0  0.60423830320E+01 -0.10130644324E+02 -0.14544374097E+02  0.18726429585E+02  0.00000000000E+00 0. -1.
         11    1    3    3    0    0  0.28645984825E+01  0.56941941555E+01  0.23472603226E+02  0.24322682295E+02  0.51100000000E-03 0. -1.
        -11    1    3    3    0    0 -0.17409993881E+02  0.75285625533E+01  0.13944124254E+02  0.23541999545E+02  0.51100000000E-03 0.  1.
        -12    1    3    3    0    0  0.85030123670E+01 -0.30921123845E+01 -0.22872353384E+02  0.24596888576E+02  0.00000000000E+00 0.  1.
</event>
<event>
 7    1  0.2932676E-013  0.7246164E+02  0.7816164E-02  0.1226708E+00
        -11   -1    0    0    0    0  0.00000000000E+00  0.00000000000E+00  0.45593999997E+02  0.45594000000E+02  0.51100000000E-03 0. -1.
         11   -1    0    0    0    0 -0.00000000000E+00 -0.00000000000E+00 -0.45593999997E+02  0.45594000000E+02  0.51100000000E-03 0.  1.
    9900012    2    1    2    0    0  0.79653304623E+01  0.13967545572E+02 -0.95988410383E+01  0.72461639756E+02  0.70000090487E+02 0.  0.
         12    1    1    2    0    0 -0.79653304623E+01 -0.13967545572E+02  0.95988410383E+01  0.18726360244E+02  0.00000000000E+00 0. -1.
         11    1    3    3    0    0  0.81106877135E+01  0.23522768791E+02  0.46869086866E+01  0.25319380326E+02  0.51100000000E-03 0.  1.
        -11    1    3    3    0    0  0.31352881941E+01 -0.17584154800E+02 -0.26624067905E+02  0.32060466686E+02  0.51100000000E-03 0. -1.
         12    1    3    3    0    0 -0.32806454453E+01  0.80289315809E+01  0.12338318180E+02  0.15081792744E+02  0.00000000000E+00 0. -1.
</event>
<event>
 7    1  0.2932676E-013  0.7246145E+02  0.7816164E-02  0.1226708E+00
        -11   -1    0    0    0    0  0.00000000000E+00  0.00000000000E+00  0.45593999997E+02  0.45594000000E+02  0.51100000000E-03 0. -1.
         11   -1    0    0    0    0 -0.00000000000E+00 -0.00000000000E+00 -0.45593999997E+02  0.45594000000E+02  0.51100000000E-03 0.  1.
    9900012    2    1    2    0    0  0.15499032750E+02 -0.10342528934E+02 -0.18696537017E+01  0.72461453979E+02  0.69999848477E+02 0.  0.
         12    1    1    2    0    0 -0.15499032750E+02  0.10342528934E+02  0.18696537017E+01  0.18726546021E+02  0.00000000000E+00 0. -1.
         11    1    3    3    0    0 -0.65098306629E+01 -0.43249705799E+01 -0.42998040753E+00  0.78273973445E+01  0.51100000000E-03 0. -1.
        -11    1    3    3    0    0 -0.14882463563E+02  0.15828402495E+02  0.22510188312E+00  0.21727326535E+02  0.51100000000E-03 0.  1.
         12    1    3    3    0    0  0.36891326975E+02 -0.21845960849E+02 -0.16647751773E+01  0.42906730099E+02  0.00000000000E+00 0. -1.
</event>
<event>
 7    1  0.2932676E-013  0.7246155E+02  0.7816164E-02  0.1226708E+00
        -11   -1    0    0    0    0  0.00000000000E+00  0.00000000000E+00  0.45593999997E+02  0.45594000000E+02  0.51100000000E-03 0. -1.
         11   -1    0    0    0    0 -0.00000000000E+00 -0.00000000000E+00 -0.45593999997E+02  0.45594000000E+02  0.51100000000E-03 0.  1.
    9900012    2    1    2    0    0  0.15762914487E+02  0.55270246314E+01 -0.84653629008E+01  0.72461552301E+02  0.69999976560E+02 0.  0.
         12    1    1    2    0    0 -0.15762914487E+02 -0.55270246314E+01  0.84653629008E+01  0.18726447699E+02  0.00000000000E+00 0. -1.
         11    1    3    3    0    0  0.10640733042E+01  0.10994726432E+01  0.11323226639E+02  0.11426134686E+02  0.51100000000E-03 0. -1.
        -11    1    3    3    0    0 -0.16253929734E+02  0.25245536091E+01 -0.24661415498E+02  0.29643701142E+02  0.51100000000E-03 0.  1.
         12    1    3    3    0    0  0.30952770917E+02  0.19029983791E+01  0.48728259586E+01  0.31391716472E+02  0.00000000000E+00 0. -1.
</event>
<event>
 7    1  0.2932676E-013  0.7246158E+02  0.7816164E-02  0.1226708E+00
        -11   -1    0    0    0    0  0.00000000000E+00  0.00000000000E+00  0.45593999997E+02  0.45594000000E+02  0.51100000000E-03 0.  1.
         11   -1    0    0    0    0 -0.00000000000E+00 -0.00000000000E+00 -0.45593999997E+02  0.45594000000E+02  0.51100000000E-03 0. -1.
    9900012    2    1    2    0    0  0.16970090576E+02 -0.11074015100E+01 -0.78401873516E+01  0.72461578826E+02  0.70000011115E+02 0.  0.
         12    1    1    2    0    0 -0.16970090576E+02  0.11074015100E+01  0.78401873516E+01  0.18726421174E+02  0.00000000000E+00 0. -1.
         11    1    3    3    0    0 -0.12453607369E+02 -0.52951385658E+01 -0.29232500948E+01  0.13844718138E+02  0.51100000000E-03 0. -1.
        -11    1    3    3    0    0 -0.11433443111E+01 -0.18168977305E+02  0.60610822292E+01  0.19187383630E+02  0.51100000000E-03 0.  1.
         12    1    3    3    0    0  0.30567042256E+02  0.22356714361E+02 -0.10978019486E+02  0.39429477059E+02  0.00000000000E+00 0. -1.
</event>
<event>
 7    1  0.2932676E-013  0.7246155E+02  0.7816164E-02  0.1226708E+00
        -11   -1    0    0    0    0  0.00000000000E+00  0.00000000000E+00  0.45593999997E+02  0.45594000000E+02  0.51100000000E-03 0. -1.
         11   -1    0    0    0    0 -0.00000000000E+00 -0.00000000000E+00 -0.45593999997E+02  0.45594000000E+02  0.51100000000E-03 0.  1.
    9900012    2    1    2    0    0 -0.95855023239E+01  0.24900366223E+01 -0.15893321668E+02  0.72461553172E+02  0.69999977694E+02 0.  0.
         12    1    1    2    0    0  0.95855023239E+01 -0.24900366223E+01  0.15893321668E+02  0.18726446828E+02  0.00000000000E+00 0. -1.
         11    1    3    3    0    0  0.47127829372E+01 -0.22680220112E+01 -0.55866710250E+01  0.76527864376E+01  0.51100000000E-03 0. -1.
        -11    1    3    3    0    0 -0.15759870087E+02 -0.18892752468E+02 -0.26459903529E+02  0.36130819199E+02  0.51100000000E-03 0.  1.
         12    1    3    3    0    0  0.14615848257E+01  0.23650811102E+02  0.16153252887E+02  0.28677947535E+02  0.00000000000E+00 0. -1.
</event>
<event>
 7    1  0.2932676E-013  0.7246168E+02  0.7816164E-02  0.1226708E+00
        -11   -1    0    0    0    0  0.00000000000E+00  0.00000000000E+00  0.45593999997E+02  0.45594000000E+02  0.51100000000E-03 0. -1.
         11   -1    0    0    0    0 -0.00000000000E+00 -0.00000000000E+00 -0.45593999997E+02  0.45594000000E+02  0.51100000000E-03 0.  1.
    9900012    2    1    2    0    0  0.11431147612E+02  0.65591387568E+01 -0.13303447298E+02  0.72461677698E+02  0.70000139913E+02 0.  0.
         12    1    1    2    0    0 -0.11431147612E+02 -0.65591387568E+01  0.13303447298E+02  0.18726322302E+02  0.00000000000E+00 0. -1.
         11    1    3    3    0    0  0.14436981946E+01  0.57762717042E+01 -0.33959141694E+01  0.68543280185E+01  0.51100000000E-03 0. -1.
        -11    1    3    3    0    0  0.20735197598E+02  0.13865868130E+02  0.19508225733E+02  0.31666726858E+02  0.51100000000E-03 0.  1.
        -12    1    3    3    0    0 -0.10747748180E+02 -0.13083001077E+02 -0.29415758861E+02  0.33940622821E+02  0.00000000000E+00 0.  1.
</event>
<event>
 7    1  0.2932676E-013  0.7246155E+02  0.7816164E-02  0.1226708E+00
        -11   -1    0    0    0    0  0.00000000000E+00  0.00000000000E+00  0.45593999997E+02  0.45594000000E+02  0.51100000000E-03 0. -1.
         11   -1    0    0    0    0 -0.00000000000E+00 -0.00000000000E+00 -0.45593999997E+02  0.45594000000E+02  0.51100000000E-03 0.  1.
    9900012    2    1    2    0    0 -0.57254073109E+01  0.45368714444E+01 -0.17242871522E+02  0.72461545191E+02  0.69999967298E+02 0.  0.
         12    1    1    2    0    0  0.57254073109E+01 -0.45368714444E+01  0.17242871522E+02  0.18726454809E+02  0.00000000000E+00 0. -1.
         11    1    3    3    0    0 -0.39491409094E+01 -0.97469325408E+01  0.23690951477E+02  0.25920254436E+02  0.51100000000E-03 0. -1.
        -11    1    3    3    0    0 -0.87005118641E+01  0.42940872012E+01 -0.14498370881E+02  0.17445367582E+02  0.51100000000E-03 0.  1.
        -12    1    3    3    0    0  0.69242454626E+01  0.99897167840E+01 -0.26435452118E+02  0.29095923174E+02  0.00000000000E+00 0.  1.
</event>
<event>
 7    1  0.2932676E-013  0.7246158E+02  0.7816164E-02  0.1226708E+00
        -11   -1    0    0    0    0  0.00000000000E+00  0.00000000000E+00  0.45593999997E+02  0.45594000000E+02  0.51100000000E-03 0.  1.
         11   -1    0    0    0    0 -0.00000000000E+00 -0.00000000000E+00 -0.45593999997E+02  0.45594000000E+02  0.51100000000E-03 0. -1.
    9900012    2    1    2    0    0 -0.10682578952E+02  0.12918203562E+01  0.15326200655E+02  0.72461582313E+02  0.70000015656E+02 0.  0.
         12    1    1    2    0    0  0.10682578952E+02 -0.12918203562E+01 -0.15326200655E+02  0.18726417687E+02  0.00000000000E+00 0. -1.
         11    1    3    3    0    0  0.60884387750E+01 -0.25895119047E+00  0.21897836780E+02  0.22729966967E+02  0.51100000000E-03 0. -1.
        -11    1    3    3    0    0 -0.10389805082E+02  0.64706243202E+01  0.19177787903E+02  0.22750924769E+02  0.51100000000E-03 0.  1.
         12    1    3    3    0    0 -0.63812126450E+01 -0.49198527735E+01 -0.25749424029E+02  0.26980690576E+02  0.00000000000E+00 0. -1.
</event>
<event>
 7    1  0.2932676E-013  0.7246160E+02  0.7816164E-02  0.1226708E+00
        -11   -1    0    0    0    0  0.00000000000E+00  0.00000000000E+00  0.45593999997E+02  0.45594000000E+02  0.51100000000E-03 0. -1.
         11   -1    0    0    0    0 -0.00000000000E+00 -0.00000000000E+00 -0.45593999997E+02  0.45594000000E+02  0.51100000000E-03 0.  1.
    9900012    2    1    2    0    0  0.15698841041E+02  0.60441193624E+01 -0.82275725205E+01  0.72461603164E+02  0.70000042818E+02 0.  0.
         12    1    1    2    0    0 -0.15698841041E+02 -0.60441193624E+01  0.82275725205E+01  0.18726396836E+02  0.00000000000E+00 0. -1.
         11    1    3    3    0    0  0.29253922905E+01 -0.76830214027E+01 -0.13845178622E+02  0.16102040531E+02  0.51100000000E-03 0. -1.
        -11    1    3    3    0    0 -0.16898886747E+02 -0.85655616490E+01  0.11934393282E+01  0.18983295745E+02  0.51100000000E-03 0.  1.
         12    1    3    3    0    0  0.29672335498E+02  0.22292702414E+02  0.44241667732E+01  0.37376266887E+02  0.00000000000E+00 0. -1.
</event>
<event>
 7    1  0.2932676E-013  0.7246157E+02  0.7816164E-02  0.1226708E+00
        -11   -1    0    0    0    0  0.00000000000E+00  0.00000000000E+00  0.45593999997E+02  0.45594000000E+02  0.51100000000E-03 0.  1.
         11   -1    0    0    0    0 -0.00000000000E+00 -0.00000000000E+00 -0.45593999997E+02  0.45594000000E+02  0.51100000000E-03 0. -1.
    9900012    2    1    2    0    0 -0.53359573209E+01  0.90023203307E+01  0.15529490639E+02  0.72461567040E+02  0.69999995761E+02 0.  0.
         12    1    1    2    0    0  0.53359573209E+01 -0.90023203307E+01 -0.15529490639E+02  0.18726432960E+02  0.00000000000E+00 0. -1.
         11    1    3    3    0    0 -0.12025261413E+02 -0.18951072405E+01  0.21266691069E+01  0.12358036465E+02  0.51100000000E-03 0. -1.
        -11    1    3    3    0    0 -0.15835023727E+02  0.44887460032E+01  0.28020965419E+02  0.32497250967E+02  0.51100000000E-03 0.  1.
         12    1    3    3    0    0  0.22524327820E+02  0.64086815681E+01 -0.14618143887E+02  0.27606279609E+02  0.00000000000E+00 0. -1.
</event>
<event>
 7    1  0.2932676E-013  0.7246164E+02  0.7816164E-02  0.1226708E+00
        -11   -1    0    0    0    0  0.00000000000E+00  0.00000000000E+00  0.45593999997E+02  0.45594000000E+02  0.51100000000E-03 0.  1.
         11   -1    0    0    0    0 -0.00000000000E+00 -0.00000000000E+00 -0.45593999997E+02  0.45594000000E+02  0.51100000000E-03 0. -1.
    9900012    2    1    2    0    0 -0.10068079713E+02 -0.10249213381E+02  0.12010996934E+02  0.72461637530E+02  0.70000087587E+02 0.  0.
         12    1    1    2    0    0  0.10068079713E+02  0.10249213381E+02 -0.12010996934E+02  0.18726362470E+02  0.00000000000E+00 0. -1.
         11    1    3    3    0    0  0.19527010941E+02  0.14386385508E+02 -0.40571737391E+01  0.24591317641E+02  0.51100000000E-03 0. -1.
        -11    1    3    3    0    0  0.71533410285E+00  0.33597642295E+01  0.30794147057E+01  0.46132974917E+01  0.51100000000E-03 0.  1.
         12    1    3    3    0    0 -0.30310424757E+02 -0.27995363119E+02  0.12988755967E+02  0.43257022397E+02  0.00000000000E+00 0. -1.
</event>
<event>
 7    1  0.2932676E-013  0.7246156E+02  0.7816164E-02  0.1226708E+00
        -11   -1    0    0    0    0  0.00000000000E+00  0.00000000000E+00  0.45593999997E+02  0.45594000000E+02  0.51100000000E-03 0. -1.
         11   -1    0    0    0    0 -0.00000000000E+00 -0.00000000000E+00 -0.45593999997E+02  0.45594000000E+02  0.51100000000E-03 0.  1.
    9900012    2    1    2    0    0 -0.13547620576E+02 -0.89136694719E+01 -0.93641860615E+01  0.72461561275E+02  0.69999988251E+02 0.  0.
         12    1    1    2    0    0  0.13547620576E+02  0.89136694719E+01  0.93641860615E+01  0.18726438725E+02  0.00000000000E+00 0. -1.
         11    1    3    3    0    0  0.57080375666E+01  0.79717422508E+01  0.14390735563E+02  0.17413317825E+02  0.51100000000E-03 0. -1.
        -11    1    3    3    0    0 -0.14543037655E+02  0.18121836487E+01 -0.31127097157E+02  0.34404652759E+02  0.51100000000E-03 0.  1.
         12    1    3    3    0    0 -0.47126204871E+01 -0.18697595371E+02  0.73721755326E+01  0.20643590691E+02  0.00000000000E+00 0. -1.
</event>
<event>
 7    1  0.2932676E-013  0.7246154E+02  0.7816164E-02  0.1226708E+00
        -11   -1    0    0    0    0  0.00000000000E+00  0.00000000000E+00  0.45593999997E+02  0.45594000000E+02  0.51100000000E-03 0.  1.
         11   -1    0    0    0    0 -0.00000000000E+00 -0.00000000000E+00 -0.45593999997E+02  0.45594000000E+02  0.51100000000E-03 0. -1.
    9900012    2    1    2    0    0  0.14109073161E+02 -0.11405936195E+02  0.46388611675E+01  0.72461538538E+02  0.69999958632E+02 0.  0.
         12    1    1    2    0    0 -0.14109073161E+02  0.11405936195E+02 -0.46388611675E+01  0.18726461462E+02  0.00000000000E+00 0. -1.
         11    1    3    3    0    0  0.21040950096E+02 -0.21812338891E+02  0.16801470211E+02  0.34652404106E+02  0.51100000000E-03 0. -1.
        -11    1    3    3    0    0  0.19812110545E+01  0.63741561366E+01  0.10886483180E+02  0.12769909161E+02  0.51100000000E-03 0.  1.
         12    1    3    3    0    0 -0.89130879902E+01  0.40322465591E+01 -0.23049092224E+02  0.25039225271E+02  0.00000000000E+00 0. -1.
</event>
<event>
 7    1  0.2932676E-013  0.7246154E+02  0.7816164E-02  0.1226708E+00
        -11   -1    0    0    0    0  0.00000000000E+00  0.00000000000E+00  0.45593999997E+02  0.45594000000E+02  0.51100000000E-03 0.  1.
         11   -1    0    0    0    0 -0.00000000000E+00 -0.00000000000E+00 -0.45593999997E+02  0.45594000000E+02  0.51100000000E-03 0. -1.
    9900012    2    1    2    0    0 -0.21870519434E+00  0.57844061119E+01  0.17809349758E+02  0.72461544787E+02  0.69999966772E+02 0.  0.
         12    1    1    2    0    0  0.21870519434E+00 -0.57844061119E+01 -0.17809349758E+02  0.18726455213E+02  0.00000000000E+00 0. -1.
         11    1    3    3    0    0 -0.50105833750E+01 -0.51551968235E+01 -0.21454798038E+02  0.22627203963E+02  0.51100000000E-03 0. -1.
        -11    1    3    3    0    0  0.64289419508E+01 -0.29984956426E+01 -0.10281707968E+01  0.71679429527E+01  0.51100000000E-03 0.  1.
        -12    1    3    3    0    0 -0.16370637701E+01  0.13938098578E+02  0.40292318593E+02  0.42666397872E+02  0.00000000000E+00 0.  1.
</event>
<event>
 7    1  0.2932676E-013  0.7246158E+02  0.7816164E-02  0.1226708E+00
        -11   -1    0    0    0    0  0.00000000000E+00  0.00000000000E+00  0.45593999997E+02  0.45594000000E+02  0.51100000000E-03 0.  1.
         11   -1    0    0    0    0 -0.00000000000E+00 -0.00000000000E+00 -0.45593999997E+02  0.45594000000E+02  0.51100000000E-03 0. -1.
    9900012    2    1    2    0    0  0.10989606842E+02  0.13097219580E+02  0.76400381575E+01  0.72461580099E+02  0.70000012773E+02 0.  0.
         12    1    1    2    0    0 -0.10989606842E+02 -0.13097219580E+02 -0.76400381575E+01  0.18726419901E+02  0.00000000000E+00 0. -1.
         11    1    3    3    0    0 -0.12828597930E+02  0.11341428335E+02 -0.27675959202E+01  0.17345331042E+02  0.51100000000E-03 0. -1.
        -11    1    3    3    0    0  0.48369169218E+01  0.22189763492E+02  0.14474967239E+02  0.26931506567E+02  0.51100000000E-03 0.  1.
        -12    1    3    3    0    0  0.18981287849E+02 -0.20433972247E+02 -0.40673331610E+01  0.28184742490E+02  0.00000000000E+00 0.  1.
</event>
<event>
 7    1  0.2932676E-013  0.7246160E+02  0.7816164E-02  0.1226708E+00
        -11   -1    0    0    0    0  0.00000000000E+00  0.00000000000E+00  0.45593999997E+02  0.45594000000E+02  0.51100000000E-03 0.  1.
         11   -1    0    0    0    0 -0.00000000000E+00 -0.00000000000E+00 -0.45593999997E+02  0.45594000000E+02  0.51100000000E-03 0. -1.
    9900012    2    1    2    0    0  0.42241539602E+01  0.18189414877E+02 -0.14070655913E+01  0.72461598214E+02  0.70000036371E+02 0.  0.
         12    1    1    2    0    0 -0.42241539602E+01 -0.18189414877E+02  0.14070655913E+01  0.18726401786E+02  0.00000000000E+00 0. -1.
         11    1    3    3    0    0 -0.78848855999E+01 -0.15428907208E+02  0.51654536265E+01  0.18080500823E+02  0.51100000000E-03 0. -1.
        -11    1    3    3    0    0 -0.50745027477E+01 -0.69264196485E+01 -0.57570388986E+01  0.10337763995E+02  0.51100000000E-03 0.  1.
        -12    1    3    3    0    0  0.17183542308E+02  0.40544741734E+02 -0.81548031923E+00  0.44043333396E+02  0.00000000000E+00 0.  1.
</event>
<event>
 7    1  0.2932676E-013  0.7246161E+02  0.7816164E-02  0.1226708E+00
        -11   -1    0    0    0    0  0.00000000000E+00  0.00000000000E+00  0.45593999997E+02  0.45594000000E+02  0.51100000000E-03 0.  1.
         11   -1    0    0    0    0 -0.00000000000E+00 -0.00000000000E+00 -0.45593999997E+02  0.45594000000E+02  0.51100000000E-03 0. -1.
    9900012    2    1    2    0    0 -0.28123387370E+01 -0.17366849811E+02  0.64156947493E+01  0.72461605242E+02  0.70000045525E+02 0.  0.
         12    1    1    2    0    0  0.28123387370E+01  0.17366849811E+02 -0.64156947493E+01  0.18726394758E+02  0.00000000000E+00 0. -1.
         11    1    3    3    0    0 -0.17021782959E+02 -0.19537693901E+02  0.10960035982E+02  0.28135119815E+02  0.51100000000E-03 0. -1.
        -11    1    3    3    0    0  0.18830665437E+02 -0.96007095830E+01  0.11368765121E+02  0.24000341788E+02  0.51100000000E-03 0.  1.
         12    1    3    3    0    0 -0.46212212156E+01  0.11771553673E+02 -0.15913106353E+02  0.20326143638E+02  0.00000000000E+00 0. -1.
</event>
<event>
 7    1  0.2932676E-013  0.7246163E+02  0.7816164E-02  0.1226708E+00
        -11   -1    0    0    0    0  0.00000000000E+00  0.00000000000E+00  0.45593999997E+02  0.45594000000E+02  0.51100000000E-03 0.  1.
         11   -1    0    0    0    0 -0.00000000000E+00 -0.00000000000E+00 -0.45593999997E+02  0.45594000000E+02  0.51100000000E-03 0. -1.
    9900012    2    1    2    0    0  0.18537932733E+02 -0.23618258088E+01  0.12015252579E+01  0.72461632651E+02  0.70000081231E+02 0.  0.
         12    1    1    2    0    0 -0.18537932733E+02  0.23618258088E+01 -0.12015252579E+01  0.18726367349E+02  0.00000000000E+00 0. -1.
         11    1    3    3    0    0 -0.52226924030E+01  0.24274958589E+01 -0.56596237820E+01  0.80746884582E+01  0.51100000000E-03 0. -1.
        -11    1    3    3    0    0 -0.17057382352E+02 -0.94033201720E+01 -0.74989587087E+01  0.20871298592E+02  0.51100000000E-03 0.  1.
         12    1    3    3    0    0  0.40818007488E+02  0.46139985043E+01  0.14360107749E+02  0.43515645600E+02  0.00000000000E+00 0. -1.
</event>
<event>
 7    1  0.2932676E-013  0.7246226E+02  0.7816164E-02  0.1226706E+00
        -11   -1    0    0    0    0  0.00000000000E+00  0.00000000000E+00  0.45593999997E+02  0.45594000000E+02  0.51100000000E-03 0.  1.
         11   -1    0    0    0    0 -0.00000000000E+00 -0.00000000000E+00 -0.45593999997E+02  0.45594000000E+02  0.51100000000E-03 0. -1.
    9900012    2    1    2    0    0 -0.79259031924E+01 -0.14469533377E+02 -0.88581007130E+01  0.72462261408E+02  0.70000900298E+02 0.  0.
         12    1    1    2    0    0  0.79259031924E+01  0.14469533377E+02  0.88581007130E+01  0.18725738592E+02  0.00000000000E+00 0. -1.
         11    1    3    3    0    0 -0.93433199375E+01 -0.20572290360E+02 -0.23949226601E+02  0.32925403766E+02  0.51100000000E-03 0. -1.
        -11    1    3    3    0    0 -0.15256657009E+02 -0.25603989554E+01  0.13752250494E+02  0.20698927987E+02  0.51100000000E-03 0.  1.
        -12    1    3    3    0    0  0.16674073754E+02  0.86631559383E+01  0.13388753943E+01  0.18837929655E+02  0.00000000000E+00 0.  1.
</event>
<event>
 7    1  0.2932676E-013  0.7246159E+02  0.7816164E-02  0.1226708E+00
        -11   -1    0    0    0    0  0.00000000000E+00  0.00000000000E+00  0.45593999997E+02  0.45594000000E+02  0.51100000000E-03 0. -1.
         11   -1    0    0    0    0 -0.00000000000E+00 -0.00000000000E+00 -0.45593999997E+02  0.45594000000E+02  0.51100000000E-03 0.  1.
    9900012    2    1    2    0    0  0.16509773921E+02  0.49819221369E+01  0.72997311236E+01  0.72461594644E+02  0.70000031720E+02 0.  0.
         12    1    1    2    0    0 -0.16509773921E+02 -0.49819221369E+01 -0.72997311236E+01  0.18726405356E+02  0.00000000000E+00 0. -1.
         11    1    3    3    0    0 -0.15972547415E+01  0.20565658977E+01 -0.15102158756E+02  0.15325008495E+02  0.51100000000E-03 0. -1.
        -11    1    3    3    0    0  0.72477023466E+01  0.80120254147E+01 -0.14644099733E+02  0.18198115227E+02  0.51100000000E-03 0.  1.
         12    1    3    3    0    0  0.10859326316E+02 -0.50866691756E+01  0.37045989613E+02  0.38938470922E+02  0.00000000000E+00 0. -1.
</event>
<event>
 7    1  0.2932676E-013  0.7246155E+02  0.7816164E-02  0.1226708E+00
        -11   -1    0    0    0    0  0.00000000000E+00  0.00000000000E+00  0.45593999997E+02  0.45594000000E+02  0.51100000000E-03 0. -1.
         11   -1    0    0    0    0 -0.00000000000E+00 -0.00000000000E+00 -0.45593999997E+02  0.45594000000E+02  0.51100000000E-03 0.  1.
    9900012    2    1    2    0    0 -0.45269264149E+01 -0.83399500252E+00 -0.18151893854E+02  0.72461551833E+02  0.69999975951E+02 0.  0.
         12    1    1    2    0    0  0.45269264149E+01  0.83399500252E+00  0.18151893854E+02  0.18726448167E+02  0.00000000000E+00 0. -1.
         11    1    3    3    0    0  0.84759129442E+01 -0.15767492239E+02 -0.11657718489E+02  0.21362521208E+02  0.51100000000E-03 0. -1.
        -11    1    3    3    0    0  0.84114423080E+01 -0.12800169111E+02 -0.46698452791E+01  0.16012624587E+02  0.51100000000E-03 0.  1.
         12    1    3    3    0    0 -0.21414281667E+02  0.27733666348E+02 -0.18243300866E+01  0.35086406038E+02  0.00000000000E+00 0. -1.
</event>
<event>
 7    1  0.2932676E-013  0.7246156E+02  0.7816164E-02  0.1226708E+00
        -11   -1    0    0    0    0  0.00000000000E+00  0.00000000000E+00  0.45593999997E+02  0.45594000000E+02  0.51100000000E-03 0. -1.
         11   -1    0    0    0    0 -0.00000000000E+00 -0.00000000000E+00 -0.45593999997E+02  0.45594000000E+02  0.51100000000E-03 0.  1.
    9900012    2    1    2    0    0  0.75370054508E+01  0.46772882949E+01 -0.16492308482E+02  0.72461555702E+02  0.69999980991E+02 0.  0.
         12    1    1    2    0    0 -0.75370054508E+01 -0.46772882949E+01  0.16492308482E+02  0.18726444298E+02  0.00000000000E+00 0. -1.
         11    1    3    3    0    0  0.27262719460E+01  0.14677694692E+02 -0.22515856305E+02  0.27015385720E+02  0.51100000000E-03 0. -1.
        -11    1    3    3    0    0  0.10776276924E+01  0.16020087852E+02 -0.51802017461E+01  0.16871247334E+02  0.51100000000E-03 0.  1.
        -12    1    3    3    0    0  0.37331058124E+01 -0.26020494249E+02  0.11203749568E+02  0.28574922648E+02  0.00000000000E+00 0.  1.
</event>
<event>
 7    1  0.2932676E-013  0.7246157E+02  0.7816164E-02  0.1226708E+00
        -11   -1    0    0    0    0  0.00000000000E+00  0.00000000000E+00  0.45593999997E+02  0.45594000000E+02  0.51100000000E-03 0.  1.
         11   -1    0    0    0    0 -0.00000000000E+00 -0.00000000000E+00 -0.45593999997E+02  0.45594000000E+02  0.51100000000E-03 0. -1.
    9900012    2    1    2    0    0 -0.61421392150E+01 -0.36510911021E+01  0.17309611914E+02  0.72461574688E+02  0.70000005723E+02 0.  0.
         12    1    1    2    0    0  0.61421392150E+01  0.36510911021E+01 -0.17309611914E+02  0.18726425312E+02  0.00000000000E+00 0. -1.
         11    1    3    3    0    0 -0.10103319954E+02  0.22555149476E+02  0.14055153875E+02  0.28431658283E+02  0.51100000000E-03 0. -1.
        -11    1    3    3    0    0 -0.66446510583E+01 -0.97054851442E+01  0.16571314357E+02  0.20321325974E+02  0.51100000000E-03 0.  1.
        -12    1    3    3    0    0  0.10605831797E+02 -0.16500755434E+02 -0.13316856318E+02  0.23708590431E+02  0.00000000000E+00 0.  1.
</event>
<event>
 7    1  0.2932676E-013  0.7246159E+02  0.7816164E-02  0.1226708E+00
        -11   -1    0    0    0    0  0.00000000000E+00  0.00000000000E+00  0.45593999997E+02  0.45594000000E+02  0.51100000000E-03 0.  1.
         11   -1    0    0    0    0 -0.00000000000E+00 -0.00000000000E+00 -0.45593999997E+02  0.45594000000E+02  0.51100000000E-03 0. -1.
    9900012    2    1    2    0    0  0.22982032367E+01 -0.60772830412E+01  0.17563125296E+02  0.72461588773E+02  0.70000024072E+02 0.  0.
         12    1    1    2    0    0 -0.22982032367E+01  0.60772830412E+01 -0.17563125296E+02  0.18726411227E+02  0.00000000000E+00 0. -1.
         11    1    3    3    0    0  0.15519622887E+01  0.19042301643E+01  0.11842910645E+02  0.12095007742E+02  0.51100000000E-03 0. -1.
        -11    1    3    3    0    0 -0.14622856132E+02 -0.81760265995E+01  0.28397567098E+02  0.32971156330E+02  0.51100000000E-03 0.  1.
         12    1    3    3    0    0  0.15369097080E+02  0.19451339407E+00 -0.22677352447E+02  0.27395424701E+02  0.00000000000E+00 0. -1.
</event>
<event>
 7    1  0.2932676E-013  0.7246147E+02  0.7816164E-02  0.1226708E+00
        -11   -1    0    0    0    0  0.00000000000E+00  0.00000000000E+00  0.45593999997E+02  0.45594000000E+02  0.51100000000E-03 0.  1.
         11   -1    0    0    0    0 -0.00000000000E+00 -0.00000000000E+00 -0.45593999997E+02  0.45594000000E+02  0.51100000000E-03 0. -1.
    9900012    2    1    2    0    0  0.10663579335E+02  0.80622336448E+01  0.13113780739E+02  0.72461473871E+02  0.69999874391E+02 0.  0.
         12    1    1    2    0    0 -0.10663579335E+02 -0.80622336448E+01 -0.13113780739E+02  0.18726526129E+02  0.00000000000E+00 0. -1.
         11    1    3    3    0    0  0.11797286026E+00  0.33120696529E+02 -0.84916973807E+01  0.34192153790E+02  0.51100000000E-03 0. -1.
        -11    1    3    3    0    0 -0.43188614971E+01 -0.57128269489E+01  0.55960276216E+01  0.90887007753E+01  0.51100000000E-03 0.  1.
        -12    1    3    3    0    0  0.14864467972E+02 -0.19345635935E+02  0.16009450498E+02  0.29180619306E+02  0.00000000000E+00 0.  1.
</event>
<event>
 7    1  0.2932676E-013  0.7246160E+02  0.7816164E-02  0.1226708E+00
        -11   -1    0    0    0    0  0.00000000000E+00  0.00000000000E+00  0.45593999997E+02  0.45594000000E+02  0.51100000000E-03 0.  1.
         11   -1    0    0    0    0 -0.00000000000E+00 -0.00000000000E+00 -0.45593999997E+02  0.45594000000E+02  0.51100000000E-03 0. -1.
    9900012    2    1    2    0    0 -0.10919082315E+01 -0.61362662156E+01  0.17658761483E+02  0.72461604624E+02  0.70000044721E+02 0.  0.
         12    1    1    2    0    0  0.10919082315E+01  0.61362662156E+01 -0.17658761483E+02  0.18726395376E+02  0.00000000000E+00 0. -1.
         11    1    3    3    0    0  0.16504463938E+01 -0.82518523048E+01  0.48152502362E+01  0.96955492293E+01  0.51100000000E-03 0. -1.
        -11    1    3    3    0    0 -0.18926125630E+02 -0.23389663536E+02  0.38242966740E+00  0.30090211771E+02  0.51100000000E-03 0.  1.
         12    1    3    3    0    0  0.16183771005E+02  0.25505249625E+02  0.12461081580E+02  0.32675843624E+02  0.00000000000E+00 0. -1.
</event>
<event>
 7    1  0.2932676E-013  0.7246148E+02  0.7816164E-02  0.1226708E+00
        -11   -1    0    0    0    0  0.00000000000E+00  0.00000000000E+00  0.45593999997E+02  0.45594000000E+02  0.51100000000E-03 0.  1.
         11   -1    0    0    0    0 -0.00000000000E+00 -0.00000000000E+00 -0.45593999997E+02  0.45594000000E+02  0.51100000000E-03 0. -1.
    9900012    2    1    2    0    0  0.40968530814E+01 -0.16538566142E+02  0.77700938568E+01  0.72461475129E+02  0.69999876029E+02 0.  0.
         12    1    1    2    0    0 -0.40968530814E+01  0.16538566142E+02 -0.77700938568E+01  0.18726524871E+02  0.00000000000E+00 0. -1.
         11    1    3    3    0    0 -0.13442887633E+02  0.29659692626E+01 -0.31347396213E+01  0.14118597464E+02  0.51100000000E-03 0. -1.
        -11    1    3    3    0    0 -0.24479756675E+01  0.14756765848E+02 -0.47581365923E+01  0.15696961083E+02  0.51100000000E-03 0.  1.
        -12    1    3    3    0    0  0.19987716382E+02 -0.34261301253E+02  0.15662970070E+02  0.42645916582E+02  0.00000000000E+00 0.  1.
</event>
<event>
 7    1  0.2932676E-013  0.7246161E+02  0.7816164E-02  0.1226708E+00
        -11   -1    0    0    0    0  0.00000000000E+00  0.00000000000E+00  0.45593999997E+02  0.45594000000E+02  0.51100000000E-03 0.  1.
         11   -1    0    0    0    0 -0.00000000000E+00 -0.00000000000E+00 -0.45593999997E+02  0.45594000000E+02  0.51100000000E-03 0. -1.
    9900012    2    1    2    0    0  0.10318816858E+02  0.54743324715E+01  0.14636645957E+02  0.72461609472E+02  0.70000051036E+02 0.  0.
         12    1    1    2    0    0 -0.10318816858E+02 -0.54743324715E+01 -0.14636645957E+02  0.18726390528E+02  0.00000000000E+00 0. -1.
         11    1    3    3    0    0 -0.18349219539E+02 -0.13574433139E+02  0.12758982686E+02  0.26148627730E+02  0.51100000000E-03 0. -1.
        -11    1    3    3    0    0  0.75423792515E+01  0.22710221279E+02  0.55374430347E+01  0.24562265998E+02  0.51100000000E-03 0.  1.
        -12    1    3    3    0    0  0.21125657145E+02 -0.36614556687E+01 -0.36597797633E+01  0.21750715743E+02  0.00000000000E+00 0.  1.
</event>
<event>
 7    1  0.2932676E-013  0.7246158E+02  0.7816164E-02  0.1226708E+00
        -11   -1    0    0    0    0  0.00000000000E+00  0.00000000000E+00  0.45593999997E+02  0.45594000000E+02  0.51100000000E-03 0. -1.
         11   -1    0    0    0    0 -0.00000000000E+00 -0.00000000000E+00 -0.45593999997E+02  0.45594000000E+02  0.51100000000E-03 0.  1.
    9900012    2    1    2    0    0 -0.10857761787E+02  0.11563251993E+02  0.99538443264E+01  0.72461580039E+02  0.70000012695E+02 0.  0.
         12    1    1    2    0    0  0.10857761787E+02 -0.11563251993E+02 -0.99538443264E+01  0.18726419961E+02  0.00000000000E+00 0. -1.
         11    1    3    3    0    0  0.51287065255E+01  0.23623015698E+02 -0.85170004794E+01  0.25629861465E+02  0.51100000000E-03 0. -1.
        -11    1    3    3    0    0  0.10578882910E+02 -0.31240894135E+01 -0.31071244425E+01  0.11459795846E+02  0.51100000000E-03 0.  1.
         12    1    3    3    0    0 -0.26565351222E+02 -0.89356742916E+01  0.21577969248E+02  0.35371922728E+02  0.00000000000E+00 0. -1.
</event>
<event>
 7    1  0.2932676E-013  0.7246151E+02  0.7816164E-02  0.1226708E+00
        -11   -1    0    0    0    0  0.00000000000E+00  0.00000000000E+00  0.45593999997E+02  0.45594000000E+02  0.51100000000E-03 0.  1.
         11   -1    0    0    0    0 -0.00000000000E+00 -0.00000000000E+00 -0.45593999997E+02  0.45594000000E+02  0.51100000000E-03 0. -1.
    9900012    2    1    2    0    0  0.72540005176E+01 -0.75017320787E+01  0.15549433050E+02  0.72461511385E+02  0.69999923259E+02 0.  0.
         12    1    1    2    0    0 -0.72540005176E+01  0.75017320787E+01 -0.15549433050E+02  0.18726488615E+02  0.00000000000E+00 0. -1.
         11    1    3    3    0    0  0.16245975891E+02 -0.96965491920E+01  0.78407953360E+00  0.18935933562E+02  0.51100000000E-03 0. -1.
        -11    1    3    3    0    0  0.79792533968E+00 -0.22147634849E+02  0.15880850195E+02  0.27264552398E+02  0.51100000000E-03 0.  1.
         12    1    3    3    0    0 -0.97899007132E+01  0.24342451963E+02 -0.11154966785E+01  0.26261025425E+02  0.00000000000E+00 0. -1.
</event>
<event>
 7    1  0.2932676E-013  0.7246164E+02  0.7816164E-02  0.1226708E+00
        -11   -1    0    0    0    0  0.00000000000E+00  0.00000000000E+00  0.45593999997E+02  0.45594000000E+02  0.51100000000E-03 0. -1.
         11   -1    0    0    0    0 -0.00000000000E+00 -0.00000000000E+00 -0.45593999997E+02  0.45594000000E+02  0.51100000000E-03 0.  1.
    9900012    2    1    2    0    0 -0.11774030071E+02 -0.14561820606E+02  0.46632409306E-01  0.72461639487E+02  0.70000090136E+02 0.  0.
         12    1    1    2    0    0  0.11774030071E+02  0.14561820606E+02 -0.46632409306E-01  0.18726360513E+02  0.00000000000E+00 0. -1.
         11    1    3    3    0    0  0.91096334454E+01 -0.21491863289E+01 -0.20071757069E+02  0.22146779799E+02  0.51100000000E-03 0. -1.
        -11    1    3    3    0    0 -0.35052113297E+01  0.46302665086E+01 -0.10016039504E+02  0.11577863448E+02  0.51100000000E-03 0.  1.
         12    1    3    3    0    0 -0.17378452187E+02 -0.17042900786E+02  0.30134428982E+02  0.38736996240E+02  0.00000000000E+00 0. -1.
</event>
<event>
 7    1  0.2932676E-013  0.7246159E+02  0.7816164E-02  0.1226708E+00
        -11   -1    0    0    0    0  0.00000000000E+00  0.00000000000E+00  0.45593999997E+02  0.45594000000E+02  0.51100000000E-03 0. -1.
         11   -1    0    0    0    0 -0.00000000000E+00 -0.00000000000E+00 -0.45593999997E+02  0.45594000000E+02  0.51100000000E-03 0.  1.
    9900012    2    1    2    0    0 -0.17581219779E+02 -0.57877653803E+01  0.28427211693E+01  0.72461586017E+02  0.70000020481E+02 0.  0.
         12    1    1    2    0    0  0.17581219779E+02  0.57877653803E+01 -0.28427211693E+01  0.18726413983E+02  0.00000000000E+00 0. -1.
         11    1    3    3    0    0 -0.20086888617E+02  0.88375146212E+01  0.15192163738E+02  0.26690571337E+02  0.51100000000E-03 0. -1.
        -11    1    3    3    0    0 -0.11890128206E+02  0.10008528468E+02 -0.43548414736E+01  0.16140335664E+02  0.51100000000E-03 0.  1.
         12    1    3    3    0    0  0.14395797044E+02 -0.24633808469E+02 -0.79946010952E+01  0.29630679015E+02  0.00000000000E+00 0. -1.
</event>
<event>
 7    1  0.2932676E-013  0.7246153E+02  0.7816164E-02  0.1226708E+00
        -11   -1    0    0    0    0  0.00000000000E+00  0.00000000000E+00  0.45593999997E+02  0.45594000000E+02  0.51100000000E-03 0. -1.
         11   -1    0    0    0    0 -0.00000000000E+00 -0.00000000000E+00 -0.45593999997E+02  0.45594000000E+02  0.51100000000E-03 0.  1.
    9900012    2    1    2    0    0 -0.16634655215E+02 -0.81172024724E+01 -0.28425370093E+01  0.72461528182E+02  0.69999945141E+02 0.  0.
         12    1    1    2    0    0  0.16634655215E+02  0.81172024724E+01  0.28425370093E+01  0.18726471818E+02  0.00000000000E+00 0. -1.
         11    1    3    3    0    0  0.88759650161E+01  0.13211679630E+02  0.11007876994E+02  0.19352121066E+02  0.51100000000E-03 0. -1.
        -11    1    3    3    0    0  0.23620787424E+01  0.88704229758E+01 -0.67744388647E+01  0.11408630152E+02  0.51100000000E-03 0.  1.
         12    1    3    3    0    0 -0.27872698973E+02 -0.30199305078E+02 -0.70759751383E+01  0.41700776964E+02  0.00000000000E+00 0. -1.
</event>
<event>
 7    1  0.2932676E-013  0.7246206E+02  0.7816164E-02  0.1226707E+00
        -11   -1    0    0    0    0  0.00000000000E+00  0.00000000000E+00  0.45593999997E+02  0.45594000000E+02  0.51100000000E-03 0. -1.
         11   -1    0    0    0    0 -0.00000000000E+00 -0.00000000000E+00 -0.45593999997E+02  0.45594000000E+02  0.51100000000E-03 0.  1.
    9900012    2    1    2    0    0 -0.34485576550E+01  0.52652705850E+01 -0.17636468773E+02  0.72462064642E+02  0.70000643977E+02 0.  0.
         12    1    1    2    0    0  0.34485576550E+01 -0.52652705850E+01  0.17636468773E+02  0.18725935358E+02  0.00000000000E+00 0. -1.
         11    1    3    3    0    0 -0.55120094250E+01  0.53855630439E+01  0.10305982037E+02  0.12868558707E+02  0.51100000000E-03 0. -1.
        -11    1    3    3    0    0  0.22112015295E+01 -0.24325981170E+02 -0.26261254486E+01  0.24567037005E+02  0.51100000000E-03 0.  1.
        -12    1    3    3    0    0 -0.14774975952E+00  0.24205688711E+02 -0.25316325361E+02  0.35026468930E+02  0.00000000000E+00 0.  1.
</event>
<event>
 7    1  0.2932676E-013  0.7246164E+02  0.7816164E-02  0.1226708E+00
        -11   -1    0    0    0    0  0.00000000000E+00  0.00000000000E+00  0.45593999997E+02  0.45594000000E+02  0.51100000000E-03 0. -1.
         11   -1    0    0    0    0 -0.00000000000E+00 -0.00000000000E+00 -0.45593999997E+02  0.45594000000E+02  0.51100000000E-03 0.  1.
    9900012    2    1    2    0    0 -0.58293129763E+00  0.54929283897E+01 -0.17893146031E+02  0.72461635001E+02  0.70000084293E+02 0.  0.
         12    1    1    2    0    0  0.58293129763E+00 -0.54929283897E+01  0.17893146031E+02  0.18726364999E+02  0.00000000000E+00 0. -1.
         11    1    3    3    0    0 -0.34463262763E+01 -0.71812176691E+01 -0.80956654371E+01  0.11357237831E+02  0.51100000000E-03 0. -1.
        -11    1    3    3    0    0 -0.24688859423E+02  0.13668934675E+02 -0.16555578855E+02  0.32717988114E+02  0.51100000000E-03 0.  1.
         12    1    3    3    0    0  0.27552254402E+02 -0.99478861673E+00  0.67580982613E+01  0.28386409056E+02  0.00000000000E+00 0. -1.
</event>
<event>
 7    1  0.2932676E-013  0.7246147E+02  0.7816164E-02  0.1226708E+00
        -11   -1    0    0    0    0  0.00000000000E+00  0.00000000000E+00  0.45593999997E+02  0.45594000000E+02  0.51100000000E-03 0. -1.
         11   -1    0    0    0    0 -0.00000000000E+00 -0.00000000000E+00 -0.45593999997E+02  0.45594000000E+02  0.51100000000E-03 0.  1.
    9900012    2    1    2    0    0  0.83081783625E+01 -0.97601564144E+01 -0.13652709904E+02  0.72461468857E+02  0.69999867859E+02 0.  0.
         12    1    1    2    0    0 -0.83081783625E+01  0.97601564144E+01  0.13652709904E+02  0.18726531143E+02  0.00000000000E+00 0. -1.
         11    1    3    3    0    0 -0.54911469354E+00 -0.73283596086E+01  0.13311112224E+02  0.15205002151E+02  0.51100000000E-03 0. -1.
        -11    1    3    3    0    0 -0.15740525175E+02  0.11301410273E+02 -0.20781894515E+02  0.28414312359E+02  0.51100000000E-03 0.  1.
         12    1    3    3    0    0  0.24597818231E+02 -0.13733207079E+02 -0.61819276129E+01  0.28842154347E+02  0.00000000000E+00 0. -1.
</event>
<event>
 7    1  0.2932676E-013  0.7246156E+02  0.7816164E-02  0.1226708E+00
        -11   -1    0    0    0    0  0.00000000000E+00  0.00000000000E+00  0.45593999997E+02  0.45594000000E+02  0.51100000000E-03 0. -1.
         11   -1    0    0    0    0 -0.00000000000E+00 -0.00000000000E+00 -0.45593999997E+02  0.45594000000E+02  0.51100000000E-03 0.  1.
    9900012    2    1    2    0    0 -0.79271430344E+01  0.54482761332E+01 -0.16067239632E+02  0.72461561499E+02  0.69999988543E+02 0.  0.
         12    1    1    2    0    0  0.79271430344E+01 -0.54482761332E+01  0.16067239632E+02  0.18726438501E+02  0.00000000000E+00 0. -1.
         11    1    3    3    0    0  0.14764929405E+02 -0.27626121082E+01 -0.17852331656E+02  0.23331114671E+02  0.51100000000E-03 0. -1.
        -11    1    3    3    0    0 -0.26799961598E+02  0.34147347721E+01 -0.15207302238E+02  0.31002586938E+02  0.51100000000E-03 0.  1.
         12    1    3    3    0    0  0.41078891587E+01  0.47961534693E+01  0.16992394262E+02  0.18127859890E+02  0.00000000000E+00 0. -1.
</event>
<event>
 7    1  0.2932676E-013  0.7246156E+02  0.7816164E-02  0.1226708E+00
        -11   -1    0    0    0    0  0.00000000000E+00  0.00000000000E+00  0.45593999997E+02  0.45594000000E+02  0.51100000000E-03 0.  1.
         11   -1    0    0    0    0 -0.00000000000E+00 -0.00000000000E+00 -0.45593999997E+02  0.45594000000E+02  0.51100000000E-03 0. -1.
    9900012    2    1    2    0    0 -0.23611849926E+01  0.17310436451E+02 -0.67418946026E+01  0.72461560202E+02  0.69999986853E+02 0.  0.
         12    1    1    2    0    0  0.23611849926E+01 -0.17310436451E+02  0.67418946026E+01  0.18726439798E+02  0.00000000000E+00 0. -1.
         11    1    3    3    0    0  0.10918470861E+02  0.68850646002E+01  0.72720986380E+01  0.14815550592E+02  0.51100000000E-03 0. -1.
        -11    1    3    3    0    0 -0.76943426591E+01  0.63540357096E+01  0.20312138212E+02  0.22630944253E+02  0.51100000000E-03 0.  1.
         12    1    3    3    0    0 -0.55853131943E+01  0.40713361409E+01 -0.34326131453E+02  0.35015065357E+02  0.00000000000E+00 0. -1.
</event>
<event>
 7    1  0.2932676E-013  0.7246155E+02  0.7816164E-02  0.1226708E+00
        -11   -1    0    0    0    0  0.00000000000E+00  0.00000000000E+00  0.45593999997E+02  0.45594000000E+02  0.51100000000E-03 0.  1.
         11   -1    0    0    0    0 -0.00000000000E+00 -0.00000000000E+00 -0.45593999997E+02  0.45594000000E+02  0.51100000000E-03 0. -1.
    9900012    2    1    2    0    0  0.62499965443E+01 -0.13105139440E+02 -0.11826785384E+02  0.72461548412E+02  0.69999971495E+02 0.  0.
         12    1    1    2    0    0 -0.62499965443E+01  0.13105139440E+02  0.11826785384E+02  0.18726451588E+02  0.00000000000E+00 0. -1.
         11    1    3    3    0    0 -0.26078963887E+02 -0.96518228711E+01 -0.15643545521E+01  0.27851700982E+02  0.51100000000E-03 0. -1.
        -11    1    3    3    0    0 -0.49876708715E+01  0.20533156835E+01 -0.30805316404E+01  0.62114926923E+01  0.51100000000E-03 0.  1.
        -12    1    3    3    0    0  0.37316631303E+02 -0.55066322527E+01 -0.71818991912E+01  0.38398354738E+02  0.00000000000E+00 0.  1.
</event>
<event>
 7    1  0.2932676E-013  0.7246160E+02  0.7816164E-02  0.1226708E+00
        -11   -1    0    0    0    0  0.00000000000E+00  0.00000000000E+00  0.45593999997E+02  0.45594000000E+02  0.51100000000E-03 0. -1.
         11   -1    0    0    0    0 -0.00000000000E+00 -0.00000000000E+00 -0.45593999997E+02  0.45594000000E+02  0.51100000000E-03 0.  1.
    9900012    2    1    2    0    0 -0.15267266541E+02 -0.18530282784E+01 -0.10684328296E+02  0.72461601185E+02  0.70000040241E+02 0.  0.
         12    1    1    2    0    0  0.15267266541E+02  0.18530282784E+01  0.10684328296E+02  0.18726398815E+02  0.00000000000E+00 0. -1.
         11    1    3    3    0    0 -0.23196770434E+02 -0.27592294015E+02  0.30345596257E+01  0.36175038355E+02  0.51100000000E-03 0. -1.
        -11    1    3    3    0    0 -0.29615503471E+01  0.84666936928E+00  0.30686535302E+01  0.43479034291E+01  0.51100000000E-03 0.  1.
        -12    1    3    3    0    0  0.10891054240E+02  0.24892596367E+02 -0.16787541452E+02  0.31938659401E+02  0.00000000000E+00 0.  1.
</event>
<event>
 7    1  0.2932676E-013  0.7246156E+02  0.7816164E-02  0.1226708E+00
        -11   -1    0    0    0    0  0.00000000000E+00  0.00000000000E+00  0.45593999997E+02  0.45594000000E+02  0.51100000000E-03 0. -1.
         11   -1    0    0    0    0 -0.00000000000E+00 -0.00000000000E+00 -0.45593999997E+02  0.45594000000E+02  0.51100000000E-03 0.  1.
    9900012    2    1    2    0    0  0.13872996929E+01 -0.17862219280E+02 -0.54494200450E+01  0.72461557282E+02  0.69999983048E+02 0.  0.
         12    1    1    2    0    0 -0.13872996929E+01  0.17862219280E+02  0.54494200450E+01  0.18726442718E+02  0.00000000000E+00 0. -1.
         11    1    3    3    0    0  0.77449769917E+01  0.35865164234E+01  0.66302322526E+01  0.10807763351E+02  0.51100000000E-03 0. -1.
        -11    1    3    3    0    0 -0.18808189604E+02 -0.35923899948E+02 -0.34349898476E+01  0.40694885910E+02  0.51100000000E-03 0.  1.
         12    1    3    3    0    0  0.12450512305E+02  0.14475164245E+02 -0.86446624499E+01  0.20958908021E+02  0.00000000000E+00 0. -1.
</event>
<event>
 7    1  0.2932676E-013  0.7246152E+02  0.7816164E-02  0.1226708E+00
        -11   -1    0    0    0    0  0.00000000000E+00  0.00000000000E+00  0.45593999997E+02  0.45594000000E+02  0.51100000000E-03 0.  1.
         11   -1    0    0    0    0 -0.00000000000E+00 -0.00000000000E+00 -0.45593999997E+02  0.45594000000E+02  0.51100000000E-03 0. -1.
    9900012    2    1    2    0    0  0.96566560020E+01 -0.40287096381E+01  0.15530605152E+02  0.72461516003E+02  0.69999929276E+02 0.  0.
         12    1    1    2    0    0 -0.96566560020E+01  0.40287096381E+01 -0.15530605152E+02  0.18726483997E+02  0.00000000000E+00 0. -1.
         11    1    3    3    0    0  0.17546317579E+02 -0.44429971051E+01 -0.29629879378E+01  0.18341013648E+02  0.51100000000E-03 0. -1.
        -11    1    3    3    0    0  0.63153381937E+01  0.18487836655E+02  0.23534201077E+02  0.30586634684E+02  0.51100000000E-03 0.  1.
         12    1    3    3    0    0 -0.14204999770E+02 -0.18073549188E+02 -0.50406079874E+01  0.23533867672E+02  0.00000000000E+00 0. -1.
</event>
<event>
 7    1  0.2932676E-013  0.7246158E+02  0.7816164E-02  0.1226708E+00
        -11   -1    0    0    0    0  0.00000000000E+00  0.00000000000E+00  0.45593999997E+02  0.45594000000E+02  0.51100000000E-03 0.  1.
         11   -1    0    0    0    0 -0.00000000000E+00 -0.00000000000E+00 -0.45593999997E+02  0.45594000000E+02  0.51100000000E-03 0. -1.
    9900012    2    1    2    0    0 -0.17915276290E+02  0.33755925781E+01  0.42810162463E+01  0.72461578829E+02  0.70000011118E+02 0.  0.
         12    1    1    2    0    0  0.17915276290E+02 -0.33755925781E+01 -0.42810162463E+01  0.18726421171E+02  0.00000000000E+00 0. -1.
         11    1    3    3    0    0 -0.87849913292E+01  0.37273246655E+01  0.73803140407E+01  0.12063915509E+02  0.51100000000E-03 0. -1.
        -11    1    3    3    0    0 -0.28286154141E+02  0.17808199804E+02  0.21148009996E+01  0.33491952465E+02  0.51100000000E-03 0.  1.
         12    1    3    3    0    0  0.19155869181E+02 -0.18159931891E+02 -0.52140987940E+01  0.26905710855E+02  0.00000000000E+00 0. -1.
</event>
<event>
 7    1  0.2932676E-013  0.7246158E+02  0.7816164E-02  0.1226708E+00
        -11   -1    0    0    0    0  0.00000000000E+00  0.00000000000E+00  0.45593999997E+02  0.45594000000E+02  0.51100000000E-03 0. -1.
         11   -1    0    0    0    0 -0.00000000000E+00 -0.00000000000E+00 -0.45593999997E+02  0.45594000000E+02  0.51100000000E-03 0.  1.
    9900012    2    1    2    0    0 -0.95431777125E+01  0.16065307200E+02 -0.12297695598E+01  0.72461583646E+02  0.70000017393E+02 0.  0.
         12    1    1    2    0    0  0.95431777125E+01 -0.16065307200E+02  0.12297695598E+01  0.18726416354E+02  0.00000000000E+00 0. -1.
         11    1    3    3    0    0 -0.73969695724E+01  0.14716403657E+01  0.90899618796E+01  0.11811362811E+02  0.51100000000E-03 0. -1.
        -11    1    3    3    0    0 -0.21691470106E+02 -0.88031949095E+01  0.84045484406E+01  0.24872727046E+02  0.51100000000E-03 0.  1.
         12    1    3    3    0    0  0.19545261966E+02  0.23396861744E+02 -0.18724279880E+02  0.35777493789E+02  0.00000000000E+00 0. -1.
</event>
<event>
 7    1  0.2932676E-013  0.7246158E+02  0.7816164E-02  0.1226708E+00
        -11   -1    0    0    0    0  0.00000000000E+00  0.00000000000E+00  0.45593999997E+02  0.45594000000E+02  0.51100000000E-03 0. -1.
         11   -1    0    0    0    0 -0.00000000000E+00 -0.00000000000E+00 -0.45593999997E+02  0.45594000000E+02  0.51100000000E-03 0.  1.
    9900012    2    1    2    0    0  0.94306699748E+01 -0.15942939684E+02  0.27502668650E+01  0.72461579366E+02  0.70000011817E+02 0.  0.
         12    1    1    2    0    0 -0.94306699748E+01  0.15942939684E+02 -0.27502668650E+01  0.18726420634E+02  0.00000000000E+00 0. -1.
         11    1    3    3    0    0  0.30165037091E+01  0.17079297401E+02  0.76097957908E+01  0.18939659093E+02  0.51100000000E-03 0.  1.
        -11    1    3    3    0    0 -0.11046519950E+02 -0.16545226418E+02  0.12855251058E+02  0.23686021200E+02  0.51100000000E-03 0. -1.
         12    1    3    3    0    0  0.17460686216E+02 -0.16477010666E+02 -0.17714779984E+02  0.29835899073E+02  0.00000000000E+00 0. -1.
</event>
<event>
 7    1  0.2932676E-013  0.7246153E+02  0.7816164E-02  0.1226708E+00
        -11   -1    0    0    0    0  0.00000000000E+00  0.00000000000E+00  0.45593999997E+02  0.45594000000E+02  0.51100000000E-03 0.  1.
         11   -1    0    0    0    0 -0.00000000000E+00 -0.00000000000E+00 -0.45593999997E+02  0.45594000000E+02  0.51100000000E-03 0. -1.
    9900012    2    1    2    0    0 -0.11890686364E+02 -0.13899834500E+02 -0.40108396204E+01  0.72461530610E+02  0.69999948304E+02 0.  0.
         12    1    1    2    0    0  0.11890686364E+02  0.13899834500E+02  0.40108396204E+01  0.18726469390E+02  0.00000000000E+00 0. -1.
         11    1    3    3    0    0 -0.12849617694E+01  0.57323193826E+01 -0.24342049787E+00  0.58796144477E+01  0.51100000000E-03 0. -1.
        -11    1    3    3    0    0 -0.49258464303E+01 -0.22690684375E+02  0.26731804870E+02  0.35407915956E+02  0.51100000000E-03 0.  1.
         12    1    3    3    0    0 -0.56798781642E+01  0.30585304925E+01 -0.30499223993E+02  0.31174000207E+02  0.00000000000E+00 0. -1.
</event>
<event>
 7    1  0.2932676E-013  0.7246149E+02  0.7816164E-02  0.1226708E+00
        -11   -1    0    0    0    0  0.00000000000E+00  0.00000000000E+00  0.45593999997E+02  0.45594000000E+02  0.51100000000E-03 0.  1.
         11   -1    0    0    0    0 -0.00000000000E+00 -0.00000000000E+00 -0.45593999997E+02  0.45594000000E+02  0.51100000000E-03 0. -1.
    9900012    2    1    2    0    0  0.88787493189E+01 -0.16185542053E+02  0.31429627986E+01  0.72461490016E+02  0.69999895423E+02 0.  0.
         12    1    1    2    0    0 -0.88787493189E+01  0.16185542053E+02 -0.31429627986E+01  0.18726509984E+02  0.00000000000E+00 0. -1.
         11    1    3    3    0    0 -0.44901431211E+01 -0.12887518342E+02  0.30546797879E-01  0.13647360464E+02  0.51100000000E-03 0. -1.
        -11    1    3    3    0    0  0.14867568256E+02 -0.21460131887E+02  0.20828881550E+02  0.33397966306E+02  0.51100000000E-03 0.  1.
         12    1    3    3    0    0 -0.14986758162E+01  0.18162108177E+02 -0.17716465550E+02  0.25416163247E+02  0.00000000000E+00 0. -1.
</event>
<event>
 7    1  0.2932676E-013  0.7246146E+02  0.7816164E-02  0.1226708E+00
        -11   -1    0    0    0    0  0.00000000000E+00  0.00000000000E+00  0.45593999997E+02  0.45594000000E+02  0.51100000000E-03 0. -1.
         11   -1    0    0    0    0 -0.00000000000E+00 -0.00000000000E+00 -0.45593999997E+02  0.45594000000E+02  0.51100000000E-03 0.  1.
    9900012    2    1    2    0    0  0.89260998050E+01  0.13065764741E+02 -0.10014682037E+02  0.72461459414E+02  0.69999855558E+02 0.  0.
         12    1    1    2    0    0 -0.89260998050E+01 -0.13065764741E+02  0.10014682037E+02  0.18726540586E+02  0.00000000000E+00 0. -1.
         11    1    3    3    0    0 -0.16696358032E+02  0.26224880674E+01 -0.48022220632E+01  0.17570064092E+02  0.51100000000E-03 0. -1.
        -11    1    3    3    0    0 -0.24743247894E+01  0.11372973875E+02 -0.19990247150E+02  0.23131727115E+02  0.51100000000E-03 0.  1.
         12    1    3    3    0    0  0.28096782626E+02 -0.92969720117E+00  0.14777787177E+02  0.31759668208E+02  0.00000000000E+00 0. -1.
</event>
<event>
 7    1  0.2932676E-013  0.7246158E+02  0.7816164E-02  0.1226708E+00
        -11   -1    0    0    0    0  0.00000000000E+00  0.00000000000E+00  0.45593999997E+02  0.45594000000E+02  0.51100000000E-03 0.  1.
         11   -1    0    0    0    0 -0.00000000000E+00 -0.00000000000E+00 -0.45593999997E+02  0.45594000000E+02  0.51100000000E-03 0. -1.
    9900012    2    1    2    0    0 -0.64019999799E+00 -0.11544471215E+02  0.14730718005E+02  0.72461582173E+02  0.70000015475E+02 0.  0.
         12    1    1    2    0    0  0.64019999799E+00  0.11544471215E+02 -0.14730718005E+02  0.18726417827E+02  0.00000000000E+00 0. -1.
         11    1    3    3    0    0 -0.84249651547E+01  0.11694550783E+02  0.23610598018E+02  0.27662300969E+02  0.51100000000E-03 0. -1.
        -11    1    3    3    0    0 -0.74781906343E+01 -0.23734663905E+01  0.10055602141E+02  0.12754286046E+02  0.51100000000E-03 0.  1.
        -12    1    3    3    0    0  0.15262955791E+02 -0.20865555607E+02 -0.18935482154E+02  0.32044995158E+02  0.00000000000E+00 0.  1.
</event>
<event>
 7    1  0.2932676E-013  0.7246157E+02  0.7816164E-02  0.1226708E+00
        -11   -1    0    0    0    0  0.00000000000E+00  0.00000000000E+00  0.45593999997E+02  0.45594000000E+02  0.51100000000E-03 0.  1.
         11   -1    0    0    0    0 -0.00000000000E+00 -0.00000000000E+00 -0.45593999997E+02  0.45594000000E+02  0.51100000000E-03 0. -1.
    9900012    2    1    2    0    0 -0.18256084595E+02  0.37046058217E+01 -0.19157937959E+01  0.72461574957E+02  0.70000006074E+02 0.  0.
         12    1    1    2    0    0  0.18256084595E+02 -0.37046058217E+01  0.19157937959E+01  0.18726425043E+02  0.00000000000E+00 0. -1.
         11    1    3    3    0    0 -0.41994487161E+01 -0.19392043653E+02  0.12386765018E+02  0.23390568066E+02  0.51100000000E-03 0. -1.
        -11    1    3    3    0    0  0.39981729210E+01 -0.34099694249E+01  0.83081199007E+01  0.98304697106E+01  0.51100000000E-03 0.  1.
        -12    1    3    3    0    0 -0.18054808800E+02  0.26506618900E+02 -0.22610678714E+02  0.39240537181E+02  0.00000000000E+00 0.  1.
</event>
<event>
 7    1  0.2932676E-013  0.7246165E+02  0.7816164E-02  0.1226708E+00
        -11   -1    0    0    0    0  0.00000000000E+00  0.00000000000E+00  0.45593999997E+02  0.45594000000E+02  0.51100000000E-03 0.  1.
         11   -1    0    0    0    0 -0.00000000000E+00 -0.00000000000E+00 -0.45593999997E+02  0.45594000000E+02  0.51100000000E-03 0. -1.
    9900012    2    1    2    0    0 -0.16705195802E+02  0.12356016921E+01  0.83717418153E+01  0.72461645861E+02  0.70000098439E+02 0.  0.
         12    1    1    2    0    0  0.16705195802E+02 -0.12356016921E+01 -0.83717418153E+01  0.18726354139E+02  0.00000000000E+00 0. -1.
         11    1    3    3    0    0 -0.23677173273E+02  0.10059232875E+02 -0.68859102123E+00  0.25734623722E+02  0.51100000000E-03 0. -1.
        -11    1    3    3    0    0  0.61835292886E+01  0.16717088270E+02 -0.36400670077E+01  0.18191953243E+02  0.51100000000E-03 0.  1.
         12    1    3    3    0    0  0.78844818247E+00 -0.25540719453E+02  0.12700399844E+02  0.28535068896E+02  0.00000000000E+00 0. -1.
</event>
<event>
 7    1  0.2932676E-013  0.7246185E+02  0.7816164E-02  0.1226707E+00
        -11   -1    0    0    0    0  0.00000000000E+00  0.00000000000E+00  0.45593999997E+02  0.45594000000E+02  0.51100000000E-03 0.  1.
         11   -1    0    0    0    0 -0.00000000000E+00 -0.00000000000E+00 -0.45593999997E+02  0.45594000000E+02  0.51100000000E-03 0. -1.
    9900012    2    1    2    0    0 -0.31791586887E+01  0.94683264842E+01  0.15840219552E+02  0.72461846849E+02  0.70000360263E+02 0.  0.
         12    1    1    2    0    0  0.31791586887E+01 -0.94683264842E+01 -0.15840219552E+02  0.18726153151E+02  0.00000000000E+00 0. -1.
         11    1    3    3    0    0 -0.95728461523E+01 -0.18231135191E+02 -0.11117407512E+02  0.23401077408E+02  0.51100000000E-03 0. -1.
        -11    1    3    3    0    0 -0.64117276108E+01  0.40565397954E+01 -0.35658603153E+01  0.83833839300E+01  0.51100000000E-03 0.  1.
         12    1    3    3    0    0  0.12805415074E+02  0.23642921880E+02  0.30523487379E+02  0.40677385511E+02  0.00000000000E+00 0. -1.
</event>
<event>
 7    1  0.2932676E-013  0.7246154E+02  0.7816164E-02  0.1226708E+00
        -11   -1    0    0    0    0  0.00000000000E+00  0.00000000000E+00  0.45593999997E+02  0.45594000000E+02  0.51100000000E-03 0.  1.
         11   -1    0    0    0    0 -0.00000000000E+00 -0.00000000000E+00 -0.45593999997E+02  0.45594000000E+02  0.51100000000E-03 0. -1.
    9900012    2    1    2    0    0  0.78225145789E+01  0.16951842335E+02  0.14572151791E+01  0.72461543609E+02  0.69999965237E+02 0.  0.
         12    1    1    2    0    0 -0.78225145789E+01 -0.16951842335E+02 -0.14572151791E+01  0.18726456391E+02  0.00000000000E+00 0. -1.
         11    1    3    3    0    0  0.23795275612E+02  0.65937384136E+01 -0.19577414227E+01  0.24769442454E+02  0.51100000000E-03 0.  1.
        -11    1    3    3    0    0  0.85212494039E+01 -0.60592294274E+01 -0.10735172882E+02  0.14985656133E+02  0.51100000000E-03 0. -1.
         12    1    3    3    0    0 -0.24494010437E+02  0.16417333349E+02  0.14150129484E+02  0.32706445022E+02  0.00000000000E+00 0. -1.
</event>
<event>
 7    1  0.2932676E-013  0.7246121E+02  0.7816164E-02  0.1226709E+00
        -11   -1    0    0    0    0  0.00000000000E+00  0.00000000000E+00  0.45593999997E+02  0.45594000000E+02  0.51100000000E-03 0. -1.
         11   -1    0    0    0    0 -0.00000000000E+00 -0.00000000000E+00 -0.45593999997E+02  0.45594000000E+02  0.51100000000E-03 0.  1.
    9900012    2    1    2    0    0  0.15157588424E+02 -0.51116257318E+01 -0.97371245229E+01  0.72461206403E+02  0.69999525963E+02 0.  0.
         12    1    1    2    0    0 -0.15157588424E+02  0.51116257318E+01  0.97371245229E+01  0.18726793597E+02  0.00000000000E+00 0. -1.
         11    1    3    3    0    0  0.90010371866E+01 -0.73762459930E+01  0.20484012350E+02  0.23558914186E+02  0.51100000000E-03 0. -1.
        -11    1    3    3    0    0  0.10968622130E+02  0.45366225230E+01  0.52895915196E+01  0.12995052676E+02  0.51100000000E-03 0.  1.
        -12    1    3    3    0    0 -0.48120708929E+01 -0.22720022618E+01 -0.35510728392E+02  0.35907239542E+02  0.00000000000E+00 0.  1.
</event>
<event>
 7    1  0.2932676E-013  0.7246195E+02  0.7816164E-02  0.1226707E+00
        -11   -1    0    0    0    0  0.00000000000E+00  0.00000000000E+00  0.45593999997E+02  0.45594000000E+02  0.51100000000E-03 0. -1.
         11   -1    0    0    0    0 -0.00000000000E+00 -0.00000000000E+00 -0.45593999997E+02  0.45594000000E+02  0.51100000000E-03 0.  1.
    9900012    2    1    2    0    0 -0.12746985707E+02 -0.13413478475E+02  0.28736320741E+01  0.72461953681E+02  0.70000499431E+02 0.  0.
         12    1    1    2    0    0  0.12746985707E+02  0.13413478475E+02 -0.28736320741E+01  0.18726046319E+02  0.00000000000E+00 0. -1.
         11    1    3    3    0    0 -0.11971298166E+02 -0.69947385491E+01 -0.12290555778E+02  0.18528251637E+02  0.51100000000E-03 0. -1.
        -11    1    3    3    0    0 -0.15759554999E+02 -0.17993344935E+02 -0.68661151376E+01  0.24885087363E+02  0.51100000000E-03 0.  1.
         12    1    3    3    0    0  0.14983867457E+02  0.11574605008E+02  0.22030302990E+02  0.29048614681E+02  0.00000000000E+00 0. -1.
</event>
<event>
 7    1  0.2932676E-013  0.7246163E+02  0.7816164E-02  0.1226708E+00
        -11   -1    0    0    0    0  0.00000000000E+00  0.00000000000E+00  0.45593999997E+02  0.45594000000E+02  0.51100000000E-03 0.  1.
         11   -1    0    0    0    0 -0.00000000000E+00 -0.00000000000E+00 -0.45593999997E+02  0.45594000000E+02  0.51100000000E-03 0. -1.
    9900012    2    1    2    0    0 -0.15479505086E+02  0.52529551994E+01  0.91361004929E+01  0.72461629603E+02  0.70000077260E+02 0.  0.
         12    1    1    2    0    0  0.15479505086E+02 -0.52529551994E+01 -0.91361004929E+01  0.18726370397E+02  0.00000000000E+00 0. -1.
         11    1    3    3    0    0  0.38256211093E+01  0.24242377374E+02 -0.28679902224E+01  0.24709382950E+02  0.51100000000E-03 0. -1.
        -11    1    3    3    0    0  0.24598917959E+00  0.10669518681E+02  0.34148843780E+01  0.11205381526E+02  0.51100000000E-03 0.  1.
        -12    1    3    3    0    0 -0.19551115375E+02 -0.29658940856E+02  0.85892063373E+01  0.36546865127E+02  0.00000000000E+00 0.  1.
</event>
<event>
 7    1  0.2932676E-013  0.7246108E+02  0.7816164E-02  0.1226709E+00
        -11   -1    0    0    0    0  0.00000000000E+00  0.00000000000E+00  0.45593999997E+02  0.45594000000E+02  0.51100000000E-03 0.  1.
         11   -1    0    0    0    0 -0.00000000000E+00 -0.00000000000E+00 -0.45593999997E+02  0.45594000000E+02  0.51100000000E-03 0. -1.
    9900012    2    1    2    0    0 -0.10064793244E+02  0.36930071244E+01  0.15354447706E+02  0.72461082768E+02  0.69999364903E+02 0.  0.
         12    1    1    2    0    0  0.10064793244E+02 -0.36930071244E+01 -0.15354447706E+02  0.18726917232E+02  0.00000000000E+00 0. -1.
         11    1    3    3    0    0 -0.16330950981E+02  0.44216804095E+01 -0.73183424601E+01  0.18433918580E+02  0.51100000000E-03 0. -1.
        -11    1    3    3    0    0 -0.20556429941E+02  0.24856859829E+01  0.37461826004E+01  0.21042322378E+02  0.51100000000E-03 0.  1.
        -12    1    3    3    0    0  0.26822587678E+02 -0.32143592681E+01  0.18926607566E+02  0.32984841810E+02  0.00000000000E+00 0.  1.
</event>
<event>
 7    1  0.2932676E-013  0.7246156E+02  0.7816164E-02  0.1226708E+00
        -11   -1    0    0    0    0  0.00000000000E+00  0.00000000000E+00  0.45593999997E+02  0.45594000000E+02  0.51100000000E-03 0.  1.
         11   -1    0    0    0    0 -0.00000000000E+00 -0.00000000000E+00 -0.45593999997E+02  0.45594000000E+02  0.51100000000E-03 0. -1.
    9900012    2    1    2    0    0  0.12171176644E+02  0.12081578340E+02  0.75217981017E+01  0.72461560863E+02  0.69999987714E+02 0.  0.
         12    1    1    2    0    0 -0.12171176644E+02 -0.12081578340E+02 -0.75217981017E+01  0.18726439137E+02  0.00000000000E+00 0. -1.
         11    1    3    3    0    0 -0.95813701384E+01 -0.91685478834E+01 -0.29110935478E+01  0.13577164281E+02  0.51100000000E-03 0. -1.
        -11    1    3    3    0    0  0.15978234860E+02 -0.46576541670E+01 -0.14792130106E+02  0.22266675659E+02  0.51100000000E-03 0.  1.
         12    1    3    3    0    0  0.57743119223E+01  0.25907780391E+02  0.25225021756E+02  0.36617720922E+02  0.00000000000E+00 0. -1.
</event>
<event>
 7    1  0.2932676E-013  0.7246157E+02  0.7816164E-02  0.1226708E+00
        -11   -1    0    0    0    0  0.00000000000E+00  0.00000000000E+00  0.45593999997E+02  0.45594000000E+02  0.51100000000E-03 0. -1.
         11   -1    0    0    0    0 -0.00000000000E+00 -0.00000000000E+00 -0.45593999997E+02  0.45594000000E+02  0.51100000000E-03 0.  1.
    9900012    2    1    2    0    0  0.13512433397E+02  0.32361248040E+01 -0.12554708905E+02  0.72461572798E+02  0.70000003261E+02 0.  0.
         12    1    1    2    0    0 -0.13512433397E+02 -0.32361248040E+01  0.12554708905E+02  0.18726427202E+02  0.00000000000E+00 0. -1.
         11    1    3    3    0    0  0.10808502501E+02  0.17635877098E+02  0.68395411367E+01  0.21785940663E+02  0.51100000000E-03 0. -1.
        -11    1    3    3    0    0 -0.10449579019E+02  0.11048304305E+02 -0.15588475177E+02  0.21777494996E+02  0.51100000000E-03 0.  1.
        -12    1    3    3    0    0  0.13153509916E+02 -0.25448056600E+02 -0.38057748655E+01  0.28898137139E+02  0.00000000000E+00 0.  1.
</event>
<event>
 7    1  0.2932676E-013  0.7246157E+02  0.7816164E-02  0.1226708E+00
        -11   -1    0    0    0    0  0.00000000000E+00  0.00000000000E+00  0.45593999997E+02  0.45594000000E+02  0.51100000000E-03 0.  1.
         11   -1    0    0    0    0 -0.00000000000E+00 -0.00000000000E+00 -0.45593999997E+02  0.45594000000E+02  0.51100000000E-03 0. -1.
    9900012    2    1    2    0    0 -0.12221998691E+02 -0.10170386638E+02 -0.98926833791E+01  0.72461569459E+02  0.69999998912E+02 0.  0.
         12    1    1    2    0    0  0.12221998691E+02  0.10170386638E+02  0.98926833791E+01  0.18726430541E+02  0.00000000000E+00 0. -1.
         11    1    3    3    0    0  0.10982795585E+01 -0.15541560190E+02  0.97511291078E+01  0.18380174924E+02  0.51100000000E-03 0. -1.
        -11    1    3    3    0    0 -0.27376199500E+02  0.16587259042E+02 -0.92851838322E+01  0.33328787866E+02  0.51100000000E-03 0.  1.
         12    1    3    3    0    0  0.14055921250E+02 -0.11216085491E+02 -0.10358628655E+02  0.20752606668E+02  0.00000000000E+00 0. -1.
</event>
<event>
 7    1  0.2932676E-013  0.7246158E+02  0.7816164E-02  0.1226708E+00
        -11   -1    0    0    0    0  0.00000000000E+00  0.00000000000E+00  0.45593999997E+02  0.45594000000E+02  0.51100000000E-03 0.  1.
         11   -1    0    0    0    0 -0.00000000000E+00 -0.00000000000E+00 -0.45593999997E+02  0.45594000000E+02  0.51100000000E-03 0. -1.
    9900012    2    1    2    0    0  0.12884047639E+02  0.40023391570E+01  0.12986977331E+02  0.72461575288E+02  0.70000006505E+02 0.  0.
         12    1    1    2    0    0 -0.12884047639E+02 -0.40023391570E+01 -0.12986977331E+02  0.18726424712E+02  0.00000000000E+00 0. -1.
         11    1    3    3    0    0 -0.23370188624E+02  0.95268508257E+01 -0.76977730191E+01  0.26385266962E+02  0.51100000000E-03 0. -1.
        -11    1    3    3    0    0  0.49075328605E+01  0.35500833025E+01 -0.19477042456E+01  0.63624305357E+01  0.51100000000E-03 0.  1.
        -12    1    3    3    0    0  0.31346703403E+02 -0.90745949712E+01  0.22632454595E+02  0.39713877790E+02  0.00000000000E+00 0.  1.
</event>
<event>
 7    1  0.2932676E-013  0.7246158E+02  0.7816164E-02  0.1226708E+00
        -11   -1    0    0    0    0  0.00000000000E+00  0.00000000000E+00  0.45593999997E+02  0.45594000000E+02  0.51100000000E-03 0.  1.
         11   -1    0    0    0    0 -0.00000000000E+00 -0.00000000000E+00 -0.45593999997E+02  0.45594000000E+02  0.51100000000E-03 0. -1.
    9900012    2    1    2    0    0 -0.63533987422E+01  0.14315115695E+02 -0.10265992687E+02  0.72461579659E+02  0.70000012199E+02 0.  0.
         12    1    1    2    0    0  0.63533987422E+01 -0.14315115695E+02  0.10265992687E+02  0.18726420341E+02  0.00000000000E+00 0. -1.
         11    1    3    3    0    0  0.26174485319E+01 -0.11329343325E+02  0.83438401709E+01  0.14311698922E+02  0.51100000000E-03 0. -1.
        -11    1    3    3    0    0 -0.98555248737E+00  0.20134677891E+02  0.13727254648E+02  0.24388810711E+02  0.51100000000E-03 0.  1.
         12    1    3    3    0    0 -0.79852947867E+01  0.55097811291E+01 -0.32337087506E+02  0.33761070026E+02  0.00000000000E+00 0. -1.
</event>
<event>
 7    1  0.2932676E-013  0.7246151E+02  0.7816164E-02  0.1226708E+00
        -11   -1    0    0    0    0  0.00000000000E+00  0.00000000000E+00  0.45593999997E+02  0.45594000000E+02  0.51100000000E-03 0. -1.
         11   -1    0    0    0    0 -0.00000000000E+00 -0.00000000000E+00 -0.45593999997E+02  0.45594000000E+02  0.51100000000E-03 0.  1.
    9900012    2    1    2    0    0  0.94924917167E+01  0.11894227715E+02 -0.10913356648E+02  0.72461510600E+02  0.69999922237E+02 0.  0.
         12    1    1    2    0    0 -0.94924917167E+01 -0.11894227715E+02  0.10913356648E+02  0.18726489400E+02  0.00000000000E+00 0. -1.
         11    1    3    3    0    0  0.60144276573E+00 -0.46613663806E+01  0.74940506607E+01  0.88459519273E+01  0.51100000000E-03 0. -1.
        -11    1    3    3    0    0 -0.18506515843E+02 -0.67375662157E+01  0.54808961069E+01  0.20443242149E+02  0.51100000000E-03 0.  1.
         12    1    3    3    0    0  0.27397564794E+02  0.23293160311E+02 -0.23888303416E+02  0.43172316524E+02  0.00000000000E+00 0. -1.
</event>
<event>
 7    1  0.2932676E-013  0.7246157E+02  0.7816164E-02  0.1226708E+00
        -11   -1    0    0    0    0  0.00000000000E+00  0.00000000000E+00  0.45593999997E+02  0.45594000000E+02  0.51100000000E-03 0.  1.
         11   -1    0    0    0    0 -0.00000000000E+00 -0.00000000000E+00 -0.45593999997E+02  0.45594000000E+02  0.51100000000E-03 0. -1.
    9900012    2    1    2    0    0 -0.17661856697E+02 -0.76641910082E-01  0.62235159154E+01  0.72461569312E+02  0.69999998720E+02 0.  0.
         12    1    1    2    0    0  0.17661856697E+02  0.76641910082E-01 -0.62235159154E+01  0.18726430688E+02  0.00000000000E+00 0. -1.
         11    1    3    3    0    0 -0.14823089816E+02 -0.11578787617E+00  0.14446970023E+02  0.20699090358E+02  0.51100000000E-03 0.  1.
        -11    1    3    3    0    0  0.18557742789E+02  0.15100865997E+02 -0.90589675931E+01  0.25583019083E+02  0.51100000000E-03 0. -1.
         12    1    3    3    0    0 -0.21396509670E+02 -0.15061720031E+02  0.83551348567E+00  0.26179459871E+02  0.00000000000E+00 0. -1.
</event>
<event>
 7    1  0.2932676E-013  0.7246156E+02  0.7816164E-02  0.1226708E+00
        -11   -1    0    0    0    0  0.00000000000E+00  0.00000000000E+00  0.45593999997E+02  0.45594000000E+02  0.51100000000E-03 0.  1.
         11   -1    0    0    0    0 -0.00000000000E+00 -0.00000000000E+00 -0.45593999997E+02  0.45594000000E+02  0.51100000000E-03 0. -1.
    9900012    2    1    2    0    0  0.39430275562E+01 -0.62345485606E+00  0.18295993202E+02  0.72461560682E+02  0.69999987479E+02 0.  0.
         12    1    1    2    0    0 -0.39430275562E+01  0.62345485606E+00 -0.18295993202E+02  0.18726439318E+02  0.00000000000E+00 0. -1.
         11    1    3    3    0    0 -0.75567415045E+01  0.66139094020E+01 -0.22063996819E+02  0.24241866587E+02  0.51100000000E-03 0. -1.
        -11    1    3    3    0    0 -0.41879098737E+01  0.48052359679E+01  0.12784851001E+02  0.14285702544E+02  0.51100000000E-03 0.  1.
        -12    1    3    3    0    0  0.15687678934E+02 -0.12042600226E+02  0.27575139021E+02  0.33933991551E+02  0.00000000000E+00 0.  1.
</event>
<event>
 7    1  0.2932676E-013  0.7246157E+02  0.7816164E-02  0.1226708E+00
        -11   -1    0    0    0    0  0.00000000000E+00  0.00000000000E+00  0.45593999997E+02  0.45594000000E+02  0.51100000000E-03 0.  1.
         11   -1    0    0    0    0 -0.00000000000E+00 -0.00000000000E+00 -0.45593999997E+02  0.45594000000E+02  0.51100000000E-03 0. -1.
    9900012    2    1    2    0    0  0.85251444783E+01  0.46365601088E+01  0.16015725021E+02  0.72461568787E+02  0.69999998036E+02 0.  0.
         12    1    1    2    0    0 -0.85251444783E+01 -0.46365601088E+01 -0.16015725021E+02  0.18726431213E+02  0.00000000000E+00 0. -1.
         11    1    3    3    0    0 -0.99943232461E+01 -0.26241998580E+02  0.33635967044E+01  0.28281491645E+02  0.51100000000E-03 0. -1.
        -11    1    3    3    0    0  0.78624831761E+01  0.46814336258E+01  0.12998198792E+02  0.15896151566E+02  0.51100000000E-03 0.  1.
        -12    1    3    3    0    0  0.10656984548E+02  0.26197125063E+02 -0.34607047537E+00  0.28283925576E+02  0.00000000000E+00 0.  1.
</event>
<event>
 7    1  0.2932676E-013  0.7246153E+02  0.7816164E-02  0.1226708E+00
        -11   -1    0    0    0    0  0.00000000000E+00  0.00000000000E+00  0.45593999997E+02  0.45594000000E+02  0.51100000000E-03 0.  1.
         11   -1    0    0    0    0 -0.00000000000E+00 -0.00000000000E+00 -0.45593999997E+02  0.45594000000E+02  0.51100000000E-03 0. -1.
    9900012    2    1    2    0    0  0.12180460742E+02  0.25390947942E+01 -0.13995356247E+02  0.72461531494E+02  0.69999949455E+02 0.  0.
         12    1    1    2    0    0 -0.12180460742E+02 -0.25390947942E+01  0.13995356247E+02  0.18726468506E+02  0.00000000000E+00 0. -1.
         11    1    3    3    0    0  0.18842544456E+02  0.12451206825E+02 -0.28153698359E+01  0.22759620835E+02  0.51100000000E-03 0. -1.
        -11    1    3    3    0    0 -0.50537080206E+01  0.15819175807E+02  0.71375346323E+01  0.18075693316E+02  0.51100000000E-03 0.  1.
         12    1    3    3    0    0 -0.16083756938E+01 -0.25731287839E+02 -0.18317521043E+02  0.31626217342E+02  0.00000000000E+00 0. -1.
</event>
<event>
 7    1  0.2932676E-013  0.7246163E+02  0.7816164E-02  0.1226708E+00
        -11   -1    0    0    0    0  0.00000000000E+00  0.00000000000E+00  0.45593999997E+02  0.45594000000E+02  0.51100000000E-03 0.  1.
         11   -1    0    0    0    0 -0.00000000000E+00 -0.00000000000E+00 -0.45593999997E+02  0.45594000000E+02  0.51100000000E-03 0. -1.
    9900012    2    1    2    0    0 -0.47129450551E+01  0.84216805276E+01  0.16048067696E+02  0.72461627400E+02  0.70000074390E+02 0.  0.
         12    1    1    2    0    0  0.47129450551E+01 -0.84216805276E+01 -0.16048067696E+02  0.18726372600E+02  0.00000000000E+00 0. -1.
         11    1    3    3    0    0  0.43700610885E+01  0.17101698338E+01  0.63859595008E+01  0.79248087538E+01  0.51100000000E-03 0. -1.
        -11    1    3    3    0    0  0.27119257088E+02  0.86517653058E+00  0.37057403801E+01  0.27384943810E+02  0.51100000000E-03 0.  1.
         12    1    3    3    0    0 -0.36202263232E+02  0.58463341633E+01  0.59563678149E+01  0.37151874836E+02  0.00000000000E+00 0. -1.
</event>
<event>
 7    1  0.2932676E-013  0.7246160E+02  0.7816164E-02  0.1226708E+00
        -11   -1    0    0    0    0  0.00000000000E+00  0.00000000000E+00  0.45593999997E+02  0.45594000000E+02  0.51100000000E-03 0.  1.
         11   -1    0    0    0    0 -0.00000000000E+00 -0.00000000000E+00 -0.45593999997E+02  0.45594000000E+02  0.51100000000E-03 0. -1.
    9900012    2    1    2    0    0  0.72254025873E+01 -0.71009367558E+01  0.15749554115E+02  0.72461596176E+02  0.70000033715E+02 0.  0.
         12    1    1    2    0    0 -0.72254025873E+01  0.71009367558E+01 -0.15749554115E+02  0.18726403824E+02  0.00000000000E+00 0. -1.
         11    1    3    3    0    0 -0.46473777238E+01  0.19025523162E+01 -0.94693140391E+01  0.10718476275E+02  0.51100000000E-03 0. -1.
        -11    1    3    3    0    0  0.18787528768E+01 -0.31118210431E+02  0.19628190107E+02  0.36839361828E+02  0.51100000000E-03 0.  1.
         12    1    3    3    0    0  0.99940274343E+01  0.22114721358E+02  0.55906780479E+01  0.24903758073E+02  0.00000000000E+00 0. -1.
</event>
<event>
 7    1  0.2932676E-013  0.7246158E+02  0.7816164E-02  0.1226708E+00
        -11   -1    0    0    0    0  0.00000000000E+00  0.00000000000E+00  0.45593999997E+02  0.45594000000E+02  0.51100000000E-03 0.  1.
         11   -1    0    0    0    0 -0.00000000000E+00 -0.00000000000E+00 -0.45593999997E+02  0.45594000000E+02  0.51100000000E-03 0. -1.
    9900012    2    1    2    0    0  0.14613190113E+02 -0.10791989264E+02  0.45460488441E+01  0.72461577020E+02  0.70000008761E+02 0.  0.
         12    1    1    2    0    0 -0.14613190113E+02  0.10791989264E+02 -0.45460488441E+01  0.18726422980E+02  0.00000000000E+00 0. -1.
         11    1    3    3    0    0  0.63757831297E+01 -0.50957397995E+01 -0.29253565181E+01  0.86703451857E+01  0.51100000000E-03 0. -1.
        -11    1    3    3    0    0 -0.15878845619E+02 -0.23121936441E+02  0.16694333899E+02  0.32641422573E+02  0.51100000000E-03 0.  1.
         12    1    3    3    0    0  0.24116252602E+02  0.17425686977E+02 -0.92229285370E+01  0.31149809261E+02  0.00000000000E+00 0. -1.
</event>
<event>
 7    1  0.2932676E-013  0.7246160E+02  0.7816164E-02  0.1226708E+00
        -11   -1    0    0    0    0  0.00000000000E+00  0.00000000000E+00  0.45593999997E+02  0.45594000000E+02  0.51100000000E-03 0. -1.
         11   -1    0    0    0    0 -0.00000000000E+00 -0.00000000000E+00 -0.45593999997E+02  0.45594000000E+02  0.51100000000E-03 0.  1.
    9900012    2    1    2    0    0 -0.91376090520E+01  0.79415987072E+01 -0.14286817421E+02  0.72461600419E+02  0.70000039244E+02 0.  0.
         12    1    1    2    0    0  0.91376090520E+01 -0.79415987072E+01  0.14286817421E+02  0.18726399581E+02  0.00000000000E+00 0. -1.
         11    1    3    3    0    0 -0.32866296147E+02  0.23759725382E+01 -0.15834029603E+02  0.36558927250E+02  0.51100000000E-03 0. -1.
        -11    1    3    3    0    0 -0.23165950654E+01  0.92630523853E+01  0.86454987288E+00  0.95873979230E+01  0.51100000000E-03 0.  1.
        -12    1    3    3    0    0  0.26045282161E+02 -0.36974262163E+01  0.68266230872E+00  0.26315275246E+02  0.00000000000E+00 0.  1.
</event>
<event>
 7    1  0.2932676E-013  0.7246163E+02  0.7816164E-02  0.1226708E+00
        -11   -1    0    0    0    0  0.00000000000E+00  0.00000000000E+00  0.45593999997E+02  0.45594000000E+02  0.51100000000E-03 0.  1.
         11   -1    0    0    0    0 -0.00000000000E+00 -0.00000000000E+00 -0.45593999997E+02  0.45594000000E+02  0.51100000000E-03 0. -1.
    9900012    2    1    2    0    0  0.56355714528E+01 -0.16294342746E+02  0.73083190618E+01  0.72461633598E+02  0.70000082465E+02 0.  0.
         12    1    1    2    0    0 -0.56355714528E+01  0.16294342746E+02 -0.73083190618E+01  0.18726366402E+02  0.00000000000E+00 0. -1.
         11    1    3    3    0    0  0.18038305059E+02  0.10144597227E+02 -0.54066282707E+01  0.21389832441E+02  0.51100000000E-03 0. -1.
        -11    1    3    3    0    0 -0.34773628555E+01  0.38964816619E+01  0.18238777221E+02  0.18971758394E+02  0.51100000000E-03 0.  1.
         12    1    3    3    0    0 -0.89253707511E+01 -0.30335421635E+02 -0.55238298883E+01  0.32100042764E+02  0.00000000000E+00 0. -1.
</event>
<event>
 7    1  0.2932676E-013  0.7246157E+02  0.7816164E-02  0.1226708E+00
        -11   -1    0    0    0    0  0.00000000000E+00  0.00000000000E+00  0.45593999997E+02  0.45594000000E+02  0.51100000000E-03 0.  1.
         11   -1    0    0    0    0 -0.00000000000E+00 -0.00000000000E+00 -0.45593999997E+02  0.45594000000E+02  0.51100000000E-03 0. -1.
    9900012    2    1    2    0    0 -0.13348051405E+02 -0.28540186404E+01  0.12820422314E+02  0.72461571429E+02  0.70000001478E+02 0.  0.
         12    1    1    2    0    0  0.13348051405E+02  0.28540186404E+01 -0.12820422314E+02  0.18726428571E+02  0.00000000000E+00 0. -1.
         11    1    3    3    0    0 -0.54867325050E+01 -0.64490783775E-01 -0.89651114040E+01  0.10511023518E+02  0.51100000000E-03 0. -1.
        -11    1    3    3    0    0 -0.30537241628E+02  0.79661241687E+01  0.55068093363E+01  0.32036029871E+02  0.51100000000E-03 0.  1.
         12    1    3    3    0    0  0.22675922729E+02 -0.10755652025E+02  0.16278724382E+02  0.29914518041E+02  0.00000000000E+00 0. -1.
</event>
<event>
 7    1  0.2932676E-013  0.7246156E+02  0.7816164E-02  0.1226708E+00
        -11   -1    0    0    0    0  0.00000000000E+00  0.00000000000E+00  0.45593999997E+02  0.45594000000E+02  0.51100000000E-03 0. -1.
         11   -1    0    0    0    0 -0.00000000000E+00 -0.00000000000E+00 -0.45593999997E+02  0.45594000000E+02  0.51100000000E-03 0.  1.
    9900012    2    1    2    0    0  0.13846734342E+02 -0.12294684942E+02  0.27907279474E+01  0.72461561678E+02  0.69999988776E+02 0.  0.
         12    1    1    2    0    0 -0.13846734342E+02  0.12294684942E+02 -0.27907279474E+01  0.18726438322E+02  0.00000000000E+00 0. -1.
         11    1    3    3    0    0  0.17926485001E+02 -0.32093797522E+02  0.27515191041E+01  0.36863824564E+02  0.51100000000E-03 0. -1.
        -11    1    3    3    0    0 -0.34436259004E+01 -0.62858723400E+01 -0.53629431461E+01  0.89516428585E+01  0.51100000000E-03 0.  1.
        -12    1    3    3    0    0 -0.63612475919E+00  0.26084984919E+02  0.54021519893E+01  0.26646094255E+02  0.00000000000E+00 0.  1.
</event>
<event>
 7    1  0.2932676E-013  0.7246163E+02  0.7816164E-02  0.1226708E+00
        -11   -1    0    0    0    0  0.00000000000E+00  0.00000000000E+00  0.45593999997E+02  0.45594000000E+02  0.51100000000E-03 0. -1.
         11   -1    0    0    0    0 -0.00000000000E+00 -0.00000000000E+00 -0.45593999997E+02  0.45594000000E+02  0.51100000000E-03 0.  1.
    9900012    2    1    2    0    0  0.43904208481E+01  0.87687460574E+01 -0.15953380170E+02  0.72461627113E+02  0.70000074017E+02 0.  0.
         12    1    1    2    0    0 -0.43904208481E+01 -0.87687460574E+01  0.15953380170E+02  0.18726372887E+02  0.00000000000E+00 0. -1.
         11    1    3    3    0    0  0.69580223670E+01  0.12408549293E+02 -0.14540856531E+00  0.14226992469E+02  0.51100000000E-03 0. -1.
        -11    1    3    3    0    0  0.96132143565E+01  0.21820945856E+02 -0.18072260864E+02  0.29919461581E+02  0.51100000000E-03 0.  1.
         12    1    3    3    0    0 -0.12180815875E+02 -0.25460749092E+02  0.22642892591E+01  0.28315173063E+02  0.00000000000E+00 0. -1.
</event>
<event>
 7    1  0.2932676E-013  0.7246158E+02  0.7816164E-02  0.1226708E+00
        -11   -1    0    0    0    0  0.00000000000E+00  0.00000000000E+00  0.45593999997E+02  0.45594000000E+02  0.51100000000E-03 0.  1.
         11   -1    0    0    0    0 -0.00000000000E+00 -0.00000000000E+00 -0.45593999997E+02  0.45594000000E+02  0.51100000000E-03 0. -1.
    9900012    2    1    2    0    0 -0.31504063054E+01  0.11587827900E+02  0.14369273793E+02  0.72461578968E+02  0.70000011299E+02 0.  0.
         12    1    1    2    0    0  0.31504063054E+01 -0.11587827900E+02 -0.14369273793E+02  0.18726421032E+02  0.00000000000E+00 0. -1.
         11    1    3    3    0    0 -0.98864339015E+00  0.75696403890E+01 -0.26971058363E+01  0.80963727388E+01  0.51100000000E-03 0. -1.
        -11    1    3    3    0    0  0.28567842256E+02  0.10873041780E+02  0.78446682502E+01  0.31557621408E+02  0.51100000000E-03 0.  1.
         12    1    3    3    0    0 -0.30729605172E+02 -0.68548542690E+01  0.92217113789E+01  0.32807584821E+02  0.00000000000E+00 0. -1.
</event>
<event>
 7    1  0.2932676E-013  0.7246162E+02  0.7816164E-02  0.1226708E+00
        -11   -1    0    0    0    0  0.00000000000E+00  0.00000000000E+00  0.45593999997E+02  0.45594000000E+02  0.51100000000E-03 0.  1.
         11   -1    0    0    0    0 -0.00000000000E+00 -0.00000000000E+00 -0.45593999997E+02  0.45594000000E+02  0.51100000000E-03 0. -1.
    9900012    2    1    2    0    0 -0.17125382209E+02  0.74385245558E+01 -0.14377163300E+01  0.72461617764E+02  0.70000061839E+02 0.  0.
         12    1    1    2    0    0  0.17125382209E+02 -0.74385245558E+01  0.14377163300E+01  0.18726382236E+02  0.00000000000E+00 0. -1.
         11    1    3    3    0    0  0.11083955335E+02  0.17344588262E+02 -0.22292578467E+02  0.30342179599E+02  0.51100000000E-03 0. -1.
        -11    1    3    3    0    0  0.21668224859E+01  0.15103819744E+01  0.57457082065E+01  0.63237280499E+01  0.51100000000E-03 0.  1.
        -12    1    3    3    0    0 -0.30376160031E+02 -0.11416445681E+02  0.15109153930E+02  0.35795710116E+02  0.00000000000E+00 0.  1.
</event>
<event>
 7    1  0.2932676E-013  0.7246161E+02  0.7816164E-02  0.1226708E+00
        -11   -1    0    0    0    0  0.00000000000E+00  0.00000000000E+00  0.45593999997E+02  0.45594000000E+02  0.51100000000E-03 0. -1.
         11   -1    0    0    0    0 -0.00000000000E+00 -0.00000000000E+00 -0.45593999997E+02  0.45594000000E+02  0.51100000000E-03 0.  1.
    9900012    2    1    2    0    0  0.85959199935E+01 -0.91635441553E+01  0.13885865505E+02  0.72461611057E+02  0.70000053101E+02 0.  0.
         12    1    1    2    0    0 -0.85959199935E+01  0.91635441553E+01 -0.13885865505E+02  0.18726388943E+02  0.00000000000E+00 0. -1.
         11    1    3    3    0    0 -0.83017430767E+01 -0.12509880212E+01  0.22229369136E+02  0.23761918306E+02  0.51100000000E-03 0. -1.
        -11    1    3    3    0    0 -0.30835337126E+01 -0.20363634954E+02 -0.13463980748E+02  0.24606190005E+02  0.51100000000E-03 0.  1.
         12    1    3    3    0    0  0.19981196783E+02  0.12451078820E+02  0.51204771173E+01  0.24093502746E+02  0.00000000000E+00 0. -1.
</event>
<event>
 7    1  0.2932676E-013  0.7246155E+02  0.7816164E-02  0.1226708E+00
        -11   -1    0    0    0    0  0.00000000000E+00  0.00000000000E+00  0.45593999997E+02  0.45594000000E+02  0.51100000000E-03 0. -1.
         11   -1    0    0    0    0 -0.00000000000E+00 -0.00000000000E+00 -0.45593999997E+02  0.45594000000E+02  0.51100000000E-03 0.  1.
    9900012    2    1    2    0    0  0.10772029981E+02  0.13692683797E+02 -0.68668675659E+01  0.72461545727E+02  0.69999967996E+02 0.  0.
         12    1    1    2    0    0 -0.10772029981E+02 -0.13692683797E+02  0.68668675659E+01  0.18726454273E+02  0.00000000000E+00 0. -1.
         11    1    3    3    0    0  0.31537586760E+02  0.61025098370E+01  0.10026406716E+02  0.33650985675E+02  0.51100000000E-03 0. -1.
        -11    1    3    3    0    0 -0.59201725022E+01  0.57118767685E+01  0.68771504694E+01  0.10722368093E+02  0.51100000000E-03 0.  1.
        -12    1    3    3    0    0 -0.14845384277E+02  0.18782971916E+01 -0.23770424752E+02  0.28088191959E+02  0.00000000000E+00 0.  1.
</event>
<event>
 7    1  0.2932676E-013  0.7246172E+02  0.7816164E-02  0.1226708E+00
        -11   -1    0    0    0    0  0.00000000000E+00  0.00000000000E+00  0.45593999997E+02  0.45594000000E+02  0.51100000000E-03 0.  1.
         11   -1    0    0    0    0 -0.00000000000E+00 -0.00000000000E+00 -0.45593999997E+02  0.45594000000E+02  0.51100000000E-03 0. -1.
    9900012    2    1    2    0    0  0.76476257047E+00  0.18689764273E+02  0.88407116592E+00  0.72461715473E+02  0.70000189122E+02 0.  0.
         12    1    1    2    0    0 -0.76476257047E+00 -0.18689764273E+02 -0.88407116592E+00  0.18726284527E+02  0.00000000000E+00 0. -1.
         11    1    3    3    0    0  0.11617741368E+02  0.88981363413E+01  0.35797333769E+01  0.15065299073E+02  0.51100000000E-03 0. -1.
        -11    1    3    3    0    0  0.14860284401E+02  0.18057719457E+02 -0.14929931486E+02  0.27745488622E+02  0.51100000000E-03 0.  1.
         12    1    3    3    0    0 -0.25713263198E+02 -0.82660915259E+01  0.12234269275E+02  0.29650927778E+02  0.00000000000E+00 0. -1.
</event>
<event>
 7    1  0.2932676E-013  0.7246160E+02  0.7816164E-02  0.1226708E+00
        -11   -1    0    0    0    0  0.00000000000E+00  0.00000000000E+00  0.45593999997E+02  0.45594000000E+02  0.51100000000E-03 0.  1.
         11   -1    0    0    0    0 -0.00000000000E+00 -0.00000000000E+00 -0.45593999997E+02  0.45594000000E+02  0.51100000000E-03 0. -1.
    9900012    2    1    2    0    0  0.18338747152E+02  0.37888673387E+01 -0.11320988735E+00  0.72461602073E+02  0.70000041398E+02 0.  0.
         12    1    1    2    0    0 -0.18338747152E+02 -0.37888673387E+01  0.11320988735E+00  0.18726397927E+02  0.00000000000E+00 0. -1.
         11    1    3    3    0    0  0.30343313596E+01 -0.20137955993E+02 -0.16419467714E+02  0.26159957160E+02  0.51100000000E-03 0.  1.
        -11    1    3    3    0    0 -0.93243238869E+01  0.80837046390E+01 -0.83597544040E+00  0.12368837934E+02  0.51100000000E-03 0. -1.
        -12    1    3    3    0    0  0.24628739680E+02  0.15843118693E+02  0.17142233267E+02  0.33932806979E+02  0.00000000000E+00 0.  1.
</event>
<event>
 7    1  0.2932676E-013  0.7246151E+02  0.7816164E-02  0.1226708E+00
        -11   -1    0    0    0    0  0.00000000000E+00  0.00000000000E+00  0.45593999997E+02  0.45594000000E+02  0.51100000000E-03 0.  1.
         11   -1    0    0    0    0 -0.00000000000E+00 -0.00000000000E+00 -0.45593999997E+02  0.45594000000E+02  0.51100000000E-03 0. -1.
    9900012    2    1    2    0    0  0.17190487347E+02  0.65126508611E+01  0.35712462379E+01  0.72461514047E+02  0.69999926727E+02 0.  0.
         12    1    1    2    0    0 -0.17190487347E+02 -0.65126508611E+01 -0.35712462379E+01  0.18726485953E+02  0.00000000000E+00 0. -1.
         11    1    3    3    0    0 -0.61321414283E+00 -0.53450813107E+01 -0.21506727994E+02  0.22169467181E+02  0.51100000000E-03 0. -1.
        -11    1    3    3    0    0 -0.86441979052E+01  0.14182247828E+02  0.62597058709E+01  0.17749428969E+02  0.51100000000E-03 0.  1.
        -12    1    3    3    0    0  0.26447899395E+02 -0.23245156558E+01  0.18818268361E+02  0.32542617897E+02  0.00000000000E+00 0.  1.
</event>
<event>
 7    1  0.2932676E-013  0.7246160E+02  0.7816164E-02  0.1226708E+00
        -11   -1    0    0    0    0  0.00000000000E+00  0.00000000000E+00  0.45593999997E+02  0.45594000000E+02  0.51100000000E-03 0. -1.
         11   -1    0    0    0    0 -0.00000000000E+00 -0.00000000000E+00 -0.45593999997E+02  0.45594000000E+02  0.51100000000E-03 0.  1.
    9900012    2    1    2    0    0  0.40727404110E+01  0.79667482628E+01 -0.16450583732E+02  0.72461601589E+02  0.70000040767E+02 0.  0.
         12    1    1    2    0    0 -0.40727404110E+01 -0.79667482628E+01  0.16450583732E+02  0.18726398411E+02  0.00000000000E+00 0. -1.
         11    1    3    3    0    0 -0.19654949927E+02  0.14960331141E+02 -0.25076856384E+02  0.35199109234E+02  0.51100000000E-03 0. -1.
        -11    1    3    3    0    0 -0.45833481735E+01 -0.45139377606E+01  0.58719558122E+01  0.87099127382E+01  0.51100000000E-03 0.  1.
        -12    1    3    3    0    0  0.28311038512E+02 -0.24796451176E+01  0.27543168399E+01  0.28552579617E+02  0.00000000000E+00 0.  1.
</event>
<event>
 7    1  0.2932676E-013  0.7246159E+02  0.7816164E-02  0.1226708E+00
        -11   -1    0    0    0    0  0.00000000000E+00  0.00000000000E+00  0.45593999997E+02  0.45594000000E+02  0.51100000000E-03 0. -1.
         11   -1    0    0    0    0 -0.00000000000E+00 -0.00000000000E+00 -0.45593999997E+02  0.45594000000E+02  0.51100000000E-03 0.  1.
    9900012    2    1    2    0    0  0.83806294384E+01  0.37458061240E+01 -0.16322145115E+02  0.72461589921E+02  0.70000025567E+02 0.  0.
         12    1    1    2    0    0 -0.83806294384E+01 -0.37458061240E+01  0.16322145115E+02  0.18726410079E+02  0.00000000000E+00 0. -1.
         11    1    3    3    0    0  0.60737895411E+00  0.12371244982E+01  0.37959071647E+01  0.40383533379E+01  0.51100000000E-03 0. -1.
        -11    1    3    3    0    0  0.18360423277E+02 -0.27310304105E+02 -0.15740917953E+02  0.36479231783E+02  0.51100000000E-03 0.  1.
         12    1    3    3    0    0 -0.10587172793E+02  0.29818985731E+02 -0.43771343264E+01  0.31944004800E+02  0.00000000000E+00 0. -1.
</event>
<event>
 7    1  0.2932676E-013  0.7246156E+02  0.7816164E-02  0.1226708E+00
        -11   -1    0    0    0    0  0.00000000000E+00  0.00000000000E+00  0.45593999997E+02  0.45594000000E+02  0.51100000000E-03 0.  1.
         11   -1    0    0    0    0 -0.00000000000E+00 -0.00000000000E+00 -0.45593999997E+02  0.45594000000E+02  0.51100000000E-03 0. -1.
    9900012    2    1    2    0    0 -0.88937133831E+01  0.73820884478E+01 -0.14733851188E+02  0.72461555104E+02  0.69999980212E+02 0.  0.
         12    1    1    2    0    0  0.88937133831E+01 -0.73820884478E+01  0.14733851188E+02  0.18726444896E+02  0.00000000000E+00 0. -1.
         11    1    3    3    0    0  0.95890746985E+01  0.43391479752E+00 -0.17080984761E+02  0.19593332445E+02  0.51100000000E-03 0. -1.
        -11    1    3    3    0    0 -0.14997992922E+02 -0.12505743376E+02 -0.16495032175E+02  0.25562071429E+02  0.51100000000E-03 0.  1.
        -12    1    3    3    0    0 -0.34847951600E+01  0.19453917026E+02  0.18842165747E+02  0.27306151230E+02  0.00000000000E+00 0.  1.
</event>
<event>
 7    1  0.2932676E-013  0.7246157E+02  0.7816164E-02  0.1226708E+00
        -11   -1    0    0    0    0  0.00000000000E+00  0.00000000000E+00  0.45593999997E+02  0.45594000000E+02  0.51100000000E-03 0. -1.
         11   -1    0    0    0    0 -0.00000000000E+00 -0.00000000000E+00 -0.45593999997E+02  0.45594000000E+02  0.51100000000E-03 0.  1.
    9900012    2    1    2    0    0 -0.12952191587E+02 -0.22257789309E+01  0.13340377641E+02  0.72461573903E+02  0.70000004701E+02 0.  0.
         12    1    1    2    0    0  0.12952191587E+02  0.22257789309E+01 -0.13340377641E+02  0.18726426097E+02  0.00000000000E+00 0. -1.
         11    1    3    3    0    0 -0.35764909240E+01 -0.85139721539E+01  0.21838892458E+02  0.23711099368E+02  0.51100000000E-03 0. -1.
        -11    1    3    3    0    0 -0.18046259112E+02  0.13049157183E+02  0.12141479910E+02  0.25364611288E+02  0.51100000000E-03 0.  1.
        -12    1    3    3    0    0  0.86705584489E+01 -0.67609639597E+01 -0.20639994727E+02  0.23385863247E+02  0.00000000000E+00 0.  1.
</event>
<event>
 7    1  0.2932676E-013  0.7246143E+02  0.7816164E-02  0.1226708E+00
        -11   -1    0    0    0    0  0.00000000000E+00  0.00000000000E+00  0.45593999997E+02  0.45594000000E+02  0.51100000000E-03 0. -1.
         11   -1    0    0    0    0 -0.00000000000E+00 -0.00000000000E+00 -0.45593999997E+02  0.45594000000E+02  0.51100000000E-03 0.  1.
    9900012    2    1    2    0    0 -0.47151147253E+01  0.17866342184E+02 -0.30407048218E+01  0.72461431288E+02  0.69999818918E+02 0.  0.
         12    1    1    2    0    0  0.47151147253E+01 -0.17866342184E+02  0.30407048218E+01  0.18726568712E+02  0.00000000000E+00 0. -1.
         11    1    3    3    0    0  0.20665975732E+02  0.95341980899E+01 -0.62155309109E+01  0.23592717329E+02  0.51100000000E-03 0. -1.
        -11    1    3    3    0    0  0.77797966002E+01  0.12959662364E+02  0.28675875402E+01  0.15385094809E+02  0.51100000000E-03 0.  1.
        -12    1    3    3    0    0 -0.33160887058E+02 -0.46275182696E+01  0.30723854898E+00  0.33483619149E+02  0.00000000000E+00 0.  1.
</event>
<event>
 7    1  0.2932676E-013  0.7246158E+02  0.7816164E-02  0.1226708E+00
        -11   -1    0    0    0    0  0.00000000000E+00  0.00000000000E+00  0.45593999997E+02  0.45594000000E+02  0.51100000000E-03 0. -1.
         11   -1    0    0    0    0 -0.00000000000E+00 -0.00000000000E+00 -0.45593999997E+02  0.45594000000E+02  0.51100000000E-03 0.  1.
    9900012    2    1    2    0    0 -0.49443494865E+01 -0.16678675052E+02 -0.69321010072E+01  0.72461579688E+02  0.70000012237E+02 0.  0.
         12    1    1    2    0    0  0.49443494865E+01  0.16678675052E+02  0.69321010072E+01  0.18726420312E+02  0.00000000000E+00 0. -1.
         11    1    3    3    0    0  0.20228391367E+02  0.83992455704E+01 -0.48526683744E+01  0.22433981681E+02  0.51100000000E-03 0. -1.
        -11    1    3    3    0    0 -0.32630666676E+01 -0.26947102715E+02 -0.57170738582E+01  0.27739482377E+02  0.51100000000E-03 0.  1.
        -12    1    3    3    0    0 -0.21909674186E+02  0.18691820930E+01  0.36376412254E+01  0.22288115630E+02  0.00000000000E+00 0.  1.
</event>
<event>
 7    1  0.2932676E-013  0.7246161E+02  0.7816164E-02  0.1226708E+00
        -11   -1    0    0    0    0  0.00000000000E+00  0.00000000000E+00  0.45593999997E+02  0.45594000000E+02  0.51100000000E-03 0. -1.
         11   -1    0    0    0    0 -0.00000000000E+00 -0.00000000000E+00 -0.45593999997E+02  0.45594000000E+02  0.51100000000E-03 0.  1.
    9900012    2    1    2    0    0  0.53944154433E+01  0.89545780417E+00 -0.17910228022E+02  0.72461606048E+02  0.70000046576E+02 0.  0.
         12    1    1    2    0    0 -0.53944154433E+01 -0.89545780417E+00  0.17910228022E+02  0.18726393952E+02  0.00000000000E+00 0. -1.
         11    1    3    3    0    0 -0.14512592682E+02 -0.12181780838E+02  0.17555362661E+02  0.25830251434E+02  0.51100000000E-03 0. -1.
        -11    1    3    3    0    0 -0.34980774443E+00 -0.38575896631E+01 -0.45690352033E+01  0.59899454436E+01  0.51100000000E-03 0.  1.
        -12    1    3    3    0    0  0.20256815870E+02  0.16934828305E+02 -0.30896555479E+02  0.40641409171E+02  0.00000000000E+00 0.  1.
</event>
<event>
 7    1  0.2932676E-013  0.7246183E+02  0.7816164E-02  0.1226707E+00
        -11   -1    0    0    0    0  0.00000000000E+00  0.00000000000E+00  0.45593999997E+02  0.45594000000E+02  0.51100000000E-03 0. -1.
         11   -1    0    0    0    0 -0.00000000000E+00 -0.00000000000E+00 -0.45593999997E+02  0.45594000000E+02  0.51100000000E-03 0.  1.
    9900012    2    1    2    0    0  0.13198050144E+02  0.59473112279E+01 -0.11878992789E+02  0.72461828257E+02  0.70000336044E+02 0.  0.
         12    1    1    2    0    0 -0.13198050144E+02 -0.59473112279E+01  0.11878992789E+02  0.18726171743E+02  0.00000000000E+00 0. -1.
         11    1    3    3    0    0  0.66642250158E+01 -0.40509414795E+00  0.74431745198E+01  0.99988421092E+01  0.51100000000E-03 0. -1.
        -11    1    3    3    0    0  0.19085713198E+02  0.27865482644E+02 -0.63014186218E+01  0.34357785845E+02  0.51100000000E-03 0.  1.
        -12    1    3    3    0    0 -0.12551888070E+02 -0.21513077268E+02 -0.13020748687E+02  0.28105200303E+02  0.00000000000E+00 0.  1.
</event>
<event>
 7    1  0.2932676E-013  0.7246160E+02  0.7816164E-02  0.1226708E+00
        -11   -1    0    0    0    0  0.00000000000E+00  0.00000000000E+00  0.45593999997E+02  0.45594000000E+02  0.51100000000E-03 0. -1.
         11   -1    0    0    0    0 -0.00000000000E+00 -0.00000000000E+00 -0.45593999997E+02  0.45594000000E+02  0.51100000000E-03 0.  1.
    9900012    2    1    2    0    0  0.96674471235E+01 -0.39771483327E+01 -0.15537084662E+02  0.72461595045E+02  0.70000032242E+02 0.  0.
         12    1    1    2    0    0 -0.96674471235E+01  0.39771483327E+01  0.15537084662E+02  0.18726404955E+02  0.00000000000E+00 0. -1.
         11    1    3    3    0    0  0.12748098395E+01 -0.11463157799E+02 -0.68766326796E+01  0.13428224161E+02  0.51100000000E-03 0. -1.
        -11    1    3    3    0    0 -0.23967456083E+02 -0.31824262701E+01 -0.15600068904E+01  0.24228091337E+02  0.51100000000E-03 0.  1.
         12    1    3    3    0    0  0.32360093367E+02  0.10668435737E+02 -0.71004450920E+01  0.34805279547E+02  0.00000000000E+00 0. -1.
</event>
<event>
 7    1  0.2962604E-013  0.7246194E+02  0.7816164E-02  0.1226707E+00
        -11   -1    0    0    0    0  0.00000000000E+00  0.00000000000E+00  0.45593999997E+02  0.45594000000E+02  0.51100000000E-03 0. -1.
         11   -1    0    0    0    0 -0.00000000000E+00 -0.00000000000E+00 -0.45593999997E+02  0.45594000000E+02  0.51100000000E-03 0.  1.
    9900012    2    1    2    0    0  0.17392992163E+02 -0.62258622786E-01 -0.69386784207E+01  0.72461940331E+02  0.70000482040E+02 0.  0.
         12    1    1    2    0    0 -0.17392992163E+02  0.62258622786E-01  0.69386784207E+01  0.18726059669E+02  0.00000000000E+00 0. -1.
         11    1    3    3    0    0  0.26719159503E+01  0.12194028117E+02  0.22347240042E+02  0.25597511487E+02  0.51100000000E-03 0. -1.
        -11    1    3    3    0    0  0.21754120268E+00 -0.16300035002E+02 -0.30052596379E+01  0.16576189278E+02  0.51100000000E-03 0.  1.
        -12    1    3    3    0    0  0.14503535010E+02  0.40437482615E+01 -0.26280658824E+02  0.30288239566E+02  0.00000000000E+00 0.  1.
</event>
<event>
 7    1  0.2932676E-013  0.7246160E+02  0.7816164E-02  0.1226708E+00
        -11   -1    0    0    0    0  0.00000000000E+00  0.00000000000E+00  0.45593999997E+02  0.45594000000E+02  0.51100000000E-03 0.  1.
         11   -1    0    0    0    0 -0.00000000000E+00 -0.00000000000E+00 -0.45593999997E+02  0.45594000000E+02  0.51100000000E-03 0. -1.
    9900012    2    1    2    0    0  0.24755707895E+01 -0.13216283152E+02  0.13033785019E+02  0.72461597703E+02  0.70000035704E+02 0.  0.
         12    1    1    2    0    0 -0.24755707895E+01  0.13216283152E+02 -0.13033785019E+02  0.18726402297E+02  0.00000000000E+00 0. -1.
         11    1    3    3    0    0 -0.11520047634E+02 -0.21106958645E+02  0.14346279992E+02  0.28000552683E+02  0.51100000000E-03 0. -1.
        -11    1    3    3    0    0  0.30702822624E+01  0.16205770644E+02  0.15582550513E+02  0.22690736350E+02  0.51100000000E-03 0.  1.
         12    1    3    3    0    0  0.10925336161E+02 -0.83150951516E+01 -0.16895045485E+02  0.21770308669E+02  0.00000000000E+00 0. -1.
</event>
<event>
 7    1  0.2932676E-013  0.7246158E+02  0.7816164E-02  0.1226708E+00
        -11   -1    0    0    0    0  0.00000000000E+00  0.00000000000E+00  0.45593999997E+02  0.45594000000E+02  0.51100000000E-03 0. -1.
         11   -1    0    0    0    0 -0.00000000000E+00 -0.00000000000E+00 -0.45593999997E+02  0.45594000000E+02  0.51100000000E-03 0.  1.
    9900012    2    1    2    0    0 -0.11235550641E+02 -0.89600523587E+01 -0.12006611851E+02  0.72461578435E+02  0.70000010605E+02 0.  0.
         12    1    1    2    0    0  0.11235550641E+02  0.89600523587E+01  0.12006611851E+02  0.18726421565E+02  0.00000000000E+00 0. -1.
         11    1    3    3    0    0 -0.15409160747E+01 -0.19694776303E+02 -0.26728694931E+02  0.33236753286E+02  0.51100000000E-03 0.  1.
        -11    1    3    3    0    0 -0.16529683073E+01  0.16473611777E+02 -0.48913168581E+01  0.17263753070E+02  0.51100000000E-03 0. -1.
        -12    1    3    3    0    0 -0.80416662585E+01 -0.57388878318E+01  0.19613399938E+02  0.21961072080E+02  0.00000000000E+00 0.  1.
</event>
<event>
 7    1  0.2932676E-013  0.7246167E+02  0.7816164E-02  0.1226708E+00
        -11   -1    0    0    0    0  0.00000000000E+00  0.00000000000E+00  0.45593999997E+02  0.45594000000E+02  0.51100000000E-03 0. -1.
         11   -1    0    0    0    0 -0.00000000000E+00 -0.00000000000E+00 -0.45593999997E+02  0.45594000000E+02  0.51100000000E-03 0.  1.
    9900012    2    1    2    0    0  0.99607396123E+01  0.89680512864E+01 -0.13077967877E+02  0.72461667703E+02  0.70000126893E+02 0.  0.
         12    1    1    2    0    0 -0.99607396123E+01 -0.89680512864E+01  0.13077967877E+02  0.18726332297E+02  0.00000000000E+00 0. -1.
         11    1    3    3    0    0  0.28758372244E+02  0.89805876813E+01 -0.17052973277E+02  0.34619341806E+02  0.51100000000E-03 0.  1.
        -11    1    3    3    0    0 -0.96776673737E+01  0.15563497270E+02 -0.28464687897E+01  0.18546753837E+02  0.51100000000E-03 0. -1.
         12    1    3    3    0    0 -0.91199652577E+01 -0.15576033664E+02  0.68214741894E+01  0.19295572060E+02  0.00000000000E+00 0. -1.
</event>
<event>
 7    1  0.2932676E-013  0.7246155E+02  0.7816164E-02  0.1226708E+00
        -11   -1    0    0    0    0  0.00000000000E+00  0.00000000000E+00  0.45593999997E+02  0.45594000000E+02  0.51100000000E-03 0.  1.
         11   -1    0    0    0    0 -0.00000000000E+00 -0.00000000000E+00 -0.45593999997E+02  0.45594000000E+02  0.51100000000E-03 0. -1.
    9900012    2    1    2    0    0 -0.74131391968E+01  0.17192614036E+02  0.37347725373E+00  0.72461545573E+02  0.69999967796E+02 0.  0.
         12    1    1    2    0    0  0.74131391968E+01 -0.17192614036E+02 -0.37347725373E+00  0.18726454427E+02  0.00000000000E+00 0. -1.
         11    1    3    3    0    0  0.13964930973E+02  0.12515849865E+02 -0.12340007744E+02  0.22448643307E+02  0.51100000000E-03 0. -1.
        -11    1    3    3    0    0  0.10009279808E+02  0.55353867536E+01  0.14612182050E+02  0.18556455839E+02  0.51100000000E-03 0.  1.
        -12    1    3    3    0    0 -0.31387349977E+02 -0.85862258194E+00 -0.18986970522E+01  0.31456446427E+02  0.00000000000E+00 0.  1.
</event>
<event>
 7    1  0.2932676E-013  0.7246157E+02  0.7816164E-02  0.1226708E+00
        -11   -1    0    0    0    0  0.00000000000E+00  0.00000000000E+00  0.45593999997E+02  0.45594000000E+02  0.51100000000E-03 0.  1.
         11   -1    0    0    0    0 -0.00000000000E+00 -0.00000000000E+00 -0.45593999997E+02  0.45594000000E+02  0.51100000000E-03 0. -1.
    9900012    2    1    2    0    0  0.37304255410E+01  0.91741471499E+01  0.15893340020E+02  0.72461566607E+02  0.69999995196E+02 0.  0.
         12    1    1    2    0    0 -0.37304255410E+01 -0.91741471499E+01 -0.15893340020E+02  0.18726433393E+02  0.00000000000E+00 0. -1.
         11    1    3    3    0    0 -0.46836772160E+01 -0.16503431449E+02  0.19284402703E+02  0.25810623195E+02  0.51100000000E-03 0. -1.
        -11    1    3    3    0    0  0.22126143866E+02  0.12821939286E+02  0.50166767122E+01  0.26060226687E+02  0.51100000000E-03 0.  1.
         12    1    3    3    0    0 -0.13712041109E+02  0.12855639312E+02 -0.84077393951E+01  0.20590716725E+02  0.00000000000E+00 0. -1.
</event>
<event>
 7    1  0.2932676E-013  0.7246157E+02  0.7816164E-02  0.1226708E+00
        -11   -1    0    0    0    0  0.00000000000E+00  0.00000000000E+00  0.45593999997E+02  0.45594000000E+02  0.51100000000E-03 0.  1.
         11   -1    0    0    0    0 -0.00000000000E+00 -0.00000000000E+00 -0.45593999997E+02  0.45594000000E+02  0.51100000000E-03 0. -1.
    9900012    2    1    2    0    0 -0.73364793008E+01  0.12241692323E+02  0.12124196206E+02  0.72461572334E+02  0.70000002658E+02 0.  0.
         12    1    1    2    0    0  0.73364793008E+01 -0.12241692323E+02 -0.12124196206E+02  0.18726427666E+02  0.00000000000E+00 0. -1.
         11    1    3    3    0    0 -0.15288875805E+02 -0.10484694765E+02  0.23323553841E+02  0.29793736116E+02  0.51100000000E-03 0. -1.
        -11    1    3    3    0    0 -0.71829360519E+01 -0.35970832515E+01 -0.92347175685E+01  0.12239836072E+02  0.51100000000E-03 0.  1.
        -12    1    3    3    0    0  0.15135332556E+02  0.26323470340E+02 -0.19646400662E+01  0.30428000147E+02  0.00000000000E+00 0.  1.
</event>
<event>
 7    1  0.2932676E-013  0.7246167E+02  0.7816164E-02  0.1226708E+00
        -11   -1    0    0    0    0  0.00000000000E+00  0.00000000000E+00  0.45593999997E+02  0.45594000000E+02  0.51100000000E-03 0.  1.
         11   -1    0    0    0    0 -0.00000000000E+00 -0.00000000000E+00 -0.45593999997E+02  0.45594000000E+02  0.51100000000E-03 0. -1.
    9900012    2    1    2    0    0 -0.24057271223E+01 -0.42545591210E+01  0.18077244044E+02  0.72461666976E+02  0.70000125946E+02 0.  0.
         12    1    1    2    0    0  0.24057271223E+01  0.42545591210E+01 -0.18077244044E+02  0.18726333024E+02  0.00000000000E+00 0. -1.
         11    1    3    3    0    0  0.21061404559E+02 -0.82984946040E+01  0.16707462033E+02  0.28135157056E+02  0.51100000000E-03 0. -1.
        -11    1    3    3    0    0 -0.83674021153E+01  0.20269234779E+01  0.19099970308E+02  0.20950673091E+02  0.51100000000E-03 0.  1.
         12    1    3    3    0    0 -0.15099729566E+02  0.20170120051E+01 -0.17730188297E+02  0.23375836829E+02  0.00000000000E+00 0. -1.
</event>
<event>
 7    1  0.2932676E-013  0.7246156E+02  0.7816164E-02  0.1226708E+00
        -11   -1    0    0    0    0  0.00000000000E+00  0.00000000000E+00  0.45593999997E+02  0.45594000000E+02  0.51100000000E-03 0.  1.
         11   -1    0    0    0    0 -0.00000000000E+00 -0.00000000000E+00 -0.45593999997E+02  0.45594000000E+02  0.51100000000E-03 0. -1.
    9900012    2    1    2    0    0 -0.33422457519E+01 -0.18054577991E+02 -0.36798565256E+01  0.72461555138E+02  0.69999980257E+02 0.  0.
         12    1    1    2    0    0  0.33422457519E+01  0.18054577991E+02  0.36798565256E+01  0.18726444862E+02  0.00000000000E+00 0. -1.
         11    1    3    3    0    0 -0.89297942350E+01 -0.22556798074E+02 -0.70441630850E+01  0.25262038680E+02  0.51100000000E-03 0. -1.
        -11    1    3    3    0    0 -0.11892453211E+02  0.65037949352E+01  0.19217334172E+02  0.23516711608E+02  0.51100000000E-03 0.  1.
         12    1    3    3    0    0  0.17480001694E+02 -0.20015748519E+01 -0.15853027612E+02  0.23682804850E+02  0.00000000000E+00 0. -1.
</event>
<event>
 7    1  0.2932676E-013  0.7246154E+02  0.7816164E-02  0.1226708E+00
        -11   -1    0    0    0    0  0.00000000000E+00  0.00000000000E+00  0.45593999997E+02  0.45594000000E+02  0.51100000000E-03 0. -1.
         11   -1    0    0    0    0 -0.00000000000E+00 -0.00000000000E+00 -0.45593999997E+02  0.45594000000E+02  0.51100000000E-03 0.  1.
    9900012    2    1    2    0    0  0.24942009634E+01 -0.18116981752E+02 -0.40291915184E+01  0.72461536091E+02  0.69999955444E+02 0.  0.
         12    1    1    2    0    0 -0.24942009634E+01  0.18116981752E+02  0.40291915184E+01  0.18726463909E+02  0.00000000000E+00 0. -1.
         11    1    3    3    0    0 -0.12167882886E+02 -0.86328232499E+00  0.38838960230E+00  0.12204649812E+02  0.51100000000E-03 0. -1.
        -11    1    3    3    0    0  0.17582279559E+02 -0.24941584141E+02  0.18652401486E+02  0.35764944505E+02  0.51100000000E-03 0.  1.
         12    1    3    3    0    0 -0.29201957100E+01  0.76878847145E+01 -0.23069982607E+02  0.24491941774E+02  0.00000000000E+00 0. -1.
</event>
<event>
 7    1  0.2932676E-013  0.7246088E+02  0.7816164E-02  0.1226710E+00
        -11   -1    0    0    0    0  0.00000000000E+00  0.00000000000E+00  0.45593999997E+02  0.45594000000E+02  0.51100000000E-03 0.  1.
         11   -1    0    0    0    0 -0.00000000000E+00 -0.00000000000E+00 -0.45593999997E+02  0.45594000000E+02  0.51100000000E-03 0. -1.
    9900012    2    1    2    0    0 -0.14022396016E+02  0.13152708020E+01  0.12342909234E+02  0.72460882345E+02  0.69999103812E+02 0.  0.
         12    1    1    2    0    0  0.14022396016E+02 -0.13152708020E+01 -0.12342909234E+02  0.18727117655E+02  0.00000000000E+00 0. -1.
         11    1    3    3    0    0 -0.45208089358E+01 -0.11059579679E+02 -0.14200696425E+01  0.12031982968E+02  0.51100000000E-03 0. -1.
        -11    1    3    3    0    0 -0.24763030166E+02 -0.54689355218E+01  0.23906359295E+02  0.34851555686E+02  0.51100000000E-03 0.  1.
        -12    1    3    3    0    0  0.15261443085E+02  0.17843786002E+02 -0.10143380419E+02  0.25577343691E+02  0.00000000000E+00 0.  1.
</event>
<event>
 7    1  0.2932676E-013  0.7246145E+02  0.7816164E-02  0.1226708E+00
        -11   -1    0    0    0    0  0.00000000000E+00  0.00000000000E+00  0.45593999997E+02  0.45594000000E+02  0.51100000000E-03 0. -1.
         11   -1    0    0    0    0 -0.00000000000E+00 -0.00000000000E+00 -0.45593999997E+02  0.45594000000E+02  0.51100000000E-03 0.  1.
    9900012    2    1    2    0    0  0.78232535587E+01  0.13387042737E+02 -0.10500826858E+02  0.72461452689E+02  0.69999846797E+02 0.  0.
         12    1    1    2    0    0 -0.78232535587E+01 -0.13387042737E+02  0.10500826858E+02  0.18726547311E+02  0.00000000000E+00 0. -1.
         11    1    3    3    0    0  0.19182850749E+02 -0.72902456192E+01  0.38490824297E+01  0.20879293088E+02  0.51100000000E-03 0. -1.
        -11    1    3    3    0    0 -0.55896233633E+01  0.13294582545E+02 -0.30031259015E+02  0.33314656424E+02  0.51100000000E-03 0.  1.
         12    1    3    3    0    0 -0.57699738269E+01  0.73827058115E+01  0.15681349727E+02  0.18267503177E+02  0.00000000000E+00 0. -1.
</event>
<event>
 7    1  0.2932676E-013  0.7246157E+02  0.7816164E-02  0.1226708E+00
        -11   -1    0    0    0    0  0.00000000000E+00  0.00000000000E+00  0.45593999997E+02  0.45594000000E+02  0.51100000000E-03 0.  1.
         11   -1    0    0    0    0 -0.00000000000E+00 -0.00000000000E+00 -0.45593999997E+02  0.45594000000E+02  0.51100000000E-03 0. -1.
    9900012    2    1    2    0    0 -0.13075588874E+02 -0.57556154088E+01  0.12107061514E+02  0.72461572908E+02  0.70000003405E+02 0.  0.
         12    1    1    2    0    0  0.13075588874E+02  0.57556154088E+01 -0.12107061514E+02  0.18726427092E+02  0.00000000000E+00 0. -1.
         11    1    3    3    0    0 -0.16977210094E+01  0.10109684529E+02  0.44968309281E+01  0.11194171098E+02  0.51100000000E-03 0. -1.
        -11    1    3    3    0    0  0.12040749005E+02  0.16277957418E+02 -0.20219690332E+01  0.20347970252E+02  0.51100000000E-03 0.  1.
         12    1    3    3    0    0 -0.23418616870E+02 -0.32143257356E+02  0.96321996194E+01  0.40919431559E+02  0.00000000000E+00 0. -1.
</event>
<event>
 7    1  0.2932676E-013  0.7246154E+02  0.7816164E-02  0.1226708E+00
        -11   -1    0    0    0    0  0.00000000000E+00  0.00000000000E+00  0.45593999997E+02  0.45594000000E+02  0.51100000000E-03 0.  1.
         11   -1    0    0    0    0 -0.00000000000E+00 -0.00000000000E+00 -0.45593999997E+02  0.45594000000E+02  0.51100000000E-03 0. -1.
    9900012    2    1    2    0    0 -0.43312926304E+01 -0.37275837629E+01  0.17833260072E+02  0.72461544346E+02  0.69999966197E+02 0.  0.
         12    1    1    2    0    0  0.43312926304E+01  0.37275837629E+01 -0.17833260072E+02  0.18726455654E+02  0.00000000000E+00 0. -1.
         11    1    3    3    0    0 -0.51811853410E-01  0.79903005344E+01  0.63775272029E+01  0.10223523883E+02  0.51100000000E-03 0. -1.
        -11    1    3    3    0    0  0.99576853925E+01 -0.10384471571E+01  0.32888886815E+02  0.34378957912E+02  0.51100000000E-03 0.  1.
         12    1    3    3    0    0 -0.14237166170E+02 -0.10679437140E+02 -0.21433153946E+02  0.27859062551E+02  0.00000000000E+00 0. -1.
</event>
<event>
 7    1  0.2932676E-013  0.7246158E+02  0.7816164E-02  0.1226708E+00
        -11   -1    0    0    0    0  0.00000000000E+00  0.00000000000E+00  0.45593999997E+02  0.45594000000E+02  0.51100000000E-03 0.  1.
         11   -1    0    0    0    0 -0.00000000000E+00 -0.00000000000E+00 -0.45593999997E+02  0.45594000000E+02  0.51100000000E-03 0. -1.
    9900012    2    1    2    0    0 -0.15962322072E+02  0.70983994523E+01  0.67450699155E+01  0.72461575651E+02  0.70000006978E+02 0.  0.
         12    1    1    2    0    0  0.15962322072E+02 -0.70983994523E+01 -0.67450699155E+01  0.18726424349E+02  0.00000000000E+00 0. -1.
         11    1    3    3    0    0  0.52309009558E+01  0.16425639612E+02  0.13894813760E+02  0.22141133918E+02  0.51100000000E-03 0. -1.
        -11    1    3    3    0    0 -0.18105439471E+02 -0.95419037102E+01  0.16611159937E+02  0.26358784107E+02  0.51100000000E-03 0.  1.
         12    1    3    3    0    0 -0.30877835570E+01  0.21466355048E+00 -0.23760903781E+02  0.23961657627E+02  0.00000000000E+00 0. -1.
</event>
<event>
 7    1  0.2932676E-013  0.7246157E+02  0.7816164E-02  0.1226708E+00
        -11   -1    0    0    0    0  0.00000000000E+00  0.00000000000E+00  0.45593999997E+02  0.45594000000E+02  0.51100000000E-03 0.  1.
         11   -1    0    0    0    0 -0.00000000000E+00 -0.00000000000E+00 -0.45593999997E+02  0.45594000000E+02  0.51100000000E-03 0. -1.
    9900012    2    1    2    0    0 -0.12921251762E+02 -0.25063681008E+01  0.13320604284E+02  0.72461571439E+02  0.70000001491E+02 0.  0.
         12    1    1    2    0    0  0.12921251762E+02  0.25063681008E+01 -0.13320604284E+02  0.18726428561E+02  0.00000000000E+00 0. -1.
         11    1    3    3    0    0 -0.94670607084E+01 -0.59305127960E+01  0.18759502097E+01  0.11327639204E+02  0.51100000000E-03 0. -1.
        -11    1    3    3    0    0 -0.40175329162E+01 -0.26679435791E+02 -0.40327215482E+01  0.27279950663E+02  0.51100000000E-03 0.  1.
         12    1    3    3    0    0  0.56334186263E+00  0.30103580486E+02  0.15477375623E+02  0.33853981572E+02  0.00000000000E+00 0. -1.
</event>
<event>
 7    1  0.2932676E-013  0.7246157E+02  0.7816164E-02  0.1226708E+00
        -11   -1    0    0    0    0  0.00000000000E+00  0.00000000000E+00  0.45593999997E+02  0.45594000000E+02  0.51100000000E-03 0.  1.
         11   -1    0    0    0    0 -0.00000000000E+00 -0.00000000000E+00 -0.45593999997E+02  0.45594000000E+02  0.51100000000E-03 0. -1.
    9900012    2    1    2    0    0  0.36791669497E+01  0.14340337558E+02 -0.11467241721E+02  0.72461569923E+02  0.69999999517E+02 0.  0.
         12    1    1    2    0    0 -0.36791669497E+01 -0.14340337558E+02  0.11467241721E+02  0.18726430077E+02  0.00000000000E+00 0. -1.
         11    1    3    3    0    0 -0.87461592969E+01  0.13723911700E+01 -0.20107899689E+02  0.21970580105E+02  0.51100000000E-03 0. -1.
        -11    1    3    3    0    0 -0.17402646880E+01  0.20199308727E+02 -0.12664069339E+02  0.23904377145E+02  0.51100000000E-03 0.  1.
         12    1    3    3    0    0  0.14165590935E+02 -0.72313623386E+01  0.21304727307E+02  0.26586612673E+02  0.00000000000E+00 0. -1.
</event>
<event>
 7    1  0.2932676E-013  0.7246155E+02  0.7816164E-02  0.1226708E+00
        -11   -1    0    0    0    0  0.00000000000E+00  0.00000000000E+00  0.45593999997E+02  0.45594000000E+02  0.51100000000E-03 0.  1.
         11   -1    0    0    0    0 -0.00000000000E+00 -0.00000000000E+00 -0.45593999997E+02  0.45594000000E+02  0.51100000000E-03 0. -1.
    9900012    2    1    2    0    0 -0.10057466082E+02 -0.15680957055E+02  0.19065722680E+01  0.72461546627E+02  0.69999969169E+02 0.  0.
         12    1    1    2    0    0  0.10057466082E+02  0.15680957055E+02 -0.19065722680E+01  0.18726453373E+02  0.00000000000E+00 0. -1.
         11    1    3    3    0    0 -0.50326627435E+01  0.54956930872E+01 -0.17132505533E+01  0.76462778211E+01  0.51100000000E-03 0. -1.
        -11    1    3    3    0    0 -0.28497258699E+02  0.49073239257E+01  0.63949836516E+01  0.29615391228E+02  0.51100000000E-03 0.  1.
         12    1    3    3    0    0  0.23472455361E+02 -0.26083974067E+02 -0.27751608303E+01  0.35199877577E+02  0.00000000000E+00 0. -1.
</event>
<event>
 7    1  0.2932676E-013  0.7246153E+02  0.7816164E-02  0.1226708E+00
        -11   -1    0    0    0    0  0.00000000000E+00  0.00000000000E+00  0.45593999997E+02  0.45594000000E+02  0.51100000000E-03 0. -1.
         11   -1    0    0    0    0 -0.00000000000E+00 -0.00000000000E+00 -0.45593999997E+02  0.45594000000E+02  0.51100000000E-03 0.  1.
    9900012    2    1    2    0    0  0.15028618274E+02  0.70369284249E+01  0.86777262975E+01  0.72461530430E+02  0.69999948069E+02 0.  0.
         12    1    1    2    0    0 -0.15028618274E+02 -0.70369284249E+01 -0.86777262975E+01  0.18726469570E+02  0.00000000000E+00 0. -1.
         11    1    3    3    0    0  0.73597537076E+01  0.20512682245E+02  0.19390084959E+02  0.29170387425E+02  0.51100000000E-03 0. -1.
        -11    1    3    3    0    0  0.82416585908E+01  0.74539765944E+01 -0.17972563887E+02  0.21130540844E+02  0.51100000000E-03 0.  1.
         12    1    3    3    0    0 -0.57279402482E+00 -0.20929730415E+02  0.72602052260E+01  0.22160602161E+02  0.00000000000E+00 0. -1.
</event>
<event>
 7    1  0.2932676E-013  0.7246155E+02  0.7816164E-02  0.1226708E+00
        -11   -1    0    0    0    0  0.00000000000E+00  0.00000000000E+00  0.45593999997E+02  0.45594000000E+02  0.51100000000E-03 0.  1.
         11   -1    0    0    0    0 -0.00000000000E+00 -0.00000000000E+00 -0.45593999997E+02  0.45594000000E+02  0.51100000000E-03 0. -1.
    9900012    2    1    2    0    0  0.70113155440E+01  0.11280628950E+01  0.17327689236E+02  0.72461551169E+02  0.69999975086E+02 0.  0.
         12    1    1    2    0    0 -0.70113155440E+01 -0.11280628950E+01 -0.17327689236E+02  0.18726448831E+02  0.00000000000E+00 0. -1.
         11    1    3    3    0    0  0.59539742990E+01 -0.21011459571E+02 -0.37958668092E+00  0.21842054151E+02  0.51100000000E-03 0. -1.
        -11    1    3    3    0    0  0.15006854961E+02 -0.46859168710E+01  0.28602339213E+00  0.15724036453E+02  0.51100000000E-03 0.  1.
         12    1    3    3    0    0 -0.13949513716E+02  0.26825439337E+02  0.17421252525E+02  0.34895460565E+02  0.00000000000E+00 0. -1.
</event>
<event>
 7    1  0.2932676E-013  0.7246156E+02  0.7816164E-02  0.1226708E+00
        -11   -1    0    0    0    0  0.00000000000E+00  0.00000000000E+00  0.45593999997E+02  0.45594000000E+02  0.51100000000E-03 0. -1.
         11   -1    0    0    0    0 -0.00000000000E+00 -0.00000000000E+00 -0.45593999997E+02  0.45594000000E+02  0.51100000000E-03 0.  1.
    9900012    2    1    2    0    0 -0.12547823701E+02 -0.10705222700E+02 -0.88673484348E+01  0.72461560377E+02  0.69999987081E+02 0.  0.
         12    1    1    2    0    0  0.12547823701E+02  0.10705222700E+02  0.88673484348E+01  0.18726439623E+02  0.00000000000E+00 0. -1.
         11    1    3    3    0    0 -0.85095018976E+01 -0.11787670949E+02  0.12961250026E+02  0.19477032922E+02  0.51100000000E-03 0. -1.
        -11    1    3    3    0    0 -0.21267536926E+02  0.73118416455E+01  0.23910212154E+01  0.22616103507E+02  0.51100000000E-03 0.  1.
        -12    1    3    3    0    0  0.17229215123E+02 -0.62293933972E+01 -0.24219619676E+02  0.30368423948E+02  0.00000000000E+00 0.  1.
</event>
<event>
 7    1  0.2932676E-013  0.7246158E+02  0.7816164E-02  0.1226708E+00
        -11   -1    0    0    0    0  0.00000000000E+00  0.00000000000E+00  0.45593999997E+02  0.45594000000E+02  0.51100000000E-03 0. -1.
         11   -1    0    0    0    0 -0.00000000000E+00 -0.00000000000E+00 -0.45593999997E+02  0.45594000000E+02  0.51100000000E-03 0.  1.
    9900012    2    1    2    0    0 -0.56490324643E+01  0.86419374640E+01 -0.15623188268E+02  0.72461583830E+02  0.70000017633E+02 0.  0.
         12    1    1    2    0    0  0.56490324643E+01 -0.86419374640E+01  0.15623188268E+02  0.18726416170E+02  0.00000000000E+00 0. -1.
         11    1    3    3    0    0  0.85840878757E+01  0.74295558571E+01  0.43010629882E+01  0.12140181546E+02  0.51100000000E-03 0. -1.
        -11    1    3    3    0    0 -0.63901570087E+00  0.11401008899E+02 -0.35488981985E+02  0.37280815275E+02  0.51100000000E-03 0.  1.
         12    1    3    3    0    0 -0.13594104639E+02 -0.10188627292E+02  0.15564730729E+02  0.23040587009E+02  0.00000000000E+00 0. -1.
</event>
<event>
 7    1  0.2932676E-013  0.7246156E+02  0.7816164E-02  0.1226708E+00
        -11   -1    0    0    0    0  0.00000000000E+00  0.00000000000E+00  0.45593999997E+02  0.45594000000E+02  0.51100000000E-03 0. -1.
         11   -1    0    0    0    0 -0.00000000000E+00 -0.00000000000E+00 -0.45593999997E+02  0.45594000000E+02  0.51100000000E-03 0.  1.
    9900012    2    1    2    0    0  0.13364362751E+02 -0.10345898873E+02 -0.80644665944E+01  0.72461563161E+02  0.69999990707E+02 0.  0.
         12    1    1    2    0    0 -0.13364362751E+02  0.10345898873E+02  0.80644665944E+01  0.18726436839E+02  0.00000000000E+00 0. -1.
         11    1    3    3    0    0  0.17109989011E+02  0.11702561360E+02 -0.63533565720E+01  0.21681024107E+02  0.51100000000E-03 0. -1.
        -11    1    3    3    0    0  0.28401893644E+01 -0.26260225561E+02 -0.18508864576E+02  0.32252816781E+02  0.51100000000E-03 0.  1.
        -12    1    3    3    0    0 -0.65858156239E+01  0.42117653282E+01  0.16797754553E+02  0.18527722273E+02  0.00000000000E+00 0.  1.
</event>
<event>
 7    1  0.2932676E-013  0.7246148E+02  0.7816164E-02  0.1226708E+00
        -11   -1    0    0    0    0  0.00000000000E+00  0.00000000000E+00  0.45593999997E+02  0.45594000000E+02  0.51100000000E-03 0.  1.
         11   -1    0    0    0    0 -0.00000000000E+00 -0.00000000000E+00 -0.45593999997E+02  0.45594000000E+02  0.51100000000E-03 0. -1.
    9900012    2    1    2    0    0 -0.12878605034E+02 -0.13519352525E+02 -0.14321359628E+01  0.72461484742E+02  0.69999888552E+02 0.  0.
         12    1    1    2    0    0  0.12878605034E+02  0.13519352525E+02  0.14321359628E+01  0.18726515258E+02  0.00000000000E+00 0. -1.
         11    1    3    3    0    0 -0.12272636106E+02  0.21716680327E+02 -0.49038873202E+01  0.25422035963E+02  0.51100000000E-03 0. -1.
        -11    1    3    3    0    0 -0.11360390691E+02 -0.17637290996E+02 -0.91189081471E+01  0.22875467130E+02  0.51100000000E-03 0.  1.
        -12    1    3    3    0    0  0.10754421764E+02 -0.17598741855E+02  0.12590659505E+02  0.24163981649E+02  0.00000000000E+00 0.  1.
</event>
<event>
 7    1  0.2932676E-013  0.7246175E+02  0.7816164E-02  0.1226708E+00
        -11   -1    0    0    0    0  0.00000000000E+00  0.00000000000E+00  0.45593999997E+02  0.45594000000E+02  0.51100000000E-03 0.  1.
         11   -1    0    0    0    0 -0.00000000000E+00 -0.00000000000E+00 -0.45593999997E+02  0.45594000000E+02  0.51100000000E-03 0. -1.
    9900012    2    1    2    0    0 -0.10182455935E+02 -0.52273963721E+01  0.14821082167E+02  0.72461746817E+02  0.70000229953E+02 0.  0.
         12    1    1    2    0    0  0.10182455935E+02  0.52273963721E+01 -0.14821082167E+02  0.18726253183E+02  0.00000000000E+00 0. -1.
         11    1    3    3    0    0  0.20296546452E+00 -0.10720273602E+02 -0.82539237838E+01  0.13531175824E+02  0.51100000000E-03 0. -1.
        -11    1    3    3    0    0  0.66111459569E+01  0.20920867574E+02 -0.51628727298E+01  0.22539858163E+02  0.51100000000E-03 0.  1.
         12    1    3    3    0    0 -0.16996567356E+02 -0.15427990344E+02  0.28237878680E+02  0.36390712830E+02  0.00000000000E+00 0. -1.
</event>
<event>
 7    1  0.2932676E-013  0.7246158E+02  0.7816164E-02  0.1226708E+00
        -11   -1    0    0    0    0  0.00000000000E+00  0.00000000000E+00  0.45593999997E+02  0.45594000000E+02  0.51100000000E-03 0.  1.
         11   -1    0    0    0    0 -0.00000000000E+00 -0.00000000000E+00 -0.45593999997E+02  0.45594000000E+02  0.51100000000E-03 0. -1.
    9900012    2    1    2    0    0  0.97719987706E+01  0.33958484745E+01 -0.15609457731E+02  0.72461577024E+02  0.70000008766E+02 0.  0.
         12    1    1    2    0    0 -0.97719987706E+01 -0.33958484745E+01  0.15609457731E+02  0.18726422976E+02  0.00000000000E+00 0. -1.
         11    1    3    3    0    0 -0.11254464912E+02 -0.17171730963E+02  0.28699285626E+01  0.20730842118E+02  0.51100000000E-03 0. -1.
        -11    1    3    3    0    0  0.10520988732E+01 -0.75416458286E+00  0.10500199407E+02  0.10579691116E+02  0.51100000000E-03 0.  1.
         12    1    3    3    0    0  0.19974364809E+02  0.21321744020E+02 -0.28979585701E+02  0.41151043790E+02  0.00000000000E+00 0. -1.
</event>
<event>
 7    1  0.2932676E-013  0.7246153E+02  0.7816164E-02  0.1226708E+00
        -11   -1    0    0    0    0  0.00000000000E+00  0.00000000000E+00  0.45593999997E+02  0.45594000000E+02  0.51100000000E-03 0.  1.
         11   -1    0    0    0    0 -0.00000000000E+00 -0.00000000000E+00 -0.45593999997E+02  0.45594000000E+02  0.51100000000E-03 0. -1.
    9900012    2    1    2    0    0 -0.83886554580E-01  0.13625449760E+02  0.12846036642E+02  0.72461532754E+02  0.69999951096E+02 0.  0.
         12    1    1    2    0    0  0.83886554580E-01 -0.13625449760E+02 -0.12846036642E+02  0.18726467246E+02  0.00000000000E+00 0. -1.
         11    1    3    3    0    0  0.85198155360E+01 -0.71404825689E+01  0.59811779993E+00  0.11132452257E+02  0.51100000000E-03 0. -1.
        -11    1    3    3    0    0 -0.19992151297E+02 -0.13392500372E+02  0.57458233550E+01  0.24739839652E+02  0.51100000000E-03 0.  1.
         12    1    3    3    0    0  0.11388449207E+02  0.34158432701E+02  0.65020954868E+01  0.36589240845E+02  0.00000000000E+00 0. -1.
</event>
<event>
 7    1  0.2932676E-013  0.7246156E+02  0.7816164E-02  0.1226708E+00
        -11   -1    0    0    0    0  0.00000000000E+00  0.00000000000E+00  0.45593999997E+02  0.45594000000E+02  0.51100000000E-03 0.  1.
         11   -1    0    0    0    0 -0.00000000000E+00 -0.00000000000E+00 -0.45593999997E+02  0.45594000000E+02  0.51100000000E-03 0. -1.
    9900012    2    1    2    0    0  0.27758102007E+01 -0.67642866613E+01  0.17240039509E+02  0.72461557236E+02  0.69999982989E+02 0.  0.
         12    1    1    2    0    0 -0.27758102007E+01  0.67642866613E+01 -0.17240039509E+02  0.18726442764E+02  0.00000000000E+00 0. -1.
         11    1    3    3    0    0 -0.96262876907E+01  0.17115589189E+02 -0.14783433265E+02  0.24579640098E+02  0.51100000000E-03 0. -1.
        -11    1    3    3    0    0  0.19948746595E+01  0.34626849696E+01 -0.62303216373E+00  0.40444877851E+01  0.51100000000E-03 0.  1.
        -12    1    3    3    0    0  0.10407223232E+02 -0.27342560820E+02  0.32646504938E+02  0.43837429353E+02  0.00000000000E+00 0.  1.
</event>
<event>
 7    1  0.2932676E-013  0.7246160E+02  0.7816164E-02  0.1226708E+00
        -11   -1    0    0    0    0  0.00000000000E+00  0.00000000000E+00  0.45593999997E+02  0.45594000000E+02  0.51100000000E-03 0.  1.
         11   -1    0    0    0    0 -0.00000000000E+00 -0.00000000000E+00 -0.45593999997E+02  0.45594000000E+02  0.51100000000E-03 0. -1.
    9900012    2    1    2    0    0  0.19642929355E+01 -0.13440607992E+02  0.12890686542E+02  0.72461596463E+02  0.70000034089E+02 0.  0.
         12    1    1    2    0    0 -0.19642929355E+01  0.13440607992E+02 -0.12890686542E+02  0.18726403537E+02  0.00000000000E+00 0. -1.
         11    1    3    3    0    0 -0.28903077867E+01  0.18850462214E+02 -0.33017869666E+01  0.19354472409E+02  0.51100000000E-03 0. -1.
        -11    1    3    3    0    0 -0.13541401539E+02 -0.16929864302E+01  0.98877468350E+01  0.16852397349E+02  0.51100000000E-03 0.  1.
        -12    1    3    3    0    0  0.18396002261E+02 -0.30598083776E+02  0.63047266732E+01  0.36254726704E+02  0.00000000000E+00 0.  1.
</event>
<event>
 7    1  0.2932676E-013  0.7246158E+02  0.7816164E-02  0.1226708E+00
        -11   -1    0    0    0    0  0.00000000000E+00  0.00000000000E+00  0.45593999997E+02  0.45594000000E+02  0.51100000000E-03 0.  1.
         11   -1    0    0    0    0 -0.00000000000E+00 -0.00000000000E+00 -0.45593999997E+02  0.45594000000E+02  0.51100000000E-03 0. -1.
    9900012    2    1    2    0    0  0.99362162631E+01  0.13733131385E+02  0.79593681145E+01  0.72461579305E+02  0.70000011738E+02 0.  0.
         12    1    1    2    0    0 -0.99362162631E+01 -0.13733131385E+02 -0.79593681145E+01  0.18726420695E+02  0.00000000000E+00 0. -1.
         11    1    3    3    0    0  0.84600754734E+01  0.19104983908E+02 -0.27281510575E+01  0.21071689433E+02  0.51100000000E-03 0.  1.
        -11    1    3    3    0    0 -0.18958185647E+02 -0.34409255746E+01  0.20931997681E+02  0.28449978893E+02  0.51100000000E-03 0. -1.
         12    1    3    3    0    0  0.20434326437E+02 -0.19309269482E+01 -0.10244478509E+02  0.22939910979E+02  0.00000000000E+00 0. -1.
</event>
<event>
 7    1  0.2932676E-013  0.7246158E+02  0.7816164E-02  0.1226708E+00
        -11   -1    0    0    0    0  0.00000000000E+00  0.00000000000E+00  0.45593999997E+02  0.45594000000E+02  0.51100000000E-03 0.  1.
         11   -1    0    0    0    0 -0.00000000000E+00 -0.00000000000E+00 -0.45593999997E+02  0.45594000000E+02  0.51100000000E-03 0. -1.
    9900012    2    1    2    0    0  0.80628270992E+01  0.15223656326E+02 -0.73423378396E+01  0.72461579688E+02  0.70000012237E+02 0.  0.
         12    1    1    2    0    0 -0.80628270992E+01 -0.15223656326E+02  0.73423378396E+01  0.18726420312E+02  0.00000000000E+00 0. -1.
         11    1    3    3    0    0  0.32875057655E+01  0.17596484054E+01 -0.14328021118E+02  0.14805277643E+02  0.51100000000E-03 0. -1.
        -11    1    3    3    0    0  0.15409015620E+02 -0.56817601065E+01  0.24581324189E+02  0.29562842547E+02  0.51100000000E-03 0.  1.
         12    1    3    3    0    0 -0.10633694286E+02  0.19145768027E+02 -0.17595640911E+02  0.28093459498E+02  0.00000000000E+00 0. -1.
</event>
<event>
 7    1  0.2932676E-013  0.7246158E+02  0.7816164E-02  0.1226708E+00
        -11   -1    0    0    0    0  0.00000000000E+00  0.00000000000E+00  0.45593999997E+02  0.45594000000E+02  0.51100000000E-03 0. -1.
         11   -1    0    0    0    0 -0.00000000000E+00 -0.00000000000E+00 -0.45593999997E+02  0.45594000000E+02  0.51100000000E-03 0.  1.
    9900012    2    1    2    0    0 -0.13572574673E+02 -0.12827603597E+02 -0.13844380536E+01  0.72461578398E+02  0.70000010557E+02 0.  0.
         12    1    1    2    0    0  0.13572574673E+02  0.12827603597E+02  0.13844380536E+01  0.18726421602E+02  0.00000000000E+00 0. -1.
         11    1    3    3    0    0  0.68141610737E+01  0.19819734187E+01 -0.12483378206E+01  0.72055088193E+01  0.51100000000E-03 0. -1.
        -11    1    3    3    0    0  0.73799120064E+01 -0.31807480220E+02 -0.13087803568E+01  0.32678613885E+02  0.51100000000E-03 0.  1.
         12    1    3    3    0    0 -0.27766647753E+02  0.16997903205E+02  0.11726801237E+01  0.32577455693E+02  0.00000000000E+00 0. -1.
</event>
<event>
 7    1  0.2932676E-013  0.7246162E+02  0.7816164E-02  0.1226708E+00
        -11   -1    0    0    0    0  0.00000000000E+00  0.00000000000E+00  0.45593999997E+02  0.45594000000E+02  0.51100000000E-03 0.  1.
         11   -1    0    0    0    0 -0.00000000000E+00 -0.00000000000E+00 -0.45593999997E+02  0.45594000000E+02  0.51100000000E-03 0. -1.
    9900012    2    1    2    0    0  0.12957904243E+02  0.12499412058E+02  0.51511848594E+01  0.72461620488E+02  0.70000065387E+02 0.  0.
         12    1    1    2    0    0 -0.12957904243E+02 -0.12499412058E+02 -0.51511848594E+01  0.18726379512E+02  0.00000000000E+00 0. -1.
         11    1    3    3    0    0 -0.24730913840E+01 -0.13122541129E+02 -0.13093099744E+02  0.18701511378E+02  0.51100000000E-03 0. -1.
        -11    1    3    3    0    0  0.29428627998E+02  0.15246082066E+02  0.11710181290E+02  0.35151323023E+02  0.51100000000E-03 0.  1.
        -12    1    3    3    0    0 -0.13997632371E+02  0.10375871121E+02  0.65341033137E+01  0.18608786087E+02  0.00000000000E+00 0.  1.
</event>
<event>
 7    1  0.2932676E-013  0.7246155E+02  0.7816164E-02  0.1226708E+00
        -11   -1    0    0    0    0  0.00000000000E+00  0.00000000000E+00  0.45593999997E+02  0.45594000000E+02  0.51100000000E-03 0.  1.
         11   -1    0    0    0    0 -0.00000000000E+00 -0.00000000000E+00 -0.45593999997E+02  0.45594000000E+02  0.51100000000E-03 0. -1.
    9900012    2    1    2    0    0 -0.84720310007E+01  0.16668686393E+02 -0.10293260991E+01  0.72461550055E+02  0.69999973634E+02 0.  0.
         12    1    1    2    0    0  0.84720310007E+01 -0.16668686393E+02  0.10293260991E+01  0.18726449945E+02  0.00000000000E+00 0. -1.
         11    1    3    3    0    0 -0.24229050809E+01  0.87678870362E+01 -0.34641416871E+01  0.97337860055E+01  0.51100000000E-03 0. -1.
        -11    1    3    3    0    0 -0.14648908589E+02  0.28050224189E+02 -0.14721421987E+02  0.34901659924E+02  0.51100000000E-03 0.  1.
         12    1    3    3    0    0  0.85997826695E+01 -0.20149424832E+02  0.17156237575E+02  0.27826104125E+02  0.00000000000E+00 0. -1.
</event>
<event>
 7    1  0.2932676E-013  0.7246157E+02  0.7816164E-02  0.1226708E+00
        -11   -1    0    0    0    0  0.00000000000E+00  0.00000000000E+00  0.45593999997E+02  0.45594000000E+02  0.51100000000E-03 0.  1.
         11   -1    0    0    0    0 -0.00000000000E+00 -0.00000000000E+00 -0.45593999997E+02  0.45594000000E+02  0.51100000000E-03 0. -1.
    9900012    2    1    2    0    0 -0.33708575169E+01 -0.71481201704E+01  0.16977068955E+02  0.72461570210E+02  0.69999999890E+02 0.  0.
         12    1    1    2    0    0  0.33708575169E+01  0.71481201704E+01 -0.16977068955E+02  0.18726429790E+02  0.00000000000E+00 0. -1.
         11    1    3    3    0    0 -0.14762583683E+02 -0.18645744241E+02  0.72786404863E+01  0.24871193435E+02  0.51100000000E-03 0. -1.
        -11    1    3    3    0    0 -0.36856565684E+01 -0.13274056311E+02  0.12308385882E+02  0.18473792209E+02  0.51100000000E-03 0.  1.
        -12    1    3    3    0    0  0.15077382734E+02  0.24771680382E+02 -0.26099574131E+01  0.29116584566E+02  0.00000000000E+00 0.  1.
</event>
<event>
 7    1  0.2932676E-013  0.7246152E+02  0.7816164E-02  0.1226708E+00
        -11   -1    0    0    0    0  0.00000000000E+00  0.00000000000E+00  0.45593999997E+02  0.45594000000E+02  0.51100000000E-03 0.  1.
         11   -1    0    0    0    0 -0.00000000000E+00 -0.00000000000E+00 -0.45593999997E+02  0.45594000000E+02  0.51100000000E-03 0. -1.
    9900012    2    1    2    0    0 -0.17863162380E+01 -0.18635573818E+02 -0.45321471549E+00  0.72461523001E+02  0.69999938392E+02 0.  0.
         12    1    1    2    0    0  0.17863162380E+01  0.18635573818E+02  0.45321471549E+00  0.18726476999E+02  0.00000000000E+00 0. -1.
         11    1    3    3    0    0 -0.17973518373E+02 -0.21603804804E+02 -0.10823393428E+02  0.30115072476E+02  0.51100000000E-03 0. -1.
        -11    1    3    3    0    0 -0.22502335631E+01 -0.14508286613E+02 -0.55617157230E+00  0.14692285684E+02  0.51100000000E-03 0.  1.
        -12    1    3    3    0    0  0.18437435698E+02  0.17476517599E+02  0.10926350285E+02  0.27654164841E+02  0.00000000000E+00 0.  1.
</event>
<event>
 7    1  0.2932676E-013  0.7246161E+02  0.7816164E-02  0.1226708E+00
        -11   -1    0    0    0    0  0.00000000000E+00  0.00000000000E+00  0.45593999997E+02  0.45594000000E+02  0.51100000000E-03 0.  1.
         11   -1    0    0    0    0 -0.00000000000E+00 -0.00000000000E+00 -0.45593999997E+02  0.45594000000E+02  0.51100000000E-03 0. -1.
    9900012    2    1    2    0    0 -0.43141697356E+01 -0.17888305595E+01  0.18134652579E+02  0.72461612215E+02  0.70000054610E+02 0.  0.
         12    1    1    2    0    0  0.43141697356E+01  0.17888305595E+01 -0.18134652579E+02  0.18726387785E+02  0.00000000000E+00 0. -1.
         11    1    3    3    0    0 -0.22202380034E+02  0.46256411587E+01 -0.33620290961E+01  0.22926959572E+02  0.51100000000E-03 0. -1.
        -11    1    3    3    0    0 -0.11126829576E+02 -0.97819497082E+01  0.11165787614E+02  0.18551757054E+02  0.51100000000E-03 0.  1.
         12    1    3    3    0    0  0.29015039875E+02  0.33674779900E+01  0.10330894062E+02  0.30982895589E+02  0.00000000000E+00 0. -1.
</event>
<event>
 7    1  0.2932676E-013  0.7246167E+02  0.7816164E-02  0.1226708E+00
        -11   -1    0    0    0    0  0.00000000000E+00  0.00000000000E+00  0.45593999997E+02  0.45594000000E+02  0.51100000000E-03 0.  1.
         11   -1    0    0    0    0 -0.00000000000E+00 -0.00000000000E+00 -0.45593999997E+02  0.45594000000E+02  0.51100000000E-03 0. -1.
    9900012    2    1    2    0    0 -0.83288722120E+01 -0.16736521962E+02 -0.10927092836E+01  0.72461673791E+02  0.70000134824E+02 0.  0.
         12    1    1    2    0    0  0.83288722120E+01  0.16736521962E+02  0.10927092836E+01  0.18726326209E+02  0.00000000000E+00 0. -1.
         11    1    3    3    0    0  0.53650362692E+01 -0.12243103363E-01  0.33249502038E+01  0.63118189282E+01  0.51100000000E-03 0. -1.
        -11    1    3    3    0    0  0.93694941858E+01  0.17050296667E+02  0.11109502084E+02  0.22403595126E+02  0.51100000000E-03 0.  1.
         12    1    3    3    0    0 -0.23063402667E+02 -0.33774575526E+02 -0.15527161572E+02  0.43746259737E+02  0.00000000000E+00 0. -1.
</event>
<event>
 7    1  0.2932676E-013  0.7246172E+02  0.7816164E-02  0.1226708E+00
        -11   -1    0    0    0    0  0.00000000000E+00  0.00000000000E+00  0.45593999997E+02  0.45594000000E+02  0.51100000000E-03 0.  1.
         11   -1    0    0    0    0 -0.00000000000E+00 -0.00000000000E+00 -0.45593999997E+02  0.45594000000E+02  0.51100000000E-03 0. -1.
    9900012    2    1    2    0    0  0.35295925401E+01  0.56077613454E+01  0.17514807493E+02  0.72461721878E+02  0.70000197465E+02 0.  0.
         12    1    1    2    0    0 -0.35295925401E+01 -0.56077613454E+01 -0.17514807493E+02  0.18726278122E+02  0.00000000000E+00 0. -1.
         11    1    3    3    0    0  0.11746097722E+02  0.93449039983E+01 -0.12912315530E+02  0.19799644821E+02  0.51100000000E-03 0. -1.
        -11    1    3    3    0    0  0.10414951205E+01  0.18340416749E+02  0.86730964485E+01  0.20314482541E+02  0.51100000000E-03 0.  1.
        -12    1    3    3    0    0 -0.92580003028E+01 -0.22077559402E+02  0.21754026574E+02  0.32347594516E+02  0.00000000000E+00 0.  1.
</event>
<event>
 7    1  0.2932676E-013  0.7246169E+02  0.7816164E-02  0.1226708E+00
        -11   -1    0    0    0    0  0.00000000000E+00  0.00000000000E+00  0.45593999997E+02  0.45594000000E+02  0.51100000000E-03 0.  1.
         11   -1    0    0    0    0 -0.00000000000E+00 -0.00000000000E+00 -0.45593999997E+02  0.45594000000E+02  0.51100000000E-03 0. -1.
    9900012    2    1    2    0    0 -0.72194611339E+01  0.64954032889E+01 -0.16011366810E+02  0.72461688295E+02  0.70000153718E+02 0.  0.
         12    1    1    2    0    0  0.72194611339E+01 -0.64954032889E+01  0.16011366810E+02  0.18726311705E+02  0.00000000000E+00 0. -1.
         11    1    3    3    0    0 -0.32059777522E+02 -0.15062678307E+02 -0.11974113130E+01  0.35442169892E+02  0.51100000000E-03 0. -1.
        -11    1    3    3    0    0  0.33098921558E+00  0.29251174185E+01 -0.24937579905E+01  0.38580688109E+01  0.51100000000E-03 0.  1.
        -12    1    3    3    0    0  0.24509327172E+02  0.18632964178E+02 -0.12320197506E+02  0.33161449592E+02  0.00000000000E+00 0.  1.
</event>
<event>
 7    1  0.2932676E-013  0.7246154E+02  0.7816164E-02  0.1226708E+00
        -11   -1    0    0    0    0  0.00000000000E+00  0.00000000000E+00  0.45593999997E+02  0.45594000000E+02  0.51100000000E-03 0. -1.
         11   -1    0    0    0    0 -0.00000000000E+00 -0.00000000000E+00 -0.45593999997E+02  0.45594000000E+02  0.51100000000E-03 0.  1.
    9900012    2    1    2    0    0  0.11105633230E+02 -0.20811963179E+01 -0.14933650156E+02  0.72461538120E+02  0.69999958087E+02 0.  0.
         12    1    1    2    0    0 -0.11105633230E+02  0.20811963179E+01  0.14933650156E+02  0.18726461880E+02  0.00000000000E+00 0. -1.
         11    1    3    3    0    0  0.25707178088E+02  0.34426123957E+01 -0.54044090157E+01  0.26493739306E+02  0.51100000000E-03 0. -1.
        -11    1    3    3    0    0  0.72544072695E+01  0.11685866031E+02 -0.11710192535E+02  0.18064177236E+02  0.51100000000E-03 0.  1.
         12    1    3    3    0    0 -0.21855952127E+02 -0.17209674744E+02  0.21809513952E+01  0.27903621578E+02  0.00000000000E+00 0. -1.
</event>
<event>
 7    1  0.2932676E-013  0.7246156E+02  0.7816164E-02  0.1226708E+00
        -11   -1    0    0    0    0  0.00000000000E+00  0.00000000000E+00  0.45593999997E+02  0.45594000000E+02  0.51100000000E-03 0.  1.
         11   -1    0    0    0    0 -0.00000000000E+00 -0.00000000000E+00 -0.45593999997E+02  0.45594000000E+02  0.51100000000E-03 0. -1.
    9900012    2    1    2    0    0 -0.45638297861E+01 -0.17339429019E+02  0.54032462406E+01  0.72461563848E+02  0.69999991602E+02 0.  0.
         12    1    1    2    0    0  0.45638297861E+01  0.17339429019E+02 -0.54032462406E+01  0.18726436152E+02  0.00000000000E+00 0. -1.
         11    1    3    3    0    0  0.66536194318E+01  0.21475462811E+02  0.29826979032E+01  0.22679564403E+02  0.51100000000E-03 0. -1.
        -11    1    3    3    0    0  0.91105011202E+01 -0.12356268143E+02  0.54224293171E+01  0.16281318529E+02  0.51100000000E-03 0.  1.
        -12    1    3    3    0    0 -0.20327950338E+02 -0.26458623687E+02 -0.30018809797E+01  0.33500680915E+02  0.00000000000E+00 0.  1.
</event>
<event>
 7    1  0.2932676E-013  0.7246157E+02  0.7816164E-02  0.1226708E+00
        -11   -1    0    0    0    0  0.00000000000E+00  0.00000000000E+00  0.45593999997E+02  0.45594000000E+02  0.51100000000E-03 0. -1.
         11   -1    0    0    0    0 -0.00000000000E+00 -0.00000000000E+00 -0.45593999997E+02  0.45594000000E+02  0.51100000000E-03 0.  1.
    9900012    2    1    2    0    0 -0.20961000408E+01  0.57811060175E+01 -0.17687973825E+02  0.72461568407E+02  0.69999997541E+02 0.  0.
         12    1    1    2    0    0  0.20961000408E+01 -0.57811060175E+01  0.17687973825E+02  0.18726431593E+02  0.00000000000E+00 0. -1.
         11    1    3    3    0    0 -0.28268503928E+01  0.79008455014E+01  0.21932912849E+02  0.23483336839E+02  0.51100000000E-03 0. -1.
        -11    1    3    3    0    0  0.58276193384E+01  0.13337402722E+01  0.24488323509E+01  0.64604017221E+01  0.51100000000E-03 0.  1.
        -12    1    3    3    0    0 -0.50968689864E+01 -0.34534797562E+01 -0.42069719026E+02  0.42517829846E+02  0.00000000000E+00 0.  1.
</event>
<event>
 7    1  0.2932676E-013  0.7246151E+02  0.7816164E-02  0.1226708E+00
        -11   -1    0    0    0    0  0.00000000000E+00  0.00000000000E+00  0.45593999997E+02  0.45594000000E+02  0.51100000000E-03 0.  1.
         11   -1    0    0    0    0 -0.00000000000E+00 -0.00000000000E+00 -0.45593999997E+02  0.45594000000E+02  0.51100000000E-03 0. -1.
    9900012    2    1    2    0    0  0.16590935286E+02  0.86714548861E+01  0.47749292692E+00  0.72461514398E+02  0.69999927185E+02 0.  0.
         12    1    1    2    0    0 -0.16590935286E+02 -0.86714548861E+01 -0.47749292692E+00  0.18726485602E+02  0.00000000000E+00 0. -1.
         11    1    3    3    0    0  0.67546140548E+01  0.89314255435E+00 -0.14867288099E+02  0.16354166758E+02  0.51100000000E-03 0. -1.
        -11    1    3    3    0    0  0.17740859631E+02  0.23021357584E+02 -0.49936815574E+01  0.29489962042E+02  0.51100000000E-03 0.  1.
         12    1    3    3    0    0 -0.79045383996E+01 -0.15243045252E+02  0.20338462583E+02  0.26617385599E+02  0.00000000000E+00 0. -1.
</event>
<event>
 7    1  0.2932676E-013  0.7246158E+02  0.7816164E-02  0.1226708E+00
        -11   -1    0    0    0    0  0.00000000000E+00  0.00000000000E+00  0.45593999997E+02  0.45594000000E+02  0.51100000000E-03 0.  1.
         11   -1    0    0    0    0 -0.00000000000E+00 -0.00000000000E+00 -0.45593999997E+02  0.45594000000E+02  0.51100000000E-03 0. -1.
    9900012    2    1    2    0    0 -0.54780609958E+01  0.85898941985E+01  0.15712518055E+02  0.72461583946E+02  0.70000017784E+02 0.  0.
         12    1    1    2    0    0  0.54780609958E+01 -0.85898941985E+01 -0.15712518055E+02  0.18726416054E+02  0.00000000000E+00 0. -1.
         11    1    3    3    0    0 -0.18542250981E+02 -0.90918703151E+01 -0.17848051130E+02  0.27295239634E+02  0.51100000000E-03 0. -1.
        -11    1    3    3    0    0 -0.92685398874E+00 -0.35720285622E+01  0.96412205961E+00  0.38141811667E+01  0.51100000000E-03 0.  1.
        -12    1    3    3    0    0  0.13991043974E+02  0.21253793076E+02  0.32596447125E+02  0.41352163145E+02  0.00000000000E+00 0.  1.
</event>
<event>
 7    1  0.2932676E-013  0.7246173E+02  0.7816164E-02  0.1226708E+00
        -11   -1    0    0    0    0  0.00000000000E+00  0.00000000000E+00  0.45593999997E+02  0.45594000000E+02  0.51100000000E-03 0.  1.
         11   -1    0    0    0    0 -0.00000000000E+00 -0.00000000000E+00 -0.45593999997E+02  0.45594000000E+02  0.51100000000E-03 0. -1.
    9900012    2    1    2    0    0  0.72861742362E+01 -0.49129379295E+01  0.16536257801E+02  0.72461731921E+02  0.70000210548E+02 0.  0.
         12    1    1    2    0    0 -0.72861742362E+01  0.49129379295E+01 -0.16536257801E+02  0.18726268079E+02  0.00000000000E+00 0. -1.
         11    1    3    3    0    0 -0.12101828423E+02  0.88528028472E+01 -0.85389656590E+01  0.17255152976E+02  0.51100000000E-03 0. -1.
        -11    1    3    3    0    0 -0.66888229707E-01 -0.72221844121E+01 -0.11316788541E+02  0.13425130348E+02  0.51100000000E-03 0.  1.
        -12    1    3    3    0    0  0.19454890889E+02 -0.65435563646E+01  0.36392012001E+02  0.41781448597E+02  0.00000000000E+00 0.  1.
</event>
<event>
 7    1  0.2932676E-013  0.7246150E+02  0.7816164E-02  0.1226708E+00
        -11   -1    0    0    0    0  0.00000000000E+00  0.00000000000E+00  0.45593999997E+02  0.45594000000E+02  0.51100000000E-03 0.  1.
         11   -1    0    0    0    0 -0.00000000000E+00 -0.00000000000E+00 -0.45593999997E+02  0.45594000000E+02  0.51100000000E-03 0. -1.
    9900012    2    1    2    0    0  0.14790731283E+02 -0.11232255054E+02  0.23984616125E+01  0.72461497294E+02  0.69999904903E+02 0.  0.
         12    1    1    2    0    0 -0.14790731283E+02  0.11232255054E+02 -0.23984616125E+01  0.18726502706E+02  0.00000000000E+00 0. -1.
         11    1    3    3    0    0  0.21617591051E+02 -0.71891492776E+01 -0.16071234400E+02  0.27879897518E+02  0.51100000000E-03 0.  1.
        -11    1    3    3    0    0 -0.61554488650E+01  0.40292590710E+01 -0.11436149387E+02  0.13598161363E+02  0.51100000000E-03 0. -1.
        -12    1    3    3    0    0 -0.67141090320E+00 -0.80723648478E+01  0.29905845400E+02  0.30983438413E+02  0.00000000000E+00 0.  1.
</event>
<event>
 7    1  0.2932676E-013  0.7246155E+02  0.7816164E-02  0.1226708E+00
        -11   -1    0    0    0    0  0.00000000000E+00  0.00000000000E+00  0.45593999997E+02  0.45594000000E+02  0.51100000000E-03 0.  1.
         11   -1    0    0    0    0 -0.00000000000E+00 -0.00000000000E+00 -0.45593999997E+02  0.45594000000E+02  0.51100000000E-03 0. -1.
    9900012    2    1    2    0    0 -0.16700392749E+01 -0.14705186248E+02  0.11473808728E+02  0.72461552913E+02  0.69999977358E+02 0.  0.
         12    1    1    2    0    0  0.16700392749E+01  0.14705186248E+02 -0.11473808728E+02  0.18726447087E+02  0.00000000000E+00 0. -1.
         11    1    3    3    0    0  0.21793593954E+02 -0.14699183739E+02 -0.29777169340E+01  0.26455501100E+02  0.51100000000E-03 0. -1.
        -11    1    3    3    0    0 -0.18602949177E+02 -0.16745996380E+02  0.13755710019E+02  0.28560771545E+02  0.51100000000E-03 0.  1.
         12    1    3    3    0    0 -0.48606840518E+01  0.16739993871E+02  0.69581564328E+00  0.17445280269E+02  0.00000000000E+00 0. -1.
</event>
<event>
 7    1  0.2932676E-013  0.7246157E+02  0.7816164E-02  0.1226708E+00
        -11   -1    0    0    0    0  0.00000000000E+00  0.00000000000E+00  0.45593999997E+02  0.45594000000E+02  0.51100000000E-03 0.  1.
         11   -1    0    0    0    0 -0.00000000000E+00 -0.00000000000E+00 -0.45593999997E+02  0.45594000000E+02  0.51100000000E-03 0. -1.
    9900012    2    1    2    0    0 -0.12804267979E+02 -0.81332059454E+01  0.10980933650E+02  0.72461568913E+02  0.69999998201E+02 0.  0.
         12    1    1    2    0    0  0.12804267979E+02  0.81332059454E+01 -0.10980933650E+02  0.18726431087E+02  0.00000000000E+00 0. -1.
         11    1    3    3    0    0 -0.70424965132E+01 -0.84752890173E+01 -0.22673726174E+01  0.11250255993E+02  0.51100000000E-03 0. -1.
        -11    1    3    3    0    0  0.22869663374E+02 -0.14917241561E+02  0.66616457663E+01  0.28105571035E+02  0.51100000000E-03 0.  1.
         12    1    3    3    0    0 -0.28631434840E+02  0.15259324633E+02  0.65866605007E+01  0.33105741885E+02  0.00000000000E+00 0. -1.
</event>
<event>
 7    1  0.2932676E-013  0.7246153E+02  0.7816164E-02  0.1226708E+00
        -11   -1    0    0    0    0  0.00000000000E+00  0.00000000000E+00  0.45593999997E+02  0.45594000000E+02  0.51100000000E-03 0.  1.
         11   -1    0    0    0    0 -0.00000000000E+00 -0.00000000000E+00 -0.45593999997E+02  0.45594000000E+02  0.51100000000E-03 0. -1.
    9900012    2    1    2    0    0  0.17582885833E+02  0.18413297289E+00  0.64411817229E+01  0.72461532070E+02  0.69999950205E+02 0.  0.
         12    1    1    2    0    0 -0.17582885833E+02 -0.18413297289E+00 -0.64411817229E+01  0.18726467930E+02  0.00000000000E+00 0. -1.
         11    1    3    3    0    0 -0.34913479922E+01 -0.23122863583E+01 -0.18954706544E+02  0.19411776824E+02  0.51100000000E-03 0. -1.
        -11    1    3    3    0    0  0.13134436028E+02 -0.16171139032E+02  0.37232502386E+00  0.20836452998E+02  0.51100000000E-03 0.  1.
        -12    1    3    3    0    0  0.79397977970E+01  0.18667558363E+02  0.25023563243E+02  0.32213302248E+02  0.00000000000E+00 0.  1.
</event>
<event>
 7    1  0.2932676E-013  0.7246160E+02  0.7816164E-02  0.1226708E+00
        -11   -1    0    0    0    0  0.00000000000E+00  0.00000000000E+00  0.45593999997E+02  0.45594000000E+02  0.51100000000E-03 0. -1.
         11   -1    0    0    0    0 -0.00000000000E+00 -0.00000000000E+00 -0.45593999997E+02  0.45594000000E+02  0.51100000000E-03 0.  1.
    9900012    2    1    2    0    0  0.13858568090E+02  0.94206916408E+01 -0.83587539249E+01  0.72461598646E+02  0.70000036934E+02 0.  0.
         12    1    1    2    0    0 -0.13858568090E+02 -0.94206916408E+01  0.83587539249E+01  0.18726401354E+02  0.00000000000E+00 0. -1.
         11    1    3    3    0    0 -0.71453743279E-01  0.21947953962E+01  0.11009198743E+02  0.11226071873E+02  0.51100000000E-03 0. -1.
        -11    1    3    3    0    0 -0.10902735515E+01  0.18549521505E+02  0.13772289583E+02  0.23128973283E+02  0.51100000000E-03 0.  1.
         12    1    3    3    0    0  0.15020295384E+02 -0.11323625260E+02 -0.33140242251E+02  0.38106553491E+02  0.00000000000E+00 0. -1.
</event>
<event>
 7    1  0.2932676E-013  0.7246160E+02  0.7816164E-02  0.1226708E+00
        -11   -1    0    0    0    0  0.00000000000E+00  0.00000000000E+00  0.45593999997E+02  0.45594000000E+02  0.51100000000E-03 0.  1.
         11   -1    0    0    0    0 -0.00000000000E+00 -0.00000000000E+00 -0.45593999997E+02  0.45594000000E+02  0.51100000000E-03 0. -1.
    9900012    2    1    2    0    0 -0.20528684170E+01  0.13001549589E+02  0.13320037062E+02  0.72461602915E+02  0.70000042494E+02 0.  0.
         12    1    1    2    0    0  0.20528684170E+01 -0.13001549589E+02 -0.13320037062E+02  0.18726397085E+02  0.00000000000E+00 0. -1.
         11    1    3    3    0    0  0.10154343568E+02  0.67669542758E+01 -0.18720192318E+02  0.22346095054E+02  0.51100000000E-03 0. -1.
        -11    1    3    3    0    0 -0.35377761202E+01  0.13997832746E+02 -0.15932797215E+01  0.14525622947E+02  0.51100000000E-03 0.  1.
        -12    1    3    3    0    0 -0.86694358648E+01 -0.77632374327E+01  0.33633509102E+02  0.35589884914E+02  0.00000000000E+00 0.  1.
</event>
<event>
 7    1  0.2932676E-013  0.7246160E+02  0.7816164E-02  0.1226708E+00
        -11   -1    0    0    0    0  0.00000000000E+00  0.00000000000E+00  0.45593999997E+02  0.45594000000E+02  0.51100000000E-03 0. -1.
         11   -1    0    0    0    0 -0.00000000000E+00 -0.00000000000E+00 -0.45593999997E+02  0.45594000000E+02  0.51100000000E-03 0.  1.
    9900012    2    1    2    0    0 -0.92159566485E+01  0.14319483556E+02 -0.77908056608E+01  0.72461598340E+02  0.70000036535E+02 0.  0.
         12    1    1    2    0    0  0.92159566485E+01 -0.14319483556E+02  0.77908056608E+01  0.18726401660E+02  0.00000000000E+00 0. -1.
         11    1    3    3    0    0 -0.28291313254E+02  0.25289810034E+02  0.95277501681E+01  0.39124812086E+02  0.51100000000E-03 0. -1.
        -11    1    3    3    0    0  0.86062845950E+01 -0.49889367780E+01  0.23915911958E+01  0.10231194134E+02  0.51100000000E-03 0.  1.
        -12    1    3    3    0    0  0.10469072011E+02 -0.59813896998E+01 -0.19710147025E+02  0.23105592121E+02  0.00000000000E+00 0.  1.
</event>
<event>
 7    1  0.2932676E-013  0.7246156E+02  0.7816164E-02  0.1226708E+00
        -11   -1    0    0    0    0  0.00000000000E+00  0.00000000000E+00  0.45593999997E+02  0.45594000000E+02  0.51100000000E-03 0.  1.
         11   -1    0    0    0    0 -0.00000000000E+00 -0.00000000000E+00 -0.45593999997E+02  0.45594000000E+02  0.51100000000E-03 0. -1.
    9900012    2    1    2    0    0  0.14686186543E+02 -0.99917678736E+01  0.59295983315E+01  0.72461557818E+02  0.69999983747E+02 0.  0.
         12    1    1    2    0    0 -0.14686186543E+02  0.99917678736E+01 -0.59295983315E+01  0.18726442182E+02  0.00000000000E+00 0. -1.
         11    1    3    3    0    0 -0.32520266200E+01 -0.69434667312E+01 -0.21981967024E+02  0.23280770646E+02  0.51100000000E-03 0. -1.
        -11    1    3    3    0    0  0.97686511333E+01  0.15831955899E+02  0.70838661420E+01  0.19906243551E+02  0.51100000000E-03 0.  1.
         12    1    3    3    0    0  0.81695620298E+01 -0.18880257041E+02  0.20827699213E+02  0.29274543621E+02  0.00000000000E+00 0. -1.
</event>
<event>
 7    1  0.2932676E-013  0.7246157E+02  0.7816164E-02  0.1226708E+00
        -11   -1    0    0    0    0  0.00000000000E+00  0.00000000000E+00  0.45593999997E+02  0.45594000000E+02  0.51100000000E-03 0. -1.
         11   -1    0    0    0    0 -0.00000000000E+00 -0.00000000000E+00 -0.45593999997E+02  0.45594000000E+02  0.51100000000E-03 0.  1.
    9900012    2    1    2    0    0  0.62548568501E+00 -0.75101651423E+01 -0.17143080171E+02  0.72461574539E+02  0.70000005529E+02 0.  0.
         12    1    1    2    0    0 -0.62548568501E+00  0.75101651423E+01  0.17143080171E+02  0.18726425461E+02  0.00000000000E+00 0. -1.
         11    1    3    3    0    0  0.11614530230E+01 -0.36002571301E+01  0.93555141489E+01  0.10091405738E+02  0.51100000000E-03 0. -1.
        -11    1    3    3    0    0  0.61678015357E+01 -0.21450766108E+02  0.74867091976E+01  0.23542046582E+02  0.51100000000E-03 0.  1.
        -12    1    3    3    0    0 -0.67037688736E+01  0.17540858096E+02 -0.33985303517E+02  0.38828122218E+02  0.00000000000E+00 0.  1.
</event>
<event>
 7    1  0.2932676E-013  0.7246160E+02  0.7816164E-02  0.1226708E+00
        -11   -1    0    0    0    0  0.00000000000E+00  0.00000000000E+00  0.45593999997E+02  0.45594000000E+02  0.51100000000E-03 0. -1.
         11   -1    0    0    0    0 -0.00000000000E+00 -0.00000000000E+00 -0.45593999997E+02  0.45594000000E+02  0.51100000000E-03 0.  1.
    9900012    2    1    2    0    0 -0.59547911334E+01 -0.16655993104E+02 -0.61478860814E+01  0.72461597596E+02  0.70000035566E+02 0.  0.
         12    1    1    2    0    0  0.59547911334E+01  0.16655993104E+02  0.61478860814E+01  0.18726402404E+02  0.00000000000E+00 0. -1.
         11    1    3    3    0    0 -0.18754216589E+01  0.19605142592E+02 -0.53295545590E+00  0.19701849259E+02  0.51100000000E-03 0. -1.
        -11    1    3    3    0    0 -0.60638222120E+01  0.28750831085E+01 -0.11320403747E+02  0.13160075378E+02  0.51100000000E-03 0.  1.
        -12    1    3    3    0    0  0.19844527376E+01 -0.39136218804E+02  0.57054731211E+01  0.39599672960E+02  0.00000000000E+00 0.  1.
</event>
<event>
 7    1  0.2932676E-013  0.7246157E+02  0.7816164E-02  0.1226708E+00
        -11   -1    0    0    0    0  0.00000000000E+00  0.00000000000E+00  0.45593999997E+02  0.45594000000E+02  0.51100000000E-03 0. -1.
         11   -1    0    0    0    0 -0.00000000000E+00 -0.00000000000E+00 -0.45593999997E+02  0.45594000000E+02  0.51100000000E-03 0.  1.
    9900012    2    1    2    0    0  0.59486857260E+01 -0.13329669581E+01 -0.17706368173E+02  0.72461571172E+02  0.70000001143E+02 0.  0.
         12    1    1    2    0    0 -0.59486857260E+01  0.13329669581E+01  0.17706368173E+02  0.18726428828E+02  0.00000000000E+00 0. -1.
         11    1    3    3    0    0 -0.15738407971E+01  0.62712083246E+01  0.13596441919E+02  0.15055506030E+02  0.51100000000E-03 0. -1.
        -11    1    3    3    0    0  0.10633384943E+02  0.16365270281E+02 -0.26254940850E+02  0.32714108058E+02  0.51100000000E-03 0.  1.
         12    1    3    3    0    0 -0.31108584202E+01 -0.23969445564E+02 -0.50478692419E+01  0.24691957084E+02  0.00000000000E+00 0. -1.
</event>
<event>
 7    1  0.2932676E-013  0.7246158E+02  0.7816164E-02  0.1226708E+00
        -11   -1    0    0    0    0  0.00000000000E+00  0.00000000000E+00  0.45593999997E+02  0.45594000000E+02  0.51100000000E-03 0.  1.
         11   -1    0    0    0    0 -0.00000000000E+00 -0.00000000000E+00 -0.45593999997E+02  0.45594000000E+02  0.51100000000E-03 0. -1.
    9900012    2    1    2    0    0  0.36225783580E+01  0.73738083338E+01  0.16828037736E+02  0.72461575425E+02  0.70000006684E+02 0.  0.
         12    1    1    2    0    0 -0.36225783580E+01 -0.73738083338E+01 -0.16828037736E+02  0.18726424575E+02  0.00000000000E+00 0. -1.
         11    1    3    3    0    0  0.63686942461E+01 -0.18431832990E+01  0.39609629317E+01  0.77231352883E+01  0.51100000000E-03 0. -1.
        -11    1    3    3    0    0 -0.24242690150E+02  0.24859929996E+02  0.15493330993E+02  0.38023248818E+02  0.51100000000E-03 0.  1.
         12    1    3    3    0    0  0.21496574262E+02 -0.15642938363E+02 -0.26262561885E+01  0.26715191319E+02  0.00000000000E+00 0. -1.
</event>
<event>
 7    1  0.2932676E-013  0.7246140E+02  0.7816164E-02  0.1226708E+00
        -11   -1    0    0    0    0  0.00000000000E+00  0.00000000000E+00  0.45593999997E+02  0.45594000000E+02  0.51100000000E-03 0.  1.
         11   -1    0    0    0    0 -0.00000000000E+00 -0.00000000000E+00 -0.45593999997E+02  0.45594000000E+02  0.51100000000E-03 0. -1.
    9900012    2    1    2    0    0 -0.10277284182E+02 -0.39282232383E+01  0.15153615462E+02  0.72461399413E+02  0.69999777395E+02 0.  0.
         12    1    1    2    0    0  0.10277284182E+02  0.39282232383E+01 -0.15153615462E+02  0.18726600587E+02  0.00000000000E+00 0. -1.
         11    1    3    3    0    0  0.19062556214E+02  0.24254953292E+01  0.11925184551E+02  0.22615793240E+02  0.51100000000E-03 0. -1.
        -11    1    3    3    0    0  0.87289211270E+01 -0.68434065729E+00  0.69482300397E+01  0.11177669127E+02  0.51100000000E-03 0.  1.
        -12    1    3    3    0    0 -0.38068761523E+02 -0.56693779102E+01 -0.37197991289E+01  0.38667937046E+02  0.00000000000E+00 0.  1.
</event>
<event>
 7    1  0.2932676E-013  0.7246141E+02  0.7816164E-02  0.1226708E+00
        -11   -1    0    0    0    0  0.00000000000E+00  0.00000000000E+00  0.45593999997E+02  0.45594000000E+02  0.51100000000E-03 0.  1.
         11   -1    0    0    0    0 -0.00000000000E+00 -0.00000000000E+00 -0.45593999997E+02  0.45594000000E+02  0.51100000000E-03 0. -1.
    9900012    2    1    2    0    0  0.13875454299E+02 -0.23501375950E+01  0.12354502581E+02  0.72461411610E+02  0.69999793284E+02 0.  0.
         12    1    1    2    0    0 -0.13875454299E+02  0.23501375950E+01 -0.12354502581E+02  0.18726588390E+02  0.00000000000E+00 0. -1.
         11    1    3    3    0    0  0.10235131876E+02  0.11349196722E+02 -0.92409064732E+01  0.17859354509E+02  0.51100000000E-03 0. -1.
        -11    1    3    3    0    0 -0.13464306451E+02  0.79453222392E+01 -0.48680080165E+01  0.16374162452E+02  0.51100000000E-03 0.  1.
        -12    1    3    3    0    0  0.17104628873E+02 -0.21644656556E+02  0.26463417070E+02  0.38227894650E+02  0.00000000000E+00 0.  1.
</event>
<event>
 7    1  0.2932676E-013  0.7246183E+02  0.7816164E-02  0.1226707E+00
        -11   -1    0    0    0    0  0.00000000000E+00  0.00000000000E+00  0.45593999997E+02  0.45594000000E+02  0.51100000000E-03 0.  1.
         11   -1    0    0    0    0 -0.00000000000E+00 -0.00000000000E+00 -0.45593999997E+02  0.45594000000E+02  0.51100000000E-03 0. -1.
    9900012    2    1    2    0    0  0.10512060099E+02 -0.11856051066E+02 -0.99799795974E+01  0.72461832556E+02  0.70000341643E+02 0.  0.
         12    1    1    2    0    0 -0.10512060099E+02  0.11856051066E+02  0.99799795974E+01  0.18726167444E+02  0.00000000000E+00 0. -1.
         11    1    3    3    0    0 -0.92466438017E+01  0.21274515686E+02 -0.14469880481E+02  0.27340133150E+02  0.51100000000E-03 0. -1.
        -11    1    3    3    0    0  0.91584501579E+00  0.25263935414E+01  0.39636369007E+01  0.47887215580E+01  0.51100000000E-03 0.  1.
         12    1    3    3    0    0  0.18842858885E+02 -0.35656960293E+02  0.52626398291E+00  0.40332977848E+02  0.00000000000E+00 0. -1.
</event>
<event>
 7    1  0.2932676E-013  0.7246081E+02  0.7816164E-02  0.1226710E+00
        -11   -1    0    0    0    0  0.00000000000E+00  0.00000000000E+00  0.45593999997E+02  0.45594000000E+02  0.51100000000E-03 0.  1.
         11   -1    0    0    0    0 -0.00000000000E+00 -0.00000000000E+00 -0.45593999997E+02  0.45594000000E+02  0.51100000000E-03 0. -1.
    9900012    2    1    2    0    0  0.68133238352E+01 -0.17361361248E+02  0.16938961618E+01  0.72460813071E+02  0.69999013569E+02 0.  0.
         12    1    1    2    0    0 -0.68133238352E+01  0.17361361248E+02 -0.16938961618E+01  0.18727186929E+02  0.00000000000E+00 0. -1.
         11    1    3    3    0    0  0.33608769409E+01 -0.84208557526E+01 -0.44004751813E+01  0.10078218469E+02  0.51100000000E-03 0. -1.
        -11    1    3    3    0    0 -0.37104626479E+01 -0.25078809045E+02  0.25630083092E+02  0.36050178304E+02  0.51100000000E-03 0.  1.
         12    1    3    3    0    0  0.71629095422E+01  0.16138303549E+02 -0.19535711749E+02  0.26332416298E+02  0.00000000000E+00 0. -1.
</event>
<event>
 7    1  0.2932676E-013  0.7246195E+02  0.7816164E-02  0.1226707E+00
        -11   -1    0    0    0    0  0.00000000000E+00  0.00000000000E+00  0.45593999997E+02  0.45594000000E+02  0.51100000000E-03 0.  1.
         11   -1    0    0    0    0 -0.00000000000E+00 -0.00000000000E+00 -0.45593999997E+02  0.45594000000E+02  0.51100000000E-03 0. -1.
    9900012    2    1    2    0    0  0.61247391182E+01 -0.15492926915E+02 -0.85511288721E+01  0.72461948130E+02  0.70000492200E+02 0.  0.
         12    1    1    2    0    0 -0.61247391182E+01  0.15492926915E+02  0.85511288721E+01  0.18726051870E+02  0.00000000000E+00 0. -1.
         11    1    3    3    0    0  0.12111109476E+02  0.18804179074E+02  0.78849264177E+01  0.23715990139E+02  0.51100000000E-03 0. -1.
        -11    1    3    3    0    0  0.24229870737E+01  0.41437968314E+00  0.60575721014E+01  0.65373356122E+01  0.51100000000E-03 0.  1.
         12    1    3    3    0    0 -0.84093574312E+01 -0.34711485672E+02 -0.22493627391E+02  0.42208622379E+02  0.00000000000E+00 0. -1.
</event>
<event>
 7    1  0.2932676E-013  0.7246156E+02  0.7816164E-02  0.1226708E+00
        -11   -1    0    0    0    0  0.00000000000E+00  0.00000000000E+00  0.45593999997E+02  0.45594000000E+02  0.51100000000E-03 0.  1.
         11   -1    0    0    0    0 -0.00000000000E+00 -0.00000000000E+00 -0.45593999997E+02  0.45594000000E+02  0.51100000000E-03 0. -1.
    9900012    2    1    2    0    0 -0.34315311490E+01 -0.15067226282E+02  0.10577469889E+02  0.72461559252E+02  0.69999985615E+02 0.  0.
         12    1    1    2    0    0  0.34315311490E+01  0.15067226282E+02 -0.10577469889E+02  0.18726440748E+02  0.00000000000E+00 0. -1.
         11    1    3    3    0    0  0.95003421720E+01  0.11687178048E+02 -0.12049005272E+02  0.19287953764E+02  0.51100000000E-03 0. -1.
        -11    1    3    3    0    0  0.95476965596E+01  0.29923265246E+01  0.90563630081E+01  0.13495563672E+02  0.51100000000E-03 0.  1.
         12    1    3    3    0    0 -0.22479569881E+02 -0.29746730854E+02  0.13570112153E+02  0.39678041816E+02  0.00000000000E+00 0. -1.
</event>
<event>
 7    1  0.2932676E-013  0.7246160E+02  0.7816164E-02  0.1226708E+00
        -11   -1    0    0    0    0  0.00000000000E+00  0.00000000000E+00  0.45593999997E+02  0.45594000000E+02  0.51100000000E-03 0. -1.
         11   -1    0    0    0    0 -0.00000000000E+00 -0.00000000000E+00 -0.45593999997E+02  0.45594000000E+02  0.51100000000E-03 0.  1.
    9900012    2    1    2    0    0  0.15094383242E+02 -0.79547832372E+00 -0.11054635411E+02  0.72461597375E+02  0.70000035277E+02 0.  0.
         12    1    1    2    0    0 -0.15094383242E+02  0.79547832372E+00  0.11054635411E+02  0.18726402625E+02  0.00000000000E+00 0. -1.
         11    1    3    3    0    0 -0.12133522541E+02  0.14167368781E+02 -0.13732010843E+02  0.23162573896E+02  0.51100000000E-03 0. -1.
        -11    1    3    3    0    0 -0.11096581880E+01 -0.21711826818E+01 -0.13867364951E+02  0.14080098951E+02  0.51100000000E-03 0.  1.
        -12    1    3    3    0    0  0.28337563971E+02 -0.12791664423E+02  0.16544740383E+02  0.35218924527E+02  0.00000000000E+00 0.  1.
</event>
<event>
 7    1  0.2932676E-013  0.7246158E+02  0.7816164E-02  0.1226708E+00
        -11   -1    0    0    0    0  0.00000000000E+00  0.00000000000E+00  0.45593999997E+02  0.45594000000E+02  0.51100000000E-03 0.  1.
         11   -1    0    0    0    0 -0.00000000000E+00 -0.00000000000E+00 -0.45593999997E+02  0.45594000000E+02  0.51100000000E-03 0. -1.
    9900012    2    1    2    0    0 -0.24338344784E+01 -0.17848382153E+02  0.51176565093E+01  0.72461582727E+02  0.70000016196E+02 0.  0.
         12    1    1    2    0    0  0.24338344784E+01  0.17848382153E+02 -0.51176565093E+01  0.18726417273E+02  0.00000000000E+00 0. -1.
         11    1    3    3    0    0  0.10138383352E+02 -0.27320264179E+02  0.11595710202E+02  0.31363101683E+02  0.51100000000E-03 0. -1.
        -11    1    3    3    0    0  0.33768293848E+01  0.16402139941E+01  0.13704293182E+02  0.14209184724E+02  0.51100000000E-03 0.  1.
         12    1    3    3    0    0 -0.15949047215E+02  0.78316680322E+01 -0.20182346874E+02  0.26889296320E+02  0.00000000000E+00 0. -1.
</event>
<event>
 7    1  0.2932676E-013  0.7246158E+02  0.7816164E-02  0.1226708E+00
        -11   -1    0    0    0    0  0.00000000000E+00  0.00000000000E+00  0.45593999997E+02  0.45594000000E+02  0.51100000000E-03 0. -1.
         11   -1    0    0    0    0 -0.00000000000E+00 -0.00000000000E+00 -0.45593999997E+02  0.45594000000E+02  0.51100000000E-03 0.  1.
    9900012    2    1    2    0    0 -0.16665518712E+02 -0.30146909112E+01 -0.79906705464E+01  0.72461583071E+02  0.70000016643E+02 0.  0.
         12    1    1    2    0    0  0.16665518712E+02  0.30146909112E+01  0.79906705464E+01  0.18726416929E+02  0.00000000000E+00 0. -1.
         11    1    3    3    0    0 -0.11524988018E+02  0.20706799581E+02  0.14564321681E+02  0.27815757476E+02  0.51100000000E-03 0. -1.
        -11    1    3    3    0    0 -0.13198963920E+02 -0.52357660244E+01  0.25249558114E+00  0.14201748086E+02  0.51100000000E-03 0.  1.
        -12    1    3    3    0    0  0.80584332260E+01 -0.18485724467E+02 -0.22807487809E+02  0.30444077508E+02  0.00000000000E+00 0.  1.
</event>
<event>
 7    1  0.2932676E-013  0.7246153E+02  0.7816164E-02  0.1226708E+00
        -11   -1    0    0    0    0  0.00000000000E+00  0.00000000000E+00  0.45593999997E+02  0.45594000000E+02  0.51100000000E-03 0. -1.
         11   -1    0    0    0    0 -0.00000000000E+00 -0.00000000000E+00 -0.45593999997E+02  0.45594000000E+02  0.51100000000E-03 0.  1.
    9900012    2    1    2    0    0 -0.17368970316E+02  0.56797848299E+01 -0.40914119470E+01  0.72461528435E+02  0.69999945471E+02 0.  0.
         12    1    1    2    0    0  0.17368970316E+02 -0.56797848299E+01  0.40914119470E+01  0.18726471565E+02  0.00000000000E+00 0. -1.
         11    1    3    3    0    0 -0.95801139175E+01  0.18177568627E+00  0.50890390415E+01  0.10849421353E+02  0.51100000000E-03 0. -1.
        -11    1    3    3    0    0 -0.56773338985E+01  0.11426795152E+02 -0.33838176359E+02  0.36163876274E+02  0.51100000000E-03 0.  1.
         12    1    3    3    0    0 -0.21115224998E+01 -0.59287860084E+01  0.24657725370E+02  0.25448230808E+02  0.00000000000E+00 0. -1.
</event>
<event>
 7    1  0.2932676E-013  0.7246160E+02  0.7816164E-02  0.1226708E+00
        -11   -1    0    0    0    0  0.00000000000E+00  0.00000000000E+00  0.45593999997E+02  0.45594000000E+02  0.51100000000E-03 0.  1.
         11   -1    0    0    0    0 -0.00000000000E+00 -0.00000000000E+00 -0.45593999997E+02  0.45594000000E+02  0.51100000000E-03 0. -1.
    9900012    2    1    2    0    0 -0.12559791962E+02  0.54667218590E+01 -0.12768892953E+02  0.72461600205E+02  0.70000038965E+02 0.  0.
         12    1    1    2    0    0  0.12559791962E+02 -0.54667218590E+01  0.12768892953E+02  0.18726399795E+02  0.00000000000E+00 0. -1.
         11    1    3    3    0    0  0.12084087211E+02 -0.13052025150E+02  0.60852606949E+01  0.18799226639E+02  0.51100000000E-03 0. -1.
        -11    1    3    3    0    0  0.56745078522E+01 -0.79360454202E+01 -0.58503424411E+01  0.11375735722E+02  0.51100000000E-03 0.  1.
        -12    1    3    3    0    0 -0.30318387025E+02  0.26454792430E+02 -0.13003811207E+02  0.42286637845E+02  0.00000000000E+00 0.  1.
</event>
<event>
 7    1  0.2932676E-013  0.7246169E+02  0.7816164E-02  0.1226708E+00
        -11   -1    0    0    0    0  0.00000000000E+00  0.00000000000E+00  0.45593999997E+02  0.45594000000E+02  0.51100000000E-03 0.  1.
         11   -1    0    0    0    0 -0.00000000000E+00 -0.00000000000E+00 -0.45593999997E+02  0.45594000000E+02  0.51100000000E-03 0. -1.
    9900012    2    1    2    0    0  0.10456265755E+02 -0.42088638072E+01  0.14954156792E+02  0.72461686069E+02  0.70000150818E+02 0.  0.
         12    1    1    2    0    0 -0.10456265755E+02  0.42088638072E+01 -0.14954156792E+02  0.18726313931E+02  0.00000000000E+00 0. -1.
         11    1    3    3    0    0  0.53962146814E+01  0.55755291119E+01 -0.11870173802E+02  0.14181208839E+02  0.51100000000E-03 0. -1.
        -11    1    3    3    0    0 -0.16420059622E+02  0.10162081630E+02  0.12018878368E+01  0.19347630234E+02  0.51100000000E-03 0.  1.
         12    1    3    3    0    0  0.21480110696E+02 -0.19946474549E+02  0.25622442757E+02  0.38932846997E+02  0.00000000000E+00 0. -1.
</event>
<event>
 7    1  0.2932676E-013  0.7246158E+02  0.7816164E-02  0.1226708E+00
        -11   -1    0    0    0    0  0.00000000000E+00  0.00000000000E+00  0.45593999997E+02  0.45594000000E+02  0.51100000000E-03 0.  1.
         11   -1    0    0    0    0 -0.00000000000E+00 -0.00000000000E+00 -0.45593999997E+02  0.45594000000E+02  0.51100000000E-03 0. -1.
    9900012    2    1    2    0    0 -0.12269917005E+02  0.24000544053E+01  0.13941582014E+02  0.72461579266E+02  0.70000011687E+02 0.  0.
         12    1    1    2    0    0  0.12269917005E+02 -0.24000544053E+01 -0.13941582014E+02  0.18726420734E+02  0.00000000000E+00 0. -1.
         11    1    3    3    0    0  0.18960155144E+01  0.46584223654E+01 -0.61833247002E+00  0.50673572076E+01  0.51100000000E-03 0. -1.
        -11    1    3    3    0    0 -0.18963225400E+02  0.28732426463E+02  0.68616715171E+01  0.35103258884E+02  0.51100000000E-03 0.  1.
         12    1    3    3    0    0  0.47972928800E+01 -0.30990794423E+02  0.76982429666E+01  0.32290963174E+02  0.00000000000E+00 0. -1.
</event>
<event>
 7    1  0.2932676E-013  0.7246155E+02  0.7816164E-02  0.1226708E+00
        -11   -1    0    0    0    0  0.00000000000E+00  0.00000000000E+00  0.45593999997E+02  0.45594000000E+02  0.51100000000E-03 0.  1.
         11   -1    0    0    0    0 -0.00000000000E+00 -0.00000000000E+00 -0.45593999997E+02  0.45594000000E+02  0.51100000000E-03 0. -1.
    9900012    2    1    2    0    0  0.29213390632E+01  0.45292635806E+01  0.17934086756E+02  0.72461550303E+02  0.69999973957E+02 0.  0.
         12    1    1    2    0    0 -0.29213390632E+01 -0.45292635806E+01 -0.17934086756E+02  0.18726449697E+02  0.00000000000E+00 0. -1.
         11    1    3    3    0    0 -0.37879711523E+00 -0.57660326961E+01  0.15270037679E+02  0.16326808362E+02  0.51100000000E-03 0.  1.
        -11    1    3    3    0    0  0.52769589469E+01  0.26880786831E+02  0.18550082442E+02  0.33083659943E+02  0.51100000000E-03 0. -1.
         12    1    3    3    0    0 -0.19768227685E+01 -0.16585490554E+02 -0.15886033365E+02  0.23051081998E+02  0.00000000000E+00 0. -1.
</event>
<event>
 7    1  0.2932676E-013  0.7246151E+02  0.7816164E-02  0.1226708E+00
        -11   -1    0    0    0    0  0.00000000000E+00  0.00000000000E+00  0.45593999997E+02  0.45594000000E+02  0.51100000000E-03 0.  1.
         11   -1    0    0    0    0 -0.00000000000E+00 -0.00000000000E+00 -0.45593999997E+02  0.45594000000E+02  0.51100000000E-03 0. -1.
    9900012    2    1    2    0    0  0.11426375412E+02 -0.12568616991E+02  0.78834826475E+01  0.72461508423E+02  0.69999919402E+02 0.  0.
         12    1    1    2    0    0 -0.11426375412E+02  0.12568616991E+02 -0.78834826475E+01  0.18726491577E+02  0.00000000000E+00 0. -1.
         11    1    3    3    0    0 -0.10607575787E+02 -0.46608978039E+01  0.38699583400E+01  0.12215613379E+02  0.51100000000E-03 0. -1.
        -11    1    3    3    0    0  0.19807849918E+02 -0.30797882224E+02  0.62194618754E+01  0.37142188602E+02  0.51100000000E-03 0.  1.
         12    1    3    3    0    0  0.22261012806E+01  0.22890163037E+02 -0.22059375680E+01  0.23103706442E+02  0.00000000000E+00 0. -1.
</event>
<event>
 7    1  0.2932676E-013  0.7246115E+02  0.7816164E-02  0.1226709E+00
        -11   -1    0    0    0    0  0.00000000000E+00  0.00000000000E+00  0.45593999997E+02  0.45594000000E+02  0.51100000000E-03 0.  1.
         11   -1    0    0    0    0 -0.00000000000E+00 -0.00000000000E+00 -0.45593999997E+02  0.45594000000E+02  0.51100000000E-03 0. -1.
    9900012    2    1    2    0    0  0.11047098701E+02  0.14370319559E+02  0.47064447452E+01  0.72461145056E+02  0.69999446046E+02 0.  0.
         12    1    1    2    0    0 -0.11047098701E+02 -0.14370319559E+02 -0.47064447452E+01  0.18726854944E+02  0.00000000000E+00 0. -1.
         11    1    3    3    0    0 -0.11583274975E+02  0.24250084530E+02 -0.19936575026E+02  0.33462006558E+02  0.51100000000E-03 0.  1.
        -11    1    3    3    0    0  0.95133181172E+01 -0.81193774480E+01  0.18510915490E+01  0.12643340220E+02  0.51100000000E-03 0. -1.
        -12    1    3    3    0    0  0.13117055559E+02 -0.17603875228E+01  0.22791928222E+02  0.26355798278E+02  0.00000000000E+00 0.  1.
</event>
<event>
 7    1  0.2932676E-013  0.7246159E+02  0.7816164E-02  0.1226708E+00
        -11   -1    0    0    0    0  0.00000000000E+00  0.00000000000E+00  0.45593999997E+02  0.45594000000E+02  0.51100000000E-03 0.  1.
         11   -1    0    0    0    0 -0.00000000000E+00 -0.00000000000E+00 -0.45593999997E+02  0.45594000000E+02  0.51100000000E-03 0. -1.
    9900012    2    1    2    0    0  0.64569372558E+01  0.16829053091E+02  0.50763363770E+01  0.72461594641E+02  0.70000031715E+02 0.  0.
         12    1    1    2    0    0 -0.64569372558E+01 -0.16829053091E+02 -0.50763363770E+01  0.18726405359E+02  0.00000000000E+00 0. -1.
         11    1    3    3    0    0 -0.68738437567E+00 -0.95400494290E+01 -0.27548973182E+01  0.99536174269E+01  0.51100000000E-03 0. -1.
        -11    1    3    3    0    0  0.23758464965E+02 -0.69683610571E+01  0.26311426109E+01  0.24898707296E+02  0.51100000000E-03 0.  1.
         12    1    3    3    0    0 -0.16614143333E+02  0.33337463577E+02  0.52000910843E+01  0.37609269918E+02  0.00000000000E+00 0. -1.
</event>
<event>
 7    1  0.2932676E-013  0.7246166E+02  0.7816164E-02  0.1226708E+00
        -11   -1    0    0    0    0  0.00000000000E+00  0.00000000000E+00  0.45593999997E+02  0.45594000000E+02  0.51100000000E-03 0. -1.
         11   -1    0    0    0    0 -0.00000000000E+00 -0.00000000000E+00 -0.45593999997E+02  0.45594000000E+02  0.51100000000E-03 0.  1.
    9900012    2    1    2    0    0  0.81951405013E+01  0.12624996729E+02 -0.11141135877E+02  0.72461660826E+02  0.70000117934E+02 0.  0.
         12    1    1    2    0    0 -0.81951405013E+01 -0.12624996729E+02  0.11141135877E+02  0.18726339174E+02  0.00000000000E+00 0. -1.
         11    1    3    3    0    0 -0.72430630613E+01 -0.14743448877E+02  0.24155324716E-01  0.16426558710E+02  0.51100000000E-03 0. -1.
        -11    1    3    3    0    0 -0.88557080678E+01 -0.57506641035E+01 -0.10593547460E+02  0.14957170557E+02  0.51100000000E-03 0.  1.
         12    1    3    3    0    0  0.24293911630E+02  0.33119109710E+02 -0.57174374155E+00  0.41077931559E+02  0.00000000000E+00 0. -1.
</event>
<event>
 7    1  0.2932676E-013  0.7246153E+02  0.7816164E-02  0.1226708E+00
        -11   -1    0    0    0    0  0.00000000000E+00  0.00000000000E+00  0.45593999997E+02  0.45594000000E+02  0.51100000000E-03 0. -1.
         11   -1    0    0    0    0 -0.00000000000E+00 -0.00000000000E+00 -0.45593999997E+02  0.45594000000E+02  0.51100000000E-03 0.  1.
    9900012    2    1    2    0    0 -0.24756403990E-01 -0.14766439250E+02 -0.11516604369E+02  0.72461534311E+02  0.69999953125E+02 0.  0.
         12    1    1    2    0    0  0.24756403990E-01  0.14766439250E+02  0.11516604369E+02  0.18726465689E+02  0.00000000000E+00 0. -1.
         11    1    3    3    0    0  0.11186061299E+02  0.13488406375E+01 -0.93040027557E+01  0.14612043183E+02  0.51100000000E-03 0. -1.
        -11    1    3    3    0    0 -0.54328214437E+01 -0.26221708660E+02 -0.22156627226E+02  0.34756433709E+02  0.51100000000E-03 0.  1.
         12    1    3    3    0    0 -0.57779962594E+01  0.10106428772E+02  0.19944025613E+02  0.23093057418E+02  0.00000000000E+00 0. -1.
</event>
<event>
 7    1  0.2932676E-013  0.7246157E+02  0.7816164E-02  0.1226708E+00
        -11   -1    0    0    0    0  0.00000000000E+00  0.00000000000E+00  0.45593999997E+02  0.45594000000E+02  0.51100000000E-03 0.  1.
         11   -1    0    0    0    0 -0.00000000000E+00 -0.00000000000E+00 -0.45593999997E+02  0.45594000000E+02  0.51100000000E-03 0. -1.
    9900012    2    1    2    0    0  0.17462544561E+02  0.29031614132E+01  0.61082347194E+01  0.72461565740E+02  0.69999994067E+02 0.  0.
         12    1    1    2    0    0 -0.17462544561E+02 -0.29031614132E+01 -0.61082347194E+01  0.18726434260E+02  0.00000000000E+00 0. -1.
         11    1    3    3    0    0 -0.16582933490E+02 -0.13291505967E+02 -0.12583731477E+02  0.24698342296E+02  0.51100000000E-03 0. -1.
        -11    1    3    3    0    0  0.28526737549E+01  0.71990460896E+00  0.11936294298E+02  0.12293540256E+02  0.51100000000E-03 0.  1.
        -12    1    3    3    0    0  0.31192804296E+02  0.15474762771E+02  0.67556718985E+01  0.35469683188E+02  0.00000000000E+00 0.  1.
</event>
<event>
 7    1  0.2932676E-013  0.7246158E+02  0.7816164E-02  0.1226708E+00
        -11   -1    0    0    0    0  0.00000000000E+00  0.00000000000E+00  0.45593999997E+02  0.45594000000E+02  0.51100000000E-03 0. -1.
         11   -1    0    0    0    0 -0.00000000000E+00 -0.00000000000E+00 -0.45593999997E+02  0.45594000000E+02  0.51100000000E-03 0.  1.
    9900012    2    1    2    0    0  0.11272060050E+02  0.11454143951E+02  0.96136470987E+01  0.72461575836E+02  0.70000007219E+02 0.  0.
         12    1    1    2    0    0 -0.11272060050E+02 -0.11454143951E+02 -0.96136470987E+01  0.18726424164E+02  0.00000000000E+00 0. -1.
         11    1    3    3    0    0 -0.72068261036E+01 -0.11517610594E+02  0.23004297591E+02  0.26716874896E+02  0.51100000000E-03 0. -1.
        -11    1    3    3    0    0 -0.85925406985E-01  0.69600522619E+01  0.97851628112E+01  0.12008293891E+02  0.51100000000E-03 0.  1.
        -12    1    3    3    0    0  0.18564811561E+02  0.16011702283E+02 -0.23175813304E+02  0.33736407049E+02  0.00000000000E+00 0.  1.
</event>
<event>
 7    1  0.2932676E-013  0.7246153E+02  0.7816164E-02  0.1226708E+00
        -11   -1    0    0    0    0  0.00000000000E+00  0.00000000000E+00  0.45593999997E+02  0.45594000000E+02  0.51100000000E-03 0. -1.
         11   -1    0    0    0    0 -0.00000000000E+00 -0.00000000000E+00 -0.45593999997E+02  0.45594000000E+02  0.51100000000E-03 0.  1.
    9900012    2    1    2    0    0  0.49804402603E+01  0.15695184348E+02 -0.89183552030E+01  0.72461530593E+02  0.69999948282E+02 0.  0.
         12    1    1    2    0    0 -0.49804402603E+01 -0.15695184348E+02  0.89183552030E+01  0.18726469407E+02  0.00000000000E+00 0. -1.
         11    1    3    3    0    0 -0.25811589458E+01 -0.95295619210E+01 -0.39399972950E+00  0.98807979413E+01  0.51100000000E-03 0. -1.
        -11    1    3    3    0    0 -0.23643276428E+02  0.15778875932E+02 -0.94783204786E+01  0.29963577978E+02  0.51100000000E-03 0.  1.
        -12    1    3    3    0    0  0.31204875634E+02  0.94458703374E+01  0.95396500511E+00  0.32617154674E+02  0.00000000000E+00 0.  1.
</event>
<event>
 7    1  0.2932676E-013  0.7246156E+02  0.7816164E-02  0.1226708E+00
        -11   -1    0    0    0    0  0.00000000000E+00  0.00000000000E+00  0.45593999997E+02  0.45594000000E+02  0.51100000000E-03 0. -1.
         11   -1    0    0    0    0 -0.00000000000E+00 -0.00000000000E+00 -0.45593999997E+02  0.45594000000E+02  0.51100000000E-03 0.  1.
    9900012    2    1    2    0    0  0.69702536250E+01  0.83480699535E+01 -0.15244833697E+02  0.72461557145E+02  0.69999982871E+02 0.  0.
         12    1    1    2    0    0 -0.69702536250E+01 -0.83480699535E+01  0.15244833697E+02  0.18726442855E+02  0.00000000000E+00 0. -1.
         11    1    3    3    0    0  0.22701726042E+02  0.13524212857E+02 -0.20514658186E+02  0.33453309245E+02  0.51100000000E-03 0. -1.
        -11    1    3    3    0    0  0.89067633480E+01 -0.35919333869E+01 -0.65609141355E+01  0.11630907675E+02  0.51100000000E-03 0.  1.
         12    1    3    3    0    0 -0.24638235765E+02 -0.15842095167E+01  0.11830738625E+02  0.27377340225E+02  0.00000000000E+00 0. -1.
</event>
<event>
 7    1  0.2932676E-013  0.7246159E+02  0.7816164E-02  0.1226708E+00
        -11   -1    0    0    0    0  0.00000000000E+00  0.00000000000E+00  0.45593999997E+02  0.45594000000E+02  0.51100000000E-03 0. -1.
         11   -1    0    0    0    0 -0.00000000000E+00 -0.00000000000E+00 -0.45593999997E+02  0.45594000000E+02  0.51100000000E-03 0.  1.
    9900012    2    1    2    0    0 -0.98061813889E+01  0.83166126960E+01  0.13614368702E+02  0.72461594170E+02  0.70000031102E+02 0.  0.
         12    1    1    2    0    0  0.98061813889E+01 -0.83166126960E+01 -0.13614368702E+02  0.18726405830E+02  0.00000000000E+00 0. -1.
         11    1    3    3    0    0 -0.20563798209E+02  0.19510402926E+02  0.13268831940E+01  0.28377565759E+02  0.51100000000E-03 0. -1.
        -11    1    3    3    0    0  0.25550093824E+01  0.73742002296E+00 -0.13904493436E+02  0.14156510841E+02  0.51100000000E-03 0.  1.
         12    1    3    3    0    0  0.82026074377E+01 -0.11931210253E+02  0.26191978944E+02  0.29927517570E+02  0.00000000000E+00 0. -1.
</event>
<event>
 7    1  0.2932676E-013  0.7246159E+02  0.7816164E-02  0.1226708E+00
        -11   -1    0    0    0    0  0.00000000000E+00  0.00000000000E+00  0.45593999997E+02  0.45594000000E+02  0.51100000000E-03 0.  1.
         11   -1    0    0    0    0 -0.00000000000E+00 -0.00000000000E+00 -0.45593999997E+02  0.45594000000E+02  0.51100000000E-03 0. -1.
    9900012    2    1    2    0    0 -0.12351246231E+02  0.11870407756E+02  0.75643062159E+01  0.72461585707E+02  0.70000020078E+02 0.  0.
         12    1    1    2    0    0  0.12351246231E+02 -0.11870407756E+02 -0.75643062159E+01  0.18726414293E+02  0.00000000000E+00 0. -1.
         11    1    3    3    0    0  0.25715823650E+01 -0.14829175142E+02 -0.15429206816E+02  0.21554069093E+02  0.51100000000E-03 0. -1.
        -11    1    3    3    0    0  0.10660654220E+02  0.58277129483E+01  0.38660656242E+01  0.12749833344E+02  0.51100000000E-03 0.  1.
         12    1    3    3    0    0 -0.25583482816E+02  0.20871869950E+02  0.19127447408E+02  0.38157683270E+02  0.00000000000E+00 0. -1.
</event>
<event>
 7    1  0.2932676E-013  0.7246157E+02  0.7816164E-02  0.1226708E+00
        -11   -1    0    0    0    0  0.00000000000E+00  0.00000000000E+00  0.45593999997E+02  0.45594000000E+02  0.51100000000E-03 0.  1.
         11   -1    0    0    0    0 -0.00000000000E+00 -0.00000000000E+00 -0.45593999997E+02  0.45594000000E+02  0.51100000000E-03 0. -1.
    9900012    2    1    2    0    0  0.18119989500E+02  0.17989875793E+00  0.47236383311E+01  0.72461571026E+02  0.70000000953E+02 0.  0.
         12    1    1    2    0    0 -0.18119989500E+02 -0.17989875793E+00 -0.47236383311E+01  0.18726428974E+02  0.00000000000E+00 0. -1.
         11    1    3    3    0    0  0.12286031889E+02 -0.47680688738E+01 -0.47174577288E+00  0.13187251598E+02  0.51100000000E-03 0. -1.
        -11    1    3    3    0    0 -0.90582674931E+00 -0.25041716420E+02 -0.72910440062E+01  0.26097268177E+02  0.51100000000E-03 0.  1.
        -12    1    3    3    0    0  0.67397843602E+01  0.29989684052E+02  0.12486428110E+02  0.33177051251E+02  0.00000000000E+00 0.  1.
</event>
<event>
 7    1  0.2932676E-013  0.7246170E+02  0.7816164E-02  0.1226708E+00
        -11   -1    0    0    0    0  0.00000000000E+00  0.00000000000E+00  0.45593999997E+02  0.45594000000E+02  0.51100000000E-03 0.  1.
         11   -1    0    0    0    0 -0.00000000000E+00 -0.00000000000E+00 -0.45593999997E+02  0.45594000000E+02  0.51100000000E-03 0. -1.
    9900012    2    1    2    0    0  0.26573768777E+01  0.28522985413E+00  0.18534595919E+02  0.72461701545E+02  0.70000170979E+02 0.  0.
         12    1    1    2    0    0 -0.26573768777E+01 -0.28522985413E+00 -0.18534595919E+02  0.18726298455E+02  0.00000000000E+00 0. -1.
         11    1    3    3    0    0 -0.22211396735E+02  0.20582005354E+02  0.95724097691E+01  0.31758402328E+02  0.51100000000E-03 0. -1.
        -11    1    3    3    0    0  0.93604900468E+00  0.46048940689E+01  0.32070759536E+01  0.56891628170E+01  0.51100000000E-03 0.  1.
         12    1    3    3    0    0  0.23932724608E+02 -0.24901669569E+02  0.57551101962E+01  0.35014136401E+02  0.00000000000E+00 0. -1.
</event>
<event>
 7    1  0.2932676E-013  0.7246159E+02  0.7816164E-02  0.1226708E+00
        -11   -1    0    0    0    0  0.00000000000E+00  0.00000000000E+00  0.45593999997E+02  0.45594000000E+02  0.51100000000E-03 0. -1.
         11   -1    0    0    0    0 -0.00000000000E+00 -0.00000000000E+00 -0.45593999997E+02  0.45594000000E+02  0.51100000000E-03 0.  1.
    9900012    2    1    2    0    0 -0.10310971263E+02  0.10476030584E+02 -0.11602372019E+02  0.72461591331E+02  0.70000027404E+02 0.  0.
         12    1    1    2    0    0  0.10310971263E+02 -0.10476030584E+02  0.11602372019E+02  0.18726408669E+02  0.00000000000E+00 0. -1.
         11    1    3    3    0    0  0.22705297007E+01 -0.14700011793E+02 -0.51782023388E-01  0.14874418760E+02  0.51100000000E-03 0. -1.
        -11    1    3    3    0    0  0.12863386746E+02 -0.72256945259E+01  0.16667351006E+00  0.14754835149E+02  0.51100000000E-03 0.  1.
        -12    1    3    3    0    0 -0.25444887710E+02  0.32401736902E+02 -0.11717263505E+02  0.42832337421E+02  0.00000000000E+00 0.  1.
</event>
<event>
 7    1  0.2932676E-013  0.7246149E+02  0.7816164E-02  0.1226708E+00
        -11   -1    0    0    0    0  0.00000000000E+00  0.00000000000E+00  0.45593999997E+02  0.45594000000E+02  0.51100000000E-03 0.  1.
         11   -1    0    0    0    0 -0.00000000000E+00 -0.00000000000E+00 -0.45593999997E+02  0.45594000000E+02  0.51100000000E-03 0. -1.
    9900012    2    1    2    0    0  0.12366063309E+02 -0.12520577698E+02 -0.64029635503E+01  0.72461485912E+02  0.69999890077E+02 0.  0.
         12    1    1    2    0    0 -0.12366063309E+02  0.12520577698E+02  0.64029635503E+01  0.18726514088E+02  0.00000000000E+00 0. -1.
         11    1    3    3    0    0  0.13762186705E+02  0.43911600781E+00  0.69717712787E+01  0.15433606215E+02  0.51100000000E-03 0. -1.
        -11    1    3    3    0    0  0.79155310794E+01  0.12922926149E+02  0.12210541081E+02  0.19461628048E+02  0.51100000000E-03 0.  1.
         12    1    3    3    0    0 -0.93116544761E+01 -0.25882619855E+02 -0.25585275910E+02  0.37566251650E+02  0.00000000000E+00 0. -1.
</event>
<event>
 7    1  0.2932676E-013  0.7246159E+02  0.7816164E-02  0.1226708E+00
        -11   -1    0    0    0    0  0.00000000000E+00  0.00000000000E+00  0.45593999997E+02  0.45594000000E+02  0.51100000000E-03 0. -1.
         11   -1    0    0    0    0 -0.00000000000E+00 -0.00000000000E+00 -0.45593999997E+02  0.45594000000E+02  0.51100000000E-03 0.  1.
    9900012    2    1    2    0    0  0.41077872035E+01  0.64340154266E+01 -0.17099945274E+02  0.72461585538E+02  0.70000019858E+02 0.  0.
         12    1    1    2    0    0 -0.41077872035E+01 -0.64340154266E+01  0.17099945274E+02  0.18726414462E+02  0.00000000000E+00 0. -1.
         11    1    3    3    0    0 -0.17080817141E+02 -0.13819302416E+02 -0.23178650641E+02  0.31937083137E+02  0.51100000000E-03 0. -1.
        -11    1    3    3    0    0  0.90903015356E+01 -0.37237319566E+01  0.92355869272E+01  0.13483168316E+02  0.51100000000E-03 0.  1.
        -12    1    3    3    0    0  0.12098302809E+02  0.23977049799E+02 -0.31568815598E+01  0.27041334085E+02  0.00000000000E+00 0.  1.
</event>
<event>
 7    1  0.2932676E-013  0.7246149E+02  0.7816164E-02  0.1226708E+00
        -11   -1    0    0    0    0  0.00000000000E+00  0.00000000000E+00  0.45593999997E+02  0.45594000000E+02  0.51100000000E-03 0. -1.
         11   -1    0    0    0    0 -0.00000000000E+00 -0.00000000000E+00 -0.45593999997E+02  0.45594000000E+02  0.51100000000E-03 0.  1.
    9900012    2    1    2    0    0  0.64305373667E+00  0.13683460739E+02  0.12768385909E+02  0.72461486854E+02  0.69999891303E+02 0.  0.
         12    1    1    2    0    0 -0.64305373667E+00 -0.13683460739E+02 -0.12768385909E+02  0.18726513146E+02  0.00000000000E+00 0. -1.
         11    1    3    3    0    0  0.34341503266E+01  0.68733200991E+00  0.13317766171E+02  0.13770574055E+02  0.51100000000E-03 0. -1.
        -11    1    3    3    0    0  0.16222032559E+02 -0.70741976424E+01 -0.18599630687E+02  0.25673816907E+02  0.51100000000E-03 0.  1.
         12    1    3    3    0    0 -0.19013129149E+02  0.20070326371E+02  0.18050250425E+02  0.33017095891E+02  0.00000000000E+00 0. -1.
</event>
<event>
 7    1  0.2932676E-013  0.7246158E+02  0.7816164E-02  0.1226708E+00
        -11   -1    0    0    0    0  0.00000000000E+00  0.00000000000E+00  0.45593999997E+02  0.45594000000E+02  0.51100000000E-03 0. -1.
         11   -1    0    0    0    0 -0.00000000000E+00 -0.00000000000E+00 -0.45593999997E+02  0.45594000000E+02  0.51100000000E-03 0.  1.
    9900012    2    1    2    0    0  0.78198957878E+01 -0.11704910214E+02 -0.12350020941E+02  0.72461582551E+02  0.70000015966E+02 0.  0.
         12    1    1    2    0    0 -0.78198957878E+01  0.11704910214E+02  0.12350020941E+02  0.18726417449E+02  0.00000000000E+00 0. -1.
         11    1    3    3    0    0 -0.29900737841E+01 -0.10658961960E+02  0.11290166816E+02  0.15812080138E+02  0.51100000000E-03 0. -1.
        -11    1    3    3    0    0 -0.13704238628E+02 -0.17016139808E+02 -0.13509852401E+02  0.25687959874E+02  0.51100000000E-03 0.  1.
         12    1    3    3    0    0  0.24514208200E+02  0.15970191554E+02 -0.10130335356E+02  0.30961542538E+02  0.00000000000E+00 0. -1.
</event>
<event>
 7    1  0.2932676E-013  0.7246156E+02  0.7816164E-02  0.1226708E+00
        -11   -1    0    0    0    0  0.00000000000E+00  0.00000000000E+00  0.45593999997E+02  0.45594000000E+02  0.51100000000E-03 0.  1.
         11   -1    0    0    0    0 -0.00000000000E+00 -0.00000000000E+00 -0.45593999997E+02  0.45594000000E+02  0.51100000000E-03 0. -1.
    9900012    2    1    2    0    0 -0.97177933182E+01  0.24342509216E+01  0.15821459657E+02  0.72461556926E+02  0.69999982586E+02 0.  0.
         12    1    1    2    0    0  0.97177933182E+01 -0.24342509216E+01 -0.15821459657E+02  0.18726443074E+02  0.00000000000E+00 0. -1.
         11    1    3    3    0    0 -0.32052502027E+02  0.13220354841E+02  0.15353782272E+02  0.37919378933E+02  0.51100000000E-03 0.  1.
        -11    1    3    3    0    0 -0.42407566567E+01 -0.72620167379E+00 -0.38825740109E+01  0.57953228645E+01  0.51100000000E-03 0. -1.
        -12    1    3    3    0    0  0.26575465366E+02 -0.10059902246E+02  0.43502513958E+01  0.28746855129E+02  0.00000000000E+00 0.  1.
</event>
<event>
 7    1  0.2932676E-013  0.7246154E+02  0.7816164E-02  0.1226708E+00
        -11   -1    0    0    0    0  0.00000000000E+00  0.00000000000E+00  0.45593999997E+02  0.45594000000E+02  0.51100000000E-03 0. -1.
         11   -1    0    0    0    0 -0.00000000000E+00 -0.00000000000E+00 -0.45593999997E+02  0.45594000000E+02  0.51100000000E-03 0.  1.
    9900012    2    1    2    0    0  0.10806511623E+01 -0.18448728041E+02 -0.30260646396E+01  0.72461536360E+02  0.69999955794E+02 0.  0.
         12    1    1    2    0    0 -0.10806511623E+01  0.18448728041E+02  0.30260646396E+01  0.18726463640E+02  0.00000000000E+00 0. -1.
         11    1    3    3    0    0 -0.28409681591E+01 -0.25669134018E+02  0.16602655885E+02  0.30702177838E+02  0.51100000000E-03 0. -1.
        -11    1    3    3    0    0 -0.99705625320E+01 -0.97104129750E+01 -0.12556817792E+02  0.18745076972E+02  0.51100000000E-03 0.  1.
        -12    1    3    3    0    0  0.13892181853E+02  0.16930818952E+02 -0.70719027327E+01  0.23014281551E+02  0.00000000000E+00 0.  1.
</event>
<event>
 7    1  0.2932676E-013  0.7246154E+02  0.7816164E-02  0.1226708E+00
        -11   -1    0    0    0    0  0.00000000000E+00  0.00000000000E+00  0.45593999997E+02  0.45594000000E+02  0.51100000000E-03 0. -1.
         11   -1    0    0    0    0 -0.00000000000E+00 -0.00000000000E+00 -0.45593999997E+02  0.45594000000E+02  0.51100000000E-03 0.  1.
    9900012    2    1    2    0    0  0.23935062948E+01  0.18419952241E+02 -0.23783814486E+01  0.72461542480E+02  0.69999963766E+02 0.  0.
         12    1    1    2    0    0 -0.23935062948E+01 -0.18419952241E+02  0.23783814486E+01  0.18726457520E+02  0.00000000000E+00 0. -1.
         11    1    3    3    0    0  0.67681623820E+01 -0.53983681326E+01  0.62180230315E+01  0.10658996726E+02  0.51100000000E-03 0. -1.
        -11    1    3    3    0    0  0.20452400026E+02 -0.69613056926E+01 -0.18145008850E+01  0.21680702421E+02  0.51100000000E-03 0.  1.
         12    1    3    3    0    0 -0.24827056113E+02  0.30779626066E+02 -0.67819035951E+01  0.40121843332E+02  0.00000000000E+00 0. -1.
</event>
<event>
 7    1  0.2932676E-013  0.7246153E+02  0.7816164E-02  0.1226708E+00
        -11   -1    0    0    0    0  0.00000000000E+00  0.00000000000E+00  0.45593999997E+02  0.45594000000E+02  0.51100000000E-03 0. -1.
         11   -1    0    0    0    0 -0.00000000000E+00 -0.00000000000E+00 -0.45593999997E+02  0.45594000000E+02  0.51100000000E-03 0.  1.
    9900012    2    1    2    0    0  0.34497481525E+01 -0.91956549563E+01 -0.15944277217E+02  0.72461526537E+02  0.69999942998E+02 0.  0.
         12    1    1    2    0    0 -0.34497481525E+01  0.91956549563E+01  0.15944277217E+02  0.18726473463E+02  0.00000000000E+00 0. -1.
         11    1    3    3    0    0  0.89106494339E+01 -0.27367254440E+02 -0.88383300856E+01  0.30107845620E+02  0.51100000000E-03 0. -1.
        -11    1    3    3    0    0  0.52174374531E+01 -0.11950571619E+00 -0.17855081932E+02  0.18602147356E+02  0.51100000000E-03 0.  1.
         12    1    3    3    0    0 -0.10678338735E+02  0.18291105200E+02  0.10749134801E+02  0.23751533562E+02  0.00000000000E+00 0. -1.
</event>
<event>
 7    1  0.2932676E-013  0.7246152E+02  0.7816164E-02  0.1226708E+00
        -11   -1    0    0    0    0  0.00000000000E+00  0.00000000000E+00  0.45593999997E+02  0.45594000000E+02  0.51100000000E-03 0. -1.
         11   -1    0    0    0    0 -0.00000000000E+00 -0.00000000000E+00 -0.45593999997E+02  0.45594000000E+02  0.51100000000E-03 0.  1.
    9900012    2    1    2    0    0  0.14188689759E+00 -0.18052471648E+02  0.49768538321E+01  0.72461523060E+02  0.69999938469E+02 0.  0.
         12    1    1    2    0    0 -0.14188689759E+00  0.18052471648E+02 -0.49768538321E+01  0.18726476940E+02  0.00000000000E+00 0. -1.
         11    1    3    3    0    0 -0.79153583503E+00 -0.24080380606E+02  0.18814867741E+02  0.30569437474E+02  0.51100000000E-03 0. -1.
        -11    1    3    3    0    0  0.30446701353E+01 -0.10036695422E+02  0.90475230563E+01  0.13851460029E+02  0.51100000000E-03 0.  1.
        -12    1    3    3    0    0 -0.21112474027E+01  0.16064604379E+02 -0.22885536965E+02  0.28040625557E+02  0.00000000000E+00 0.  1.
</event>
<event>
 7    1  0.2932676E-013  0.7246152E+02  0.7816164E-02  0.1226708E+00
        -11   -1    0    0    0    0  0.00000000000E+00  0.00000000000E+00  0.45593999997E+02  0.45594000000E+02  0.51100000000E-03 0. -1.
         11   -1    0    0    0    0 -0.00000000000E+00 -0.00000000000E+00 -0.45593999997E+02  0.45594000000E+02  0.51100000000E-03 0.  1.
    9900012    2    1    2    0    0  0.87795740183E+01 -0.14396811062E+02 -0.81444349601E+01  0.72461523836E+02  0.69999939479E+02 0.  0.
         12    1    1    2    0    0 -0.87795740183E+01  0.14396811062E+02  0.81444349601E+01  0.18726476164E+02  0.00000000000E+00 0. -1.
         11    1    3    3    0    0 -0.13503550135E+01  0.18002068759E+02  0.18311274671E+02  0.25713823493E+02  0.51100000000E-03 0. -1.
        -11    1    3    3    0    0  0.42610510985E+01 -0.12136268337E+01  0.12699522571E+01  0.46089288942E+01  0.51100000000E-03 0.  1.
        -12    1    3    3    0    0  0.58688779333E+01 -0.31185252988E+02 -0.27725661888E+02  0.42138771449E+02  0.00000000000E+00 0.  1.
</event>
<event>
 7    1  0.2932676E-013  0.7246156E+02  0.7816164E-02  0.1226708E+00
        -11   -1    0    0    0    0  0.00000000000E+00  0.00000000000E+00  0.45593999997E+02  0.45594000000E+02  0.51100000000E-03 0.  1.
         11   -1    0    0    0    0 -0.00000000000E+00 -0.00000000000E+00 -0.45593999997E+02  0.45594000000E+02  0.51100000000E-03 0. -1.
    9900012    2    1    2    0    0 -0.75292687715E+01 -0.75893406470E+00  0.17129324997E+02  0.72461557626E+02  0.69999983497E+02 0.  0.
         12    1    1    2    0    0  0.75292687715E+01  0.75893406470E+00 -0.17129324997E+02  0.18726442374E+02  0.00000000000E+00 0. -1.
         11    1    3    3    0    0 -0.96270051529E+01 -0.72035996668E+01  0.16736350952E+02  0.20607681088E+02  0.51100000000E-03 0. -1.
        -11    1    3    3    0    0  0.10210919163E+02 -0.19261501910E+02  0.89586262221E+01  0.23569584427E+02  0.51100000000E-03 0.  1.
         12    1    3    3    0    0 -0.81131827820E+01  0.25706167512E+02 -0.85656521775E+01  0.28284292111E+02  0.00000000000E+00 0. -1.
</event>
<event>
 7    1  0.2932676E-013  0.7246166E+02  0.7816164E-02  0.1226708E+00
        -11   -1    0    0    0    0  0.00000000000E+00  0.00000000000E+00  0.45593999997E+02  0.45594000000E+02  0.51100000000E-03 0.  1.
         11   -1    0    0    0    0 -0.00000000000E+00 -0.00000000000E+00 -0.45593999997E+02  0.45594000000E+02  0.51100000000E-03 0. -1.
    9900012    2    1    2    0    0  0.16930036597E+02  0.71879665970E+01 -0.35189097679E+01  0.72461662159E+02  0.70000119671E+02 0.  0.
         12    1    1    2    0    0 -0.16930036597E+02 -0.71879665970E+01  0.35189097679E+01  0.18726337841E+02  0.00000000000E+00 0. -1.
         11    1    3    3    0    0  0.13153955390E+02 -0.76128161339E+00 -0.10558598499E+02  0.16884611177E+02  0.51100000000E-03 0. -1.
        -11    1    3    3    0    0  0.54919646669E+01 -0.23232180164E+02  0.21679549026E+01  0.23970730064E+02  0.51100000000E-03 0.  1.
         12    1    3    3    0    0 -0.17158834600E+01  0.31181428374E+02  0.48717338281E+01  0.31606320918E+02  0.00000000000E+00 0. -1.
</event>
<event>
 7    1  0.2932676E-013  0.7246153E+02  0.7816164E-02  0.1226708E+00
        -11   -1    0    0    0    0  0.00000000000E+00  0.00000000000E+00  0.45593999997E+02  0.45594000000E+02  0.51100000000E-03 0.  1.
         11   -1    0    0    0    0 -0.00000000000E+00 -0.00000000000E+00 -0.45593999997E+02  0.45594000000E+02  0.51100000000E-03 0. -1.
    9900012    2    1    2    0    0  0.65699691395E+01 -0.16540744568E+02 -0.58240791616E+01  0.72461531475E+02  0.69999949430E+02 0.  0.
         12    1    1    2    0    0 -0.65699691395E+01  0.16540744568E+02  0.58240791616E+01  0.18726468525E+02  0.00000000000E+00 0. -1.
         11    1    3    3    0    0 -0.17474701994E+02 -0.10072403158E+02 -0.13503629547E+02  0.24272752757E+02  0.51100000000E-03 0. -1.
        -11    1    3    3    0    0 -0.30970889089E+01 -0.32544199885E+01  0.18317301172E+02  0.18860189067E+02  0.51100000000E-03 0.  1.
        -12    1    3    3    0    0  0.27141760043E+02 -0.32139214212E+01 -0.10637750786E+02  0.29328589651E+02  0.00000000000E+00 0.  1.
</event>
<event>
 7    1  0.2932676E-013  0.7246170E+02  0.7816164E-02  0.1226708E+00
        -11   -1    0    0    0    0  0.00000000000E+00  0.00000000000E+00  0.45593999997E+02  0.45594000000E+02  0.51100000000E-03 0.  1.
         11   -1    0    0    0    0 -0.00000000000E+00 -0.00000000000E+00 -0.45593999997E+02  0.45594000000E+02  0.51100000000E-03 0. -1.
    9900012    2    1    2    0    0 -0.34496527523E+01 -0.16714501459E+02  0.77071147212E+01  0.72461700834E+02  0.70000170052E+02 0.  0.
         12    1    1    2    0    0  0.34496527523E+01  0.16714501459E+02 -0.77071147212E+01  0.18726299166E+02  0.00000000000E+00 0. -1.
         11    1    3    3    0    0 -0.82235126365E+01 -0.11441820014E+02  0.21298854697E+02  0.25537866336E+02  0.51100000000E-03 0. -1.
        -11    1    3    3    0    0 -0.19486335862E+02  0.37423009905E+00 -0.24731032795E+01  0.19646210159E+02  0.51100000000E-03 0.  1.
         12    1    3    3    0    0  0.24260195746E+02 -0.56469115438E+01 -0.11118636696E+02  0.27277624340E+02  0.00000000000E+00 0. -1.
</event>
<event>
 7    1  0.2932676E-013  0.7246161E+02  0.7816164E-02  0.1226708E+00
        -11   -1    0    0    0    0  0.00000000000E+00  0.00000000000E+00  0.45593999997E+02  0.45594000000E+02  0.51100000000E-03 0.  1.
         11   -1    0    0    0    0 -0.00000000000E+00 -0.00000000000E+00 -0.45593999997E+02  0.45594000000E+02  0.51100000000E-03 0. -1.
    9900012    2    1    2    0    0  0.16425434618E+02  0.48791673581E+01  0.75548887822E+01  0.72461614310E+02  0.70000057339E+02 0.  0.
         12    1    1    2    0    0 -0.16425434618E+02 -0.48791673581E+01 -0.75548887822E+01  0.18726385690E+02  0.00000000000E+00 0. -1.
         11    1    3    3    0    0  0.48319969407E+01  0.52631782998E+01  0.68371797492E+00  0.71775142481E+01  0.51100000000E-03 0. -1.
        -11    1    3    3    0    0 -0.79141810188E+00  0.28218522175E+02 -0.98682692784E+01  0.29904750044E+02  0.51100000000E-03 0.  1.
         12    1    3    3    0    0  0.12384855779E+02 -0.28602533117E+02  0.16739440086E+02  0.35379350019E+02  0.00000000000E+00 0. -1.
</event>
<event>
 7    1  0.2932676E-013  0.7246155E+02  0.7816164E-02  0.1226708E+00
        -11   -1    0    0    0    0  0.00000000000E+00  0.00000000000E+00  0.45593999997E+02  0.45594000000E+02  0.51100000000E-03 0.  1.
         11   -1    0    0    0    0 -0.00000000000E+00 -0.00000000000E+00 -0.45593999997E+02  0.45594000000E+02  0.51100000000E-03 0. -1.
    9900012    2    1    2    0    0 -0.15906649118E+02 -0.98738619661E+01  0.40639572874E+00  0.72461553626E+02  0.69999978287E+02 0.  0.
         12    1    1    2    0    0  0.15906649118E+02  0.98738619661E+01 -0.40639572874E+00  0.18726446374E+02  0.00000000000E+00 0. -1.
         11    1    3    3    0    0 -0.31121774380E+02 -0.15205663208E+02  0.19439556794E+02  0.39719937093E+02  0.51100000000E-03 0. -1.
        -11    1    3    3    0    0  0.41485020203E+01  0.65430014442E+01  0.27969189311E+01  0.82367282752E+01  0.51100000000E-03 0.  1.
        -12    1    3    3    0    0  0.11066623241E+02 -0.12112002027E+01 -0.21830079996E+02  0.24504888258E+02  0.00000000000E+00 0.  1.
</event>
<event>
 7    1  0.2932676E-013  0.7246158E+02  0.7816164E-02  0.1226708E+00
        -11   -1    0    0    0    0  0.00000000000E+00  0.00000000000E+00  0.45593999997E+02  0.45594000000E+02  0.51100000000E-03 0.  1.
         11   -1    0    0    0    0 -0.00000000000E+00 -0.00000000000E+00 -0.45593999997E+02  0.45594000000E+02  0.51100000000E-03 0. -1.
    9900012    2    1    2    0    0 -0.43434099918E+01 -0.17806986426E+02  0.38373112132E+01  0.72461576602E+02  0.70000008217E+02 0.  0.
         12    1    1    2    0    0  0.43434099918E+01  0.17806986426E+02 -0.38373112132E+01  0.18726423398E+02  0.00000000000E+00 0. -1.
         11    1    3    3    0    0 -0.93798456704E+01  0.42354767652E+01 -0.22362063818E+02  0.24616715189E+02  0.51100000000E-03 0. -1.
        -11    1    3    3    0    0 -0.72098092324E+01  0.44504909563E+01 -0.22190199493E+00  0.84756981823E+01  0.51100000000E-03 0.  1.
        -12    1    3    3    0    0  0.12246244911E+02 -0.26492954147E+02  0.26421277026E+02  0.39369163231E+02  0.00000000000E+00 0.  1.
</event>
<event>
 7    1  0.2932676E-013  0.7246160E+02  0.7816164E-02  0.1226708E+00
        -11   -1    0    0    0    0  0.00000000000E+00  0.00000000000E+00  0.45593999997E+02  0.45594000000E+02  0.51100000000E-03 0.  1.
         11   -1    0    0    0    0 -0.00000000000E+00 -0.00000000000E+00 -0.45593999997E+02  0.45594000000E+02  0.51100000000E-03 0. -1.
    9900012    2    1    2    0    0  0.79353777600E+01 -0.16552448762E+02  0.37046094058E+01  0.72461603896E+02  0.70000043772E+02 0.  0.
         12    1    1    2    0    0 -0.79353777600E+01  0.16552448762E+02 -0.37046094058E+01  0.18726396104E+02  0.00000000000E+00 0. -1.
         11    1    3    3    0    0 -0.11905277351E+01 -0.26198428043E+01 -0.15280686638E+01  0.32582091262E+01  0.51100000000E-03 0. -1.
        -11    1    3    3    0    0 -0.28759623905E+02 -0.22316811802E+01  0.63484602806E+01  0.29536406624E+02  0.51100000000E-03 0.  1.
         12    1    3    3    0    0  0.37885529400E+02 -0.11700924777E+02 -0.11157822110E+01  0.39666988146E+02  0.00000000000E+00 0. -1.
</event>
<event>
 7    1  0.2932676E-013  0.7246157E+02  0.7816164E-02  0.1226708E+00
        -11   -1    0    0    0    0  0.00000000000E+00  0.00000000000E+00  0.45593999997E+02  0.45594000000E+02  0.51100000000E-03 0.  1.
         11   -1    0    0    0    0 -0.00000000000E+00 -0.00000000000E+00 -0.45593999997E+02  0.45594000000E+02  0.51100000000E-03 0. -1.
    9900012    2    1    2    0    0  0.15977039917E+02  0.46145129688E+01  0.86092740093E+01  0.72461571258E+02  0.70000001256E+02 0.  0.
         12    1    1    2    0    0 -0.15977039917E+02 -0.46145129688E+01 -0.86092740093E+01  0.18726428742E+02  0.00000000000E+00 0. -1.
         11    1    3    3    0    0  0.16355438784E+02  0.76910736061E+01 -0.11862565911E+02  0.21618821922E+02  0.51100000000E-03 0. -1.
        -11    1    3    3    0    0  0.10373767438E+02 -0.19673354455E+02  0.21642127560E+02  0.31032847306E+02  0.51100000000E-03 0.  1.
         12    1    3    3    0    0 -0.10752166305E+02  0.16596793818E+02 -0.11702876389E+01  0.19809902030E+02  0.00000000000E+00 0. -1.
</event>
<event>
 7    1  0.2932676E-013  0.7246164E+02  0.7816164E-02  0.1226708E+00
        -11   -1    0    0    0    0  0.00000000000E+00  0.00000000000E+00  0.45593999997E+02  0.45594000000E+02  0.51100000000E-03 0.  1.
         11   -1    0    0    0    0 -0.00000000000E+00 -0.00000000000E+00 -0.45593999997E+02  0.45594000000E+02  0.51100000000E-03 0. -1.
    9900012    2    1    2    0    0 -0.13357490814E+02 -0.43565008165E+01  0.12380424880E+02  0.72461639424E+02  0.70000090055E+02 0.  0.
         12    1    1    2    0    0  0.13357490814E+02  0.43565008165E+01 -0.12380424880E+02  0.18726360576E+02  0.00000000000E+00 0. -1.
         11    1    3    3    0    0  0.15604179295E+01  0.11137301863E+02 -0.50156090779E+01  0.12313843087E+02  0.51100000000E-03 0. -1.
        -11    1    3    3    0    0  0.12144290154E+02 -0.24143991776E+02  0.37611528872E+00  0.27028828780E+02  0.51100000000E-03 0.  1.
         12    1    3    3    0    0 -0.27062198898E+02  0.86501890966E+01  0.17019918669E+02  0.33118967558E+02  0.00000000000E+00 0. -1.
</event>
<event>
 7    1  0.2932676E-013  0.7246163E+02  0.7816164E-02  0.1226708E+00
        -11   -1    0    0    0    0  0.00000000000E+00  0.00000000000E+00  0.45593999997E+02  0.45594000000E+02  0.51100000000E-03 0.  1.
         11   -1    0    0    0    0 -0.00000000000E+00 -0.00000000000E+00 -0.45593999997E+02  0.45594000000E+02  0.51100000000E-03 0. -1.
    9900012    2    1    2    0    0 -0.15866004492E+02  0.98606737258E+01  0.13092492347E+01  0.72461625059E+02  0.70000071341E+02 0.  0.
         12    1    1    2    0    0  0.15866004492E+02 -0.98606737258E+01 -0.13092492347E+01  0.18726374941E+02  0.00000000000E+00 0. -1.
         11    1    3    3    0    0 -0.23533405014E+01  0.37458328297E+01 -0.19015520763E+02  0.19523306719E+02  0.51100000000E-03 0. -1.
        -11    1    3    3    0    0  0.94213480560E+00 -0.12699433597E+02 -0.87207309221E+01  0.15434195144E+02  0.51100000000E-03 0.  1.
        -12    1    3    3    0    0 -0.14454798796E+02  0.18814274493E+02  0.29045500920E+02  0.37504123195E+02  0.00000000000E+00 0.  1.
</event>
<event>
 7    1  0.2932676E-013  0.7246157E+02  0.7816164E-02  0.1226708E+00
        -11   -1    0    0    0    0  0.00000000000E+00  0.00000000000E+00  0.45593999997E+02  0.45594000000E+02  0.51100000000E-03 0.  1.
         11   -1    0    0    0    0 -0.00000000000E+00 -0.00000000000E+00 -0.45593999997E+02  0.45594000000E+02  0.51100000000E-03 0. -1.
    9900012    2    1    2    0    0  0.62891797902E+01  0.15227010192E+02  0.89030068487E+01  0.72461570742E+02  0.70000000583E+02 0.  0.
         12    1    1    2    0    0 -0.62891797902E+01 -0.15227010192E+02 -0.89030068487E+01  0.18726429258E+02  0.00000000000E+00 0. -1.
         11    1    3    3    0    0 -0.59977289792E+01  0.32463930937E+02 -0.42974190025E+01  0.33291851483E+02  0.51100000000E-03 0. -1.
        -11    1    3    3    0    0  0.16919452190E+01  0.44459589910E+01 -0.64735761132E+01  0.80334561633E+01  0.51100000000E-03 0.  1.
        -12    1    3    3    0    0  0.10594963550E+02 -0.21682879736E+02  0.19674001964E+02  0.31136263096E+02  0.00000000000E+00 0.  1.
</event>
<event>
 7    1  0.2932676E-013  0.7246161E+02  0.7816164E-02  0.1226708E+00
        -11   -1    0    0    0    0  0.00000000000E+00  0.00000000000E+00  0.45593999997E+02  0.45594000000E+02  0.51100000000E-03 0. -1.
         11   -1    0    0    0    0 -0.00000000000E+00 -0.00000000000E+00 -0.45593999997E+02  0.45594000000E+02  0.51100000000E-03 0.  1.
    9900012    2    1    2    0    0 -0.13575349108E+01  0.12499948661E+02 -0.13877533718E+02  0.72461613278E+02  0.70000055994E+02 0.  0.
         12    1    1    2    0    0  0.13575349108E+01 -0.12499948661E+02  0.13877533718E+02  0.18726386722E+02  0.00000000000E+00 0. -1.
         11    1    3    3    0    0  0.23624942429E+02  0.15279442435E+02  0.82629442809E+01  0.29323634058E+02  0.51100000000E-03 0. -1.
        -11    1    3    3    0    0  0.53434836664E+00  0.17833615423E+01 -0.16506564809E+02  0.16611218757E+02  0.51100000000E-03 0.  1.
        -12    1    3    3    0    0 -0.25516825707E+02 -0.45628553161E+01 -0.56339131906E+01  0.26526760462E+02  0.00000000000E+00 0.  1.
</event>
<event>
 7    1  0.2932676E-013  0.7246157E+02  0.7816164E-02  0.1226708E+00
        -11   -1    0    0    0    0  0.00000000000E+00  0.00000000000E+00  0.45593999997E+02  0.45594000000E+02  0.51100000000E-03 0.  1.
         11   -1    0    0    0    0 -0.00000000000E+00 -0.00000000000E+00 -0.45593999997E+02  0.45594000000E+02  0.51100000000E-03 0. -1.
    9900012    2    1    2    0    0  0.32603762235E+01 -0.90780784461E+00  0.18418059548E+02  0.72461572532E+02  0.70000002915E+02 0.  0.
         12    1    1    2    0    0 -0.32603762235E+01  0.90780784461E+00 -0.18418059548E+02  0.18726427468E+02  0.00000000000E+00 0. -1.
         11    1    3    3    0    0 -0.33996965851E+01 -0.15849900974E+01  0.98876812724E+01  0.10575271707E+02  0.51100000000E-03 0. -1.
        -11    1    3    3    0    0 -0.65558480441E+01 -0.27804359333E+02 -0.23325998200E+01  0.28661866019E+02  0.51100000000E-03 0.  1.
         12    1    3    3    0    0  0.13215920853E+02  0.28481541586E+02  0.10862978095E+02  0.33224434806E+02  0.00000000000E+00 0. -1.
</event>
<event>
 7    1  0.2932676E-013  0.7246123E+02  0.7816164E-02  0.1226709E+00
        -11   -1    0    0    0    0  0.00000000000E+00  0.00000000000E+00  0.45593999997E+02  0.45594000000E+02  0.51100000000E-03 0.  1.
         11   -1    0    0    0    0 -0.00000000000E+00 -0.00000000000E+00 -0.45593999997E+02  0.45594000000E+02  0.51100000000E-03 0. -1.
    9900012    2    1    2    0    0  0.19520043299E+01  0.11169433053E+02  0.14903868031E+02  0.72461232048E+02  0.69999559370E+02 0.  0.
         12    1    1    2    0    0 -0.19520043299E+01 -0.11169433053E+02 -0.14903868031E+02  0.18726767952E+02  0.00000000000E+00 0. -1.
         11    1    3    3    0    0  0.18966079960E+02  0.13424092647E+01  0.11505063176E+02  0.22223427517E+02  0.51100000000E-03 0. -1.
        -11    1    3    3    0    0  0.15228387565E+02  0.72858466856E+01 -0.33197781364E+01  0.17204891075E+02  0.51100000000E-03 0.  1.
        -12    1    3    3    0    0 -0.32242463195E+02  0.25411771030E+01  0.67185829911E+01  0.33032913456E+02  0.00000000000E+00 0.  1.
</event>
<event>
 7    1  0.2932676E-013  0.7246136E+02  0.7816164E-02  0.1226709E+00
        -11   -1    0    0    0    0  0.00000000000E+00  0.00000000000E+00  0.45593999997E+02  0.45594000000E+02  0.51100000000E-03 0.  1.
         11   -1    0    0    0    0 -0.00000000000E+00 -0.00000000000E+00 -0.45593999997E+02  0.45594000000E+02  0.51100000000E-03 0. -1.
    9900012    2    1    2    0    0 -0.92935809396E+01 -0.43185566358E+01  0.15673745048E+02  0.72461364906E+02  0.69999732443E+02 0.  0.
         12    1    1    2    0    0  0.92935809396E+01  0.43185566358E+01 -0.15673745048E+02  0.18726635094E+02  0.00000000000E+00 0. -1.
         11    1    3    3    0    0  0.96830986358E+01  0.68781986216E+01  0.82955349093E+01  0.14487508936E+02  0.51100000000E-03 0. -1.
        -11    1    3    3    0    0 -0.12696850049E+01 -0.29593544964E+02  0.12118157267E+02  0.32003745709E+02  0.51100000000E-03 0.  1.
         12    1    3    3    0    0 -0.17706994570E+02  0.18396789707E+02 -0.47399471282E+01  0.25970110262E+02  0.00000000000E+00 0. -1.
</event>
<event>
 7    1  0.3581941E-013  0.7246145E+02  0.7816164E-02  0.1226708E+00
        -11   -1    0    0    0    0  0.00000000000E+00  0.00000000000E+00  0.45593999997E+02  0.45594000000E+02  0.51100000000E-03 0. -1.
         11   -1    0    0    0    0 -0.00000000000E+00 -0.00000000000E+00 -0.45593999997E+02  0.45594000000E+02  0.51100000000E-03 0.  1.
    9900012    2    1    2    0    0 -0.14063126586E+02  0.73473825076E+01 -0.99462523353E+01  0.72461454814E+02  0.69999849565E+02 0.  0.
         12    1    1    2    0    0  0.14063126586E+02 -0.73473825076E+01  0.99462523353E+01  0.18726545186E+02  0.00000000000E+00 0. -1.
         11    1    3    3    0    0  0.85029715454E+01  0.16726688635E+02  0.13674906344E+02  0.23218219173E+02  0.51100000000E-03 0. -1.
        -11    1    3    3    0    0  0.66384704796E+01 -0.36418226278E+01 -0.17203907408E+02  0.18796451599E+02  0.51100000000E-03 0.  1.
        -12    1    3    3    0    0 -0.29204568611E+02 -0.57374834992E+01 -0.64172512712E+01  0.30446784042E+02  0.00000000000E+00 0.  1.
</event>
<event>
 7    1  0.2932676E-013  0.7246182E+02  0.7816164E-02  0.1226707E+00
        -11   -1    0    0    0    0  0.00000000000E+00  0.00000000000E+00  0.45593999997E+02  0.45594000000E+02  0.51100000000E-03 0. -1.
         11   -1    0    0    0    0 -0.00000000000E+00 -0.00000000000E+00 -0.45593999997E+02  0.45594000000E+02  0.51100000000E-03 0.  1.
    9900012    2    1    2    0    0 -0.78504215065E+01  0.13803931279E+02 -0.99243235952E+01  0.72461819519E+02  0.70000324661E+02 0.  0.
         12    1    1    2    0    0  0.78504215065E+01 -0.13803931279E+02  0.99243235952E+01  0.18726180481E+02  0.00000000000E+00 0. -1.
         11    1    3    3    0    0 -0.73374009860E+01  0.22312946659E+01 -0.30411333612E+02  0.31363439567E+02  0.51100000000E-03 0. -1.
        -11    1    3    3    0    0  0.23969892498E+01  0.18726870575E+02 -0.34283334357E+00  0.18882763939E+02  0.51100000000E-03 0.  1.
        -12    1    3    3    0    0 -0.29100097703E+01 -0.71542339621E+01  0.20829843360E+02  0.22215616014E+02  0.00000000000E+00 0.  1.
</event>
<event>
 7    1  0.2932676E-013  0.7246158E+02  0.7816164E-02  0.1226708E+00
        -11   -1    0    0    0    0  0.00000000000E+00  0.00000000000E+00  0.45593999997E+02  0.45594000000E+02  0.51100000000E-03 0.  1.
         11   -1    0    0    0    0 -0.00000000000E+00 -0.00000000000E+00 -0.45593999997E+02  0.45594000000E+02  0.51100000000E-03 0. -1.
    9900012    2    1    2    0    0  0.75715258405E+00  0.43774392985E+01  0.18191858989E+02  0.72461575132E+02  0.70000006303E+02 0.  0.
         12    1    1    2    0    0 -0.75715258405E+00 -0.43774392985E+01 -0.18191858989E+02  0.18726424868E+02  0.00000000000E+00 0. -1.
         11    1    3    3    0    0 -0.10594609068E+02  0.17936660253E+02 -0.12034862105E+02  0.24058416998E+02  0.51100000000E-03 0. -1.
        -11    1    3    3    0    0  0.14637926619E+01  0.10694686440E+02  0.13665421283E+02  0.17414440735E+02  0.51100000000E-03 0.  1.
         12    1    3    3    0    0  0.98879689897E+01 -0.24253907394E+02  0.16561299812E+02  0.30988717399E+02  0.00000000000E+00 0. -1.
</event>
<event>
 7    1  0.2932676E-013  0.7246158E+02  0.7816164E-02  0.1226708E+00
        -11   -1    0    0    0    0  0.00000000000E+00  0.00000000000E+00  0.45593999997E+02  0.45594000000E+02  0.51100000000E-03 0. -1.
         11   -1    0    0    0    0 -0.00000000000E+00 -0.00000000000E+00 -0.45593999997E+02  0.45594000000E+02  0.51100000000E-03 0.  1.
    9900012    2    1    2    0    0  0.11149632840E+02  0.11766445718E+02 -0.93763198527E+01  0.72461576655E+02  0.70000008286E+02 0.  0.
         12    1    1    2    0    0 -0.11149632840E+02 -0.11766445718E+02  0.93763198527E+01  0.18726423345E+02  0.00000000000E+00 0. -1.
         11    1    3    3    0    0 -0.25806375208E+01  0.94974083274E+01  0.68237736851E+01  0.11975990252E+02  0.51100000000E-03 0. -1.
        -11    1    3    3    0    0  0.20646668985E+02 -0.78104011628E+00 -0.34764684422E+02  0.40441046562E+02  0.51100000000E-03 0.  1.
         12    1    3    3    0    0 -0.69163986239E+01  0.30500775069E+01  0.18564590884E+02  0.20044539841E+02  0.00000000000E+00 0. -1.
</event>
<event>
 7    1  0.2932676E-013  0.7246159E+02  0.7816164E-02  0.1226708E+00
        -11   -1    0    0    0    0  0.00000000000E+00  0.00000000000E+00  0.45593999997E+02  0.45594000000E+02  0.51100000000E-03 0. -1.
         11   -1    0    0    0    0 -0.00000000000E+00 -0.00000000000E+00 -0.45593999997E+02  0.45594000000E+02  0.51100000000E-03 0.  1.
    9900012    2    1    2    0    0 -0.16413002638E+02  0.14736085182E+01 -0.88949563643E+01  0.72461590136E+02  0.70000025848E+02 0.  0.
         12    1    1    2    0    0  0.16413002638E+02 -0.14736085182E+01  0.88949563643E+01  0.18726409864E+02  0.00000000000E+00 0. -1.
         11    1    3    3    0    0 -0.41971955195E+00 -0.40880370901E+01 -0.92594836648E-01  0.41105700112E+01  0.51100000000E-03 0. -1.
        -11    1    3    3    0    0 -0.17171140080E+02 -0.17707021073E+02 -0.28607184573E+02  0.37772445729E+02  0.51100000000E-03 0.  1.
         12    1    3    3    0    0  0.11778569934E+01  0.23268666681E+02  0.19804823045E+02  0.30578574396E+02  0.00000000000E+00 0. -1.
</event>
<event>
 7    1  0.2932676E-013  0.7246156E+02  0.7816164E-02  0.1226708E+00
        -11   -1    0    0    0    0  0.00000000000E+00  0.00000000000E+00  0.45593999997E+02  0.45594000000E+02  0.51100000000E-03 0.  1.
         11   -1    0    0    0    0 -0.00000000000E+00 -0.00000000000E+00 -0.45593999997E+02  0.45594000000E+02  0.51100000000E-03 0. -1.
    9900012    2    1    2    0    0 -0.17463512848E+02  0.25081786753E+01  0.62780819711E+01  0.72461560016E+02  0.69999986610E+02 0.  0.
         12    1    1    2    0    0  0.17463512848E+02 -0.25081786753E+01 -0.62780819711E+01  0.18726439984E+02  0.00000000000E+00 0. -1.
         11    1    3    3    0    0 -0.15443465451E+02  0.12966208705E+02 -0.16819017048E+02  0.26258380149E+02  0.51100000000E-03 0. -1.
        -11    1    3    3    0    0 -0.19022094283E+02  0.17066350802E+01  0.11580659151E+02  0.22335271228E+02  0.51100000000E-03 0.  1.
         12    1    3    3    0    0  0.17002046886E+02 -0.12164665110E+02  0.11516439867E+02  0.23867908639E+02  0.00000000000E+00 0. -1.
</event>
