<event>
 7    1  0.6246445E-012  0.5930195E+02  0.7816164E-02  0.1266605E+00
        -11   -1    0    0    0    0  0.00000000000E+00  0.00000000000E+00  0.45593999997E+02  0.45594000000E+02  0.51100000000E-03 0.  1.
         11   -1    0    0    0    0 -0.00000000000E+00 -0.00000000000E+00 -0.45593999997E+02  0.45594000000E+02  0.51100000000E-03 0. -1.
    9900012    2    1    2    0    0  0.53709820580E+01 -0.24428787956E+02  0.19776423528E+02  0.59301952003E+02  0.50000014546E+02 0.  0.
         12    1    1    2    0    0 -0.53709820580E+01  0.24428787956E+02 -0.19776423528E+02  0.31886047997E+02  0.00000000000E+00 0. -1.
         11    1    3    3    0    0 -0.76449960853E+01  0.78252521842E+01 -0.45020012566E+01  0.11829985311E+02  0.51100000000E-03 0. -1.
        -11    1    3    3    0    0  0.70465899190E+01 -0.61300777869E+00  0.10000616507E+02  0.12249185230E+02  0.51100000000E-03 0.  1.
        -12    1    3    3    0    0  0.59693882243E+01 -0.31641032362E+02  0.14277808278E+02  0.35222781462E+02  0.00000000000E+00 0.  1.
</event>
<event>
 7    1  0.6246445E-012  0.5930182E+02  0.7816164E-02  0.1266605E+00
        -11   -1    0    0    0    0  0.00000000000E+00  0.00000000000E+00  0.45593999997E+02  0.45594000000E+02  0.51100000000E-03 0. -1.
         11   -1    0    0    0    0 -0.00000000000E+00 -0.00000000000E+00 -0.45593999997E+02  0.45594000000E+02  0.51100000000E-03 0.  1.
    9900012    2    1    2    0    0  0.27145142405E+02 -0.65343575820E+00 -0.16716549492E+02  0.59301815509E+02  0.49999765612E+02 0.  0.
         12    1    1    2    0    0 -0.27145142405E+02  0.65343575820E+00  0.16716549492E+02  0.31886184491E+02  0.00000000000E+00 0. -1.
         11    1    3    3    0    0 -0.94464767898E+01  0.12742289796E+02 -0.94008540393E+01  0.18438490446E+02  0.51100000000E-03 0. -1.
        -11    1    3    3    0    0  0.23031462020E+01  0.10347031275E+01  0.10474848585E+01  0.27335540565E+01  0.51100000000E-03 0.  1.
        -12    1    3    3    0    0  0.34288472993E+02 -0.14430428682E+02 -0.83631803114E+01  0.38129771007E+02  0.00000000000E+00 0.  1.
</event>
<event>
 7    1  0.6246445E-012  0.5930199E+02  0.7816164E-02  0.1266605E+00
        -11   -1    0    0    0    0  0.00000000000E+00  0.00000000000E+00  0.45593999997E+02  0.45594000000E+02  0.51100000000E-03 0.  1.
         11   -1    0    0    0    0 -0.00000000000E+00 -0.00000000000E+00 -0.45593999997E+02  0.45594000000E+02  0.51100000000E-03 0. -1.
    9900012    2    1    2    0    0  0.21647968107E+02  0.13170762716E+01  0.23374098672E+02  0.59301988933E+02  0.50000081896E+02 0.  0.
         12    1    1    2    0    0 -0.21647968107E+02 -0.13170762716E+01 -0.23374098672E+02  0.31886011067E+02  0.00000000000E+00 0. -1.
         11    1    3    3    0    0  0.17992024890E+01 -0.96007984109E+01  0.27693934537E+02  0.29366076860E+02  0.51100000000E-03 0.  1.
        -11    1    3    3    0    0  0.21776652956E+01  0.64036756273E+00 -0.87324290675E+01  0.90226168286E+01  0.51100000000E-03 0. -1.
        -12    1    3    3    0    0  0.17671100323E+02  0.10277507120E+02  0.44125932019E+01  0.20913295244E+02  0.00000000000E+00 0.  1.
</event>
<event>
 7    1  0.6246445E-012  0.5930207E+02  0.7816164E-02  0.1266604E+00
        -11   -1    0    0    0    0  0.00000000000E+00  0.00000000000E+00  0.45593999997E+02  0.45594000000E+02  0.51100000000E-03 0.  1.
         11   -1    0    0    0    0 -0.00000000000E+00 -0.00000000000E+00 -0.45593999997E+02  0.45594000000E+02  0.51100000000E-03 0. -1.
    9900012    2    1    2    0    0  0.17456953471E+02  0.92510967433E+00  0.26666669462E+02  0.59302073440E+02  0.50000236017E+02 0.  0.
         12    1    1    2    0    0 -0.17456953471E+02 -0.92510967433E+00 -0.26666669462E+02  0.31885926560E+02  0.00000000000E+00 0. -1.
         11    1    3    3    0    0 -0.11635797561E+02 -0.12449403283E+02  0.19914850914E+02  0.26210316941E+02  0.51100000000E-03 0. -1.
        -11    1    3    3    0    0  0.14337297339E+02  0.91744460005E+01  0.42924045806E+01  0.17554295536E+02  0.51100000000E-03 0.  1.
        -12    1    3    3    0    0  0.14755453693E+02  0.42000669568E+01  0.24594139671E+01  0.15537460963E+02  0.00000000000E+00 0.  1.
</event>
<event>
 7    1  0.6246445E-012  0.5930193E+02  0.7816164E-02  0.1266605E+00
        -11   -1    0    0    0    0  0.00000000000E+00  0.00000000000E+00  0.45593999997E+02  0.45594000000E+02  0.51100000000E-03 0. -1.
         11   -1    0    0    0    0 -0.00000000000E+00 -0.00000000000E+00 -0.45593999997E+02  0.45594000000E+02  0.51100000000E-03 0.  1.
    9900012    2    1    2    0    0  0.25918027035E+01  0.29985983485E+02 -0.10528275862E+02  0.59301933459E+02  0.49999980725E+02 0.  0.
         12    1    1    2    0    0 -0.25918027035E+01 -0.29985983485E+02  0.10528275862E+02  0.31886066541E+02  0.00000000000E+00 0. -1.
         11    1    3    3    0    0 -0.57818524975E+01 -0.33333000532E+01  0.23240963816E+01  0.70669747275E+01  0.51100000000E-03 0. -1.
        -11    1    3    3    0    0 -0.21484416129E+01  0.13552576042E+02 -0.23674896418E+02  0.27364006275E+02  0.51100000000E-03 0.  1.
         12    1    3    3    0    0  0.10522096814E+02  0.19766707496E+02  0.10822524174E+02  0.24870952457E+02  0.00000000000E+00 0. -1.
</event>
<event>
 7    1  0.6246445E-012  0.5930201E+02  0.7816164E-02  0.1266605E+00
        -11   -1    0    0    0    0  0.00000000000E+00  0.00000000000E+00  0.45593999997E+02  0.45594000000E+02  0.51100000000E-03 0.  1.
         11   -1    0    0    0    0 -0.00000000000E+00 -0.00000000000E+00 -0.45593999997E+02  0.45594000000E+02  0.51100000000E-03 0. -1.
    9900012    2    1    2    0    0  0.99505785181E+01  0.27788455324E+02  0.12062510940E+02  0.59302008839E+02  0.50000118201E+02 0.  0.
         12    1    1    2    0    0 -0.99505785181E+01 -0.27788455324E+02 -0.12062510940E+02  0.31885991161E+02  0.00000000000E+00 0. -1.
         11    1    3    3    0    0 -0.41791552381E+01  0.94107424196E+01 -0.74162749532E+01  0.12689702354E+02  0.51100000000E-03 0. -1.
        -11    1    3    3    0    0  0.24068300061E+02  0.47191723604E+01  0.66817714695E+01  0.25420458804E+02  0.51100000000E-03 0.  1.
         12    1    3    3    0    0 -0.99385663045E+01  0.13658540544E+02  0.12797014424E+02  0.21191847681E+02  0.00000000000E+00 0. -1.
</event>
<event>
 7    1  0.6246445E-012  0.5930197E+02  0.7816164E-02  0.1266605E+00
        -11   -1    0    0    0    0  0.00000000000E+00  0.00000000000E+00  0.45593999997E+02  0.45594000000E+02  0.51100000000E-03 0.  1.
         11   -1    0    0    0    0 -0.00000000000E+00 -0.00000000000E+00 -0.45593999997E+02  0.45594000000E+02  0.51100000000E-03 0. -1.
    9900012    2    1    2    0    0  0.13567705226E+02  0.19940894469E+02  0.20856586480E+02  0.59301967056E+02  0.50000041997E+02 0.  0.
         12    1    1    2    0    0 -0.13567705226E+02 -0.19940894469E+02 -0.20856586480E+02  0.31886032944E+02  0.00000000000E+00 0. -1.
         11    1    3    3    0    0  0.22745717173E+02  0.52644904227E+01  0.14308550606E+02  0.27382788935E+02  0.51100000000E-03 0. -1.
        -11    1    3    3    0    0  0.56475437886E+00  0.14961845515E+01 -0.91114405682E+01  0.92507224156E+01  0.51100000000E-03 0.  1.
        -12    1    3    3    0    0 -0.97427663262E+01  0.13180219495E+02  0.15659476442E+02  0.22668455705E+02  0.00000000000E+00 0.  1.
</event>
<event>
 7    1  0.6246445E-012  0.5930193E+02  0.7816164E-02  0.1266605E+00
        -11   -1    0    0    0    0  0.00000000000E+00  0.00000000000E+00  0.45593999997E+02  0.45594000000E+02  0.51100000000E-03 0.  1.
         11   -1    0    0    0    0 -0.00000000000E+00 -0.00000000000E+00 -0.45593999997E+02  0.45594000000E+02  0.51100000000E-03 0. -1.
    9900012    2    1    2    0    0  0.26197599099E+02 -0.35182203376E+01  0.17833385865E+02  0.59301925856E+02  0.49999966860E+02 0.  0.
         12    1    1    2    0    0 -0.26197599099E+02  0.35182203376E+01 -0.17833385865E+02  0.31886074144E+02  0.00000000000E+00 0. -1.
         11    1    3    3    0    0  0.62908685093E+00 -0.14618440041E+01  0.13171602578E+02  0.13267398121E+02  0.51100000000E-03 0. -1.
        -11    1    3    3    0    0  0.22351204927E+01 -0.50701748962E+01  0.18107445741E+02  0.18936262266E+02  0.51100000000E-03 0.  1.
        -12    1    3    3    0    0  0.23333391755E+02  0.30137985626E+01 -0.13445662455E+02  0.27098265469E+02  0.00000000000E+00 0.  1.
</event>
<event>
 7    1  0.6246445E-012  0.5930195E+02  0.7816164E-02  0.1266605E+00
        -11   -1    0    0    0    0  0.00000000000E+00  0.00000000000E+00  0.45593999997E+02  0.45594000000E+02  0.51100000000E-03 0. -1.
         11   -1    0    0    0    0 -0.00000000000E+00 -0.00000000000E+00 -0.45593999997E+02  0.45594000000E+02  0.51100000000E-03 0.  1.
    9900012    2    1    2    0    0 -0.77769130051E+01  0.30562627254E+02 -0.47080310367E+01  0.59301951063E+02  0.50000012831E+02 0.  0.
         12    1    1    2    0    0  0.77769130051E+01 -0.30562627254E+02  0.47080310367E+01  0.31886048937E+02  0.00000000000E+00 0. -1.
         11    1    3    3    0    0 -0.18050026837E+02  0.27799808344E+02  0.64921556000E+01  0.33775448145E+02  0.51100000000E-03 0. -1.
        -11    1    3    3    0    0  0.43514465777E+01  0.68142791282E+01 -0.15269458196E+02  0.17277900371E+02  0.51100000000E-03 0.  1.
        -12    1    3    3    0    0  0.59216672541E+01 -0.40514602182E+01  0.40692715594E+01  0.82486025478E+01  0.00000000000E+00 0.  1.
</event>
<event>
 7    1  0.6246445E-012  0.5930199E+02  0.7816164E-02  0.1266605E+00
        -11   -1    0    0    0    0  0.00000000000E+00  0.00000000000E+00  0.45593999997E+02  0.45594000000E+02  0.51100000000E-03 0.  1.
         11   -1    0    0    0    0 -0.00000000000E+00 -0.00000000000E+00 -0.45593999997E+02  0.45594000000E+02  0.51100000000E-03 0. -1.
    9900012    2    1    2    0    0 -0.23521316270E+02 -0.80211340606E+01  0.19978148287E+02  0.59301994925E+02  0.50000092824E+02 0.  0.
         12    1    1    2    0    0  0.23521316270E+02  0.80211340606E+01 -0.19978148287E+02  0.31886005075E+02  0.00000000000E+00 0. -1.
         11    1    3    3    0    0 -0.13528831736E+02  0.35201142091E+01  0.50633918681E+01  0.14868033820E+02  0.51100000000E-03 0. -1.
        -11    1    3    3    0    0  0.13293165775E+01  0.32905507037E+01  0.23590852229E+02  0.23856301382E+02  0.51100000000E-03 0.  1.
         12    1    3    3    0    0 -0.11321801111E+02 -0.14831798973E+02 -0.86760958096E+01  0.20577659723E+02  0.00000000000E+00 0. -1.
</event>
<event>
 7    1  0.6246445E-012  0.5930194E+02  0.7816164E-02  0.1266605E+00
        -11   -1    0    0    0    0  0.00000000000E+00  0.00000000000E+00  0.45593999997E+02  0.45594000000E+02  0.51100000000E-03 0.  1.
         11   -1    0    0    0    0 -0.00000000000E+00 -0.00000000000E+00 -0.45593999997E+02  0.45594000000E+02  0.51100000000E-03 0. -1.
    9900012    2    1    2    0    0 -0.94408546023E+01 -0.26558526060E+02  0.14907580304E+02  0.59301937329E+02  0.49999987784E+02 0.  0.
         12    1    1    2    0    0  0.94408546023E+01  0.26558526060E+02 -0.14907580304E+02  0.31886062671E+02  0.00000000000E+00 0. -1.
         11    1    3    3    0    0  0.10241173374E+02 -0.70899989144E+00  0.14652875813E+02  0.17891089480E+02  0.51100000000E-03 0. -1.
        -11    1    3    3    0    0 -0.12531498219E+02  0.62806938403E+00 -0.49624170250E+01  0.13492905608E+02  0.51100000000E-03 0.  1.
        -12    1    3    3    0    0 -0.71505297573E+01 -0.26477595553E+02  0.52171215157E+01  0.27917942241E+02  0.00000000000E+00 0.  1.
</event>
<event>
 7    1  0.6246445E-012  0.5930192E+02  0.7816164E-02  0.1266605E+00
        -11   -1    0    0    0    0  0.00000000000E+00  0.00000000000E+00  0.45593999997E+02  0.45594000000E+02  0.51100000000E-03 0.  1.
         11   -1    0    0    0    0 -0.00000000000E+00 -0.00000000000E+00 -0.45593999997E+02  0.45594000000E+02  0.51100000000E-03 0. -1.
    9900012    2    1    2    0    0  0.12960633818E+02  0.14888324812E+02  0.25041605912E+02  0.59301917278E+02  0.49999951216E+02 0.  0.
         12    1    1    2    0    0 -0.12960633818E+02 -0.14888324812E+02 -0.25041605912E+02  0.31886082722E+02  0.00000000000E+00 0. -1.
         11    1    3    3    0    0 -0.97773684042E+01  0.98200766265E+01  0.18005232270E+02  0.22720458341E+02  0.51100000000E-03 0. -1.
        -11    1    3    3    0    0 -0.11058537228E+01  0.26135598835E+01  0.11805449847E+02  0.12141756631E+02  0.51100000000E-03 0.  1.
        -12    1    3    3    0    0  0.23843855945E+02  0.24546883024E+01 -0.47690762054E+01  0.24439702307E+02  0.00000000000E+00 0.  1.
</event>
<event>
 7    1  0.6246445E-012  0.5930195E+02  0.7816164E-02  0.1266605E+00
        -11   -1    0    0    0    0  0.00000000000E+00  0.00000000000E+00  0.45593999997E+02  0.45594000000E+02  0.51100000000E-03 0. -1.
         11   -1    0    0    0    0 -0.00000000000E+00 -0.00000000000E+00 -0.45593999997E+02  0.45594000000E+02  0.51100000000E-03 0.  1.
    9900012    2    1    2    0    0 -0.19605935444E+02  0.73760323203E+01 -0.24039995176E+02  0.59301954063E+02  0.50000018302E+02 0.  0.
         12    1    1    2    0    0  0.19605935444E+02 -0.73760323203E+01  0.24039995176E+02  0.31886045937E+02  0.00000000000E+00 0. -1.
         11    1    3    3    0    0 -0.96377218586E+01 -0.72632608801E+01  0.81140498165E+01  0.14542298509E+02  0.51100000000E-03 0. -1.
        -11    1    3    3    0    0 -0.88633333361E+01 -0.38404367519E+01 -0.21079375283E+02  0.23187231289E+02  0.51100000000E-03 0.  1.
         12    1    3    3    0    0 -0.11048802490E+01  0.18479729952E+02 -0.11074669710E+02  0.21572424265E+02  0.00000000000E+00 0. -1.
</event>
<event>
 7    1  0.6246445E-012  0.5930195E+02  0.7816164E-02  0.1266605E+00
        -11   -1    0    0    0    0  0.00000000000E+00  0.00000000000E+00  0.45593999997E+02  0.45594000000E+02  0.51100000000E-03 0.  1.
         11   -1    0    0    0    0 -0.00000000000E+00 -0.00000000000E+00 -0.45593999997E+02  0.45594000000E+02  0.51100000000E-03 0. -1.
    9900012    2    1    2    0    0 -0.24842311217E+02 -0.11363548459E+02  0.16445356940E+02  0.59301946229E+02  0.50000004015E+02 0.  0.
         12    1    1    2    0    0  0.24842311217E+02  0.11363548459E+02 -0.16445356940E+02  0.31886053771E+02  0.00000000000E+00 0. -1.
         11    1    3    3    0    0  0.84525195310E+01 -0.62181486908E+01  0.20782339177E+01  0.10697173273E+02  0.51100000000E-03 0. -1.
        -11    1    3    3    0    0 -0.12735161647E+02 -0.15329287904E+02  0.16065589145E+02  0.25598331287E+02  0.51100000000E-03 0.  1.
        -12    1    3    3    0    0 -0.20559669101E+02  0.10183888136E+02 -0.16984661224E+01  0.23006441669E+02  0.00000000000E+00 0.  1.
</event>
<event>
 7    1  0.6246445E-012  0.5930190E+02  0.7816164E-02  0.1266605E+00
        -11   -1    0    0    0    0  0.00000000000E+00  0.00000000000E+00  0.45593999997E+02  0.45594000000E+02  0.51100000000E-03 0. -1.
         11   -1    0    0    0    0 -0.00000000000E+00 -0.00000000000E+00 -0.45593999997E+02  0.45594000000E+02  0.51100000000E-03 0.  1.
    9900012    2    1    2    0    0  0.41054222555E+01  0.23794436757E+02  0.20825316290E+02  0.59301897838E+02  0.49999915761E+02 0.  0.
         12    1    1    2    0    0 -0.41054222555E+01 -0.23794436757E+02 -0.20825316290E+02  0.31886102162E+02  0.00000000000E+00 0. -1.
         11    1    3    3    0    0 -0.73597394404E+01  0.20882405240E+02  0.24536769460E+02  0.33049866399E+02  0.51100000000E-03 0. -1.
        -11    1    3    3    0    0  0.96893944832E+01  0.11648208790E+02 -0.70774663226E+01  0.16722908338E+02  0.51100000000E-03 0.  1.
        -12    1    3    3    0    0  0.17757672127E+01 -0.87361772726E+01  0.33660131528E+01  0.95291231011E+01  0.00000000000E+00 0.  1.
</event>
<event>
 7    1  0.6246445E-012  0.5930194E+02  0.7816164E-02  0.1266605E+00
        -11   -1    0    0    0    0  0.00000000000E+00  0.00000000000E+00  0.45593999997E+02  0.45594000000E+02  0.51100000000E-03 0.  1.
         11   -1    0    0    0    0 -0.00000000000E+00 -0.00000000000E+00 -0.45593999997E+02  0.45594000000E+02  0.51100000000E-03 0. -1.
    9900012    2    1    2    0    0  0.29501173516E+02  0.11939959925E+02  0.19592693390E+01  0.59301943201E+02  0.49999998493E+02 0.  0.
         12    1    1    2    0    0 -0.29501173516E+02 -0.11939959925E+02 -0.19592693390E+01  0.31886056799E+02  0.00000000000E+00 0. -1.
         11    1    3    3    0    0  0.12482983722E+01  0.12847593325E+01 -0.13893179988E+02  0.14008187100E+02  0.51100000000E-03 0. -1.
        -11    1    3    3    0    0  0.35679158581E+01  0.14638052491E+02  0.13410876134E+02  0.20170627239E+02  0.51100000000E-03 0.  1.
        -12    1    3    3    0    0  0.24684959286E+02 -0.39828518987E+01  0.24415731936E+01  0.25123128863E+02  0.00000000000E+00 0.  1.
</event>
<event>
 7    1  0.6246445E-012  0.5930194E+02  0.7816164E-02  0.1266605E+00
        -11   -1    0    0    0    0  0.00000000000E+00  0.00000000000E+00  0.45593999997E+02  0.45594000000E+02  0.51100000000E-03 0.  1.
         11   -1    0    0    0    0 -0.00000000000E+00 -0.00000000000E+00 -0.45593999997E+02  0.45594000000E+02  0.51100000000E-03 0. -1.
    9900012    2    1    2    0    0 -0.16016105574E+02  0.21052818794E+02  0.17804038447E+02  0.59301943455E+02  0.49999998956E+02 0.  0.
         12    1    1    2    0    0  0.16016105574E+02 -0.21052818794E+02 -0.17804038447E+02  0.31886056545E+02  0.00000000000E+00 0. -1.
         11    1    3    3    0    0 -0.16185349548E+02 -0.49367574418E+01  0.78871807265E+01  0.18669352804E+02  0.51100000000E-03 0. -1.
        -11    1    3    3    0    0 -0.17227945700E+01 -0.62909808035E+01  0.42999199989E+01  0.78124114624E+01  0.51100000000E-03 0.  1.
        -12    1    3    3    0    0  0.18920385442E+01  0.32280557040E+02  0.56169377220E+01  0.32820179189E+02  0.00000000000E+00 0.  1.
</event>
<event>
 7    1  0.6246445E-012  0.5930191E+02  0.7816164E-02  0.1266605E+00
        -11   -1    0    0    0    0  0.00000000000E+00  0.00000000000E+00  0.45593999997E+02  0.45594000000E+02  0.51100000000E-03 0.  1.
         11   -1    0    0    0    0 -0.00000000000E+00 -0.00000000000E+00 -0.45593999997E+02  0.45594000000E+02  0.51100000000E-03 0. -1.
    9900012    2    1    2    0    0 -0.13103883737E+02  0.26613106922E+02  0.11694154579E+02  0.59301914001E+02  0.49999945238E+02 0.  0.
         12    1    1    2    0    0  0.13103883737E+02 -0.26613106922E+02 -0.11694154579E+02  0.31886085999E+02  0.00000000000E+00 0. -1.
         11    1    3    3    0    0  0.94874777478E+01  0.32746464634E+01  0.10957188003E+02  0.14859189503E+02  0.51100000000E-03 0. -1.
        -11    1    3    3    0    0  0.30436729056E+00 -0.32860555700E+01  0.79380727881E+01  0.85967319667E+01  0.51100000000E-03 0.  1.
        -12    1    3    3    0    0 -0.22895728776E+02  0.26624516028E+02 -0.72011062118E+01  0.35845992532E+02  0.00000000000E+00 0.  1.
</event>
<event>
 7    1  0.6246445E-012  0.5930191E+02  0.7816164E-02  0.1266605E+00
        -11   -1    0    0    0    0  0.00000000000E+00  0.00000000000E+00  0.45593999997E+02  0.45594000000E+02  0.51100000000E-03 0.  1.
         11   -1    0    0    0    0 -0.00000000000E+00 -0.00000000000E+00 -0.45593999997E+02  0.45594000000E+02  0.51100000000E-03 0. -1.
    9900012    2    1    2    0    0  0.97839398065E+01  0.30295942666E+02  0.17756160410E+01  0.59301914752E+02  0.49999946607E+02 0.  0.
         12    1    1    2    0    0 -0.97839398065E+01 -0.30295942666E+02 -0.17756160410E+01  0.31886085248E+02  0.00000000000E+00 0. -1.
         11    1    3    3    0    0  0.16714789834E+02  0.40551725592E+01 -0.69733684469E+01  0.18559539095E+02  0.51100000000E-03 0. -1.
        -11    1    3    3    0    0 -0.10217335946E+01  0.24954522013E+02 -0.52248337361E+01  0.25516092888E+02  0.51100000000E-03 0.  1.
         12    1    3    3    0    0 -0.59091164328E+01  0.12862480933E+01  0.13973818224E+02  0.15226282768E+02  0.00000000000E+00 0. -1.
</event>
<event>
 7    1  0.6246445E-012  0.5930195E+02  0.7816164E-02  0.1266605E+00
        -11   -1    0    0    0    0  0.00000000000E+00  0.00000000000E+00  0.45593999997E+02  0.45594000000E+02  0.51100000000E-03 0.  1.
         11   -1    0    0    0    0 -0.00000000000E+00 -0.00000000000E+00 -0.45593999997E+02  0.45594000000E+02  0.51100000000E-03 0. -1.
    9900012    2    1    2    0    0  0.29216434937E+02 -0.11785523070E+02  0.49215171630E+01  0.59301953590E+02  0.50000017440E+02 0.  0.
         12    1    1    2    0    0 -0.29216434937E+02  0.11785523070E+02 -0.49215171630E+01  0.31886046410E+02  0.00000000000E+00 0. -1.
         11    1    3    3    0    0 -0.34443637392E+00 -0.11353111738E+02  0.71300200250E+01  0.13410778067E+02  0.51100000000E-03 0. -1.
        -11    1    3    3    0    0  0.24089095999E-01 -0.62346564886E+00  0.12761568925E+02  0.12776812255E+02  0.51100000000E-03 0.  1.
        -12    1    3    3    0    0  0.29536782215E+02  0.19105431665E+00 -0.14970071787E+02  0.33114363268E+02  0.00000000000E+00 0.  1.
</event>
<event>
 7    1  0.6246445E-012  0.5930197E+02  0.7816164E-02  0.1266605E+00
        -11   -1    0    0    0    0  0.00000000000E+00  0.00000000000E+00  0.45593999997E+02  0.45594000000E+02  0.51100000000E-03 0.  1.
         11   -1    0    0    0    0 -0.00000000000E+00 -0.00000000000E+00 -0.45593999997E+02  0.45594000000E+02  0.51100000000E-03 0. -1.
    9900012    2    1    2    0    0 -0.19994709245E+02  0.20047005367E+02  0.14664509203E+02  0.59301974030E+02  0.50000054717E+02 0.  0.
         12    1    1    2    0    0  0.19994709245E+02 -0.20047005367E+02 -0.14664509203E+02  0.31886025970E+02  0.00000000000E+00 0. -1.
         11    1    3    3    0    0 -0.14457603688E+02  0.14964123939E+02 -0.26988028394E+01  0.20981678834E+02  0.51100000000E-03 0. -1.
        -11    1    3    3    0    0 -0.10981947153E+02  0.15978384881E+02  0.32182679327E+01  0.19653732354E+02  0.51100000000E-03 0.  1.
         12    1    3    3    0    0  0.54448415964E+01 -0.10895503453E+02  0.14145044110E+02  0.18666562843E+02  0.00000000000E+00 0. -1.
</event>
<event>
 7    1  0.6246445E-012  0.5930190E+02  0.7816164E-02  0.1266605E+00
        -11   -1    0    0    0    0  0.00000000000E+00  0.00000000000E+00  0.45593999997E+02  0.45594000000E+02  0.51100000000E-03 0.  1.
         11   -1    0    0    0    0 -0.00000000000E+00 -0.00000000000E+00 -0.45593999997E+02  0.45594000000E+02  0.51100000000E-03 0. -1.
    9900012    2    1    2    0    0 -0.80985866407E+00  0.15680570951E+02  0.27752250087E+02  0.59301897050E+02  0.49999914324E+02 0.  0.
         12    1    1    2    0    0  0.80985866407E+00 -0.15680570951E+02 -0.27752250087E+02  0.31886102950E+02  0.00000000000E+00 0. -1.
         11    1    3    3    0    0  0.18155763366E+01 -0.98848419267E+00  0.22839024808E+01  0.30805241820E+01  0.51100000000E-03 0. -1.
        -11    1    3    3    0    0 -0.48477845151E+01 -0.14064559940E+02 -0.19136926783E+01  0.14999169341E+02  0.51100000000E-03 0.  1.
        -12    1    3    3    0    0  0.22223495145E+01  0.30733615083E+02  0.27382040285E+02  0.41222203527E+02  0.00000000000E+00 0.  1.
</event>
<event>
 7    1  0.6246445E-012  0.5930196E+02  0.7816164E-02  0.1266605E+00
        -11   -1    0    0    0    0  0.00000000000E+00  0.00000000000E+00  0.45593999997E+02  0.45594000000E+02  0.51100000000E-03 0.  1.
         11   -1    0    0    0    0 -0.00000000000E+00 -0.00000000000E+00 -0.45593999997E+02  0.45594000000E+02  0.51100000000E-03 0. -1.
    9900012    2    1    2    0    0 -0.86687611866E+01  0.12303419903E+02  0.28110460779E+02  0.59301959684E+02  0.50000028553E+02 0.  0.
         12    1    1    2    0    0  0.86687611866E+01 -0.12303419903E+02 -0.28110460779E+02  0.31886040316E+02  0.00000000000E+00 0. -1.
         11    1    3    3    0    0 -0.57695018885E+01 -0.23680334057E+01 -0.95307724936E+00  0.63089690724E+01  0.51100000000E-03 0. -1.
        -11    1    3    3    0    0 -0.21272731327E+02  0.90380068495E+01  0.23556344874E+02  0.33001758287E+02  0.51100000000E-03 0.  1.
         12    1    3    3    0    0  0.18373472029E+02  0.56334464594E+01  0.55071931541E+01  0.19991232325E+02  0.00000000000E+00 0. -1.
</event>
<event>
 7    1  0.6246445E-012  0.5930192E+02  0.7816164E-02  0.1266605E+00
        -11   -1    0    0    0    0  0.00000000000E+00  0.00000000000E+00  0.45593999997E+02  0.45594000000E+02  0.51100000000E-03 0.  1.
         11   -1    0    0    0    0 -0.00000000000E+00 -0.00000000000E+00 -0.45593999997E+02  0.45594000000E+02  0.51100000000E-03 0. -1.
    9900012    2    1    2    0    0 -0.31042657505E+02  0.35072821570E+01  0.63855023962E+01  0.59301917551E+02  0.49999951713E+02 0.  0.
         12    1    1    2    0    0  0.31042657505E+02 -0.35072821570E+01 -0.63855023962E+01  0.31886082449E+02  0.00000000000E+00 0. -1.
         11    1    3    3    0    0  0.59154861144E+01 -0.15031446539E+02 -0.92762634965E+00  0.16180168477E+02  0.51100000000E-03 0.  1.
        -11    1    3    3    0    0 -0.10310095915E+02  0.89079044925E+01 -0.79809879861E+00  0.13648655691E+02  0.51100000000E-03 0. -1.
        -12    1    3    3    0    0 -0.26648047704E+02  0.96308242037E+01  0.81112275445E+01  0.29473093383E+02  0.00000000000E+00 0.  1.
</event>
<event>
 7    1  0.6246445E-012  0.5930194E+02  0.7816164E-02  0.1266605E+00
        -11   -1    0    0    0    0  0.00000000000E+00  0.00000000000E+00  0.45593999997E+02  0.45594000000E+02  0.51100000000E-03 0. -1.
         11   -1    0    0    0    0 -0.00000000000E+00 -0.00000000000E+00 -0.45593999997E+02  0.45594000000E+02  0.51100000000E-03 0.  1.
    9900012    2    1    2    0    0 -0.32248562117E+01  0.30748138389E+02 -0.78021113655E+01  0.59301942643E+02  0.49999997475E+02 0.  0.
         12    1    1    2    0    0  0.32248562117E+01 -0.30748138389E+02  0.78021113655E+01  0.31886057357E+02  0.00000000000E+00 0. -1.
         11    1    3    3    0    0  0.21501039704E+01  0.13502547838E+02  0.13142535242E+02  0.18964914396E+02  0.51100000000E-03 0. -1.
        -11    1    3    3    0    0  0.42784601132E+01  0.22163389788E+02 -0.92472180327E+01  0.24393280006E+02  0.51100000000E-03 0.  1.
        -12    1    3    3    0    0 -0.96534202952E+01 -0.49177992368E+01 -0.11697428575E+02  0.15943748242E+02  0.00000000000E+00 0.  1.
</event>
<event>
 7    1  0.6246445E-012  0.5930193E+02  0.7816164E-02  0.1266605E+00
        -11   -1    0    0    0    0  0.00000000000E+00  0.00000000000E+00  0.45593999997E+02  0.45594000000E+02  0.51100000000E-03 0.  1.
         11   -1    0    0    0    0 -0.00000000000E+00 -0.00000000000E+00 -0.45593999997E+02  0.45594000000E+02  0.51100000000E-03 0. -1.
    9900012    2    1    2    0    0 -0.23031653416E+02  0.18014048711E+02 -0.12718422610E+02  0.59301932765E+02  0.49999979459E+02 0.  0.
         12    1    1    2    0    0  0.23031653416E+02 -0.18014048711E+02  0.12718422610E+02  0.31886067235E+02  0.00000000000E+00 0. -1.
         11    1    3    3    0    0 -0.24634944499E+01  0.57283603413E+01 -0.15553942846E+01  0.64266763374E+01  0.51100000000E-03 0. -1.
        -11    1    3    3    0    0  0.55695413392E+01  0.18046906049E+02  0.74194400957E+01  0.20291838267E+02  0.51100000000E-03 0.  1.
         12    1    3    3    0    0 -0.26137700305E+02 -0.57612176791E+01 -0.18582468421E+02  0.32583418160E+02  0.00000000000E+00 0. -1.
</event>
<event>
 7    1  0.6246445E-012  0.5930223E+02  0.7816164E-02  0.1266604E+00
        -11   -1    0    0    0    0  0.00000000000E+00  0.00000000000E+00  0.45593999997E+02  0.45594000000E+02  0.51100000000E-03 0.  1.
         11   -1    0    0    0    0 -0.00000000000E+00 -0.00000000000E+00 -0.45593999997E+02  0.45594000000E+02  0.51100000000E-03 0. -1.
    9900012    2    1    2    0    0 -0.10313247576E+02 -0.29730428481E+02  0.51420578210E+01  0.59302231829E+02  0.50000524877E+02 0.  0.
         12    1    1    2    0    0  0.10313247576E+02  0.29730428481E+02 -0.51420578210E+01  0.31885768171E+02  0.00000000000E+00 0. -1.
         11    1    3    3    0    0 -0.59250001688E+01  0.16111572714E+01  0.10145463946E+02  0.11858831885E+02  0.51100000000E-03 0. -1.
        -11    1    3    3    0    0  0.50395521880E+01 -0.74616033714E+01  0.13194780747E+02  0.15974193262E+02  0.51100000000E-03 0.  1.
         12    1    3    3    0    0 -0.94277995948E+01 -0.23879982381E+02 -0.18198186872E+02  0.31469206682E+02  0.00000000000E+00 0. -1.
</event>
<event>
 7    1  0.6246445E-012  0.5930195E+02  0.7816164E-02  0.1266605E+00
        -11   -1    0    0    0    0  0.00000000000E+00  0.00000000000E+00  0.45593999997E+02  0.45594000000E+02  0.51100000000E-03 0. -1.
         11   -1    0    0    0    0 -0.00000000000E+00 -0.00000000000E+00 -0.45593999997E+02  0.45594000000E+02  0.51100000000E-03 0.  1.
    9900012    2    1    2    0    0 -0.13307348122E+02 -0.28738887735E+02  0.37028666557E+01  0.59301946563E+02  0.50000004624E+02 0.  0.
         12    1    1    2    0    0  0.13307348122E+02  0.28738887735E+02 -0.37028666557E+01  0.31886053437E+02  0.00000000000E+00 0. -1.
         11    1    3    3    0    0 -0.23439735254E+01 -0.32361493433E+02  0.81508973478E+01  0.33454410724E+02  0.51100000000E-03 0. -1.
        -11    1    3    3    0    0 -0.47110553232E+01 -0.77406024357E+01  0.44735254352E+01  0.10105612223E+02  0.51100000000E-03 0.  1.
        -12    1    3    3    0    0 -0.62523192738E+01  0.11363208133E+02 -0.89215561273E+01  0.15741923616E+02  0.00000000000E+00 0.  1.
</event>
<event>
 7    1  0.6246445E-012  0.5930196E+02  0.7816164E-02  0.1266605E+00
        -11   -1    0    0    0    0  0.00000000000E+00  0.00000000000E+00  0.45593999997E+02  0.45594000000E+02  0.51100000000E-03 0.  1.
         11   -1    0    0    0    0 -0.00000000000E+00 -0.00000000000E+00 -0.45593999997E+02  0.45594000000E+02  0.51100000000E-03 0. -1.
    9900012    2    1    2    0    0 -0.24061778996E+02 -0.13768777029E+02  0.15753451415E+02  0.59301958214E+02  0.50000025872E+02 0.  0.
         12    1    1    2    0    0  0.24061778996E+02  0.13768777029E+02 -0.15753451415E+02  0.31886041786E+02  0.00000000000E+00 0. -1.
         11    1    3    3    0    0 -0.34397992231E+00  0.32436596491E+01 -0.74570421035E+01  0.81392338276E+01  0.51100000000E-03 0. -1.
        -11    1    3    3    0    0  0.40011333885E-01 -0.85629280190E+01  0.24460590573E+02  0.25916130664E+02  0.51100000000E-03 0.  1.
         12    1    3    3    0    0 -0.23757810407E+02 -0.84495086588E+01 -0.12500970540E+01  0.25246593722E+02  0.00000000000E+00 0. -1.
</event>
<event>
 7    1  0.6246445E-012  0.5930195E+02  0.7816164E-02  0.1266605E+00
        -11   -1    0    0    0    0  0.00000000000E+00  0.00000000000E+00  0.45593999997E+02  0.45594000000E+02  0.51100000000E-03 0. -1.
         11   -1    0    0    0    0 -0.00000000000E+00 -0.00000000000E+00 -0.45593999997E+02  0.45594000000E+02  0.51100000000E-03 0.  1.
    9900012    2    1    2    0    0  0.12555114595E+02 -0.28657616024E+02  0.61506556337E+01  0.59301946255E+02  0.50000004062E+02 0.  0.
         12    1    1    2    0    0 -0.12555114595E+02  0.28657616024E+02 -0.61506556337E+01  0.31886053745E+02  0.00000000000E+00 0. -1.
         11    1    3    3    0    0 -0.93228468217E+01 -0.15017137848E+02  0.60034937272E+01  0.18667400441E+02  0.51100000000E-03 0. -1.
        -11    1    3    3    0    0  0.42655164103E+00 -0.12220765015E+02 -0.10973676459E+02  0.16430174045E+02  0.51100000000E-03 0.  1.
        -12    1    3    3    0    0  0.21451409776E+02 -0.14197131609E+01  0.11120838365E+02  0.24204371770E+02  0.00000000000E+00 0.  1.
</event>
<event>
 7    1  0.6246445E-012  0.5930190E+02  0.7816164E-02  0.1266605E+00
        -11   -1    0    0    0    0  0.00000000000E+00  0.00000000000E+00  0.45593999997E+02  0.45594000000E+02  0.51100000000E-03 0. -1.
         11   -1    0    0    0    0 -0.00000000000E+00 -0.00000000000E+00 -0.45593999997E+02  0.45594000000E+02  0.51100000000E-03 0.  1.
    9900012    2    1    2    0    0 -0.13669850281E+02 -0.19083826258E+02 -0.21579294168E+02  0.59301903215E+02  0.49999925568E+02 0.  0.
         12    1    1    2    0    0  0.13669850281E+02  0.19083826258E+02  0.21579294168E+02  0.31886096785E+02  0.00000000000E+00 0. -1.
         11    1    3    3    0    0 -0.12204271339E+02  0.40035467990E+01  0.45850018989E+01  0.13637993568E+02  0.51100000000E-03 0. -1.
        -11    1    3    3    0    0 -0.27233559374E+01  0.63874575264E+01 -0.95439177657E+01  0.11802654269E+02  0.51100000000E-03 0.  1.
         12    1    3    3    0    0  0.12577769951E+01 -0.29474830584E+02 -0.16620378302E+02  0.33861255378E+02  0.00000000000E+00 0. -1.
</event>
<event>
 7    1  0.6246445E-012  0.5930203E+02  0.7816164E-02  0.1266604E+00
        -11   -1    0    0    0    0  0.00000000000E+00  0.00000000000E+00  0.45593999997E+02  0.45594000000E+02  0.51100000000E-03 0.  1.
         11   -1    0    0    0    0 -0.00000000000E+00 -0.00000000000E+00 -0.45593999997E+02  0.45594000000E+02  0.51100000000E-03 0. -1.
    9900012    2    1    2    0    0  0.97782739445E+00 -0.16926620592E+02  0.27004604132E+02  0.59302026981E+02  0.50000151286E+02 0.  0.
         12    1    1    2    0    0 -0.97782739445E+00  0.16926620592E+02 -0.27004604132E+02  0.31885973019E+02  0.00000000000E+00 0. -1.
         11    1    3    3    0    0  0.69220498157E+01  0.25305623834E+01  0.14611352184E+02  0.16364905516E+02  0.51100000000E-03 0. -1.
        -11    1    3    3    0    0  0.69408758130E+01  0.31734775179E+01  0.14934594691E+02  0.16771667641E+02  0.51100000000E-03 0.  1.
         12    1    3    3    0    0 -0.12885098234E+02 -0.22630660493E+02 -0.25413427435E+01  0.26165453824E+02  0.00000000000E+00 0. -1.
</event>
<event>
 7    1  0.6246445E-012  0.5930194E+02  0.7816164E-02  0.1266605E+00
        -11   -1    0    0    0    0  0.00000000000E+00  0.00000000000E+00  0.45593999997E+02  0.45594000000E+02  0.51100000000E-03 0.  1.
         11   -1    0    0    0    0 -0.00000000000E+00 -0.00000000000E+00 -0.45593999997E+02  0.45594000000E+02  0.51100000000E-03 0. -1.
    9900012    2    1    2    0    0 -0.98238969248E+01 -0.12973098668E+02  0.27420986179E+02  0.59301941559E+02  0.49999995498E+02 0.  0.
         12    1    1    2    0    0  0.98238969248E+01  0.12973098668E+02 -0.27420986179E+02  0.31886058441E+02  0.00000000000E+00 0. -1.
         11    1    3    3    0    0 -0.44177445807E+01  0.35061843903E+01  0.78041976257E+01  0.96288782837E+01  0.51100000000E-03 0. -1.
        -11    1    3    3    0    0 -0.18022120099E+02 -0.18553289496E+02  0.24840448986E+02  0.35861807959E+02  0.51100000000E-03 0.  1.
         12    1    3    3    0    0  0.12615967755E+02  0.20740064370E+01 -0.52236604329E+01  0.13811255317E+02  0.00000000000E+00 0. -1.
</event>
<event>
 7    1  0.6246445E-012  0.5930192E+02  0.7816164E-02  0.1266605E+00
        -11   -1    0    0    0    0  0.00000000000E+00  0.00000000000E+00  0.45593999997E+02  0.45594000000E+02  0.51100000000E-03 0.  1.
         11   -1    0    0    0    0 -0.00000000000E+00 -0.00000000000E+00 -0.45593999997E+02  0.45594000000E+02  0.51100000000E-03 0. -1.
    9900012    2    1    2    0    0 -0.83996257780E+01 -0.26866048495E+02  0.14979442286E+02  0.59301922064E+02  0.49999959943E+02 0.  0.
         12    1    1    2    0    0  0.83996257780E+01  0.26866048495E+02 -0.14979442286E+02  0.31886077936E+02  0.00000000000E+00 0. -1.
         11    1    3    3    0    0 -0.13270405280E+02 -0.14754876593E+02 -0.54834964983E+01  0.20588316436E+02  0.51100000000E-03 0. -1.
        -11    1    3    3    0    0  0.16811986037E+01 -0.21568186679E+02  0.87782739774E+01  0.23346759939E+02  0.51100000000E-03 0.  1.
         12    1    3    3    0    0  0.31895808980E+01  0.94570147763E+01  0.11684664807E+02  0.15366845689E+02  0.00000000000E+00 0. -1.
</event>
<event>
 7    1  0.7889160E-012  0.5930229E+02  0.7816164E-02  0.1266604E+00
        -11   -1    0    0    0    0  0.00000000000E+00  0.00000000000E+00  0.45593999997E+02  0.45594000000E+02  0.51100000000E-03 0. -1.
         11   -1    0    0    0    0 -0.00000000000E+00 -0.00000000000E+00 -0.45593999997E+02  0.45594000000E+02  0.51100000000E-03 0.  1.
    9900012    2    1    2    0    0 -0.71549679064E+01  0.31030724508E+02 -0.16121776230E+01  0.59302289314E+02  0.50000629716E+02 0.  0.
         12    1    1    2    0    0  0.71549679064E+01 -0.31030724508E+02  0.16121776230E+01  0.31885710686E+02  0.00000000000E+00 0. -1.
         11    1    3    3    0    0  0.46079679094E+01  0.16888339096E+01 -0.12756964553E+02  0.13668418822E+02  0.51100000000E-03 0. -1.
        -11    1    3    3    0    0 -0.62667721818E+01  0.12401862077E+02 -0.10636192781E+02  0.17498777492E+02  0.51100000000E-03 0.  1.
         12    1    3    3    0    0 -0.54961636340E+01  0.16940028521E+02  0.21780979711E+02  0.28135093001E+02  0.00000000000E+00 0. -1.
</event>
<event>
 7    1  0.6246445E-012  0.5930195E+02  0.7816164E-02  0.1266605E+00
        -11   -1    0    0    0    0  0.00000000000E+00  0.00000000000E+00  0.45593999997E+02  0.45594000000E+02  0.51100000000E-03 0.  1.
         11   -1    0    0    0    0 -0.00000000000E+00 -0.00000000000E+00 -0.45593999997E+02  0.45594000000E+02  0.51100000000E-03 0. -1.
    9900012    2    1    2    0    0  0.91864344055E+01 -0.55833755450E+01  0.30019255123E+02  0.59301947599E+02  0.50000006513E+02 0.  0.
         12    1    1    2    0    0 -0.91864344055E+01  0.55833755450E+01 -0.30019255123E+02  0.31886052401E+02  0.00000000000E+00 0. -1.
         11    1    3    3    0    0  0.28453223668E+01 -0.54018609277E+01  0.33443654536E+02  0.33996382011E+02  0.51100000000E-03 0. -1.
        -11    1    3    3    0    0  0.13995383352E+02 -0.47077709579E+01  0.19823806351E+01  0.14898446087E+02  0.51100000000E-03 0.  1.
         12    1    3    3    0    0 -0.76542713137E+01  0.45262563406E+01 -0.54067800480E+01  0.10407119500E+02  0.00000000000E+00 0. -1.
</event>
<event>
 7    1  0.6246445E-012  0.5930195E+02  0.7816164E-02  0.1266605E+00
        -11   -1    0    0    0    0  0.00000000000E+00  0.00000000000E+00  0.45593999997E+02  0.45594000000E+02  0.51100000000E-03 0. -1.
         11   -1    0    0    0    0 -0.00000000000E+00 -0.00000000000E+00 -0.45593999997E+02  0.45594000000E+02  0.51100000000E-03 0.  1.
    9900012    2    1    2    0    0 -0.29780175811E+02  0.25007592043E+01 -0.11117881098E+02  0.59301953710E+02  0.50000017658E+02 0.  0.
         12    1    1    2    0    0  0.29780175811E+02 -0.25007592043E+01  0.11117881098E+02  0.31886046290E+02  0.00000000000E+00 0. -1.
         11    1    3    3    0    0  0.59673291916E+01 -0.12309151791E+02 -0.71811431954E+01  0.15449694280E+02  0.51100000000E-03 0. -1.
        -11    1    3    3    0    0 -0.11545602989E+02 -0.16285288231E+01 -0.82443602190E+01  0.14280144613E+02  0.51100000000E-03 0.  1.
        -12    1    3    3    0    0 -0.24201902014E+02  0.16438439818E+02  0.43076223168E+01  0.29572114817E+02  0.00000000000E+00 0.  1.
</event>
<event>
 7    1  0.6246445E-012  0.5930194E+02  0.7816164E-02  0.1266605E+00
        -11   -1    0    0    0    0  0.00000000000E+00  0.00000000000E+00  0.45593999997E+02  0.45594000000E+02  0.51100000000E-03 0.  1.
         11   -1    0    0    0    0 -0.00000000000E+00 -0.00000000000E+00 -0.45593999997E+02  0.45594000000E+02  0.51100000000E-03 0. -1.
    9900012    2    1    2    0    0  0.23954960740E+01 -0.20227964440E+02  0.24531851670E+02  0.59301942025E+02  0.49999996348E+02 0.  0.
         12    1    1    2    0    0 -0.23954960740E+01  0.20227964440E+02 -0.24531851670E+02  0.31886057975E+02  0.00000000000E+00 0. -1.
         11    1    3    3    0    0 -0.23188171439E+01  0.19065869650E+01 -0.29381430475E+01  0.42005561097E+01  0.51100000000E-03 0. -1.
        -11    1    3    3    0    0  0.16056876119E+02  0.20904474655E+01  0.22773576451E+02  0.27943318091E+02  0.51100000000E-03 0.  1.
        -12    1    3    3    0    0 -0.11342562901E+02 -0.24224998870E+02  0.46964182661E+01  0.27158067825E+02  0.00000000000E+00 0.  1.
</event>
<event>
 7    1  0.6246445E-012  0.5930195E+02  0.7816164E-02  0.1266605E+00
        -11   -1    0    0    0    0  0.00000000000E+00  0.00000000000E+00  0.45593999997E+02  0.45594000000E+02  0.51100000000E-03 0.  1.
         11   -1    0    0    0    0 -0.00000000000E+00 -0.00000000000E+00 -0.45593999997E+02  0.45594000000E+02  0.51100000000E-03 0. -1.
    9900012    2    1    2    0    0 -0.18989070318E+02 -0.19027599769E+02  0.17148939521E+02  0.59301945506E+02  0.50000002695E+02 0.  0.
         12    1    1    2    0    0  0.18989070318E+02  0.19027599769E+02 -0.17148939521E+02  0.31886054494E+02  0.00000000000E+00 0. -1.
         11    1    3    3    0    0  0.46266533719E+01  0.26026010866E+01  0.90776253860E+01  0.10515832670E+02  0.51100000000E-03 0. -1.
        -11    1    3    3    0    0 -0.17327517166E+02  0.63564140542E+01  0.79640315044E+01  0.20101558368E+02  0.51100000000E-03 0.  1.
        -12    1    3    3    0    0 -0.62882065245E+01 -0.27986614910E+02  0.10728263046E+00  0.28684554467E+02  0.00000000000E+00 0.  1.
</event>
<event>
 7    1  0.6246445E-012  0.5930175E+02  0.7816164E-02  0.1266605E+00
        -11   -1    0    0    0    0  0.00000000000E+00  0.00000000000E+00  0.45593999997E+02  0.45594000000E+02  0.51100000000E-03 0.  1.
         11   -1    0    0    0    0 -0.00000000000E+00 -0.00000000000E+00 -0.45593999997E+02  0.45594000000E+02  0.51100000000E-03 0. -1.
    9900012    2    1    2    0    0 -0.13648321078E+02 -0.14373143253E+02  0.24977367390E+02  0.59301752228E+02  0.49999650202E+02 0.  0.
         12    1    1    2    0    0  0.13648321078E+02  0.14373143253E+02 -0.24977367390E+02  0.31886247772E+02  0.00000000000E+00 0. -1.
         11    1    3    3    0    0 -0.22254566432E+01  0.92281028468E+01 -0.75631581140E+01  0.12137211391E+02  0.51100000000E-03 0. -1.
        -11    1    3    3    0    0  0.18958521833E+01  0.79090566839E+00 -0.19759520383E+01  0.28502936684E+01  0.51100000000E-03 0.  1.
        -12    1    3    3    0    0 -0.13318716619E+02 -0.24392151768E+02  0.34516477542E+02  0.44314247169E+02  0.00000000000E+00 0.  1.
</event>
<event>
 7    1  0.6246445E-012  0.5930199E+02  0.7816164E-02  0.1266605E+00
        -11   -1    0    0    0    0  0.00000000000E+00  0.00000000000E+00  0.45593999997E+02  0.45594000000E+02  0.51100000000E-03 0.  1.
         11   -1    0    0    0    0 -0.00000000000E+00 -0.00000000000E+00 -0.45593999997E+02  0.45594000000E+02  0.51100000000E-03 0. -1.
    9900012    2    1    2    0    0  0.21615635999E+02 -0.21016968140E+02 -0.10381187415E+02  0.59301988622E+02  0.50000081330E+02 0.  0.
         12    1    1    2    0    0 -0.21615635999E+02  0.21016968140E+02  0.10381187415E+02  0.31886011378E+02  0.00000000000E+00 0. -1.
         11    1    3    3    0    0  0.76836237543E+01 -0.12520893752E+02  0.10491464601E+02  0.18052193331E+02  0.51100000000E-03 0. -1.
        -11    1    3    3    0    0 -0.87602848794E+01  0.40397279057E+01 -0.60436949395E+01  0.11383683126E+02  0.51100000000E-03 0.  1.
         12    1    3    3    0    0  0.22692297124E+02 -0.12535802294E+02 -0.14828957077E+02  0.29866112165E+02  0.00000000000E+00 0. -1.
</event>
<event>
 7    1  0.6246445E-012  0.5930195E+02  0.7816164E-02  0.1266605E+00
        -11   -1    0    0    0    0  0.00000000000E+00  0.00000000000E+00  0.45593999997E+02  0.45594000000E+02  0.51100000000E-03 0.  1.
         11   -1    0    0    0    0 -0.00000000000E+00 -0.00000000000E+00 -0.45593999997E+02  0.45594000000E+02  0.51100000000E-03 0. -1.
    9900012    2    1    2    0    0  0.17117531089E+02 -0.11384887110E+02  0.24374059613E+02  0.59301948079E+02  0.50000007389E+02 0.  0.
         12    1    1    2    0    0 -0.17117531089E+02  0.11384887110E+02 -0.24374059613E+02  0.31886051921E+02  0.00000000000E+00 0. -1.
         11    1    3    3    0    0  0.22512587544E+02 -0.79645021988E+01 -0.27426044476E+01  0.24036883588E+02  0.51100000000E-03 0. -1.
        -11    1    3    3    0    0  0.83503038358E+01 -0.19896813902E+01  0.85074001598E+01  0.12085622198E+02  0.51100000000E-03 0.  1.
         12    1    3    3    0    0 -0.13745360291E+02 -0.14307035210E+01  0.18609263900E+02  0.23179442293E+02  0.00000000000E+00 0. -1.
</event>
<event>
 7    1  0.6246445E-012  0.5930195E+02  0.7816164E-02  0.1266605E+00
        -11   -1    0    0    0    0  0.00000000000E+00  0.00000000000E+00  0.45593999997E+02  0.45594000000E+02  0.51100000000E-03 0.  1.
         11   -1    0    0    0    0 -0.00000000000E+00 -0.00000000000E+00 -0.45593999997E+02  0.45594000000E+02  0.51100000000E-03 0. -1.
    9900012    2    1    2    0    0  0.27396068864E+02  0.13127781117E+02  0.96869605514E+01  0.59301946137E+02  0.50000003847E+02 0.  0.
         12    1    1    2    0    0 -0.27396068864E+02 -0.13127781117E+02 -0.96869605514E+01  0.31886053863E+02  0.00000000000E+00 0. -1.
         11    1    3    3    0    0  0.34682381609E+01  0.21270500698E+02  0.11831403767E+02  0.24585463007E+02  0.51100000000E-03 0. -1.
        -11    1    3    3    0    0  0.40191174505E+01  0.80253571430E+01 -0.11660053354E+01  0.90509243205E+01  0.51100000000E-03 0.  1.
         12    1    3    3    0    0  0.19908713252E+02 -0.16168076724E+02 -0.97843787993E+00  0.25665558810E+02  0.00000000000E+00 0. -1.
</event>
<event>
 7    1  0.6246445E-012  0.5930196E+02  0.7816164E-02  0.1266605E+00
        -11   -1    0    0    0    0  0.00000000000E+00  0.00000000000E+00  0.45593999997E+02  0.45594000000E+02  0.51100000000E-03 0. -1.
         11   -1    0    0    0    0 -0.00000000000E+00 -0.00000000000E+00 -0.45593999997E+02  0.45594000000E+02  0.51100000000E-03 0.  1.
    9900012    2    1    2    0    0  0.12733151268E+02  0.27093992027E+02 -0.10977329973E+02  0.59301963581E+02  0.50000035661E+02 0.  0.
         12    1    1    2    0    0 -0.12733151268E+02 -0.27093992027E+02  0.10977329973E+02  0.31886036419E+02  0.00000000000E+00 0. -1.
         11    1    3    3    0    0  0.76330523723E+01  0.70757326508E+01 -0.78415271983E+01  0.13031463085E+02  0.51100000000E-03 0. -1.
        -11    1    3    3    0    0  0.17961643173E+02  0.11112766383E+02 -0.15608686988E+02  0.26263002721E+02  0.51100000000E-03 0.  1.
         12    1    3    3    0    0 -0.12861544277E+02  0.89054929934E+01  0.12472884213E+02  0.20007497776E+02  0.00000000000E+00 0. -1.
</event>
<event>
 7    1  0.6246445E-012  0.5930194E+02  0.7816164E-02  0.1266605E+00
        -11   -1    0    0    0    0  0.00000000000E+00  0.00000000000E+00  0.45593999997E+02  0.45594000000E+02  0.51100000000E-03 0.  1.
         11   -1    0    0    0    0 -0.00000000000E+00 -0.00000000000E+00 -0.45593999997E+02  0.45594000000E+02  0.51100000000E-03 0. -1.
    9900012    2    1    2    0    0  0.17845204638E+02 -0.12907517225E+02  0.23057866431E+02  0.59301944524E+02  0.50000000905E+02 0.  0.
         12    1    1    2    0    0 -0.17845204638E+02  0.12907517225E+02 -0.23057866431E+02  0.31886055476E+02  0.00000000000E+00 0. -1.
         11    1    3    3    0    0  0.15186494946E+02  0.30662239151E+01 -0.95907782709E+01  0.18221261920E+02  0.51100000000E-03 0. -1.
        -11    1    3    3    0    0  0.30289003474E+00  0.33928967624E+01  0.45451496506E+00  0.34365789570E+01  0.51100000000E-03 0.  1.
        -12    1    3    3    0    0  0.23558196566E+01 -0.19366637903E+02  0.32194129736E+02  0.37644103647E+02  0.00000000000E+00 0.  1.
</event>
<event>
 7    1  0.6246445E-012  0.5930188E+02  0.7816164E-02  0.1266605E+00
        -11   -1    0    0    0    0  0.00000000000E+00  0.00000000000E+00  0.45593999997E+02  0.45594000000E+02  0.51100000000E-03 0. -1.
         11   -1    0    0    0    0 -0.00000000000E+00 -0.00000000000E+00 -0.45593999997E+02  0.45594000000E+02  0.51100000000E-03 0.  1.
    9900012    2    1    2    0    0  0.22226377057E+02 -0.16887192964E+02  0.15412177908E+02  0.59301884665E+02  0.49999891736E+02 0.  0.
         12    1    1    2    0    0 -0.22226377057E+02  0.16887192964E+02 -0.15412177908E+02  0.31886115335E+02  0.00000000000E+00 0. -1.
         11    1    3    3    0    0 -0.97015062284E+01  0.78523689676E+01  0.74516506052E+01  0.14536368821E+02  0.51100000000E-03 0. -1.
        -11    1    3    3    0    0 -0.21170971687E+01 -0.19720640860E+01 -0.52201724754E+00  0.29400067090E+01  0.51100000000E-03 0.  1.
        -12    1    3    3    0    0  0.34044980454E+02 -0.22767497846E+02  0.84825445508E+01  0.41825509134E+02  0.00000000000E+00 0.  1.
</event>
<event>
 7    1  0.6246445E-012  0.5930193E+02  0.7816164E-02  0.1266605E+00
        -11   -1    0    0    0    0  0.00000000000E+00  0.00000000000E+00  0.45593999997E+02  0.45594000000E+02  0.51100000000E-03 0. -1.
         11   -1    0    0    0    0 -0.00000000000E+00 -0.00000000000E+00 -0.45593999997E+02  0.45594000000E+02  0.51100000000E-03 0.  1.
    9900012    2    1    2    0    0  0.23382852635E+02  0.20178587547E+02 -0.79239091540E+01  0.59301928919E+02  0.49999972445E+02 0.  0.
         12    1    1    2    0    0 -0.23382852635E+02 -0.20178587547E+02  0.79239091540E+01  0.31886071081E+02  0.00000000000E+00 0. -1.
         11    1    3    3    0    0  0.22420275786E+02  0.22160806503E+01 -0.14883197059E+01  0.22578637593E+02  0.51100000000E-03 0. -1.
        -11    1    3    3    0    0  0.64524097474E+01  0.21979180486E+02  0.49733313734E+01  0.23440392309E+02  0.51100000000E-03 0.  1.
        -12    1    3    3    0    0 -0.54898328979E+01 -0.40166735897E+01 -0.11408920822E+02  0.13282899017E+02  0.00000000000E+00 0.  1.
</event>
<event>
 7    1  0.6246445E-012  0.5930195E+02  0.7816164E-02  0.1266605E+00
        -11   -1    0    0    0    0  0.00000000000E+00  0.00000000000E+00  0.45593999997E+02  0.45594000000E+02  0.51100000000E-03 0.  1.
         11   -1    0    0    0    0 -0.00000000000E+00 -0.00000000000E+00 -0.45593999997E+02  0.45594000000E+02  0.51100000000E-03 0. -1.
    9900012    2    1    2    0    0 -0.26021662148E+02  0.15772450018E+02  0.95301196301E+01  0.59301948807E+02  0.50000008717E+02 0.  0.
         12    1    1    2    0    0  0.26021662148E+02 -0.15772450018E+02 -0.95301196301E+01  0.31886051193E+02  0.00000000000E+00 0. -1.
         11    1    3    3    0    0  0.84089666341E+01  0.16381905505E+02  0.45562800612E+01  0.18969376270E+02  0.51100000000E-03 0. -1.
        -11    1    3    3    0    0 -0.15943697704E+02  0.96955324288E+01  0.43386402347E+01  0.19157991672E+02  0.51100000000E-03 0.  1.
        -12    1    3    3    0    0 -0.18486931079E+02 -0.10304987916E+02  0.63519933417E+00  0.21174580866E+02  0.00000000000E+00 0.  1.
</event>
<event>
 7    1  0.6246445E-012  0.5930197E+02  0.7816164E-02  0.1266605E+00
        -11   -1    0    0    0    0  0.00000000000E+00  0.00000000000E+00  0.45593999997E+02  0.45594000000E+02  0.51100000000E-03 0. -1.
         11   -1    0    0    0    0 -0.00000000000E+00 -0.00000000000E+00 -0.45593999997E+02  0.45594000000E+02  0.51100000000E-03 0.  1.
    9900012    2    1    2    0    0  0.18042313457E+02  0.20036435565E+02 -0.17021607495E+02  0.59301969411E+02  0.50000046293E+02 0.  0.
         12    1    1    2    0    0 -0.18042313457E+02 -0.20036435565E+02  0.17021607495E+02  0.31886030589E+02  0.00000000000E+00 0. -1.
         11    1    3    3    0    0  0.97088044367E+01  0.54381908429E+01  0.14803583836E+02  0.18519743462E+02  0.51100000000E-03 0. -1.
        -11    1    3    3    0    0  0.13823495644E+02  0.56161365136E+01 -0.17340853669E+02  0.22876521313E+02  0.51100000000E-03 0.  1.
        -12    1    3    3    0    0 -0.54899866237E+01  0.89821082082E+01 -0.14484337662E+02  0.17905704636E+02  0.00000000000E+00 0.  1.
</event>
<event>
 7    1  0.6246445E-012  0.5930195E+02  0.7816164E-02  0.1266605E+00
        -11   -1    0    0    0    0  0.00000000000E+00  0.00000000000E+00  0.45593999997E+02  0.45594000000E+02  0.51100000000E-03 0. -1.
         11   -1    0    0    0    0 -0.00000000000E+00 -0.00000000000E+00 -0.45593999997E+02  0.45594000000E+02  0.51100000000E-03 0.  1.
    9900012    2    1    2    0    0  0.13696446746E+02  0.28746882549E+02  0.16565574620E+01  0.59301951446E+02  0.50000013529E+02 0.  0.
         12    1    1    2    0    0 -0.13696446746E+02 -0.28746882549E+02 -0.16565574620E+01  0.31886048554E+02  0.00000000000E+00 0. -1.
         11    1    3    3    0    0  0.43406999031E+01  0.25228458218E+00 -0.11452546060E+02  0.12250148354E+02  0.51100000000E-03 0. -1.
        -11    1    3    3    0    0 -0.87376478282E+01  0.16040311108E+02 -0.46006961179E+01  0.18836254273E+02  0.51100000000E-03 0.  1.
         12    1    3    3    0    0  0.18093394671E+02  0.12454286859E+02  0.17709799640E+02  0.28215548819E+02  0.00000000000E+00 0. -1.
</event>
<event>
 7    1  0.6246445E-012  0.5930195E+02  0.7816164E-02  0.1266605E+00
        -11   -1    0    0    0    0  0.00000000000E+00  0.00000000000E+00  0.45593999997E+02  0.45594000000E+02  0.51100000000E-03 0.  1.
         11   -1    0    0    0    0 -0.00000000000E+00 -0.00000000000E+00 -0.45593999997E+02  0.45594000000E+02  0.51100000000E-03 0. -1.
    9900012    2    1    2    0    0  0.18452731105E+02  0.15404896439E+02  0.20950088291E+02  0.59301947894E+02  0.50000007051E+02 0.  0.
         12    1    1    2    0    0 -0.18452731105E+02 -0.15404896439E+02 -0.20950088291E+02  0.31886052106E+02  0.00000000000E+00 0. -1.
         11    1    3    3    0    0 -0.34915913239E+01  0.69098835451E+01  0.63392035350E+01  0.10006158219E+02  0.51100000000E-03 0. -1.
        -11    1    3    3    0    0  0.69756326360E+01  0.20985868598E+02  0.19178066930E+02  0.29272245950E+02  0.51100000000E-03 0.  1.
         12    1    3    3    0    0  0.14968689792E+02 -0.12490855704E+02 -0.45671821748E+01  0.20023543726E+02  0.00000000000E+00 0. -1.
</event>
<event>
 7    1  0.6246445E-012  0.5930194E+02  0.7816164E-02  0.1266605E+00
        -11   -1    0    0    0    0  0.00000000000E+00  0.00000000000E+00  0.45593999997E+02  0.45594000000E+02  0.51100000000E-03 0.  1.
         11   -1    0    0    0    0 -0.00000000000E+00 -0.00000000000E+00 -0.45593999997E+02  0.45594000000E+02  0.51100000000E-03 0. -1.
    9900012    2    1    2    0    0 -0.13777523694E+02 -0.18748228490E+02 -0.21803770808E+02  0.59301942669E+02  0.49999997522E+02 0.  0.
         12    1    1    2    0    0  0.13777523694E+02  0.18748228490E+02  0.21803770808E+02  0.31886057331E+02  0.00000000000E+00 0. -1.
         11    1    3    3    0    0  0.30702949894E+01 -0.12161266072E+02  0.24364856923E+01  0.12777306703E+02  0.51100000000E-03 0. -1.
        -11    1    3    3    0    0  0.60267259519E+01  0.88780924053E+01 -0.12625524374E+02  0.16569424143E+02  0.51100000000E-03 0.  1.
        -12    1    3    3    0    0 -0.22874544635E+02 -0.15465054823E+02 -0.11614732127E+02  0.29955211823E+02  0.00000000000E+00 0.  1.
</event>
<event>
 7    1  0.6246445E-012  0.5930197E+02  0.7816164E-02  0.1266605E+00
        -11   -1    0    0    0    0  0.00000000000E+00  0.00000000000E+00  0.45593999997E+02  0.45594000000E+02  0.51100000000E-03 0. -1.
         11   -1    0    0    0    0 -0.00000000000E+00 -0.00000000000E+00 -0.45593999997E+02  0.45594000000E+02  0.51100000000E-03 0.  1.
    9900012    2    1    2    0    0  0.64832902228E+01  0.30818586065E+01 -0.31067472060E+02  0.59301972892E+02  0.50000052641E+02 0.  0.
         12    1    1    2    0    0 -0.64832902228E+01 -0.30818586065E+01  0.31067472060E+02  0.31886027108E+02  0.00000000000E+00 0. -1.
         11    1    3    3    0    0 -0.11748152839E+02  0.16154053352E+01 -0.26832635357E+02  0.29336307709E+02  0.51100000000E-03 0.  1.
        -11    1    3    3    0    0 -0.27792274704E+01  0.51087024341E+01 -0.62612866124E+01  0.85455635389E+01  0.51100000000E-03 0. -1.
        -12    1    3    3    0    0  0.21010670533E+02 -0.36422491628E+01  0.20264499097E+01  0.21420101644E+02  0.00000000000E+00 0.  1.
</event>
<event>
 7    1  0.6246445E-012  0.5930196E+02  0.7816164E-02  0.1266605E+00
        -11   -1    0    0    0    0  0.00000000000E+00  0.00000000000E+00  0.45593999997E+02  0.45594000000E+02  0.51100000000E-03 0.  1.
         11   -1    0    0    0    0 -0.00000000000E+00 -0.00000000000E+00 -0.45593999997E+02  0.45594000000E+02  0.51100000000E-03 0. -1.
    9900012    2    1    2    0    0 -0.21333984050E+02  0.19571323299E+01  0.23616741762E+02  0.59301957068E+02  0.50000023782E+02 0.  0.
         12    1    1    2    0    0  0.21333984050E+02 -0.19571323299E+01 -0.23616741762E+02  0.31886042932E+02  0.00000000000E+00 0. -1.
         11    1    3    3    0    0 -0.23110064510E+01  0.10463581645E+02 -0.10594332707E+02  0.15068748369E+02  0.51100000000E-03 0. -1.
        -11    1    3    3    0    0 -0.46804737215E+01  0.12082572955E+01 -0.10500961046E+01  0.49466576635E+01  0.51100000000E-03 0.  1.
        -12    1    3    3    0    0 -0.14342503877E+02 -0.97147066103E+01  0.35261170574E+02  0.39286551035E+02  0.00000000000E+00 0.  1.
</event>
<event>
 7    1  0.6246445E-012  0.5930194E+02  0.7816164E-02  0.1266605E+00
        -11   -1    0    0    0    0  0.00000000000E+00  0.00000000000E+00  0.45593999997E+02  0.45594000000E+02  0.51100000000E-03 0. -1.
         11   -1    0    0    0    0 -0.00000000000E+00 -0.00000000000E+00 -0.45593999997E+02  0.45594000000E+02  0.51100000000E-03 0.  1.
    9900012    2    1    2    0    0  0.30949987658E+02 -0.24902359362E+01 -0.72538165606E+01  0.59301939319E+02  0.49999991412E+02 0.  0.
         12    1    1    2    0    0 -0.30949987658E+02  0.24902359362E+01  0.72538165606E+01  0.31886060681E+02  0.00000000000E+00 0. -1.
         11    1    3    3    0    0  0.23551999454E+02  0.38333955830E+01  0.85851625856E+01  0.25359349694E+02  0.51100000000E-03 0. -1.
        -11    1    3    3    0    0 -0.71587810282E+00 -0.16519236170E+02 -0.59048605936E+01  0.17557477723E+02  0.51100000000E-03 0.  1.
        -12    1    3    3    0    0  0.81138663067E+01  0.10195604651E+02 -0.99341185526E+01  0.16385111902E+02  0.00000000000E+00 0.  1.
</event>
<event>
 7    1  0.6246445E-012  0.5930194E+02  0.7816164E-02  0.1266605E+00
        -11   -1    0    0    0    0  0.00000000000E+00  0.00000000000E+00  0.45593999997E+02  0.45594000000E+02  0.51100000000E-03 0.  1.
         11   -1    0    0    0    0 -0.00000000000E+00 -0.00000000000E+00 -0.45593999997E+02  0.45594000000E+02  0.51100000000E-03 0. -1.
    9900012    2    1    2    0    0  0.45641428874E+01  0.31484712481E+02 -0.21452998978E+01  0.59301939849E+02  0.49999992378E+02 0.  0.
         12    1    1    2    0    0 -0.45641428874E+01 -0.31484712481E+02  0.21452998978E+01  0.31886060151E+02  0.00000000000E+00 0. -1.
         11    1    3    3    0    0  0.16236153654E+02  0.31199295379E+01 -0.67982865225E+01  0.17876334795E+02  0.51100000000E-03 0. -1.
        -11    1    3    3    0    0 -0.68885014214E+01 -0.36170311833E+01 -0.27489159618E+01  0.82517213744E+01  0.51100000000E-03 0.  1.
        -12    1    3    3    0    0 -0.47835093449E+01  0.31981814127E+02  0.74019025864E+01  0.33173883680E+02  0.00000000000E+00 0.  1.
</event>
<event>
 7    1  0.6246445E-012  0.5930194E+02  0.7816164E-02  0.1266605E+00
        -11   -1    0    0    0    0  0.00000000000E+00  0.00000000000E+00  0.45593999997E+02  0.45594000000E+02  0.51100000000E-03 0. -1.
         11   -1    0    0    0    0 -0.00000000000E+00 -0.00000000000E+00 -0.45593999997E+02  0.45594000000E+02  0.51100000000E-03 0.  1.
    9900012    2    1    2    0    0  0.10791764933E+01 -0.31515084956E+02 -0.47281639355E+01  0.59301941356E+02  0.49999995127E+02 0.  0.
         12    1    1    2    0    0 -0.10791764933E+01  0.31515084956E+02  0.47281639355E+01  0.31886058644E+02  0.00000000000E+00 0. -1.
         11    1    3    3    0    0  0.22763849133E+01  0.35614289162E+01  0.45431811293E+00  0.42511303682E+01  0.51100000000E-03 0. -1.
        -11    1    3    3    0    0  0.63101745276E+01 -0.42977074829E+02 -0.70105731022E+01  0.43999947715E+02  0.51100000000E-03 0.  1.
         12    1    3    3    0    0 -0.75073829476E+01  0.79005609573E+01  0.18280910537E+01  0.11050863272E+02  0.00000000000E+00 0. -1.
</event>
<event>
 7    1  0.6246445E-012  0.5930199E+02  0.7816164E-02  0.1266605E+00
        -11   -1    0    0    0    0  0.00000000000E+00  0.00000000000E+00  0.45593999997E+02  0.45594000000E+02  0.51100000000E-03 0.  1.
         11   -1    0    0    0    0 -0.00000000000E+00 -0.00000000000E+00 -0.45593999997E+02  0.45594000000E+02  0.51100000000E-03 0. -1.
    9900012    2    1    2    0    0  0.46307914478E+01 -0.11408045780E+01  0.31527316329E+02  0.59301994615E+02  0.50000092259E+02 0.  0.
         12    1    1    2    0    0 -0.46307914478E+01  0.11408045780E+01 -0.31527316329E+02  0.31886005385E+02  0.00000000000E+00 0. -1.
         11    1    3    3    0    0  0.68573949810E+01 -0.17956504259E+02  0.97613130129E+01  0.21557902104E+02  0.51100000000E-03 0. -1.
        -11    1    3    3    0    0  0.11430344757E+02  0.11211034899E+02  0.10117085365E+02  0.18939258204E+02  0.51100000000E-03 0.  1.
        -12    1    3    3    0    0 -0.13656948290E+02  0.56046647820E+01  0.11648917951E+02  0.18804834308E+02  0.00000000000E+00 0.  1.
</event>
<event>
 7    1  0.6246445E-012  0.5930195E+02  0.7816164E-02  0.1266605E+00
        -11   -1    0    0    0    0  0.00000000000E+00  0.00000000000E+00  0.45593999997E+02  0.45594000000E+02  0.51100000000E-03 0.  1.
         11   -1    0    0    0    0 -0.00000000000E+00 -0.00000000000E+00 -0.45593999997E+02  0.45594000000E+02  0.51100000000E-03 0. -1.
    9900012    2    1    2    0    0  0.30037606055E+02  0.60570249394E+01 -0.88190158079E+01  0.59301947117E+02  0.50000005634E+02 0.  0.
         12    1    1    2    0    0 -0.30037606055E+02 -0.60570249394E+01  0.88190158079E+01  0.31886052883E+02  0.00000000000E+00 0. -1.
         11    1    3    3    0    0  0.64994409211E+01  0.10910924453E+02 -0.12811456191E+02  0.18039523683E+02  0.51100000000E-03 0. -1.
        -11    1    3    3    0    0 -0.49817944456E+01 -0.74458913617E+01 -0.61670468169E+01  0.10876214450E+02  0.51100000000E-03 0.  1.
        -12    1    3    3    0    0  0.28519959580E+02  0.25919918477E+01  0.10159487200E+02  0.30386208983E+02  0.00000000000E+00 0.  1.
</event>
<event>
 7    1  0.6246445E-012  0.5930206E+02  0.7816164E-02  0.1266604E+00
        -11   -1    0    0    0    0  0.00000000000E+00  0.00000000000E+00  0.45593999997E+02  0.45594000000E+02  0.51100000000E-03 0.  1.
         11   -1    0    0    0    0 -0.00000000000E+00 -0.00000000000E+00 -0.45593999997E+02  0.45594000000E+02  0.51100000000E-03 0. -1.
    9900012    2    1    2    0    0  0.21375679795E+02 -0.91052473660E+01  0.21837770429E+02  0.59302055862E+02  0.50000203958E+02 0.  0.
         12    1    1    2    0    0 -0.21375679795E+02  0.91052473660E+01 -0.21837770429E+02  0.31885944138E+02  0.00000000000E+00 0. -1.
         11    1    3    3    0    0  0.18957529308E+02 -0.60945133271E+01 -0.65403003307E+01  0.20959640713E+02  0.51100000000E-03 0. -1.
        -11    1    3    3    0    0  0.10784039480E+02 -0.21938695374E+01  0.27108935508E+01  0.11333909968E+02  0.51100000000E-03 0.  1.
         12    1    3    3    0    0 -0.83658889923E+01 -0.81686450145E+00  0.25667177209E+02  0.27008505181E+02  0.00000000000E+00 0. -1.
</event>
<event>
 7    1  0.6246445E-012  0.5930191E+02  0.7816164E-02  0.1266605E+00
        -11   -1    0    0    0    0  0.00000000000E+00  0.00000000000E+00  0.45593999997E+02  0.45594000000E+02  0.51100000000E-03 0.  1.
         11   -1    0    0    0    0 -0.00000000000E+00 -0.00000000000E+00 -0.45593999997E+02  0.45594000000E+02  0.51100000000E-03 0. -1.
    9900012    2    1    2    0    0  0.17778659366E+01 -0.10382947066E+02  0.30095785243E+02  0.59301910769E+02  0.49999939343E+02 0.  0.
         12    1    1    2    0    0 -0.17778659366E+01  0.10382947066E+02 -0.30095785243E+02  0.31886089231E+02  0.00000000000E+00 0. -1.
         11    1    3    3    0    0 -0.39407128516E+01 -0.15755825777E+02  0.12194004071E+02  0.20309332811E+02  0.51100000000E-03 0.  1.
        -11    1    3    3    0    0  0.67293845753E+01 -0.54313461625E+01 -0.74510916443E+01  0.11415029779E+02  0.51100000000E-03 0. -1.
        -12    1    3    3    0    0 -0.10108057871E+01  0.10804224874E+02  0.25352872817E+02  0.27577548178E+02  0.00000000000E+00 0.  1.
</event>
<event>
 7    1  0.6246445E-012  0.5930194E+02  0.7816164E-02  0.1266605E+00
        -11   -1    0    0    0    0  0.00000000000E+00  0.00000000000E+00  0.45593999997E+02  0.45594000000E+02  0.51100000000E-03 0. -1.
         11   -1    0    0    0    0 -0.00000000000E+00 -0.00000000000E+00 -0.45593999997E+02  0.45594000000E+02  0.51100000000E-03 0.  1.
    9900012    2    1    2    0    0 -0.19738431413E+01  0.19861009045E+02 -0.24866953971E+02  0.59301935068E+02  0.49999983660E+02 0.  0.
         12    1    1    2    0    0  0.19738431413E+01 -0.19861009045E+02  0.24866953971E+02  0.31886064932E+02  0.00000000000E+00 0. -1.
         11    1    3    3    0    0 -0.78697764342E+01  0.21045226798E+02 -0.65817899650E+01  0.23412708333E+02  0.51100000000E-03 0. -1.
        -11    1    3    3    0    0 -0.11628873541E+02  0.29928364030E+01 -0.32923794165E+01  0.12451005263E+02  0.51100000000E-03 0.  1.
        -12    1    3    3    0    0  0.17524806834E+02 -0.41770541557E+01 -0.14992784590E+02  0.23438221472E+02  0.00000000000E+00 0.  1.
</event>
<event>
 7    1  0.6246445E-012  0.5930195E+02  0.7816164E-02  0.1266605E+00
        -11   -1    0    0    0    0  0.00000000000E+00  0.00000000000E+00  0.45593999997E+02  0.45594000000E+02  0.51100000000E-03 0.  1.
         11   -1    0    0    0    0 -0.00000000000E+00 -0.00000000000E+00 -0.45593999997E+02  0.45594000000E+02  0.51100000000E-03 0. -1.
    9900012    2    1    2    0    0 -0.24141856269E+02 -0.74595123589E+01  0.19448566235E+02  0.59301948545E+02  0.50000008239E+02 0.  0.
         12    1    1    2    0    0  0.24141856269E+02  0.74595123589E+01 -0.19448566235E+02  0.31886051455E+02  0.00000000000E+00 0. -1.
         11    1    3    3    0    0 -0.19471611258E+02 -0.11596230275E+02 -0.85378023652E+01  0.24217974132E+02  0.51100000000E-03 0. -1.
        -11    1    3    3    0    0 -0.11459623713E+02  0.60267088145E+01  0.23188021452E+02  0.26558022026E+02  0.51100000000E-03 0.  1.
        -12    1    3    3    0    0  0.67893787022E+01 -0.18899908984E+01  0.47983471481E+01  0.85259523873E+01  0.00000000000E+00 0.  1.
</event>
<event>
 7    1  0.6246445E-012  0.5930195E+02  0.7816164E-02  0.1266605E+00
        -11   -1    0    0    0    0  0.00000000000E+00  0.00000000000E+00  0.45593999997E+02  0.45594000000E+02  0.51100000000E-03 0. -1.
         11   -1    0    0    0    0 -0.00000000000E+00 -0.00000000000E+00 -0.45593999997E+02  0.45594000000E+02  0.51100000000E-03 0.  1.
    9900012    2    1    2    0    0 -0.18909151714E+02  0.14421432320E+02 -0.21241156163E+02  0.59301945934E+02  0.50000003477E+02 0.  0.
         12    1    1    2    0    0  0.18909151714E+02 -0.14421432320E+02  0.21241156163E+02  0.31886054066E+02  0.00000000000E+00 0. -1.
         11    1    3    3    0    0  0.14907108390E+01 -0.74857333295E+01  0.22081938472E+01  0.79457248010E+01  0.51100000000E-03 0. -1.
        -11    1    3    3    0    0 -0.16414968373E+02 -0.53899923348E+01 -0.43906615504E+01  0.17826416161E+02  0.51100000000E-03 0.  1.
        -12    1    3    3    0    0 -0.39848941807E+01  0.27297157984E+02 -0.19058688460E+02  0.33529804972E+02  0.00000000000E+00 0.  1.
</event>
<event>
 7    1  0.6246445E-012  0.5930197E+02  0.7816164E-02  0.1266605E+00
        -11   -1    0    0    0    0  0.00000000000E+00  0.00000000000E+00  0.45593999997E+02  0.45594000000E+02  0.51100000000E-03 0.  1.
         11   -1    0    0    0    0 -0.00000000000E+00 -0.00000000000E+00 -0.45593999997E+02  0.45594000000E+02  0.51100000000E-03 0. -1.
    9900012    2    1    2    0    0  0.20841605037E+02 -0.10639498417E+02  0.21659805996E+02  0.59301974489E+02  0.50000055554E+02 0.  0.
         12    1    1    2    0    0 -0.20841605037E+02  0.10639498417E+02 -0.21659805996E+02  0.31886025511E+02  0.00000000000E+00 0. -1.
         11    1    3    3    0    0  0.10819000583E+01 -0.16714079043E+02 -0.12332726301E+01  0.16794401080E+02  0.51100000000E-03 0. -1.
        -11    1    3    3    0    0  0.11779067060E+01 -0.10170792898E+02  0.26240443756E+01  0.10569678403E+02  0.51100000000E-03 0.  1.
         12    1    3    3    0    0  0.18581798273E+02  0.16245373524E+02  0.20269034250E+02  0.31937895006E+02  0.00000000000E+00 0. -1.
</event>
<event>
 7    1  0.6246445E-012  0.5930192E+02  0.7816164E-02  0.1266605E+00
        -11   -1    0    0    0    0  0.00000000000E+00  0.00000000000E+00  0.45593999997E+02  0.45594000000E+02  0.51100000000E-03 0.  1.
         11   -1    0    0    0    0 -0.00000000000E+00 -0.00000000000E+00 -0.45593999997E+02  0.45594000000E+02  0.51100000000E-03 0. -1.
    9900012    2    1    2    0    0 -0.69444127377E+01  0.12095114056E+02  0.28674126166E+02  0.59301918966E+02  0.49999954294E+02 0.  0.
         12    1    1    2    0    0  0.69444127377E+01 -0.12095114056E+02 -0.28674126166E+02  0.31886081034E+02  0.00000000000E+00 0. -1.
         11    1    3    3    0    0 -0.86780463767E+01  0.11319030152E+02  0.12231658565E+02  0.18789422664E+02  0.51100000000E-03 0. -1.
        -11    1    3    3    0    0 -0.14960367479E+02  0.72281117770E+01  0.15287229493E+02  0.22577811692E+02  0.51100000000E-03 0.  1.
         12    1    3    3    0    0  0.16694001118E+02 -0.64520278733E+01  0.11552381077E+01  0.17934684611E+02  0.00000000000E+00 0. -1.
</event>
<event>
 7    1  0.6246445E-012  0.5930194E+02  0.7816164E-02  0.1266605E+00
        -11   -1    0    0    0    0  0.00000000000E+00  0.00000000000E+00  0.45593999997E+02  0.45594000000E+02  0.51100000000E-03 0.  1.
         11   -1    0    0    0    0 -0.00000000000E+00 -0.00000000000E+00 -0.45593999997E+02  0.45594000000E+02  0.51100000000E-03 0. -1.
    9900012    2    1    2    0    0 -0.14406504916E+02 -0.10090574616E+02  0.26596117809E+02  0.59301944074E+02  0.50000000084E+02 0.  0.
         12    1    1    2    0    0  0.14406504916E+02  0.10090574616E+02 -0.26596117809E+02  0.31886055926E+02  0.00000000000E+00 0. -1.
         11    1    3    3    0    0 -0.12348515651E+02 -0.11528534750E+01  0.36916367466E+00  0.12407706959E+02  0.51100000000E-03 0. -1.
        -11    1    3    3    0    0 -0.17625189876E+02  0.35263675524E+01  0.73003261711E+01  0.19400447127E+02  0.51100000000E-03 0.  1.
        -12    1    3    3    0    0  0.15567200610E+02 -0.12464088694E+02  0.18926627964E+02  0.27493789987E+02  0.00000000000E+00 0.  1.
</event>
<event>
 7    1  0.6246445E-012  0.5930194E+02  0.7816164E-02  0.1266605E+00
        -11   -1    0    0    0    0  0.00000000000E+00  0.00000000000E+00  0.45593999997E+02  0.45594000000E+02  0.51100000000E-03 0.  1.
         11   -1    0    0    0    0 -0.00000000000E+00 -0.00000000000E+00 -0.45593999997E+02  0.45594000000E+02  0.51100000000E-03 0. -1.
    9900012    2    1    2    0    0  0.15081271619E+02 -0.15684246000E+02  0.23308373860E+02  0.59301943200E+02  0.49999998491E+02 0.  0.
         12    1    1    2    0    0 -0.15081271619E+02  0.15684246000E+02 -0.23308373860E+02  0.31886056800E+02  0.00000000000E+00 0. -1.
         11    1    3    3    0    0 -0.10628341012E+02 -0.19307393779E+01  0.29728126044E+00  0.10806376064E+02  0.51100000000E-03 0. -1.
        -11    1    3    3    0    0 -0.18951457506E+01  0.16197878092E+01  0.15918394287E+02  0.16112435164E+02  0.51100000000E-03 0.  1.
         12    1    3    3    0    0  0.27604758382E+02 -0.15373294432E+02  0.70926983119E+01  0.32383131973E+02  0.00000000000E+00 0. -1.
</event>
<event>
 7    1  0.8574745E-012  0.5930197E+02  0.7816164E-02  0.1266605E+00
        -11   -1    0    0    0    0  0.00000000000E+00  0.00000000000E+00  0.45593999997E+02  0.45594000000E+02  0.51100000000E-03 0. -1.
         11   -1    0    0    0    0 -0.00000000000E+00 -0.00000000000E+00 -0.45593999997E+02  0.45594000000E+02  0.51100000000E-03 0.  1.
    9900012    2    1    2    0    0  0.40124772948E+01 -0.30990632337E+02  0.63403147372E+01  0.59301970807E+02  0.50000048840E+02 0.  0.
         12    1    1    2    0    0 -0.40124772948E+01  0.30990632337E+02 -0.63403147372E+01  0.31886029193E+02  0.00000000000E+00 0. -1.
         11    1    3    3    0    0 -0.12901581083E+02 -0.70842414605E+01 -0.77025633410E+01  0.16612247103E+02  0.51100000000E-03 0. -1.
        -11    1    3    3    0    0  0.39691036238E+01 -0.26076102953E+02  0.52574282327E+01  0.26895305923E+02  0.51100000000E-03 0.  1.
         12    1    3    3    0    0  0.12944954754E+02  0.21697120760E+01  0.87854498454E+01  0.15794417782E+02  0.00000000000E+00 0. -1.
</event>
<event>
 7    1  0.6246445E-012  0.5930196E+02  0.7816164E-02  0.1266605E+00
        -11   -1    0    0    0    0  0.00000000000E+00  0.00000000000E+00  0.45593999997E+02  0.45594000000E+02  0.51100000000E-03 0.  1.
         11   -1    0    0    0    0 -0.00000000000E+00 -0.00000000000E+00 -0.45593999997E+02  0.45594000000E+02  0.51100000000E-03 0. -1.
    9900012    2    1    2    0    0 -0.21608241113E+02 -0.22950702335E+02  0.48029908989E+01  0.59301960057E+02  0.50000029234E+02 0.  0.
         12    1    1    2    0    0  0.21608241113E+02  0.22950702335E+02 -0.48029908989E+01  0.31886039943E+02  0.00000000000E+00 0. -1.
         11    1    3    3    0    0  0.10807474673E+01  0.39313057893E+01 -0.73876559375E+01  0.84380472154E+01  0.51100000000E-03 0. -1.
        -11    1    3    3    0    0 -0.13195000732E+02 -0.33072523666E+01 -0.10192357738E+02  0.16997944554E+02  0.51100000000E-03 0.  1.
         12    1    3    3    0    0 -0.94939878482E+01 -0.23574755757E+02  0.22383004575E+02  0.33865968288E+02  0.00000000000E+00 0. -1.
</event>
<event>
 7    1  0.6246445E-012  0.5930195E+02  0.7816164E-02  0.1266605E+00
        -11   -1    0    0    0    0  0.00000000000E+00  0.00000000000E+00  0.45593999997E+02  0.45594000000E+02  0.51100000000E-03 0.  1.
         11   -1    0    0    0    0 -0.00000000000E+00 -0.00000000000E+00 -0.45593999997E+02  0.45594000000E+02  0.51100000000E-03 0. -1.
    9900012    2    1    2    0    0 -0.19004864680E+02  0.79382607125E+01  0.24341720707E+02  0.59301949263E+02  0.50000009547E+02 0.  0.
         12    1    1    2    0    0  0.19004864680E+02 -0.79382607125E+01 -0.24341720707E+02  0.31886050737E+02  0.00000000000E+00 0. -1.
         11    1    3    3    0    0  0.20791492620E+01 -0.29863867373E+00  0.37016302148E+00  0.21328543398E+01  0.51100000000E-03 0. -1.
        -11    1    3    3    0    0  0.38696446920E+01  0.21437465480E+02  0.18128854411E+02  0.28340685220E+02  0.51100000000E-03 0.  1.
         12    1    3    3    0    0 -0.24953658634E+02 -0.13200566094E+02  0.58427032752E+01  0.28828409702E+02  0.00000000000E+00 0. -1.
</event>
<event>
 7    1  0.6246445E-012  0.5930194E+02  0.7816164E-02  0.1266605E+00
        -11   -1    0    0    0    0  0.00000000000E+00  0.00000000000E+00  0.45593999997E+02  0.45594000000E+02  0.51100000000E-03 0.  1.
         11   -1    0    0    0    0 -0.00000000000E+00 -0.00000000000E+00 -0.45593999997E+02  0.45594000000E+02  0.51100000000E-03 0. -1.
    9900012    2    1    2    0    0  0.11563791218E+01  0.25439534976E+02 -0.19188889394E+02  0.59301943038E+02  0.49999998194E+02 0.  0.
         12    1    1    2    0    0 -0.11563791218E+01 -0.25439534976E+02  0.19188889394E+02  0.31886056962E+02  0.00000000000E+00 0. -1.
         11    1    3    3    0    0  0.23795526581E+01  0.88089698319E+00  0.53723223894E+00  0.25936208450E+01  0.51100000000E-03 0. -1.
        -11    1    3    3    0    0  0.58842513036E+01 -0.12718092259E+02 -0.10883849838E+02  0.17743519145E+02  0.51100000000E-03 0.  1.
        -12    1    3    3    0    0 -0.71074248400E+01  0.37276730251E+02 -0.88422717949E+01  0.38964803048E+02  0.00000000000E+00 0.  1.
</event>
<event>
 7    1  0.6246445E-012  0.5930193E+02  0.7816164E-02  0.1266605E+00
        -11   -1    0    0    0    0  0.00000000000E+00  0.00000000000E+00  0.45593999997E+02  0.45594000000E+02  0.51100000000E-03 0.  1.
         11   -1    0    0    0    0 -0.00000000000E+00 -0.00000000000E+00 -0.45593999997E+02  0.45594000000E+02  0.51100000000E-03 0. -1.
    9900012    2    1    2    0    0  0.29823580357E+01 -0.26537208263E+02  0.17424225896E+02  0.59301928904E+02  0.49999972419E+02 0.  0.
         12    1    1    2    0    0 -0.29823580357E+01  0.26537208263E+02 -0.17424225896E+02  0.31886071096E+02  0.00000000000E+00 0. -1.
         11    1    3    3    0    0 -0.92348883230E+00 -0.49928805907E+01 -0.83978002514E+01  0.98134977220E+01  0.51100000000E-03 0. -1.
        -11    1    3    3    0    0  0.11869861725E+02 -0.11429169956E+02 -0.40431063973E+01  0.16966621728E+02  0.51100000000E-03 0.  1.
         12    1    3    3    0    0 -0.79640148575E+01 -0.10115157716E+02  0.29865132545E+02  0.32521809454E+02  0.00000000000E+00 0. -1.
</event>
<event>
 7    1  0.6246445E-012  0.5930196E+02  0.7816164E-02  0.1266605E+00
        -11   -1    0    0    0    0  0.00000000000E+00  0.00000000000E+00  0.45593999997E+02  0.45594000000E+02  0.51100000000E-03 0.  1.
         11   -1    0    0    0    0 -0.00000000000E+00 -0.00000000000E+00 -0.45593999997E+02  0.45594000000E+02  0.51100000000E-03 0. -1.
    9900012    2    1    2    0    0 -0.11925738624E+02  0.28552440927E+02  0.76977036823E+01  0.59301956555E+02  0.50000022846E+02 0.  0.
         12    1    1    2    0    0  0.11925738624E+02 -0.28552440927E+02 -0.76977036823E+01  0.31886043445E+02  0.00000000000E+00 0. -1.
         11    1    3    3    0    0 -0.14317835352E+01  0.13285480954E+02  0.41343919238E+01  0.13987394508E+02  0.51100000000E-03 0. -1.
        -11    1    3    3    0    0 -0.77862111286E+00  0.28548555047E+02  0.40896061415E+01  0.28850496092E+02  0.51100000000E-03 0.  1.
         12    1    3    3    0    0 -0.97153339760E+01 -0.13281595074E+02 -0.52629438298E+00  0.16464065955E+02  0.00000000000E+00 0. -1.
</event>
<event>
 7    1  0.6246445E-012  0.5930195E+02  0.7816164E-02  0.1266605E+00
        -11   -1    0    0    0    0  0.00000000000E+00  0.00000000000E+00  0.45593999997E+02  0.45594000000E+02  0.51100000000E-03 0.  1.
         11   -1    0    0    0    0 -0.00000000000E+00 -0.00000000000E+00 -0.45593999997E+02  0.45594000000E+02  0.51100000000E-03 0. -1.
    9900012    2    1    2    0    0 -0.18937997970E+02 -0.44208387947E+01  0.25269120696E+02  0.59301952213E+02  0.50000014928E+02 0.  0.
         12    1    1    2    0    0  0.18937997970E+02  0.44208387947E+01 -0.25269120696E+02  0.31886047787E+02  0.00000000000E+00 0. -1.
         11    1    3    3    0    0  0.10317861055E+02 -0.15928562298E+01  0.17526324351E+01  0.10586178179E+02  0.51100000000E-03 0. -1.
        -11    1    3    3    0    0 -0.79624778960E+01 -0.58021088633E+01  0.25291360158E+02  0.27142557367E+02  0.51100000000E-03 0.  1.
         12    1    3    3    0    0 -0.21293381128E+02  0.29741262984E+01 -0.17748718973E+01  0.21573216667E+02  0.00000000000E+00 0. -1.
</event>
<event>
 7    1  0.6246445E-012  0.5930194E+02  0.7816164E-02  0.1266605E+00
        -11   -1    0    0    0    0  0.00000000000E+00  0.00000000000E+00  0.45593999997E+02  0.45594000000E+02  0.51100000000E-03 0.  1.
         11   -1    0    0    0    0 -0.00000000000E+00 -0.00000000000E+00 -0.45593999997E+02  0.45594000000E+02  0.51100000000E-03 0. -1.
    9900012    2    1    2    0    0  0.82152672722E+01 -0.77943524588E+01  0.29807356374E+02  0.59301936577E+02  0.49999986412E+02 0.  0.
         12    1    1    2    0    0 -0.82152672722E+01  0.77943524588E+01 -0.29807356374E+02  0.31886063423E+02  0.00000000000E+00 0. -1.
         11    1    3    3    0    0 -0.90679643270E+01 -0.29020719784E+00 -0.60538112968E+01  0.10906916555E+02  0.51100000000E-03 0. -1.
        -11    1    3    3    0    0 -0.58131271827E+01  0.91385787186E+00  0.15143082906E+02  0.16246247075E+02  0.51100000000E-03 0.  1.
         12    1    3    3    0    0  0.23096358782E+02 -0.84180031329E+01  0.20718084764E+02  0.32148772948E+02  0.00000000000E+00 0. -1.
</event>
<event>
 7    1  0.6246445E-012  0.5930194E+02  0.7816164E-02  0.1266605E+00
        -11   -1    0    0    0    0  0.00000000000E+00  0.00000000000E+00  0.45593999997E+02  0.45594000000E+02  0.51100000000E-03 0.  1.
         11   -1    0    0    0    0 -0.00000000000E+00 -0.00000000000E+00 -0.45593999997E+02  0.45594000000E+02  0.51100000000E-03 0. -1.
    9900012    2    1    2    0    0 -0.51642601125E+01  0.36426695567E+01  0.31253510808E+02  0.59301944085E+02  0.50000000104E+02 0.  0.
         12    1    1    2    0    0  0.51642601125E+01 -0.36426695567E+01 -0.31253510808E+02  0.31886055915E+02  0.00000000000E+00 0. -1.
         11    1    3    3    0    0  0.26810465337E+01 -0.33492143341E+01 -0.89680171694E+00  0.43828644460E+01  0.51100000000E-03 0. -1.
        -11    1    3    3    0    0  0.14763570746E+02  0.15675655152E+01 -0.47798767962E+00  0.14854250412E+02  0.51100000000E-03 0.  1.
        -12    1    3    3    0    0 -0.22608877392E+02  0.54243183756E+01  0.32628300204E+02  0.40064829227E+02  0.00000000000E+00 0.  1.
</event>
<event>
 7    1  0.6246445E-012  0.5930195E+02  0.7816164E-02  0.1266605E+00
        -11   -1    0    0    0    0  0.00000000000E+00  0.00000000000E+00  0.45593999997E+02  0.45594000000E+02  0.51100000000E-03 0. -1.
         11   -1    0    0    0    0 -0.00000000000E+00 -0.00000000000E+00 -0.45593999997E+02  0.45594000000E+02  0.51100000000E-03 0.  1.
    9900012    2    1    2    0    0 -0.23750173801E+01 -0.14318384860E+02 -0.28391250025E+02  0.59301953983E+02  0.50000018157E+02 0.  0.
         12    1    1    2    0    0  0.23750173801E+01  0.14318384860E+02  0.28391250025E+02  0.31886046017E+02  0.00000000000E+00 0. -1.
         11    1    3    3    0    0 -0.11317898049E+02 -0.57935560341E+01 -0.26755260439E+02  0.29622695171E+02  0.51100000000E-03 0. -1.
        -11    1    3    3    0    0 -0.47590349864E+01 -0.66122516656E+01 -0.10468838753E+02  0.13265250514E+02  0.51100000000E-03 0.  1.
        -12    1    3    3    0    0  0.13701915655E+02 -0.19125771606E+01  0.88328491671E+01  0.16414008298E+02  0.00000000000E+00 0.  1.
</event>
<event>
 7    1  0.6246445E-012  0.5930194E+02  0.7816164E-02  0.1266605E+00
        -11   -1    0    0    0    0  0.00000000000E+00  0.00000000000E+00  0.45593999997E+02  0.45594000000E+02  0.51100000000E-03 0.  1.
         11   -1    0    0    0    0 -0.00000000000E+00 -0.00000000000E+00 -0.45593999997E+02  0.45594000000E+02  0.51100000000E-03 0. -1.
    9900012    2    1    2    0    0 -0.21412957971E+02  0.33306964092E+01  0.23390430993E+02  0.59301943961E+02  0.49999999879E+02 0.  0.
         12    1    1    2    0    0  0.21412957971E+02 -0.33306964092E+01 -0.23390430993E+02  0.31886056039E+02  0.00000000000E+00 0. -1.
         11    1    3    3    0    0 -0.50619915965E+01  0.69052855927E+01 -0.84186874273E+01  0.12007540393E+02  0.51100000000E-03 0. -1.
        -11    1    3    3    0    0 -0.30966860862E+01  0.12999004201E+02  0.15912341560E+02  0.20778984314E+02  0.51100000000E-03 0.  1.
        -12    1    3    3    0    0 -0.13254280288E+02 -0.16573593385E+02  0.15896776861E+02  0.26515419254E+02  0.00000000000E+00 0.  1.
</event>
<event>
 7    1  0.6246445E-012  0.5930193E+02  0.7816164E-02  0.1266605E+00
        -11   -1    0    0    0    0  0.00000000000E+00  0.00000000000E+00  0.45593999997E+02  0.45594000000E+02  0.51100000000E-03 0. -1.
         11   -1    0    0    0    0 -0.00000000000E+00 -0.00000000000E+00 -0.45593999997E+02  0.45594000000E+02  0.51100000000E-03 0.  1.
    9900012    2    1    2    0    0 -0.19908607600E+02  0.16493085915E+02 -0.18664051941E+02  0.59301931343E+02  0.49999976866E+02 0.  0.
         12    1    1    2    0    0  0.19908607600E+02 -0.16493085915E+02  0.18664051941E+02  0.31886068657E+02  0.00000000000E+00 0. -1.
         11    1    3    3    0    0 -0.12870022025E+02  0.20158192033E+01  0.81694926518E+01  0.15376657779E+02  0.51100000000E-03 0. -1.
        -11    1    3    3    0    0 -0.10829290758E+02 -0.51682207397E+00  0.21692746659E+01  0.11056509224E+02  0.51100000000E-03 0.  1.
        -12    1    3    3    0    0  0.37907051834E+01  0.14994088785E+02 -0.29002819259E+02  0.32868764340E+02  0.00000000000E+00 0.  1.
</event>
<event>
 7    1  0.6246445E-012  0.5930195E+02  0.7816164E-02  0.1266605E+00
        -11   -1    0    0    0    0  0.00000000000E+00  0.00000000000E+00  0.45593999997E+02  0.45594000000E+02  0.51100000000E-03 0. -1.
         11   -1    0    0    0    0 -0.00000000000E+00 -0.00000000000E+00 -0.45593999997E+02  0.45594000000E+02  0.51100000000E-03 0.  1.
    9900012    2    1    2    0    0  0.17879695104E+02  0.11941124200E+02 -0.23546687893E+02  0.59301945762E+02  0.50000003162E+02 0.  0.
         12    1    1    2    0    0 -0.17879695104E+02 -0.11941124200E+02  0.23546687893E+02  0.31886054238E+02  0.00000000000E+00 0. -1.
         11    1    3    3    0    0 -0.36241070348E+01  0.67195591928E+01 -0.63840407867E+01  0.99520151011E+01  0.51100000000E-03 0. -1.
        -11    1    3    3    0    0 -0.31906547502E+01  0.18051568993E+02 -0.84849188274E+01  0.20199833381E+02  0.51100000000E-03 0.  1.
         12    1    3    3    0    0  0.24694456889E+02 -0.12830003986E+02 -0.86777282793E+01  0.29150097279E+02  0.00000000000E+00 0. -1.
</event>
<event>
 7    1  0.6246445E-012  0.5930200E+02  0.7816164E-02  0.1266605E+00
        -11   -1    0    0    0    0  0.00000000000E+00  0.00000000000E+00  0.45593999997E+02  0.45594000000E+02  0.51100000000E-03 0. -1.
         11   -1    0    0    0    0 -0.00000000000E+00 -0.00000000000E+00 -0.45593999997E+02  0.45594000000E+02  0.51100000000E-03 0.  1.
    9900012    2    1    2    0    0 -0.15523861064E+02  0.23189514922E+02  0.15426372225E+02  0.59302002687E+02  0.50000106980E+02 0.  0.
         12    1    1    2    0    0  0.15523861064E+02 -0.23189514922E+02 -0.15426372225E+02  0.31885997313E+02  0.00000000000E+00 0. -1.
         11    1    3    3    0    0  0.86805882791E+00  0.21705142018E+01  0.61624995729E+01  0.65909831797E+01  0.51100000000E-03 0. -1.
        -11    1    3    3    0    0  0.10983651794E+02  0.19083841797E+02  0.12093864933E+02  0.25121608105E+02  0.51100000000E-03 0.  1.
        -12    1    3    3    0    0 -0.27375571686E+02  0.19351589230E+01 -0.28299922813E+01  0.27589411402E+02  0.00000000000E+00 0.  1.
</event>
<event>
 7    1  0.6246445E-012  0.5930194E+02  0.7816164E-02  0.1266605E+00
        -11   -1    0    0    0    0  0.00000000000E+00  0.00000000000E+00  0.45593999997E+02  0.45594000000E+02  0.51100000000E-03 0.  1.
         11   -1    0    0    0    0 -0.00000000000E+00 -0.00000000000E+00 -0.45593999997E+02  0.45594000000E+02  0.51100000000E-03 0. -1.
    9900012    2    1    2    0    0  0.70410846944E+01  0.15069006327E+02  0.27204209855E+02  0.59301939422E+02  0.49999991601E+02 0.  0.
         12    1    1    2    0    0 -0.70410846944E+01 -0.15069006327E+02 -0.27204209855E+02  0.31886060578E+02  0.00000000000E+00 0. -1.
         11    1    3    3    0    0  0.71824835394E+01  0.22436036605E+02  0.20944886056E+02  0.31522247072E+02  0.51100000000E-03 0. -1.
        -11    1    3    3    0    0  0.13964985032E+01  0.80048553973E+01  0.89610248908E+01  0.12096606357E+02  0.51100000000E-03 0.  1.
         12    1    3    3    0    0 -0.15378973482E+01 -0.15371885675E+02 -0.27017010927E+01  0.15683085993E+02  0.00000000000E+00 0. -1.
</event>
<event>
 7    1  0.6246445E-012  0.5930191E+02  0.7816164E-02  0.1266605E+00
        -11   -1    0    0    0    0  0.00000000000E+00  0.00000000000E+00  0.45593999997E+02  0.45594000000E+02  0.51100000000E-03 0. -1.
         11   -1    0    0    0    0 -0.00000000000E+00 -0.00000000000E+00 -0.45593999997E+02  0.45594000000E+02  0.51100000000E-03 0.  1.
    9900012    2    1    2    0    0  0.28999026721E+02  0.73700664161E+01 -0.11020956461E+02  0.59301907247E+02  0.49999932921E+02 0.  0.
         12    1    1    2    0    0 -0.28999026721E+02 -0.73700664161E+01  0.11020956461E+02  0.31886092753E+02  0.00000000000E+00 0. -1.
         11    1    3    3    0    0  0.18573001604E+02  0.68620986386E+01 -0.70497433452E+01  0.21017698918E+02  0.51100000000E-03 0. -1.
        -11    1    3    3    0    0  0.20581419489E+02  0.93476737658E+01 -0.83935638582E+01  0.24112771461E+02  0.51100000000E-03 0.  1.
         12    1    3    3    0    0 -0.10155394373E+02 -0.88397059884E+01  0.44223507420E+01  0.14171436868E+02  0.00000000000E+00 0. -1.
</event>
<event>
 7    1  0.6246445E-012  0.5930194E+02  0.7816164E-02  0.1266605E+00
        -11   -1    0    0    0    0  0.00000000000E+00  0.00000000000E+00  0.45593999997E+02  0.45594000000E+02  0.51100000000E-03 0. -1.
         11   -1    0    0    0    0 -0.00000000000E+00 -0.00000000000E+00 -0.45593999997E+02  0.45594000000E+02  0.51100000000E-03 0.  1.
    9900012    2    1    2    0    0  0.27219362486E+02 -0.44840482121E+01 -0.15991266679E+02  0.59301937331E+02  0.49999987787E+02 0.  0.
         12    1    1    2    0    0 -0.27219362486E+02  0.44840482121E+01  0.15991266679E+02  0.31886062669E+02  0.00000000000E+00 0. -1.
         11    1    3    3    0    0 -0.49626903538E+01  0.14806632385E+01 -0.44323155297E+01  0.68166032883E+01  0.51100000000E-03 0. -1.
        -11    1    3    3    0    0 -0.33069235016E+01  0.43604889097E+01 -0.14410839121E+02  0.15414989166E+02  0.51100000000E-03 0.  1.
        -12    1    3    3    0    0  0.35488976342E+02 -0.10325200360E+02  0.28518879715E+01  0.37070344877E+02  0.00000000000E+00 0.  1.
</event>
<event>
 7    1  0.6246445E-012  0.5930189E+02  0.7816164E-02  0.1266605E+00
        -11   -1    0    0    0    0  0.00000000000E+00  0.00000000000E+00  0.45593999997E+02  0.45594000000E+02  0.51100000000E-03 0.  1.
         11   -1    0    0    0    0 -0.00000000000E+00 -0.00000000000E+00 -0.45593999997E+02  0.45594000000E+02  0.51100000000E-03 0. -1.
    9900012    2    1    2    0    0  0.47035927154E+01 -0.30145244412E+02 -0.92663075954E+01  0.59301890147E+02  0.49999901735E+02 0.  0.
         12    1    1    2    0    0 -0.47035927154E+01  0.30145244412E+02  0.92663075954E+01  0.31886109853E+02  0.00000000000E+00 0. -1.
         11    1    3    3    0    0 -0.13299662472E+02 -0.18909698735E+02  0.32505959536E+01  0.23345751272E+02  0.51100000000E-03 0. -1.
        -11    1    3    3    0    0 -0.59680187883E+01 -0.54636168506E+01  0.43887144981E+00  0.81031454237E+01  0.51100000000E-03 0.  1.
         12    1    3    3    0    0  0.23971273976E+02 -0.57719288261E+01 -0.12955774999E+02  0.27852993452E+02  0.00000000000E+00 0. -1.
</event>
<event>
 7    1  0.6246445E-012  0.5930194E+02  0.7816164E-02  0.1266605E+00
        -11   -1    0    0    0    0  0.00000000000E+00  0.00000000000E+00  0.45593999997E+02  0.45594000000E+02  0.51100000000E-03 0. -1.
         11   -1    0    0    0    0 -0.00000000000E+00 -0.00000000000E+00 -0.45593999997E+02  0.45594000000E+02  0.51100000000E-03 0.  1.
    9900012    2    1    2    0    0  0.17003520957E+02 -0.20496811024E+02 -0.17535155683E+02  0.59301942358E+02  0.49999996955E+02 0.  0.
         12    1    1    2    0    0 -0.17003520957E+02  0.20496811024E+02  0.17535155683E+02  0.31886057642E+02  0.00000000000E+00 0. -1.
         11    1    3    3    0    0 -0.28772758797E+01 -0.18608115300E+01  0.75875511312E+01  0.83253989975E+01  0.51100000000E-03 0. -1.
        -11    1    3    3    0    0  0.17321689868E+02 -0.25714905617E+02 -0.76252700044E+01  0.31928702662E+02  0.51100000000E-03 0.  1.
        -12    1    3    3    0    0  0.25591069685E+01  0.70789061222E+01 -0.17497436810E+02  0.19047840699E+02  0.00000000000E+00 0.  1.
</event>
<event>
 7    1  0.6246445E-012  0.5930183E+02  0.7816164E-02  0.1266605E+00
        -11   -1    0    0    0    0  0.00000000000E+00  0.00000000000E+00  0.45593999997E+02  0.45594000000E+02  0.51100000000E-03 0.  1.
         11   -1    0    0    0    0 -0.00000000000E+00 -0.00000000000E+00 -0.45593999997E+02  0.45594000000E+02  0.51100000000E-03 0. -1.
    9900012    2    1    2    0    0  0.69584739923E+01  0.30626598890E+02 -0.55062836334E+01  0.59301826204E+02  0.49999785118E+02 0.  0.
         12    1    1    2    0    0 -0.69584739923E+01 -0.30626598890E+02  0.55062836334E+01  0.31886173796E+02  0.00000000000E+00 0. -1.
         11    1    3    3    0    0  0.42775723520E+01  0.44611362108E+01 -0.12051096612E+02  0.13543570110E+02  0.51100000000E-03 0. -1.
        -11    1    3    3    0    0  0.16616333071E+02  0.19494609645E+01  0.61233021287E+01  0.17815660302E+02  0.51100000000E-03 0.  1.
        -12    1    3    3    0    0 -0.13935431430E+02  0.24216001715E+02  0.42151084951E+00  0.27942595792E+02  0.00000000000E+00 0.  1.
</event>
<event>
 7    1  0.6246445E-012  0.5930191E+02  0.7816164E-02  0.1266605E+00
        -11   -1    0    0    0    0  0.00000000000E+00  0.00000000000E+00  0.45593999997E+02  0.45594000000E+02  0.51100000000E-03 0.  1.
         11   -1    0    0    0    0 -0.00000000000E+00 -0.00000000000E+00 -0.45593999997E+02  0.45594000000E+02  0.51100000000E-03 0. -1.
    9900012    2    1    2    0    0 -0.29359591053E+02  0.10726090639E+02 -0.62998711752E+01  0.59301906103E+02  0.49999930835E+02 0.  0.
         12    1    1    2    0    0  0.29359591053E+02 -0.10726090639E+02  0.62998711752E+01  0.31886093897E+02  0.00000000000E+00 0. -1.
         11    1    3    3    0    0  0.60426503018E+01 -0.83424485526E+01  0.56851083867E+01  0.11765650350E+02  0.51100000000E-03 0. -1.
        -11    1    3    3    0    0 -0.72112066890E+01  0.43419895084E+01  0.66019721830E+01  0.10697682542E+02  0.51100000000E-03 0.  1.
         12    1    3    3    0    0 -0.28191034666E+02  0.14726549683E+02 -0.18586951745E+02  0.36838573211E+02  0.00000000000E+00 0. -1.
</event>
<event>
 7    1  0.6246445E-012  0.5930196E+02  0.7816164E-02  0.1266605E+00
        -11   -1    0    0    0    0  0.00000000000E+00  0.00000000000E+00  0.45593999997E+02  0.45594000000E+02  0.51100000000E-03 0.  1.
         11   -1    0    0    0    0 -0.00000000000E+00 -0.00000000000E+00 -0.45593999997E+02  0.45594000000E+02  0.51100000000E-03 0. -1.
    9900012    2    1    2    0    0  0.12377777572E+02 -0.14040873440E+02  0.25814033669E+02  0.59301955421E+02  0.50000020779E+02 0.  0.
         12    1    1    2    0    0 -0.12377777572E+02  0.14040873440E+02 -0.25814033669E+02  0.31886044579E+02  0.00000000000E+00 0. -1.
         11    1    3    3    0    0 -0.10991347332E+01 -0.55668990244E+01  0.28919715660E+00  0.56817336409E+01  0.51100000000E-03 0. -1.
        -11    1    3    3    0    0 -0.46062274839E+01 -0.21321256554E+02  0.22317799444E+02  0.31207330629E+02  0.51100000000E-03 0.  1.
        -12    1    3    3    0    0  0.18083139790E+02  0.12847282139E+02  0.32070370688E+01  0.22412891151E+02  0.00000000000E+00 0.  1.
</event>
<event>
 7    1  0.6246445E-012  0.5930193E+02  0.7816164E-02  0.1266605E+00
        -11   -1    0    0    0    0  0.00000000000E+00  0.00000000000E+00  0.45593999997E+02  0.45594000000E+02  0.51100000000E-03 0.  1.
         11   -1    0    0    0    0 -0.00000000000E+00 -0.00000000000E+00 -0.45593999997E+02  0.45594000000E+02  0.51100000000E-03 0. -1.
    9900012    2    1    2    0    0 -0.34198926720E+00  0.25690815908E+02  0.18883489336E+02  0.59301934891E+02  0.49999983336E+02 0.  0.
         12    1    1    2    0    0  0.34198926720E+00 -0.25690815908E+02 -0.18883489336E+02  0.31886065109E+02  0.00000000000E+00 0. -1.
         11    1    3    3    0    0 -0.12034444779E+01  0.26079755302E+00 -0.19448811793E+01  0.23019246377E+01  0.51100000000E-03 0. -1.
        -11    1    3    3    0    0  0.87755674412E+01 -0.11239586655E+02  0.35744998022E+00  0.14264174103E+02  0.51100000000E-03 0.  1.
         12    1    3    3    0    0 -0.79141122305E+01  0.36669605009E+02  0.20470920535E+02  0.42735836150E+02  0.00000000000E+00 0. -1.
</event>
<event>
 7    1  0.6246445E-012  0.5930195E+02  0.7816164E-02  0.1266605E+00
        -11   -1    0    0    0    0  0.00000000000E+00  0.00000000000E+00  0.45593999997E+02  0.45594000000E+02  0.51100000000E-03 0. -1.
         11   -1    0    0    0    0 -0.00000000000E+00 -0.00000000000E+00 -0.45593999997E+02  0.45594000000E+02  0.51100000000E-03 0.  1.
    9900012    2    1    2    0    0 -0.66116801219E+01  0.40691079360E+01 -0.30926498428E+02  0.59301948842E+02  0.50000008780E+02 0.  0.
         12    1    1    2    0    0  0.66116801219E+01 -0.40691079360E+01  0.30926498428E+02  0.31886051158E+02  0.00000000000E+00 0. -1.
         11    1    3    3    0    0 -0.21560575813E+01  0.19152542735E+02 -0.25890896111E+02  0.32277034858E+02  0.51100000000E-03 0. -1.
        -11    1    3    3    0    0 -0.51076013505E+01  0.43930812873E+01  0.53145586220E+00  0.67578991075E+01  0.51100000000E-03 0.  1.
         12    1    3    3    0    0  0.65197880999E+00 -0.19476516087E+02 -0.55670581789E+01  0.20267014877E+02  0.00000000000E+00 0. -1.
</event>
<event>
 7    1  0.6246445E-012  0.5930190E+02  0.7816164E-02  0.1266605E+00
        -11   -1    0    0    0    0  0.00000000000E+00  0.00000000000E+00  0.45593999997E+02  0.45594000000E+02  0.51100000000E-03 0.  1.
         11   -1    0    0    0    0 -0.00000000000E+00 -0.00000000000E+00 -0.45593999997E+02  0.45594000000E+02  0.51100000000E-03 0. -1.
    9900012    2    1    2    0    0  0.24229569987E+02  0.16550888422E+02 -0.12478755640E+02  0.59301900965E+02  0.49999921464E+02 0.  0.
         12    1    1    2    0    0 -0.24229569987E+02 -0.16550888422E+02  0.12478755640E+02  0.31886099035E+02  0.00000000000E+00 0. -1.
         11    1    3    3    0    0  0.17629715658E+02  0.64311651880E+01 -0.81404054461E+01  0.20455633966E+02  0.51100000000E-03 0. -1.
        -11    1    3    3    0    0  0.19883042770E+02  0.46953790792E+01  0.58474973914E+01  0.21250298833E+02  0.51100000000E-03 0.  1.
         12    1    3    3    0    0 -0.13283188441E+02  0.54243441552E+01 -0.10185847585E+02  0.17595968166E+02  0.00000000000E+00 0. -1.
</event>
<event>
 7    1  0.6246445E-012  0.5930194E+02  0.7816164E-02  0.1266605E+00
        -11   -1    0    0    0    0  0.00000000000E+00  0.00000000000E+00  0.45593999997E+02  0.45594000000E+02  0.51100000000E-03 0. -1.
         11   -1    0    0    0    0 -0.00000000000E+00 -0.00000000000E+00 -0.45593999997E+02  0.45594000000E+02  0.51100000000E-03 0.  1.
    9900012    2    1    2    0    0  0.27336079716E+02 -0.84584431384E+01  0.14068197715E+02  0.59301941895E+02  0.49999996110E+02 0.  0.
         12    1    1    2    0    0 -0.27336079716E+02  0.84584431384E+01 -0.14068197715E+02  0.31886058105E+02  0.00000000000E+00 0. -1.
         11    1    3    3    0    0 -0.55146250212E+01  0.56749278994E+01  0.41819968357E+01  0.89501393052E+01  0.51100000000E-03 0. -1.
        -11    1    3    3    0    0 -0.49482055767E+01  0.41218742596E+01 -0.19674611722E+01  0.67339059666E+01  0.51100000000E-03 0.  1.
        -12    1    3    3    0    0  0.37798910314E+02 -0.18255245297E+02  0.11853662052E+02  0.43617896623E+02  0.00000000000E+00 0.  1.
</event>
<event>
 7    1  0.6246445E-012  0.5930195E+02  0.7816164E-02  0.1266605E+00
        -11   -1    0    0    0    0  0.00000000000E+00  0.00000000000E+00  0.45593999997E+02  0.45594000000E+02  0.51100000000E-03 0.  1.
         11   -1    0    0    0    0 -0.00000000000E+00 -0.00000000000E+00 -0.45593999997E+02  0.45594000000E+02  0.51100000000E-03 0. -1.
    9900012    2    1    2    0    0 -0.21787427695E+02  0.16701010677E+02  0.16220488466E+02  0.59301952749E+02  0.50000015905E+02 0.  0.
         12    1    1    2    0    0  0.21787427695E+02 -0.16701010677E+02 -0.16220488466E+02  0.31886047251E+02  0.00000000000E+00 0. -1.
         11    1    3    3    0    0 -0.15488552250E+02 -0.10136738433E+02  0.85638113891E+01  0.20395773646E+02  0.51100000000E-03 0. -1.
        -11    1    3    3    0    0 -0.85717578279E+00  0.82805574084E+01 -0.97968075228E+01  0.12856119913E+02  0.51100000000E-03 0.  1.
        -12    1    3    3    0    0 -0.54416996629E+01  0.18557191702E+02  0.17453484600E+02  0.26050059189E+02  0.00000000000E+00 0.  1.
</event>
<event>
 7    1  0.6246445E-012  0.5930193E+02  0.7816164E-02  0.1266605E+00
        -11   -1    0    0    0    0  0.00000000000E+00  0.00000000000E+00  0.45593999997E+02  0.45594000000E+02  0.51100000000E-03 0.  1.
         11   -1    0    0    0    0 -0.00000000000E+00 -0.00000000000E+00 -0.45593999997E+02  0.45594000000E+02  0.51100000000E-03 0. -1.
    9900012    2    1    2    0    0 -0.10111995362E+02  0.14185916908E+02  0.26706342044E+02  0.59301931034E+02  0.49999976302E+02 0.  0.
         12    1    1    2    0    0  0.10111995362E+02 -0.14185916908E+02 -0.26706342044E+02  0.31886068966E+02  0.00000000000E+00 0. -1.
         11    1    3    3    0    0  0.18182117047E+01  0.22091849291E+01  0.56610568609E+01  0.63430242706E+01  0.51100000000E-03 0. -1.
        -11    1    3    3    0    0  0.12417020756E+02  0.18943315211E+01  0.23341752965E+02  0.26506760046E+02  0.51100000000E-03 0.  1.
         12    1    3    3    0    0 -0.24347227823E+02  0.10082400458E+02 -0.22964677824E+01  0.26452146717E+02  0.00000000000E+00 0. -1.
</event>
<event>
 7    1  0.6246445E-012  0.5930194E+02  0.7816164E-02  0.1266605E+00
        -11   -1    0    0    0    0  0.00000000000E+00  0.00000000000E+00  0.45593999997E+02  0.45594000000E+02  0.51100000000E-03 0.  1.
         11   -1    0    0    0    0 -0.00000000000E+00 -0.00000000000E+00 -0.45593999997E+02  0.45594000000E+02  0.51100000000E-03 0. -1.
    9900012    2    1    2    0    0 -0.89256164848E+01  0.28920492273E+02 -0.10032913673E+02  0.59301939414E+02  0.49999991585E+02 0.  0.
         12    1    1    2    0    0  0.89256164848E+01 -0.28920492273E+02  0.10032913673E+02  0.31886060586E+02  0.00000000000E+00 0. -1.
         11    1    3    3    0    0 -0.41250122686E+01 -0.35087922644E+01 -0.25731816223E+00  0.54215830039E+01  0.51100000000E-03 0. -1.
        -11    1    3    3    0    0 -0.20035527626E+02  0.87151060838E+01 -0.13137208001E+02  0.25494345954E+02  0.51100000000E-03 0.  1.
        -12    1    3    3    0    0  0.15234923410E+02  0.23714178454E+02  0.33616124906E+01  0.28386010455E+02  0.00000000000E+00 0.  1.
</event>
<event>
 7    1  0.6246445E-012  0.5930195E+02  0.7816164E-02  0.1266605E+00
        -11   -1    0    0    0    0  0.00000000000E+00  0.00000000000E+00  0.45593999997E+02  0.45594000000E+02  0.51100000000E-03 0.  1.
         11   -1    0    0    0    0 -0.00000000000E+00 -0.00000000000E+00 -0.45593999997E+02  0.45594000000E+02  0.51100000000E-03 0. -1.
    9900012    2    1    2    0    0 -0.69717587150E+01  0.23922721884E+02  0.19895178449E+02  0.59301950269E+02  0.50000011383E+02 0.  0.
         12    1    1    2    0    0  0.69717587150E+01 -0.23922721884E+02 -0.19895178449E+02  0.31886049731E+02  0.00000000000E+00 0. -1.
         11    1    3    3    0    0  0.77972332401E+01 -0.96269232373E+00 -0.24506639007E+01  0.82297859344E+01  0.51100000000E-03 0. -1.
        -11    1    3    3    0    0 -0.97167783003E+01 -0.74118339054E+01  0.11078159925E+02  0.16494747345E+02  0.51100000000E-03 0.  1.
        -12    1    3    3    0    0 -0.50522136548E+01  0.32297248113E+02  0.11267682425E+02  0.34577416990E+02  0.00000000000E+00 0.  1.
</event>
<event>
 7    1  0.6246445E-012  0.5930195E+02  0.7816164E-02  0.1266605E+00
        -11   -1    0    0    0    0  0.00000000000E+00  0.00000000000E+00  0.45593999997E+02  0.45594000000E+02  0.51100000000E-03 0.  1.
         11   -1    0    0    0    0 -0.00000000000E+00 -0.00000000000E+00 -0.45593999997E+02  0.45594000000E+02  0.51100000000E-03 0. -1.
    9900012    2    1    2    0    0  0.15322916252E+02 -0.26213005963E+02 -0.97368593728E+01  0.59301954862E+02  0.50000019759E+02 0.  0.
         12    1    1    2    0    0 -0.15322916252E+02  0.26213005963E+02  0.97368593728E+01  0.31886045138E+02  0.00000000000E+00 0. -1.
         11    1    3    3    0    0  0.22105520196E+02 -0.23120752117E+02 -0.12689480637E+02  0.34412877251E+02  0.51100000000E-03 0. -1.
        -11    1    3    3    0    0  0.70174626658E+01  0.68257302810E+00 -0.48834621478E+01  0.85766480057E+01  0.51100000000E-03 0.  1.
        -12    1    3    3    0    0 -0.13800066610E+02 -0.37748268744E+01  0.78360834121E+01  0.16312429605E+02  0.00000000000E+00 0.  1.
</event>
<event>
 7    1  0.6246445E-012  0.5930193E+02  0.7816164E-02  0.1266605E+00
        -11   -1    0    0    0    0  0.00000000000E+00  0.00000000000E+00  0.45593999997E+02  0.45594000000E+02  0.51100000000E-03 0.  1.
         11   -1    0    0    0    0 -0.00000000000E+00 -0.00000000000E+00 -0.45593999997E+02  0.45594000000E+02  0.51100000000E-03 0. -1.
    9900012    2    1    2    0    0  0.75303442052E+01 -0.30435538815E+02 -0.58046163027E+01  0.59301926594E+02  0.49999968205E+02 0.  0.
         12    1    1    2    0    0 -0.75303442052E+01  0.30435538815E+02  0.58046163027E+01  0.31886073406E+02  0.00000000000E+00 0. -1.
         11    1    3    3    0    0 -0.69880555774E+01  0.20410804141E+01  0.60312264937E+01  0.94538152769E+01  0.51100000000E-03 0. -1.
        -11    1    3    3    0    0  0.14804131992E+02  0.85288602780E+00 -0.60671352402E+01  0.16021855975E+02  0.51100000000E-03 0.  1.
         12    1    3    3    0    0 -0.28573220909E+00 -0.33329505257E+02 -0.57687075563E+01  0.33826255342E+02  0.00000000000E+00 0. -1.
</event>
<event>
 7    1  0.6246445E-012  0.5930197E+02  0.7816164E-02  0.1266605E+00
        -11   -1    0    0    0    0  0.00000000000E+00  0.00000000000E+00  0.45593999997E+02  0.45594000000E+02  0.51100000000E-03 0.  1.
         11   -1    0    0    0    0 -0.00000000000E+00 -0.00000000000E+00 -0.45593999997E+02  0.45594000000E+02  0.51100000000E-03 0. -1.
    9900012    2    1    2    0    0 -0.85490490715E+01 -0.10297754117E+02  0.28941130121E+02  0.59301968692E+02  0.50000044982E+02 0.  0.
         12    1    1    2    0    0  0.85490490715E+01  0.10297754117E+02 -0.28941130121E+02  0.31886031308E+02  0.00000000000E+00 0. -1.
         11    1    3    3    0    0 -0.16334789977E+02 -0.39773841149E+01 -0.20759331585E+00  0.16813329332E+02  0.51100000000E-03 0. -1.
        -11    1    3    3    0    0 -0.47601512240E+01 -0.11356673438E+02  0.24399593061E+01  0.12553345089E+02  0.51100000000E-03 0.  1.
         12    1    3    3    0    0  0.12545892130E+02  0.50363034366E+01  0.26708764131E+02  0.29935294270E+02  0.00000000000E+00 0. -1.
</event>
<event>
 7    1  0.6246445E-012  0.5930195E+02  0.7816164E-02  0.1266605E+00
        -11   -1    0    0    0    0  0.00000000000E+00  0.00000000000E+00  0.45593999997E+02  0.45594000000E+02  0.51100000000E-03 0.  1.
         11   -1    0    0    0    0 -0.00000000000E+00 -0.00000000000E+00 -0.45593999997E+02  0.45594000000E+02  0.51100000000E-03 0. -1.
    9900012    2    1    2    0    0  0.17872296466E+01 -0.10292295711E+02  0.30126312136E+02  0.59301949386E+02  0.50000009772E+02 0.  0.
         12    1    1    2    0    0 -0.17872296466E+01  0.10292295711E+02 -0.30126312136E+02  0.31886050614E+02  0.00000000000E+00 0. -1.
         11    1    3    3    0    0 -0.21379179833E+01 -0.11575620877E+02  0.21761753670E+01  0.11970857592E+02  0.51100000000E-03 0. -1.
        -11    1    3    3    0    0 -0.15323787205E+02  0.79094170686E+01  0.17001043332E+02  0.24215961830E+02  0.51100000000E-03 0.  1.
         12    1    3    3    0    0  0.19248934835E+02 -0.66260919028E+01  0.10949093437E+02  0.23115129965E+02  0.00000000000E+00 0. -1.
</event>
<event>
 7    1  0.6246445E-012  0.5930194E+02  0.7816164E-02  0.1266605E+00
        -11   -1    0    0    0    0  0.00000000000E+00  0.00000000000E+00  0.45593999997E+02  0.45594000000E+02  0.51100000000E-03 0.  1.
         11   -1    0    0    0    0 -0.00000000000E+00 -0.00000000000E+00 -0.45593999997E+02  0.45594000000E+02  0.51100000000E-03 0. -1.
    9900012    2    1    2    0    0 -0.13294799029E+02  0.17631149317E+02  0.23002426431E+02  0.59301941461E+02  0.49999995319E+02 0.  0.
         12    1    1    2    0    0  0.13294799029E+02 -0.17631149317E+02 -0.23002426431E+02  0.31886058539E+02  0.00000000000E+00 0. -1.
         11    1    3    3    0    0  0.11518801068E+01 -0.80080739487E+01 -0.11957154866E+01  0.81783746511E+01  0.51100000000E-03 0. -1.
        -11    1    3    3    0    0  0.31832107654E+01  0.18642274688E+02 -0.17379595864E+01  0.18991780857E+02  0.51100000000E-03 0.  1.
        -12    1    3    3    0    0 -0.17629889901E+02  0.69969485770E+01  0.25936101504E+02  0.32131785953E+02  0.00000000000E+00 0.  1.
</event>
<event>
 7    1  0.6246445E-012  0.5930197E+02  0.7816164E-02  0.1266605E+00
        -11   -1    0    0    0    0  0.00000000000E+00  0.00000000000E+00  0.45593999997E+02  0.45594000000E+02  0.51100000000E-03 0.  1.
         11   -1    0    0    0    0 -0.00000000000E+00 -0.00000000000E+00 -0.45593999997E+02  0.45594000000E+02  0.51100000000E-03 0. -1.
    9900012    2    1    2    0    0  0.12566186986E+02  0.30254191847E+01  0.29148873935E+02  0.59301967504E+02  0.50000042816E+02 0.  0.
         12    1    1    2    0    0 -0.12566186986E+02 -0.30254191847E+01 -0.29148873935E+02  0.31886032496E+02  0.00000000000E+00 0. -1.
         11    1    3    3    0    0  0.12485507493E+02  0.94229751252E+01  0.21207136073E+02  0.26351906539E+02  0.51100000000E-03 0. -1.
        -11    1    3    3    0    0  0.44979424220E+01  0.81594773709E+01  0.13798136284E+02  0.16649237886E+02  0.51100000000E-03 0.  1.
         12    1    3    3    0    0 -0.44172629290E+01 -0.14557033311E+02 -0.58563984215E+01  0.16300823080E+02  0.00000000000E+00 0. -1.
</event>
<event>
 7    1  0.6874631E-012  0.5930192E+02  0.7816164E-02  0.1266605E+00
        -11   -1    0    0    0    0  0.00000000000E+00  0.00000000000E+00  0.45593999997E+02  0.45594000000E+02  0.51100000000E-03 0. -1.
         11   -1    0    0    0    0 -0.00000000000E+00 -0.00000000000E+00 -0.45593999997E+02  0.45594000000E+02  0.51100000000E-03 0.  1.
    9900012    2    1    2    0    0 -0.23845409318E+02 -0.15514304052E+02 -0.14402256130E+02  0.59301919065E+02  0.49999954474E+02 0.  0.
         12    1    1    2    0    0  0.23845409318E+02  0.15514304052E+02  0.14402256130E+02  0.31886080935E+02  0.00000000000E+00 0. -1.
         11    1    3    3    0    0  0.96613794791E+01 -0.99759296412E+01 -0.10566888574E+02  0.17450517472E+02  0.51100000000E-03 0. -1.
        -11    1    3    3    0    0 -0.74488721909E+01 -0.32486908815E+01 -0.11960667472E+02  0.14460195572E+02  0.51100000000E-03 0.  1.
         12    1    3    3    0    0 -0.26057916606E+02 -0.22896835296E+01  0.81252999159E+01  0.27391206020E+02  0.00000000000E+00 0. -1.
</event>
<event>
 7    1  0.6246445E-012  0.5930196E+02  0.7816164E-02  0.1266605E+00
        -11   -1    0    0    0    0  0.00000000000E+00  0.00000000000E+00  0.45593999997E+02  0.45594000000E+02  0.51100000000E-03 0. -1.
         11   -1    0    0    0    0 -0.00000000000E+00 -0.00000000000E+00 -0.45593999997E+02  0.45594000000E+02  0.51100000000E-03 0.  1.
    9900012    2    1    2    0    0 -0.29658716492E+02  0.41644681456E+01  0.10942452501E+02  0.59301960334E+02  0.50000029738E+02 0.  0.
         12    1    1    2    0    0  0.29658716492E+02 -0.41644681456E+01 -0.10942452501E+02  0.31886039666E+02  0.00000000000E+00 0. -1.
         11    1    3    3    0    0 -0.11412223467E+01  0.13175948117E+02  0.10302098065E+02  0.16764284119E+02  0.51100000000E-03 0. -1.
        -11    1    3    3    0    0 -0.19879561549E+02 -0.12167936798E+02 -0.12539150135E+02  0.26466694914E+02  0.51100000000E-03 0.  1.
         12    1    3    3    0    0 -0.86379325962E+01  0.31564568267E+01  0.13179504571E+02  0.16070981301E+02  0.00000000000E+00 0. -1.
</event>
<event>
 7    1  0.6246445E-012  0.5930197E+02  0.7816164E-02  0.1266605E+00
        -11   -1    0    0    0    0  0.00000000000E+00  0.00000000000E+00  0.45593999997E+02  0.45594000000E+02  0.51100000000E-03 0.  1.
         11   -1    0    0    0    0 -0.00000000000E+00 -0.00000000000E+00 -0.45593999997E+02  0.45594000000E+02  0.51100000000E-03 0. -1.
    9900012    2    1    2    0    0 -0.42997491086E+01 -0.29203837723E+02 -0.12056822550E+02  0.59301969357E+02  0.50000046194E+02 0.  0.
         12    1    1    2    0    0  0.42997491086E+01  0.29203837723E+02  0.12056822550E+02  0.31886030643E+02  0.00000000000E+00 0. -1.
         11    1    3    3    0    0 -0.46061587583E+01 -0.51407513947E+00 -0.46464245013E+01  0.65627915298E+01  0.51100000000E-03 0. -1.
        -11    1    3    3    0    0 -0.17044936886E+02 -0.27491434096E+02 -0.12404627349E+02  0.34643666117E+02  0.51100000000E-03 0.  1.
         12    1    3    3    0    0  0.17351346535E+02 -0.11983284880E+01  0.49942293002E+01  0.18095511710E+02  0.00000000000E+00 0. -1.
</event>
<event>
 7    1  0.6246445E-012  0.5930194E+02  0.7816164E-02  0.1266605E+00
        -11   -1    0    0    0    0  0.00000000000E+00  0.00000000000E+00  0.45593999997E+02  0.45594000000E+02  0.51100000000E-03 0.  1.
         11   -1    0    0    0    0 -0.00000000000E+00 -0.00000000000E+00 -0.45593999997E+02  0.45594000000E+02  0.51100000000E-03 0. -1.
    9900012    2    1    2    0    0  0.25472780859E+02 -0.78394293436E+01  0.17504335892E+02  0.59301937337E+02  0.49999987798E+02 0.  0.
         12    1    1    2    0    0 -0.25472780859E+02  0.78394293436E+01 -0.17504335892E+02  0.31886062663E+02  0.00000000000E+00 0. -1.
         11    1    3    3    0    0  0.16934749870E+02 -0.17017386948E+02 -0.70344987089E+01  0.25017221749E+02  0.51100000000E-03 0. -1.
        -11    1    3    3    0    0  0.25880836796E+01 -0.43312335291E+01  0.16953548536E+02  0.17688430378E+02  0.51100000000E-03 0.  1.
        -12    1    3    3    0    0  0.59499473089E+01  0.13509191134E+02  0.75852860645E+01  0.16596285209E+02  0.00000000000E+00 0.  1.
</event>
<event>
 7    1  0.6246445E-012  0.5930193E+02  0.7816164E-02  0.1266605E+00
        -11   -1    0    0    0    0  0.00000000000E+00  0.00000000000E+00  0.45593999997E+02  0.45594000000E+02  0.51100000000E-03 0. -1.
         11   -1    0    0    0    0 -0.00000000000E+00 -0.00000000000E+00 -0.45593999997E+02  0.45594000000E+02  0.51100000000E-03 0.  1.
    9900012    2    1    2    0    0  0.71272338310E+01 -0.28220911431E+02 -0.13019380257E+02  0.59301928332E+02  0.49999971376E+02 0.  0.
         12    1    1    2    0    0 -0.71272338310E+01  0.28220911431E+02  0.13019380257E+02  0.31886071668E+02  0.00000000000E+00 0. -1.
         11    1    3    3    0    0 -0.72220268795E+01 -0.45778057335E+01  0.71664503143E+01  0.11156701482E+02  0.51100000000E-03 0. -1.
        -11    1    3    3    0    0  0.12228976958E+02 -0.28072727690E+02 -0.35809428012E+01  0.30829354015E+02  0.51100000000E-03 0.  1.
        -12    1    3    3    0    0  0.21202837525E+01  0.44296219920E+01 -0.16604887771E+02  0.17315872836E+02  0.00000000000E+00 0.  1.
</event>
<event>
 7    1  0.6401606E-012  0.5930198E+02  0.7816164E-02  0.1266605E+00
        -11   -1    0    0    0    0  0.00000000000E+00  0.00000000000E+00  0.45593999997E+02  0.45594000000E+02  0.51100000000E-03 0. -1.
         11   -1    0    0    0    0 -0.00000000000E+00 -0.00000000000E+00 -0.45593999997E+02  0.45594000000E+02  0.51100000000E-03 0.  1.
    9900012    2    1    2    0    0 -0.70091106980E+01  0.26003003791E+02 -0.17071448140E+02  0.59301981425E+02  0.50000068204E+02 0.  0.
         12    1    1    2    0    0  0.70091106980E+01 -0.26003003791E+02  0.17071448140E+02  0.31886018575E+02  0.00000000000E+00 0. -1.
         11    1    3    3    0    0 -0.72356785014E+01  0.12720647619E+01 -0.28913612601E+01  0.78951353586E+01  0.51100000000E-03 0. -1.
        -11    1    3    3    0    0 -0.11634893409E+02  0.36552620810E+01 -0.22697611051E+02  0.25766513796E+02  0.51100000000E-03 0.  1.
         12    1    3    3    0    0  0.11861461213E+02  0.21075676948E+02  0.85175241708E+01  0.25640332270E+02  0.00000000000E+00 0. -1.
</event>
<event>
 7    1  0.6246445E-012  0.5930195E+02  0.7816164E-02  0.1266605E+00
        -11   -1    0    0    0    0  0.00000000000E+00  0.00000000000E+00  0.45593999997E+02  0.45594000000E+02  0.51100000000E-03 0. -1.
         11   -1    0    0    0    0 -0.00000000000E+00 -0.00000000000E+00 -0.45593999997E+02  0.45594000000E+02  0.51100000000E-03 0.  1.
    9900012    2    1    2    0    0  0.16655488579E+02 -0.35847037058E+01 -0.26953015632E+02  0.59301945805E+02  0.50000003242E+02 0.  0.
         12    1    1    2    0    0 -0.16655488579E+02  0.35847037058E+01  0.26953015632E+02  0.31886054195E+02  0.00000000000E+00 0. -1.
         11    1    3    3    0    0  0.13169282035E+01 -0.14485028678E+02 -0.16818319140E+02  0.22235247124E+02  0.51100000000E-03 0. -1.
        -11    1    3    3    0    0  0.36538076495E+00  0.34747397172E+01 -0.18183595467E+02  0.18516221633E+02  0.51100000000E-03 0.  1.
         12    1    3    3    0    0  0.14973179610E+02  0.74255852550E+01  0.80488989746E+01  0.18550477048E+02  0.00000000000E+00 0. -1.
</event>
<event>
 7    1  0.6246445E-012  0.5930195E+02  0.7816164E-02  0.1266605E+00
        -11   -1    0    0    0    0  0.00000000000E+00  0.00000000000E+00  0.45593999997E+02  0.45594000000E+02  0.51100000000E-03 0. -1.
         11   -1    0    0    0    0 -0.00000000000E+00 -0.00000000000E+00 -0.45593999997E+02  0.45594000000E+02  0.51100000000E-03 0.  1.
    9900012    2    1    2    0    0 -0.25533337742E+02  0.83557925238E+01 -0.17174092820E+02  0.59301951811E+02  0.50000014194E+02 0.  0.
         12    1    1    2    0    0  0.25533337742E+02 -0.83557925238E+01  0.17174092820E+02  0.31886048189E+02  0.00000000000E+00 0. -1.
         11    1    3    3    0    0 -0.15223552279E+02 -0.39762179115E+01  0.34397454689E+01  0.16105859245E+02  0.51100000000E-03 0. -1.
        -11    1    3    3    0    0 -0.47543202772E+01 -0.11016974781E+02 -0.13715924389E+02  0.18223717424E+02  0.51100000000E-03 0.  1.
        -12    1    3    3    0    0 -0.55554651854E+01  0.23348985216E+02 -0.68979139001E+01  0.24972375142E+02  0.00000000000E+00 0.  1.
</event>
<event>
 7    1  0.6246445E-012  0.5930193E+02  0.7816164E-02  0.1266605E+00
        -11   -1    0    0    0    0  0.00000000000E+00  0.00000000000E+00  0.45593999997E+02  0.45594000000E+02  0.51100000000E-03 0.  1.
         11   -1    0    0    0    0 -0.00000000000E+00 -0.00000000000E+00 -0.45593999997E+02  0.45594000000E+02  0.51100000000E-03 0. -1.
    9900012    2    1    2    0    0  0.20873769016E+02 -0.15130206629E+02  0.18763906885E+02  0.59301928007E+02  0.49999970781E+02 0.  0.
         12    1    1    2    0    0 -0.20873769016E+02  0.15130206629E+02 -0.18763906885E+02  0.31886071993E+02  0.00000000000E+00 0. -1.
         11    1    3    3    0    0 -0.40125440629E+01  0.37037937653E+01  0.10614177144E+02  0.11936471624E+02  0.51100000000E-03 0. -1.
        -11    1    3    3    0    0  0.18625744634E+02 -0.17187465406E+02  0.21040997795E+02  0.32940111092E+02  0.51100000000E-03 0.  1.
         12    1    3    3    0    0  0.62605684445E+01 -0.16465349889E+01 -0.12891268054E+02  0.14425345291E+02  0.00000000000E+00 0. -1.
</event>
<event>
 7    1  0.6246445E-012  0.5930191E+02  0.7816164E-02  0.1266605E+00
        -11   -1    0    0    0    0  0.00000000000E+00  0.00000000000E+00  0.45593999997E+02  0.45594000000E+02  0.51100000000E-03 0.  1.
         11   -1    0    0    0    0 -0.00000000000E+00 -0.00000000000E+00 -0.45593999997E+02  0.45594000000E+02  0.51100000000E-03 0. -1.
    9900012    2    1    2    0    0  0.22952720454E+01  0.21644079332E+02  0.23302114272E+02  0.59301906268E+02  0.49999931136E+02 0.  0.
         12    1    1    2    0    0 -0.22952720454E+01 -0.21644079332E+02 -0.23302114272E+02  0.31886093732E+02  0.00000000000E+00 0. -1.
         11    1    3    3    0    0  0.84694278127E+01  0.28653716689E+02  0.80662667117E+01  0.30948850488E+02  0.51100000000E-03 0. -1.
        -11    1    3    3    0    0  0.31889456167E+01  0.55628782566E+01 -0.11424037275E+00  0.64131146698E+01  0.51100000000E-03 0.  1.
        -12    1    3    3    0    0 -0.93631013841E+01 -0.12572515614E+02  0.15350087934E+02  0.21939941111E+02  0.00000000000E+00 0.  1.
</event>
<event>
 7    1  0.6246445E-012  0.5930206E+02  0.7816164E-02  0.1266604E+00
        -11   -1    0    0    0    0  0.00000000000E+00  0.00000000000E+00  0.45593999997E+02  0.45594000000E+02  0.51100000000E-03 0.  1.
         11   -1    0    0    0    0 -0.00000000000E+00 -0.00000000000E+00 -0.45593999997E+02  0.45594000000E+02  0.51100000000E-03 0. -1.
    9900012    2    1    2    0    0 -0.21124801499E+02  0.78341897267E+01 -0.22562832537E+02  0.59302059852E+02  0.50000211235E+02 0.  0.
         12    1    1    2    0    0  0.21124801499E+02 -0.78341897267E+01  0.22562832537E+02  0.31885940148E+02  0.00000000000E+00 0. -1.
         11    1    3    3    0    0 -0.70372051630E+01  0.14892504468E+02 -0.15650113493E+01  0.16545640109E+02  0.51100000000E-03 0. -1.
        -11    1    3    3    0    0  0.24969658199E+01  0.11182684195E+02 -0.19972971570E+01  0.11630840911E+02  0.51100000000E-03 0.  1.
        -12    1    3    3    0    0 -0.16584562155E+02 -0.18240998937E+02 -0.19000524031E+02  0.31125578831E+02  0.00000000000E+00 0.  1.
</event>
<event>
 7    1  0.6246445E-012  0.5930197E+02  0.7816164E-02  0.1266605E+00
        -11   -1    0    0    0    0  0.00000000000E+00  0.00000000000E+00  0.45593999997E+02  0.45594000000E+02  0.51100000000E-03 0.  1.
         11   -1    0    0    0    0 -0.00000000000E+00 -0.00000000000E+00 -0.45593999997E+02  0.45594000000E+02  0.51100000000E-03 0. -1.
    9900012    2    1    2    0    0 -0.30241791082E+02  0.27728457784E+01  0.97192817279E+01  0.59301967966E+02  0.50000043658E+02 0.  0.
         12    1    1    2    0    0  0.30241791082E+02 -0.27728457784E+01 -0.97192817279E+01  0.31886032034E+02  0.00000000000E+00 0. -1.
         11    1    3    3    0    0  0.10248712665E+01  0.62707105910E+01  0.27278529775E+00  0.63597629287E+01  0.51100000000E-03 0. -1.
        -11    1    3    3    0    0  0.65541781085E+01 -0.11588541305E+02  0.38777831740E+01  0.13866821657E+02  0.51100000000E-03 0.  1.
        -12    1    3    3    0    0 -0.37820840457E+02  0.80906764925E+01  0.55687132562E+01  0.39075383380E+02  0.00000000000E+00 0.  1.
</event>
<event>
 7    1  0.8235800E-012  0.5930194E+02  0.7816164E-02  0.1266605E+00
        -11   -1    0    0    0    0  0.00000000000E+00  0.00000000000E+00  0.45593999997E+02  0.45594000000E+02  0.51100000000E-03 0.  1.
         11   -1    0    0    0    0 -0.00000000000E+00 -0.00000000000E+00 -0.45593999997E+02  0.45594000000E+02  0.51100000000E-03 0. -1.
    9900012    2    1    2    0    0 -0.89661186469E+01 -0.29847937763E+02  0.67401854839E+01  0.59301940779E+02  0.49999994075E+02 0.  0.
         12    1    1    2    0    0  0.89661186469E+01  0.29847937763E+02 -0.67401854839E+01  0.31886059221E+02  0.00000000000E+00 0. -1.
         11    1    3    3    0    0  0.10828032969E+02 -0.83863661513E+01 -0.35543240504E+01  0.14149581439E+02  0.51100000000E-03 0. -1.
        -11    1    3    3    0    0 -0.10234317498E+02 -0.28431642254E+02  0.12202857115E+01  0.30242166480E+02  0.51100000000E-03 0.  1.
         12    1    3    3    0    0 -0.95598341179E+01  0.69700706426E+01  0.90742238227E+01  0.14910192860E+02  0.00000000000E+00 0. -1.
</event>
<event>
 7    1  0.6246445E-012  0.5930195E+02  0.7816164E-02  0.1266605E+00
        -11   -1    0    0    0    0  0.00000000000E+00  0.00000000000E+00  0.45593999997E+02  0.45594000000E+02  0.51100000000E-03 0.  1.
         11   -1    0    0    0    0 -0.00000000000E+00 -0.00000000000E+00 -0.45593999997E+02  0.45594000000E+02  0.51100000000E-03 0. -1.
    9900012    2    1    2    0    0  0.82030439816E+01 -0.23233431443E+02  0.20239521465E+02  0.59301945112E+02  0.50000001977E+02 0.  0.
         12    1    1    2    0    0 -0.82030439816E+01  0.23233431443E+02 -0.20239521465E+02  0.31886054888E+02  0.00000000000E+00 0. -1.
         11    1    3    3    0    0 -0.90565532792E+00  0.55690832572E+01  0.54257190913E+01  0.78277281390E+01  0.51100000000E-03 0. -1.
        -11    1    3    3    0    0 -0.74152456262E+01  0.18295485026E+01  0.14816921259E+02  0.16669561220E+02  0.51100000000E-03 0.  1.
         12    1    3    3    0    0  0.16523944936E+02 -0.30632063203E+02 -0.31188852824E-02  0.34804655752E+02  0.00000000000E+00 0. -1.
</event>
<event>
 7    1  0.6246445E-012  0.5930190E+02  0.7816164E-02  0.1266605E+00
        -11   -1    0    0    0    0  0.00000000000E+00  0.00000000000E+00  0.45593999997E+02  0.45594000000E+02  0.51100000000E-03 0.  1.
         11   -1    0    0    0    0 -0.00000000000E+00 -0.00000000000E+00 -0.45593999997E+02  0.45594000000E+02  0.51100000000E-03 0. -1.
    9900012    2    1    2    0    0 -0.24208300153E+02  0.19134003979E+02  0.80356241138E+01  0.59301903352E+02  0.49999925817E+02 0.  0.
         12    1    1    2    0    0  0.24208300153E+02 -0.19134003979E+02 -0.80356241138E+01  0.31886096648E+02  0.00000000000E+00 0. -1.
         11    1    3    3    0    0 -0.14679283415E+02 -0.72785963933E+01  0.59023030208E+01  0.17415410079E+02  0.51100000000E-03 0. -1.
        -11    1    3    3    0    0 -0.14826529292E+02  0.28780550969E+01  0.79555399880E+01  0.17070436103E+02  0.51100000000E-03 0.  1.
        -12    1    3    3    0    0  0.52975125539E+01  0.23534545275E+02 -0.58222188950E+01  0.24816057169E+02  0.00000000000E+00 0.  1.
</event>
<event>
 7    1  0.6246445E-012  0.5930196E+02  0.7816164E-02  0.1266605E+00
        -11   -1    0    0    0    0  0.00000000000E+00  0.00000000000E+00  0.45593999997E+02  0.45594000000E+02  0.51100000000E-03 0.  1.
         11   -1    0    0    0    0 -0.00000000000E+00 -0.00000000000E+00 -0.45593999997E+02  0.45594000000E+02  0.51100000000E-03 0. -1.
    9900012    2    1    2    0    0 -0.31796755979E+02 -0.20951783360E+01  0.11383825307E+01  0.59301962651E+02  0.50000033964E+02 0.  0.
         12    1    1    2    0    0  0.31796755979E+02  0.20951783360E+01 -0.11383825307E+01  0.31886037349E+02  0.00000000000E+00 0. -1.
         11    1    3    3    0    0 -0.74299270404E+01  0.13254469275E+00  0.59957324324E+01  0.95483083100E+01  0.51100000000E-03 0.  1.
        -11    1    3    3    0    0 -0.17107260242E+02 -0.16602317655E+02 -0.17256731401E+02  0.29429408479E+02  0.51100000000E-03 0. -1.
         12    1    3    3    0    0 -0.72595686961E+01  0.14374594626E+02  0.12399381499E+02  0.20324245862E+02  0.00000000000E+00 0. -1.
</event>
<event>
 7    1  0.6246445E-012  0.5930195E+02  0.7816164E-02  0.1266605E+00
        -11   -1    0    0    0    0  0.00000000000E+00  0.00000000000E+00  0.45593999997E+02  0.45594000000E+02  0.51100000000E-03 0.  1.
         11   -1    0    0    0    0 -0.00000000000E+00 -0.00000000000E+00 -0.45593999997E+02  0.45594000000E+02  0.51100000000E-03 0. -1.
    9900012    2    1    2    0    0  0.60301450737E+01  0.23080105042E+02  0.21158130289E+02  0.59301947004E+02  0.50000005428E+02 0.  0.
         12    1    1    2    0    0 -0.60301450737E+01 -0.23080105042E+02 -0.21158130289E+02  0.31886052996E+02  0.00000000000E+00 0. -1.
         11    1    3    3    0    0  0.15360804781E+02  0.59471178545E+01  0.27291161177E+02  0.31876794270E+02  0.51100000000E-03 0. -1.
        -11    1    3    3    0    0  0.31918552709E+01  0.10408042274E+02  0.19706115302E+01  0.11063389811E+02  0.51100000000E-03 0.  1.
         12    1    3    3    0    0 -0.12522514979E+02  0.67249449133E+01 -0.81036424185E+01  0.16361762922E+02  0.00000000000E+00 0. -1.
</event>
<event>
 7    1  0.6246445E-012  0.5930160E+02  0.7816164E-02  0.1266606E+00
        -11   -1    0    0    0    0  0.00000000000E+00  0.00000000000E+00  0.45593999997E+02  0.45594000000E+02  0.51100000000E-03 0. -1.
         11   -1    0    0    0    0 -0.00000000000E+00 -0.00000000000E+00 -0.45593999997E+02  0.45594000000E+02  0.51100000000E-03 0.  1.
    9900012    2    1    2    0    0  0.29618213727E+02  0.63043360076E+01  0.99879679514E+01  0.59301596304E+02  0.49999365832E+02 0.  0.
         12    1    1    2    0    0 -0.29618213727E+02 -0.63043360076E+01 -0.99879679514E+01  0.31886403696E+02  0.00000000000E+00 0. -1.
         11    1    3    3    0    0  0.29481236754E+02  0.22015122344E+00  0.17686900028E+01  0.29535064782E+02  0.51100000000E-03 0.  1.
        -11    1    3    3    0    0  0.78209277241E+01  0.10366971599E+02  0.14112396382E+02  0.19178131883E+02  0.51100000000E-03 0. -1.
        -12    1    3    3    0    0 -0.76839507514E+01 -0.42827868144E+01 -0.58931184337E+01  0.10588399639E+02  0.00000000000E+00 0.  1.
</event>
<event>
 7    1  0.6246445E-012  0.5930194E+02  0.7816164E-02  0.1266605E+00
        -11   -1    0    0    0    0  0.00000000000E+00  0.00000000000E+00  0.45593999997E+02  0.45594000000E+02  0.51100000000E-03 0.  1.
         11   -1    0    0    0    0 -0.00000000000E+00 -0.00000000000E+00 -0.45593999997E+02  0.45594000000E+02  0.51100000000E-03 0. -1.
    9900012    2    1    2    0    0 -0.30574789782E+02 -0.53947868103E+01  0.72662927328E+01  0.59301944976E+02  0.50000001729E+02 0.  0.
         12    1    1    2    0    0  0.30574789782E+02  0.53947868103E+01 -0.72662927328E+01  0.31886055024E+02  0.00000000000E+00 0. -1.
         11    1    3    3    0    0 -0.11457781962E+01  0.48205224546E+01 -0.10494181036E+02  0.11605088551E+02  0.51100000000E-03 0. -1.
        -11    1    3    3    0    0 -0.20854489875E+02 -0.13827843673E+01 -0.52952348787E+01  0.21560643618E+02  0.51100000000E-03 0.  1.
        -12    1    3    3    0    0 -0.85745217110E+01 -0.88325248976E+01  0.23055708647E+02  0.26136212806E+02  0.00000000000E+00 0.  1.
</event>
<event>
 7    1  0.6246445E-012  0.5930177E+02  0.7816164E-02  0.1266605E+00
        -11   -1    0    0    0    0  0.00000000000E+00  0.00000000000E+00  0.45593999997E+02  0.45594000000E+02  0.51100000000E-03 0.  1.
         11   -1    0    0    0    0 -0.00000000000E+00 -0.00000000000E+00 -0.45593999997E+02  0.45594000000E+02  0.51100000000E-03 0. -1.
    9900012    2    1    2    0    0  0.39319926532E+01 -0.17442046309E+02  0.26401632676E+02  0.59301768588E+02  0.49999680040E+02 0.  0.
         12    1    1    2    0    0 -0.39319926532E+01  0.17442046309E+02 -0.26401632676E+02  0.31886231412E+02  0.00000000000E+00 0. -1.
         11    1    3    3    0    0 -0.63791229836E+01  0.11684464894E+02  0.11882908284E+02  0.17844423203E+02  0.51100000000E-03 0.  1.
        -11    1    3    3    0    0  0.97558984880E+01 -0.86247238162E+01 -0.42079770813E+01  0.13684680763E+02  0.51100000000E-03 0. -1.
        -12    1    3    3    0    0  0.55521714884E+00 -0.20501787387E+02  0.18726701473E+02  0.27772664622E+02  0.00000000000E+00 0.  1.
</event>
<event>
 7    1  0.6246445E-012  0.5930196E+02  0.7816164E-02  0.1266605E+00
        -11   -1    0    0    0    0  0.00000000000E+00  0.00000000000E+00  0.45593999997E+02  0.45594000000E+02  0.51100000000E-03 0.  1.
         11   -1    0    0    0    0 -0.00000000000E+00 -0.00000000000E+00 -0.45593999997E+02  0.45594000000E+02  0.51100000000E-03 0. -1.
    9900012    2    1    2    0    0 -0.19782791694E+02 -0.20479772983E+02 -0.14350591105E+02  0.59301962088E+02  0.50000032938E+02 0.  0.
         12    1    1    2    0    0  0.19782791694E+02  0.20479772983E+02  0.14350591105E+02  0.31886037912E+02  0.00000000000E+00 0. -1.
         11    1    3    3    0    0  0.98514595017E+01 -0.53176224956E+00 -0.12068989625E+02  0.15588282017E+02  0.51100000000E-03 0. -1.
        -11    1    3    3    0    0  0.13724046562E+01 -0.10999382363E+02  0.16355574760E+01  0.11204684530E+02  0.51100000000E-03 0.  1.
         12    1    3    3    0    0 -0.31006655852E+02 -0.89486283708E+01 -0.39171589561E+01  0.32508995542E+02  0.00000000000E+00 0. -1.
</event>
<event>
 7    1  0.6246445E-012  0.5930194E+02  0.7816164E-02  0.1266605E+00
        -11   -1    0    0    0    0  0.00000000000E+00  0.00000000000E+00  0.45593999997E+02  0.45594000000E+02  0.51100000000E-03 0.  1.
         11   -1    0    0    0    0 -0.00000000000E+00 -0.00000000000E+00 -0.45593999997E+02  0.45594000000E+02  0.51100000000E-03 0. -1.
    9900012    2    1    2    0    0 -0.92672425225E+01  0.28922094692E+02  0.97134641543E+01  0.59301941429E+02  0.49999995260E+02 0.  0.
         12    1    1    2    0    0  0.92672425225E+01 -0.28922094692E+02 -0.97134641543E+01  0.31886058571E+02  0.00000000000E+00 0. -1.
         11    1    3    3    0    0 -0.54677427948E+01  0.90918232593E+01 -0.16770721471E+01  0.10741044302E+02  0.51100000000E-03 0. -1.
        -11    1    3    3    0    0  0.12771701810E+01  0.29119569997E+02 -0.44738038374E+01  0.29488903701E+02  0.51100000000E-03 0.  1.
        -12    1    3    3    0    0 -0.50766699087E+01 -0.92892985641E+01  0.15864340139E+02  0.19071993425E+02  0.00000000000E+00 0.  1.
</event>
<event>
 7    1  0.6246445E-012  0.5930200E+02  0.7816164E-02  0.1266605E+00
        -11   -1    0    0    0    0  0.00000000000E+00  0.00000000000E+00  0.45593999997E+02  0.45594000000E+02  0.51100000000E-03 0.  1.
         11   -1    0    0    0    0 -0.00000000000E+00 -0.00000000000E+00 -0.45593999997E+02  0.45594000000E+02  0.51100000000E-03 0. -1.
    9900012    2    1    2    0    0  0.98046682245E+01 -0.26138890879E+02 -0.15405978084E+02  0.59301995294E+02  0.50000093497E+02 0.  0.
         12    1    1    2    0    0 -0.98046682245E+01  0.26138890879E+02  0.15405978084E+02  0.31886004706E+02  0.00000000000E+00 0. -1.
         11    1    3    3    0    0  0.57620563721E+00 -0.12020785781E+02 -0.62446774494E+01  0.13558292681E+02  0.51100000000E-03 0. -1.
        -11    1    3    3    0    0 -0.31304219551E+01 -0.25642201217E+02 -0.12209892832E+02  0.28572775646E+02  0.51100000000E-03 0.  1.
         12    1    3    3    0    0  0.12358884542E+02  0.11524096119E+02  0.30485921979E+01  0.17170926966E+02  0.00000000000E+00 0. -1.
</event>
<event>
 7    1  0.6246445E-012  0.5930195E+02  0.7816164E-02  0.1266605E+00
        -11   -1    0    0    0    0  0.00000000000E+00  0.00000000000E+00  0.45593999997E+02  0.45594000000E+02  0.51100000000E-03 0. -1.
         11   -1    0    0    0    0 -0.00000000000E+00 -0.00000000000E+00 -0.45593999997E+02  0.45594000000E+02  0.51100000000E-03 0.  1.
    9900012    2    1    2    0    0 -0.16064363858E+02  0.27005306308E+02 -0.54193684999E+01  0.59301954307E+02  0.50000018748E+02 0.  0.
         12    1    1    2    0    0  0.16064363858E+02 -0.27005306308E+02  0.54193684999E+01  0.31886045693E+02  0.00000000000E+00 0. -1.
         11    1    3    3    0    0  0.17033991527E+01  0.44688637897E+01  0.84239007091E+01  0.96868165907E+01  0.51100000000E-03 0. -1.
        -11    1    3    3    0    0 -0.19606288785E+02  0.24420135601E+02  0.40066517954E+01  0.31572184618E+02  0.51100000000E-03 0.  1.
        -12    1    3    3    0    0  0.18385257742E+01 -0.18836930823E+01 -0.17849921004E+02  0.18042953099E+02  0.00000000000E+00 0.  1.
</event>
<event>
 7    1  0.6246445E-012  0.5930192E+02  0.7816164E-02  0.1266605E+00
        -11   -1    0    0    0    0  0.00000000000E+00  0.00000000000E+00  0.45593999997E+02  0.45594000000E+02  0.51100000000E-03 0. -1.
         11   -1    0    0    0    0 -0.00000000000E+00 -0.00000000000E+00 -0.45593999997E+02  0.45594000000E+02  0.51100000000E-03 0.  1.
    9900012    2    1    2    0    0  0.22771022541E+02  0.17372507344E+02  0.14014231977E+02  0.59301918760E+02  0.49999953917E+02 0.  0.
         12    1    1    2    0    0 -0.22771022541E+02 -0.17372507344E+02 -0.14014231977E+02  0.31886081240E+02  0.00000000000E+00 0. -1.
         11    1    3    3    0    0  0.24513496928E+02  0.84306764037E+01  0.23052313165E+01  0.26025025033E+02  0.51100000000E-03 0. -1.
        -11    1    3    3    0    0  0.98184117590E+01 -0.64934856273E+01  0.56909155633E+01  0.13074902878E+02  0.51100000000E-03 0.  1.
         12    1    3    3    0    0 -0.11560886147E+02  0.15435316567E+02  0.60180850970E+01  0.20201990849E+02  0.00000000000E+00 0. -1.
</event>
<event>
 7    1  0.6246445E-012  0.5930191E+02  0.7816164E-02  0.1266605E+00
        -11   -1    0    0    0    0  0.00000000000E+00  0.00000000000E+00  0.45593999997E+02  0.45594000000E+02  0.51100000000E-03 0.  1.
         11   -1    0    0    0    0 -0.00000000000E+00 -0.00000000000E+00 -0.45593999997E+02  0.45594000000E+02  0.51100000000E-03 0. -1.
    9900012    2    1    2    0    0 -0.10758298777E+02 -0.96975985752E+01  0.28406657689E+02  0.59301911940E+02  0.49999941480E+02 0.  0.
         12    1    1    2    0    0  0.10758298777E+02  0.96975985752E+01 -0.28406657689E+02  0.31886088060E+02  0.00000000000E+00 0. -1.
         11    1    3    3    0    0  0.17298075976E+02 -0.50945603731E+01  0.16770516781E+02  0.24625763161E+02  0.51100000000E-03 0.  1.
        -11    1    3    3    0    0 -0.10482953593E+02  0.15040395599E+00 -0.34453921197E+01  0.11035654240E+02  0.51100000000E-03 0. -1.
        -12    1    3    3    0    0 -0.17573421160E+02 -0.47534421580E+01  0.15081533027E+02  0.23640494539E+02  0.00000000000E+00 0.  1.
</event>
<event>
 7    1  0.6246445E-012  0.5930198E+02  0.7816164E-02  0.1266605E+00
        -11   -1    0    0    0    0  0.00000000000E+00  0.00000000000E+00  0.45593999997E+02  0.45594000000E+02  0.51100000000E-03 0.  1.
         11   -1    0    0    0    0 -0.00000000000E+00 -0.00000000000E+00 -0.45593999997E+02  0.45594000000E+02  0.51100000000E-03 0. -1.
    9900012    2    1    2    0    0  0.30780238565E+02  0.71816827992E+01 -0.42093318574E+01  0.59301982239E+02  0.50000069688E+02 0.  0.
         12    1    1    2    0    0 -0.30780238565E+02 -0.71816827992E+01  0.42093318574E+01  0.31886017761E+02  0.00000000000E+00 0. -1.
         11    1    3    3    0    0  0.23667912736E+02  0.20847170346E+02 -0.68559572792E+01  0.32276597639E+02  0.51100000000E-03 0. -1.
        -11    1    3    3    0    0  0.29479345036E+01  0.11655614240E+01 -0.77953556040E+01  0.84152492848E+01  0.51100000000E-03 0.  1.
        -12    1    3    3    0    0  0.41643913261E+01 -0.14831048971E+02  0.10441981026E+02  0.18610135315E+02  0.00000000000E+00 0.  1.
</event>
<event>
 7    1  0.6246445E-012  0.5930199E+02  0.7816164E-02  0.1266605E+00
        -11   -1    0    0    0    0  0.00000000000E+00  0.00000000000E+00  0.45593999997E+02  0.45594000000E+02  0.51100000000E-03 0.  1.
         11   -1    0    0    0    0 -0.00000000000E+00 -0.00000000000E+00 -0.45593999997E+02  0.45594000000E+02  0.51100000000E-03 0. -1.
    9900012    2    1    2    0    0  0.17281815496E+02 -0.58400490609E+01  0.26152440861E+02  0.59301992365E+02  0.50000088156E+02 0.  0.
         12    1    1    2    0    0 -0.17281815496E+02  0.58400490609E+01 -0.26152440861E+02  0.31886007635E+02  0.00000000000E+00 0. -1.
         11    1    3    3    0    0 -0.24352146089E+01  0.11599709036E+02  0.17432294424E+02  0.21080047653E+02  0.51100000000E-03 0. -1.
        -11    1    3    3    0    0 -0.61337103917E+01 -0.51478544534E+01  0.47849957891E+01  0.93283971617E+01  0.51100000000E-03 0.  1.
        -12    1    3    3    0    0  0.25850740497E+02 -0.12291903644E+02  0.39351506476E+01  0.28893547550E+02  0.00000000000E+00 0.  1.
</event>
<event>
 7    1  0.9729212E-012  0.5930195E+02  0.7816164E-02  0.1266605E+00
        -11   -1    0    0    0    0  0.00000000000E+00  0.00000000000E+00  0.45593999997E+02  0.45594000000E+02  0.51100000000E-03 0. -1.
         11   -1    0    0    0    0 -0.00000000000E+00 -0.00000000000E+00 -0.45593999997E+02  0.45594000000E+02  0.51100000000E-03 0.  1.
    9900012    2    1    2    0    0  0.89263061405E+01 -0.22586602820E+02 -0.20661238590E+02  0.59301947433E+02  0.50000006210E+02 0.  0.
         12    1    1    2    0    0 -0.89263061405E+01  0.22586602820E+02  0.20661238590E+02  0.31886052567E+02  0.00000000000E+00 0. -1.
         11    1    3    3    0    0 -0.90472532873E+01 -0.13671027733E+02 -0.16176379908E+01  0.16473206860E+02  0.51100000000E-03 0. -1.
        -11    1    3    3    0    0 -0.29412119172E+01 -0.72012264161E+01 -0.20367232753E+02  0.21802122826E+02  0.51100000000E-03 0.  1.
         12    1    3    3    0    0  0.20914771345E+02 -0.17143486712E+01  0.13236321543E+01  0.21026617747E+02  0.00000000000E+00 0. -1.
</event>
<event>
 7    1  0.6246445E-012  0.5930194E+02  0.7816164E-02  0.1266605E+00
        -11   -1    0    0    0    0  0.00000000000E+00  0.00000000000E+00  0.45593999997E+02  0.45594000000E+02  0.51100000000E-03 0.  1.
         11   -1    0    0    0    0 -0.00000000000E+00 -0.00000000000E+00 -0.45593999997E+02  0.45594000000E+02  0.51100000000E-03 0. -1.
    9900012    2    1    2    0    0  0.28258435501E+02 -0.44978798617E+01  0.14069496010E+02  0.59301940065E+02  0.49999992774E+02 0.  0.
         12    1    1    2    0    0 -0.28258435501E+02  0.44978798617E+01 -0.14069496010E+02  0.31886059935E+02  0.00000000000E+00 0. -1.
         11    1    3    3    0    0  0.12522508417E+01 -0.38356170949E+01 -0.52583816976E+00  0.40689798120E+01  0.51100000000E-03 0. -1.
        -11    1    3    3    0    0  0.33466933778E+02 -0.46664189364E+01  0.25223310307E+02  0.42166651578E+02  0.51100000000E-03 0.  1.
         12    1    3    3    0    0 -0.64607491192E+01  0.40041561696E+01 -0.10627976128E+02  0.13066308675E+02  0.00000000000E+00 0. -1.
</event>
<event>
 7    1  0.6246445E-012  0.5930206E+02  0.7816164E-02  0.1266604E+00
        -11   -1    0    0    0    0  0.00000000000E+00  0.00000000000E+00  0.45593999997E+02  0.45594000000E+02  0.51100000000E-03 0.  1.
         11   -1    0    0    0    0 -0.00000000000E+00 -0.00000000000E+00 -0.45593999997E+02  0.45594000000E+02  0.51100000000E-03 0. -1.
    9900012    2    1    2    0    0  0.19738986550E+02 -0.75434188538E+00  0.25030318212E+02  0.59302055581E+02  0.50000203446E+02 0.  0.
         12    1    1    2    0    0 -0.19738986550E+02  0.75434188538E+00 -0.25030318212E+02  0.31885944419E+02  0.00000000000E+00 0. -1.
         11    1    3    3    0    0 -0.76257373215E+01  0.64831835363E+01 -0.77323619989E+01  0.12648041777E+02  0.51100000000E-03 0. -1.
        -11    1    3    3    0    0 -0.98096029087E+00 -0.40971952167E+01  0.72674500748E+01  0.84003049103E+01  0.51100000000E-03 0.  1.
        -12    1    3    3    0    0  0.28345684162E+02 -0.31403302049E+01  0.25495230136E+02  0.38253708893E+02  0.00000000000E+00 0.  1.
</event>
<event>
 7    1  0.6246445E-012  0.5930195E+02  0.7816164E-02  0.1266605E+00
        -11   -1    0    0    0    0  0.00000000000E+00  0.00000000000E+00  0.45593999997E+02  0.45594000000E+02  0.51100000000E-03 0.  1.
         11   -1    0    0    0    0 -0.00000000000E+00 -0.00000000000E+00 -0.45593999997E+02  0.45594000000E+02  0.51100000000E-03 0. -1.
    9900012    2    1    2    0    0 -0.41066186466E+01 -0.25160776541E+02  0.19151801159E+02  0.59301945360E+02  0.50000002430E+02 0.  0.
         12    1    1    2    0    0  0.41066186466E+01  0.25160776541E+02 -0.19151801159E+02  0.31886054640E+02  0.00000000000E+00 0. -1.
         11    1    3    3    0    0  0.97114789948E+01  0.36947552020E+00 -0.22751150587E+01  0.99812566953E+01  0.51100000000E-03 0. -1.
        -11    1    3    3    0    0  0.97023651961E+01 -0.14798729627E+02  0.13570989343E+02  0.22300449345E+02  0.51100000000E-03 0.  1.
        -12    1    3    3    0    0 -0.23520462837E+02 -0.10731522434E+02  0.78559268746E+01  0.27020239320E+02  0.00000000000E+00 0.  1.
</event>
<event>
 7    1  0.6246445E-012  0.5930192E+02  0.7816164E-02  0.1266605E+00
        -11   -1    0    0    0    0  0.00000000000E+00  0.00000000000E+00  0.45593999997E+02  0.45594000000E+02  0.51100000000E-03 0.  1.
         11   -1    0    0    0    0 -0.00000000000E+00 -0.00000000000E+00 -0.45593999997E+02  0.45594000000E+02  0.51100000000E-03 0. -1.
    9900012    2    1    2    0    0 -0.24902434862E+02 -0.11724043542E+02  0.16097761307E+02  0.59301915604E+02  0.49999948161E+02 0.  0.
         12    1    1    2    0    0  0.24902434862E+02  0.11724043542E+02 -0.16097761307E+02  0.31886084396E+02  0.00000000000E+00 0. -1.
         11    1    3    3    0    0 -0.70945749048E+01 -0.71253300666E+01  0.16116941869E+02  0.18996292720E+02  0.51100000000E-03 0. -1.
        -11    1    3    3    0    0 -0.33179820315E+01 -0.23946875951E+00  0.17121468340E+02  0.17441646379E+02  0.51100000000E-03 0.  1.
         12    1    3    3    0    0 -0.14489877926E+02 -0.43592447161E+01 -0.17140648902E+02  0.22863976504E+02  0.00000000000E+00 0. -1.
</event>
<event>
 7    1  0.6246445E-012  0.5930198E+02  0.7816164E-02  0.1266605E+00
        -11   -1    0    0    0    0  0.00000000000E+00  0.00000000000E+00  0.45593999997E+02  0.45594000000E+02  0.51100000000E-03 0. -1.
         11   -1    0    0    0    0 -0.00000000000E+00 -0.00000000000E+00 -0.45593999997E+02  0.45594000000E+02  0.51100000000E-03 0.  1.
    9900012    2    1    2    0    0 -0.22005551519E+02 -0.21206306626E+02  0.90976279622E+01  0.59301975273E+02  0.50000056984E+02 0.  0.
         12    1    1    2    0    0  0.22005551519E+02  0.21206306626E+02 -0.90976279622E+01  0.31886024727E+02  0.00000000000E+00 0. -1.
         11    1    3    3    0    0 -0.78330876715E+01  0.96309219978E+01  0.14697370036E+02  0.19238622800E+02  0.51100000000E-03 0. -1.
        -11    1    3    3    0    0 -0.16610310460E+02 -0.13797721706E+02  0.10291682425E+01  0.21618018535E+02  0.51100000000E-03 0.  1.
        -12    1    3    3    0    0  0.24378466129E+01 -0.17039506917E+02 -0.66289103166E+01  0.18445333938E+02  0.00000000000E+00 0.  1.
</event>
<event>
 7    1  0.6246445E-012  0.5930193E+02  0.7816164E-02  0.1266605E+00
        -11   -1    0    0    0    0  0.00000000000E+00  0.00000000000E+00  0.45593999997E+02  0.45594000000E+02  0.51100000000E-03 0.  1.
         11   -1    0    0    0    0 -0.00000000000E+00 -0.00000000000E+00 -0.45593999997E+02  0.45594000000E+02  0.51100000000E-03 0. -1.
    9900012    2    1    2    0    0  0.10522271262E+01 -0.30858415219E+02 -0.79606999214E+01  0.59301926002E+02  0.49999967126E+02 0.  0.
         12    1    1    2    0    0 -0.10522271262E+01  0.30858415219E+02  0.79606999214E+01  0.31886073998E+02  0.00000000000E+00 0. -1.
         11    1    3    3    0    0 -0.18505975730E+02 -0.11607488770E+02 -0.47731506150E+01  0.22360409216E+02  0.51100000000E-03 0. -1.
        -11    1    3    3    0    0  0.20515801571E+00  0.40112458733E+01  0.41805783185E+01  0.57973630735E+01  0.51100000000E-03 0.  1.
        -12    1    3    3    0    0  0.19353044841E+02 -0.23262172322E+02 -0.73681276249E+01  0.31144153712E+02  0.00000000000E+00 0.  1.
</event>
<event>
 7    1  0.6246445E-012  0.5930190E+02  0.7816164E-02  0.1266605E+00
        -11   -1    0    0    0    0  0.00000000000E+00  0.00000000000E+00  0.45593999997E+02  0.45594000000E+02  0.51100000000E-03 0.  1.
         11   -1    0    0    0    0 -0.00000000000E+00 -0.00000000000E+00 -0.45593999997E+02  0.45594000000E+02  0.51100000000E-03 0. -1.
    9900012    2    1    2    0    0 -0.41545666674E+01  0.14211031800E+02  0.28240216125E+02  0.59301895569E+02  0.49999911623E+02 0.  0.
         12    1    1    2    0    0  0.41545666674E+01 -0.14211031800E+02 -0.28240216125E+02  0.31886104431E+02  0.00000000000E+00 0. -1.
         11    1    3    3    0    0 -0.12288911819E+02  0.81090893370E+01 -0.45005110669E+01  0.15395755379E+02  0.51100000000E-03 0.  1.
        -11    1    3    3    0    0 -0.81934217695E+01  0.50239659356E+01  0.22842255573E+02  0.24781869057E+02  0.51100000000E-03 0. -1.
         12    1    3    3    0    0  0.16327766921E+02  0.10779765273E+01  0.98984716185E+01  0.19124271134E+02  0.00000000000E+00 0. -1.
</event>
<event>
 7    1  0.6246445E-012  0.5930195E+02  0.7816164E-02  0.1266605E+00
        -11   -1    0    0    0    0  0.00000000000E+00  0.00000000000E+00  0.45593999997E+02  0.45594000000E+02  0.51100000000E-03 0.  1.
         11   -1    0    0    0    0 -0.00000000000E+00 -0.00000000000E+00 -0.45593999997E+02  0.45594000000E+02  0.51100000000E-03 0. -1.
    9900012    2    1    2    0    0 -0.43608778889E+01  0.96077898845E+01  0.30089754332E+02  0.59301949787E+02  0.50000010503E+02 0.  0.
         12    1    1    2    0    0  0.43608778889E+01 -0.96077898845E+01 -0.30089754332E+02  0.31886050213E+02  0.00000000000E+00 0. -1.
         11    1    3    3    0    0  0.11562865127E+02  0.58919651285E+01  0.48966701248E+01  0.13870561690E+02  0.51100000000E-03 0. -1.
        -11    1    3    3    0    0  0.57435483346E+01  0.15806457478E+00  0.22602833478E+02  0.23321694050E+02  0.51100000000E-03 0.  1.
        -12    1    3    3    0    0 -0.21667291351E+02  0.35577601812E+01  0.25902507297E+01  0.22109694047E+02  0.00000000000E+00 0.  1.
</event>
<event>
 7    1  0.9474970E-012  0.5930192E+02  0.7816164E-02  0.1266605E+00
        -11   -1    0    0    0    0  0.00000000000E+00  0.00000000000E+00  0.45593999997E+02  0.45594000000E+02  0.51100000000E-03 0. -1.
         11   -1    0    0    0    0 -0.00000000000E+00 -0.00000000000E+00 -0.45593999997E+02  0.45594000000E+02  0.51100000000E-03 0.  1.
    9900012    2    1    2    0    0  0.81320347680E+00 -0.26014376343E+01 -0.31769379936E+02  0.59301917156E+02  0.49999950992E+02 0.  0.
         12    1    1    2    0    0 -0.81320347680E+00  0.26014376343E+01  0.31769379936E+02  0.31886082844E+02  0.00000000000E+00 0. -1.
         11    1    3    3    0    0 -0.86622702437E+01 -0.10495744872E+02 -0.68017580504E+01  0.15213793052E+02  0.51100000000E-03 0. -1.
        -11    1    3    3    0    0 -0.91590726453E+01  0.94790821898E+01 -0.21271826195E+02  0.25024631882E+02  0.51100000000E-03 0.  1.
         12    1    3    3    0    0  0.18634546366E+02 -0.15847749520E+01 -0.36957956905E+01  0.19063492222E+02  0.00000000000E+00 0. -1.
</event>
<event>
 7    1  0.6246445E-012  0.5930181E+02  0.7816164E-02  0.1266605E+00
        -11   -1    0    0    0    0  0.00000000000E+00  0.00000000000E+00  0.45593999997E+02  0.45594000000E+02  0.51100000000E-03 0.  1.
         11   -1    0    0    0    0 -0.00000000000E+00 -0.00000000000E+00 -0.45593999997E+02  0.45594000000E+02  0.51100000000E-03 0. -1.
    9900012    2    1    2    0    0 -0.19186947379E+02 -0.24180308072E+02 -0.79939393673E+01  0.59301806831E+02  0.49999749785E+02 0.  0.
         12    1    1    2    0    0  0.19186947379E+02  0.24180308072E+02  0.79939393673E+01  0.31886193169E+02  0.00000000000E+00 0. -1.
         11    1    3    3    0    0  0.32107213607E+01  0.34907048249E+01 -0.21079752715E+01  0.51901167460E+01  0.51100000000E-03 0.  1.
        -11    1    3    3    0    0 -0.18307005715E+01  0.59103519639E+01 -0.12719075552E+02  0.14144207580E+02  0.51100000000E-03 0. -1.
        -12    1    3    3    0    0 -0.20566968168E+02 -0.33581364861E+02  0.68331114561E+01  0.39967482505E+02  0.00000000000E+00 0.  1.
</event>
<event>
 7    1  0.6246445E-012  0.5930195E+02  0.7816164E-02  0.1266605E+00
        -11   -1    0    0    0    0  0.00000000000E+00  0.00000000000E+00  0.45593999997E+02  0.45594000000E+02  0.51100000000E-03 0.  1.
         11   -1    0    0    0    0 -0.00000000000E+00 -0.00000000000E+00 -0.45593999997E+02  0.45594000000E+02  0.51100000000E-03 0. -1.
    9900012    2    1    2    0    0  0.18391793599E+02  0.98146875423E+01  0.24127459287E+02  0.59301945760E+02  0.50000003159E+02 0.  0.
         12    1    1    2    0    0 -0.18391793599E+02 -0.98146875423E+01 -0.24127459287E+02  0.31886054240E+02  0.00000000000E+00 0. -1.
         11    1    3    3    0    0  0.99569410778E+00  0.31255332570E+01 -0.69692290265E+01  0.77026306144E+01  0.51100000000E-03 0. -1.
        -11    1    3    3    0    0  0.99027814243E+01  0.11359880892E+02 -0.38501219777E+01  0.15554273153E+02  0.51100000000E-03 0.  1.
        -12    1    3    3    0    0  0.74933180671E+01 -0.46707266069E+01  0.34946810291E+02  0.36045041992E+02  0.00000000000E+00 0.  1.
</event>
<event>
 7    1  0.6246445E-012  0.5930196E+02  0.7816164E-02  0.1266605E+00
        -11   -1    0    0    0    0  0.00000000000E+00  0.00000000000E+00  0.45593999997E+02  0.45594000000E+02  0.51100000000E-03 0. -1.
         11   -1    0    0    0    0 -0.00000000000E+00 -0.00000000000E+00 -0.45593999997E+02  0.45594000000E+02  0.51100000000E-03 0.  1.
    9900012    2    1    2    0    0 -0.24580515686E+02  0.14665918009E+02 -0.14050921113E+02  0.59301964082E+02  0.50000036574E+02 0.  0.
         12    1    1    2    0    0  0.24580515686E+02 -0.14665918009E+02  0.14050921113E+02  0.31886035918E+02  0.00000000000E+00 0. -1.
         11    1    3    3    0    0 -0.13908232277E+01 -0.16096865911E+01 -0.10728882383E+02  0.10937751031E+02  0.51100000000E-03 0. -1.
        -11    1    3    3    0    0  0.96754462490E+01  0.11513972455E+02 -0.12505408497E+01  0.15091377488E+02  0.51100000000E-03 0.  1.
        -12    1    3    3    0    0 -0.32865138707E+02  0.47616321450E+01 -0.20714978805E+01  0.33272835563E+02  0.00000000000E+00 0.  1.
</event>
<event>
 7    1  0.6246445E-012  0.5930201E+02  0.7816164E-02  0.1266605E+00
        -11   -1    0    0    0    0  0.00000000000E+00  0.00000000000E+00  0.45593999997E+02  0.45594000000E+02  0.51100000000E-03 0. -1.
         11   -1    0    0    0    0 -0.00000000000E+00 -0.00000000000E+00 -0.45593999997E+02  0.45594000000E+02  0.51100000000E-03 0.  1.
    9900012    2    1    2    0    0 -0.13632239484E+02  0.21026292940E+02 -0.19717337672E+02  0.59302010083E+02  0.50000120469E+02 0.  0.
         12    1    1    2    0    0  0.13632239484E+02 -0.21026292940E+02  0.19717337672E+02  0.31885989917E+02  0.00000000000E+00 0. -1.
         11    1    3    3    0    0  0.10633435412E+02  0.68958678829E+01 -0.23236451030E+01  0.12884962916E+02  0.51100000000E-03 0. -1.
        -11    1    3    3    0    0 -0.13741841337E+02  0.24444206135E+02 -0.89583443423E+01  0.29438229405E+02  0.51100000000E-03 0.  1.
        -12    1    3    3    0    0 -0.10523833559E+02 -0.10313781078E+02 -0.84353482265E+01  0.16978817762E+02  0.00000000000E+00 0.  1.
</event>
<event>
 7    1  0.6246445E-012  0.5930192E+02  0.7816164E-02  0.1266605E+00
        -11   -1    0    0    0    0  0.00000000000E+00  0.00000000000E+00  0.45593999997E+02  0.45594000000E+02  0.51100000000E-03 0.  1.
         11   -1    0    0    0    0 -0.00000000000E+00 -0.00000000000E+00 -0.45593999997E+02  0.45594000000E+02  0.51100000000E-03 0. -1.
    9900012    2    1    2    0    0  0.25445244525E+02  0.45401021088E+01 -0.18672146122E+02  0.59301920954E+02  0.49999957919E+02 0.  0.
         12    1    1    2    0    0 -0.25445244525E+02 -0.45401021088E+01  0.18672146122E+02  0.31886079046E+02  0.00000000000E+00 0. -1.
         11    1    3    3    0    0 -0.43496396366E+01 -0.36151895496E+01 -0.55881619853E+01  0.79508814029E+01  0.51100000000E-03 0. -1.
        -11    1    3    3    0    0  0.24050241049E+02  0.10947296801E+02  0.93465550719E+01  0.28028833257E+02  0.51100000000E-03 0.  1.
         12    1    3    3    0    0  0.57446431128E+01 -0.27920051428E+01 -0.22430539209E+02  0.23322206294E+02  0.00000000000E+00 0. -1.
</event>
<event>
 7    1  0.6246445E-012  0.5930190E+02  0.7816164E-02  0.1266605E+00
        -11   -1    0    0    0    0  0.00000000000E+00  0.00000000000E+00  0.45593999997E+02  0.45594000000E+02  0.51100000000E-03 0.  1.
         11   -1    0    0    0    0 -0.00000000000E+00 -0.00000000000E+00 -0.45593999997E+02  0.45594000000E+02  0.51100000000E-03 0. -1.
    9900012    2    1    2    0    0 -0.24230935727E+02 -0.10279468913E+02  0.17997720448E+02  0.59301895367E+02  0.49999911255E+02 0.  0.
         12    1    1    2    0    0  0.24230935727E+02  0.10279468913E+02 -0.17997720448E+02  0.31886104633E+02  0.00000000000E+00 0. -1.
         11    1    3    3    0    0  0.72213028950E+01 -0.15635722979E+01  0.82565139152E+01  0.11079801267E+02  0.51100000000E-03 0. -1.
        -11    1    3    3    0    0  0.40231377824E+01  0.35040762359E+01  0.92728286721E+01  0.10698109166E+02  0.51100000000E-03 0.  1.
         12    1    3    3    0    0 -0.35475376404E+02 -0.12219972851E+02  0.46837786042E+00  0.37523984934E+02  0.00000000000E+00 0. -1.
</event>
<event>
 7    1  0.6246445E-012  0.5930190E+02  0.7816164E-02  0.1266605E+00
        -11   -1    0    0    0    0  0.00000000000E+00  0.00000000000E+00  0.45593999997E+02  0.45594000000E+02  0.51100000000E-03 0. -1.
         11   -1    0    0    0    0 -0.00000000000E+00 -0.00000000000E+00 -0.45593999997E+02  0.45594000000E+02  0.51100000000E-03 0.  1.
    9900012    2    1    2    0    0 -0.18172225565E+02 -0.24061408200E+02  0.10370242651E+02  0.59301904610E+02  0.49999928112E+02 0.  0.
         12    1    1    2    0    0  0.18172225565E+02  0.24061408200E+02 -0.10370242651E+02  0.31886095390E+02  0.00000000000E+00 0. -1.
         11    1    3    3    0    0  0.11255163681E+02  0.67138411473E+01  0.49003516677E+01  0.13991705370E+02  0.51100000000E-03 0. -1.
        -11    1    3    3    0    0  0.55011872254E+00  0.39579860017E+00  0.17819156655E+01  0.19064393096E+01  0.51100000000E-03 0.  1.
        -12    1    3    3    0    0 -0.29977507969E+02 -0.31171047948E+02  0.36879753174E+01  0.43403759931E+02  0.00000000000E+00 0.  1.
</event>
<event>
 7    1  0.6246445E-012  0.5930197E+02  0.7816164E-02  0.1266605E+00
        -11   -1    0    0    0    0  0.00000000000E+00  0.00000000000E+00  0.45593999997E+02  0.45594000000E+02  0.51100000000E-03 0. -1.
         11   -1    0    0    0    0 -0.00000000000E+00 -0.00000000000E+00 -0.45593999997E+02  0.45594000000E+02  0.51100000000E-03 0.  1.
    9900012    2    1    2    0    0 -0.64048599484E+01 -0.25718910160E+02 -0.17726659100E+02  0.59301968362E+02  0.50000044380E+02 0.  0.
         12    1    1    2    0    0  0.64048599484E+01  0.25718910160E+02  0.17726659100E+02  0.31886031638E+02  0.00000000000E+00 0. -1.
         11    1    3    3    0    0 -0.80727842803E+01  0.63211220782E+01  0.48748745667E+01  0.11353009851E+02  0.51100000000E-03 0. -1.
        -11    1    3    3    0    0 -0.36081745477E+01 -0.97095526539E+00 -0.15098796020E+02  0.15554270127E+02  0.51100000000E-03 0.  1.
        -12    1    3    3    0    0  0.52760988795E+01 -0.31069076972E+02 -0.75027376475E+01  0.32394688384E+02  0.00000000000E+00 0.  1.
</event>
<event>
 7    1  0.6246445E-012  0.5930198E+02  0.7816164E-02  0.1266605E+00
        -11   -1    0    0    0    0  0.00000000000E+00  0.00000000000E+00  0.45593999997E+02  0.45594000000E+02  0.51100000000E-03 0. -1.
         11   -1    0    0    0    0 -0.00000000000E+00 -0.00000000000E+00 -0.45593999997E+02  0.45594000000E+02  0.51100000000E-03 0.  1.
    9900012    2    1    2    0    0 -0.16290992687E+02  0.17385077799E+02 -0.21191529488E+02  0.59301979633E+02  0.50000064935E+02 0.  0.
         12    1    1    2    0    0  0.16290992687E+02 -0.17385077799E+02  0.21191529488E+02  0.31886020367E+02  0.00000000000E+00 0. -1.
         11    1    3    3    0    0 -0.85485917247E+01  0.83371832040E+01  0.13143891786E+02  0.17758066781E+02  0.51100000000E-03 0. -1.
        -11    1    3    3    0    0 -0.23156961332E+01  0.11821452243E+02 -0.78775906667E+01  0.14393248997E+02  0.51100000000E-03 0.  1.
        -12    1    3    3    0    0 -0.54267048295E+01 -0.27735576474E+01 -0.26457830607E+02  0.27150663855E+02  0.00000000000E+00 0.  1.
</event>
<event>
 7    1  0.6246445E-012  0.5930193E+02  0.7816164E-02  0.1266605E+00
        -11   -1    0    0    0    0  0.00000000000E+00  0.00000000000E+00  0.45593999997E+02  0.45594000000E+02  0.51100000000E-03 0.  1.
         11   -1    0    0    0    0 -0.00000000000E+00 -0.00000000000E+00 -0.45593999997E+02  0.45594000000E+02  0.51100000000E-03 0. -1.
    9900012    2    1    2    0    0 -0.74283219553E+01  0.26899059167E+02 -0.15426671869E+02  0.59301928494E+02  0.49999971670E+02 0.  0.
         12    1    1    2    0    0  0.74283219553E+01 -0.26899059167E+02  0.15426671869E+02  0.31886071506E+02  0.00000000000E+00 0. -1.
         11    1    3    3    0    0 -0.10881105416E+02  0.36020161971E+01 -0.88729183516E+01  0.14494883790E+02  0.51100000000E-03 0. -1.
        -11    1    3    3    0    0  0.92968237565E+01  0.32248572609E+02 -0.38644225046E+01  0.33783651798E+02  0.51100000000E-03 0.  1.
         12    1    3    3    0    0 -0.58440402956E+01 -0.89515296386E+01 -0.26893310123E+01  0.11023392905E+02  0.00000000000E+00 0. -1.
</event>
<event>
 7    1  0.6246445E-012  0.5930168E+02  0.7816164E-02  0.1266606E+00
        -11   -1    0    0    0    0  0.00000000000E+00  0.00000000000E+00  0.45593999997E+02  0.45594000000E+02  0.51100000000E-03 0. -1.
         11   -1    0    0    0    0 -0.00000000000E+00 -0.00000000000E+00 -0.45593999997E+02  0.45594000000E+02  0.51100000000E-03 0.  1.
    9900012    2    1    2    0    0  0.12516074242E+02  0.28909615682E+02 -0.49314463547E+01  0.59301683868E+02  0.49999525529E+02 0.  0.
         12    1    1    2    0    0 -0.12516074242E+02 -0.28909615682E+02  0.49314463547E+01  0.31886316132E+02  0.00000000000E+00 0. -1.
         11    1    3    3    0    0  0.24103535730E+01  0.17659759722E+02  0.66656503037E+01  0.19029130617E+02  0.51100000000E-03 0. -1.
        -11    1    3    3    0    0 -0.46081523332E+01 -0.50300356648E+01  0.82358649906E+01  0.10694194646E+02  0.51100000000E-03 0.  1.
        -12    1    3    3    0    0  0.14713873002E+02  0.16279891625E+02 -0.19832961649E+02  0.29578358606E+02  0.00000000000E+00 0.  1.
</event>
<event>
 7    1  0.6246445E-012  0.5930192E+02  0.7816164E-02  0.1266605E+00
        -11   -1    0    0    0    0  0.00000000000E+00  0.00000000000E+00  0.45593999997E+02  0.45594000000E+02  0.51100000000E-03 0.  1.
         11   -1    0    0    0    0 -0.00000000000E+00 -0.00000000000E+00 -0.45593999997E+02  0.45594000000E+02  0.51100000000E-03 0. -1.
    9900012    2    1    2    0    0 -0.18407246593E+02 -0.14366238342E+02  0.21714207835E+02  0.59301915996E+02  0.49999948877E+02 0.  0.
         12    1    1    2    0    0  0.18407246593E+02  0.14366238342E+02 -0.21714207835E+02  0.31886084004E+02  0.00000000000E+00 0. -1.
         11    1    3    3    0    0  0.13827816453E+01 -0.30040804835E+01 -0.88741514113E+01  0.94703298866E+01  0.51100000000E-03 0. -1.
        -11    1    3    3    0    0  0.41856881736E+00  0.99472385581E+01  0.83436558917E+01  0.12989971081E+02  0.51100000000E-03 0.  1.
         12    1    3    3    0    0 -0.20208597055E+02 -0.21309396417E+02  0.22244703354E+02  0.36841615028E+02  0.00000000000E+00 0. -1.
</event>
<event>
 7    1  0.6246445E-012  0.5930193E+02  0.7816164E-02  0.1266605E+00
        -11   -1    0    0    0    0  0.00000000000E+00  0.00000000000E+00  0.45593999997E+02  0.45594000000E+02  0.51100000000E-03 0.  1.
         11   -1    0    0    0    0 -0.00000000000E+00 -0.00000000000E+00 -0.45593999997E+02  0.45594000000E+02  0.51100000000E-03 0. -1.
    9900012    2    1    2    0    0 -0.13751138360E+02  0.70148383974E+01  0.27900169560E+02  0.59301933679E+02  0.49999981126E+02 0.  0.
         12    1    1    2    0    0  0.13751138360E+02 -0.70148383974E+01 -0.27900169560E+02  0.31886066321E+02  0.00000000000E+00 0. -1.
         11    1    3    3    0    0 -0.11401849066E+02  0.11938605883E+02  0.28513518925E+01  0.16752990193E+02  0.51100000000E-03 0. -1.
        -11    1    3    3    0    0 -0.15155262113E+02 -0.97367853599E+01  0.22175458688E+02  0.28569877969E+02  0.51100000000E-03 0.  1.
         12    1    3    3    0    0  0.12805972819E+02  0.48130178746E+01  0.28733589800E+01  0.13979065517E+02  0.00000000000E+00 0. -1.
</event>
<event>
 7    1  0.6246445E-012  0.5930186E+02  0.7816164E-02  0.1266605E+00
        -11   -1    0    0    0    0  0.00000000000E+00  0.00000000000E+00  0.45593999997E+02  0.45594000000E+02  0.51100000000E-03 0. -1.
         11   -1    0    0    0    0 -0.00000000000E+00 -0.00000000000E+00 -0.45593999997E+02  0.45594000000E+02  0.51100000000E-03 0.  1.
    9900012    2    1    2    0    0  0.14965973368E+02 -0.21633376268E+02 -0.18020621329E+02  0.59301856917E+02  0.49999841131E+02 0.  0.
         12    1    1    2    0    0 -0.14965973368E+02  0.21633376268E+02  0.18020621329E+02  0.31886143083E+02  0.00000000000E+00 0. -1.
         11    1    3    3    0    0  0.41417813141E+01 -0.76223087268E+00 -0.10246026521E+02  0.11077743818E+02  0.51100000000E-03 0. -1.
        -11    1    3    3    0    0 -0.13784437933E+02 -0.16483383153E+01 -0.97039539648E+01  0.16937959474E+02  0.51100000000E-03 0.  1.
         12    1    3    3    0    0  0.24608629987E+02 -0.19222807080E+02  0.19293591570E+01  0.31286153625E+02  0.00000000000E+00 0. -1.
</event>
<event>
 7    1  0.6246445E-012  0.5930156E+02  0.7816164E-02  0.1266606E+00
        -11   -1    0    0    0    0  0.00000000000E+00  0.00000000000E+00  0.45593999997E+02  0.45594000000E+02  0.51100000000E-03 0. -1.
         11   -1    0    0    0    0 -0.00000000000E+00 -0.00000000000E+00 -0.45593999997E+02  0.45594000000E+02  0.51100000000E-03 0.  1.
    9900012    2    1    2    0    0 -0.11579714578E+02  0.14713899650E+02 -0.25810008570E+02  0.59301558132E+02  0.49999296214E+02 0.  0.
         12    1    1    2    0    0  0.11579714578E+02 -0.14713899650E+02  0.25810008570E+02  0.31886441868E+02  0.00000000000E+00 0. -1.
         11    1    3    3    0    0 -0.32624176173E+01  0.68001858134E+01  0.13449812274E+02  0.15420225234E+02  0.51100000000E-03 0. -1.
        -11    1    3    3    0    0 -0.28152566585E+01  0.33339434530E+01 -0.41599776308E+00  0.43833666743E+01  0.51100000000E-03 0.  1.
        -12    1    3    3    0    0 -0.55020403016E+01  0.45797703838E+01 -0.38843823081E+02  0.39497966224E+02  0.00000000000E+00 0.  1.
</event>
<event>
 7    1  0.6246445E-012  0.5930193E+02  0.7816164E-02  0.1266605E+00
        -11   -1    0    0    0    0  0.00000000000E+00  0.00000000000E+00  0.45593999997E+02  0.45594000000E+02  0.51100000000E-03 0.  1.
         11   -1    0    0    0    0 -0.00000000000E+00 -0.00000000000E+00 -0.45593999997E+02  0.45594000000E+02  0.51100000000E-03 0. -1.
    9900012    2    1    2    0    0  0.28351170127E+02 -0.13929349013E+02  0.43480755166E+01  0.59301931378E+02  0.49999976929E+02 0.  0.
         12    1    1    2    0    0 -0.28351170127E+02  0.13929349013E+02 -0.43480755166E+01  0.31886068622E+02  0.00000000000E+00 0. -1.
         11    1    3    3    0    0  0.66947147204E+01 -0.23394944091E+01  0.87105160804E+01  0.11232343029E+02  0.51100000000E-03 0.  1.
        -11    1    3    3    0    0  0.25898034454E+02  0.14172531746E+01  0.10398356336E+02  0.27943561153E+02  0.51100000000E-03 0. -1.
         12    1    3    3    0    0 -0.42415790471E+01 -0.13007107778E+02 -0.14760796900E+02  0.20126027196E+02  0.00000000000E+00 0. -1.
</event>
<event>
 7    1  0.6246445E-012  0.5930213E+02  0.7816164E-02  0.1266604E+00
        -11   -1    0    0    0    0  0.00000000000E+00  0.00000000000E+00  0.45593999997E+02  0.45594000000E+02  0.51100000000E-03 0.  1.
         11   -1    0    0    0    0 -0.00000000000E+00 -0.00000000000E+00 -0.45593999997E+02  0.45594000000E+02  0.51100000000E-03 0. -1.
    9900012    2    1    2    0    0  0.27342158530E+02  0.11934488209E+02  0.11255343084E+02  0.59302134952E+02  0.50000348199E+02 0.  0.
         12    1    1    2    0    0 -0.27342158530E+02 -0.11934488209E+02 -0.11255343084E+02  0.31885865048E+02  0.00000000000E+00 0. -1.
         11    1    3    3    0    0  0.21731543666E+02 -0.20331433271E+01 -0.56457313385E+00  0.21833744639E+02  0.51100000000E-03 0. -1.
        -11    1    3    3    0    0  0.16999188830E+02 -0.65348770098E+00  0.61075482676E+01  0.18074889022E+02  0.51100000000E-03 0.  1.
        -12    1    3    3    0    0 -0.11388573966E+02  0.14621119237E+02  0.57123679501E+01  0.19393501291E+02  0.00000000000E+00 0.  1.
</event>
<event>
 7    1  0.6246445E-012  0.5930195E+02  0.7816164E-02  0.1266605E+00
        -11   -1    0    0    0    0  0.00000000000E+00  0.00000000000E+00  0.45593999997E+02  0.45594000000E+02  0.51100000000E-03 0.  1.
         11   -1    0    0    0    0 -0.00000000000E+00 -0.00000000000E+00 -0.45593999997E+02  0.45594000000E+02  0.51100000000E-03 0. -1.
    9900012    2    1    2    0    0  0.29862339840E+01 -0.93033519605E+01  0.30352099934E+02  0.59301954125E+02  0.50000018416E+02 0.  0.
         12    1    1    2    0    0 -0.29862339840E+01  0.93033519605E+01 -0.30352099934E+02  0.31886045875E+02  0.00000000000E+00 0. -1.
         11    1    3    3    0    0 -0.11298810780E+02  0.57264439788E+01  0.20384113054E+02  0.23999319801E+02  0.51100000000E-03 0. -1.
        -11    1    3    3    0    0  0.10870257654E+02  0.52498535981E+01  0.83415659833E+01  0.14673281418E+02  0.51100000000E-03 0.  1.
         12    1    3    3    0    0  0.34147871103E+01 -0.20279649537E+02  0.16264208972E+01  0.20629352906E+02  0.00000000000E+00 0. -1.
</event>
<event>
 7    1  0.7713310E-012  0.5930196E+02  0.7816164E-02  0.1266605E+00
        -11   -1    0    0    0    0  0.00000000000E+00  0.00000000000E+00  0.45593999997E+02  0.45594000000E+02  0.51100000000E-03 0.  1.
         11   -1    0    0    0    0 -0.00000000000E+00 -0.00000000000E+00 -0.45593999997E+02  0.45594000000E+02  0.51100000000E-03 0. -1.
    9900012    2    1    2    0    0 -0.24432825649E+02  0.36149832570E+01 -0.20166511931E+02  0.59301964238E+02  0.50000036859E+02 0.  0.
         12    1    1    2    0    0  0.24432825649E+02 -0.36149832570E+01  0.20166511931E+02  0.31886035762E+02  0.00000000000E+00 0. -1.
         11    1    3    3    0    0 -0.16170242160E+02  0.17250213347E+02 -0.10141778955E+02  0.25727461450E+02  0.51100000000E-03 0. -1.
        -11    1    3    3    0    0 -0.74206668107E+01  0.52527189397E+01 -0.11442570696E+02  0.14614710964E+02  0.51100000000E-03 0.  1.
         12    1    3    3    0    0 -0.84191667749E+00 -0.18887949029E+02  0.14178377186E+01  0.18959791824E+02  0.00000000000E+00 0. -1.
</event>
<event>
 7    1  0.6246445E-012  0.5930192E+02  0.7816164E-02  0.1266605E+00
        -11   -1    0    0    0    0  0.00000000000E+00  0.00000000000E+00  0.45593999997E+02  0.45594000000E+02  0.51100000000E-03 0. -1.
         11   -1    0    0    0    0 -0.00000000000E+00 -0.00000000000E+00 -0.45593999997E+02  0.45594000000E+02  0.51100000000E-03 0.  1.
    9900012    2    1    2    0    0 -0.15618883438E+02 -0.22789899826E+02  0.15918331417E+02  0.59301916374E+02  0.49999949566E+02 0.  0.
         12    1    1    2    0    0  0.15618883438E+02  0.22789899826E+02 -0.15918331417E+02  0.31886083626E+02  0.00000000000E+00 0. -1.
         11    1    3    3    0    0 -0.21512706681E+02 -0.11565819468E+02  0.21467845077E+02  0.32518196463E+02  0.51100000000E-03 0. -1.
        -11    1    3    3    0    0  0.75788409240E+01 -0.71438282101E+00  0.69906899481E+01  0.10335323835E+02  0.51100000000E-03 0.  1.
        -12    1    3    3    0    0 -0.16850176805E+01 -0.10509697537E+02 -0.12540203609E+02  0.16448396075E+02  0.00000000000E+00 0.  1.
</event>
<event>
 7    1  0.6246445E-012  0.5930195E+02  0.7816164E-02  0.1266605E+00
        -11   -1    0    0    0    0  0.00000000000E+00  0.00000000000E+00  0.45593999997E+02  0.45594000000E+02  0.51100000000E-03 0. -1.
         11   -1    0    0    0    0 -0.00000000000E+00 -0.00000000000E+00 -0.45593999997E+02  0.45594000000E+02  0.51100000000E-03 0.  1.
    9900012    2    1    2    0    0  0.15365225947E+02  0.18952154885E+02 -0.20529144432E+02  0.59301951102E+02  0.50000012903E+02 0.  0.
         12    1    1    2    0    0 -0.15365225947E+02 -0.18952154885E+02  0.20529144432E+02  0.31886048898E+02  0.00000000000E+00 0. -1.
         11    1    3    3    0    0  0.11871806357E+02  0.60703634844E+01 -0.59814316319E+01  0.14613918832E+02  0.51100000000E-03 0. -1.
        -11    1    3    3    0    0  0.11760229794E+02 -0.39985918600E+01 -0.21348820849E+02  0.24699471524E+02  0.51100000000E-03 0.  1.
         12    1    3    3    0    0 -0.82668102044E+01  0.16880383261E+02  0.68011080490E+01  0.19988560746E+02  0.00000000000E+00 0. -1.
</event>
<event>
 7    1  0.6246445E-012  0.5930193E+02  0.7816164E-02  0.1266605E+00
        -11   -1    0    0    0    0  0.00000000000E+00  0.00000000000E+00  0.45593999997E+02  0.45594000000E+02  0.51100000000E-03 0.  1.
         11   -1    0    0    0    0 -0.00000000000E+00 -0.00000000000E+00 -0.45593999997E+02  0.45594000000E+02  0.51100000000E-03 0. -1.
    9900012    2    1    2    0    0  0.36684859385E+01  0.30946694999E+02  0.67502335706E+01  0.59301931354E+02  0.49999976885E+02 0.  0.
         12    1    1    2    0    0 -0.36684859385E+01 -0.30946694999E+02 -0.67502335706E+01  0.31886068646E+02  0.00000000000E+00 0. -1.
         11    1    3    3    0    0 -0.21331851019E+01  0.16057468012E+02  0.11216778004E+02  0.19703016691E+02  0.51100000000E-03 0. -1.
        -11    1    3    3    0    0  0.40446187889E+01  0.13565750774E+02  0.14640893639E+02  0.20365271960E+02  0.51100000000E-03 0.  1.
         12    1    3    3    0    0  0.17570522515E+01  0.13234762135E+01 -0.19107438073E+02  0.19233642703E+02  0.00000000000E+00 0. -1.
</event>
<event>
 7    1  0.6246445E-012  0.5930202E+02  0.7816164E-02  0.1266604E+00
        -11   -1    0    0    0    0  0.00000000000E+00  0.00000000000E+00  0.45593999997E+02  0.45594000000E+02  0.51100000000E-03 0. -1.
         11   -1    0    0    0    0 -0.00000000000E+00 -0.00000000000E+00 -0.45593999997E+02  0.45594000000E+02  0.51100000000E-03 0.  1.
    9900012    2    1    2    0    0  0.10175710728E+02 -0.28847739215E+02 -0.89987989180E+01  0.59302023011E+02  0.50000144046E+02 0.  0.
         12    1    1    2    0    0 -0.10175710728E+02  0.28847739215E+02  0.89987989180E+01  0.31885976989E+02  0.00000000000E+00 0. -1.
         11    1    3    3    0    0  0.45108909286E+01 -0.53438752625E+01 -0.34456976204E+01  0.77960228414E+01  0.51100000000E-03 0. -1.
        -11    1    3    3    0    0  0.13480449073E+02 -0.25402605507E+02 -0.19960077133E+02  0.35005993104E+02  0.51100000000E-03 0.  1.
         12    1    3    3    0    0 -0.78156292746E+01  0.18987415553E+01  0.14406975835E+02  0.16500007065E+02  0.00000000000E+00 0. -1.
</event>
<event>
 7    1  0.6246445E-012  0.5930198E+02  0.7816164E-02  0.1266605E+00
        -11   -1    0    0    0    0  0.00000000000E+00  0.00000000000E+00  0.45593999997E+02  0.45594000000E+02  0.51100000000E-03 0.  1.
         11   -1    0    0    0    0 -0.00000000000E+00 -0.00000000000E+00 -0.45593999997E+02  0.45594000000E+02  0.51100000000E-03 0. -1.
    9900012    2    1    2    0    0 -0.30632189081E+00 -0.28448223708E+02  0.14398709214E+02  0.59301982809E+02  0.50000070729E+02 0.  0.
         12    1    1    2    0    0  0.30632189081E+00  0.28448223708E+02 -0.14398709214E+02  0.31886017191E+02  0.00000000000E+00 0. -1.
         11    1    3    3    0    0 -0.19121095279E+02  0.15381240379E+01  0.81020452638E+01  0.20823670376E+02  0.51100000000E-03 0. -1.
        -11    1    3    3    0    0  0.45163994922E+01 -0.22937633577E+01 -0.30848282766E+01  0.59308836164E+01  0.51100000000E-03 0.  1.
        -12    1    3    3    0    0  0.14298373896E+02 -0.27692584389E+02  0.93814922262E+01  0.32547428817E+02  0.00000000000E+00 0.  1.
</event>
<event>
 7    1  0.6246445E-012  0.5930194E+02  0.7816164E-02  0.1266605E+00
        -11   -1    0    0    0    0  0.00000000000E+00  0.00000000000E+00  0.45593999997E+02  0.45594000000E+02  0.51100000000E-03 0. -1.
         11   -1    0    0    0    0 -0.00000000000E+00 -0.00000000000E+00 -0.45593999997E+02  0.45594000000E+02  0.51100000000E-03 0.  1.
    9900012    2    1    2    0    0 -0.20903343008E+02 -0.17747197883E+02 -0.16272914051E+02  0.59301944846E+02  0.50000001492E+02 0.  0.
         12    1    1    2    0    0  0.20903343008E+02  0.17747197883E+02  0.16272914051E+02  0.31886055154E+02  0.00000000000E+00 0. -1.
         11    1    3    3    0    0  0.24404306247E+01 -0.11322120376E+02  0.56946564253E+01  0.12906402423E+02  0.51100000000E-03 0.  1.
        -11    1    3    3    0    0 -0.45624779596E+01  0.59863784397E+01  0.66092609828E+01  0.10016749121E+02  0.51100000000E-03 0. -1.
        -12    1    3    3    0    0 -0.18781295673E+02 -0.12411455947E+02 -0.28576831459E+02  0.36378793302E+02  0.00000000000E+00 0.  1.
</event>
<event>
 7    1  0.6246445E-012  0.5930193E+02  0.7816164E-02  0.1266605E+00
        -11   -1    0    0    0    0  0.00000000000E+00  0.00000000000E+00  0.45593999997E+02  0.45594000000E+02  0.51100000000E-03 0. -1.
         11   -1    0    0    0    0 -0.00000000000E+00 -0.00000000000E+00 -0.45593999997E+02  0.45594000000E+02  0.51100000000E-03 0.  1.
    9900012    2    1    2    0    0 -0.79048647291E+01  0.18806070356E+02 -0.24506452056E+02  0.59301931553E+02  0.49999977249E+02 0.  0.
         12    1    1    2    0    0  0.79048647291E+01 -0.18806070356E+02  0.24506452056E+02  0.31886068447E+02  0.00000000000E+00 0. -1.
         11    1    3    3    0    0 -0.11671979421E+02 -0.18371848690E+01 -0.10937014725E+02  0.16100578971E+02  0.51100000000E-03 0. -1.
        -11    1    3    3    0    0  0.28199376970E+01 -0.98935395310E+01 -0.17095385519E+01  0.10428647822E+02  0.51100000000E-03 0.  1.
         12    1    3    3    0    0  0.94717699478E+00  0.30536794756E+02 -0.11859898779E+02  0.32772704760E+02  0.00000000000E+00 0. -1.
</event>
<event>
 7    1  0.6246445E-012  0.5930193E+02  0.7816164E-02  0.1266605E+00
        -11   -1    0    0    0    0  0.00000000000E+00  0.00000000000E+00  0.45593999997E+02  0.45594000000E+02  0.51100000000E-03 0.  1.
         11   -1    0    0    0    0 -0.00000000000E+00 -0.00000000000E+00 -0.45593999997E+02  0.45594000000E+02  0.51100000000E-03 0. -1.
    9900012    2    1    2    0    0  0.12876980765E+02 -0.12598713720E+02  0.26309258212E+02  0.59301932687E+02  0.49999979318E+02 0.  0.
         12    1    1    2    0    0 -0.12876980765E+02  0.12598713720E+02 -0.26309258212E+02  0.31886067313E+02  0.00000000000E+00 0. -1.
         11    1    3    3    0    0  0.79574836127E-01  0.79567591486E+01 -0.27827815200E+00  0.79620215583E+01  0.51100000000E-03 0. -1.
        -11    1    3    3    0    0  0.27467587612E+01 -0.80588891579E+01 -0.89491722821E+01  0.12352249307E+02  0.51100000000E-03 0.  1.
        -12    1    3    3    0    0  0.10050647167E+02 -0.12496583711E+02  0.35536708646E+02  0.38987661822E+02  0.00000000000E+00 0.  1.
</event>
<event>
 7    1  0.6246445E-012  0.5930194E+02  0.7816164E-02  0.1266605E+00
        -11   -1    0    0    0    0  0.00000000000E+00  0.00000000000E+00  0.45593999997E+02  0.45594000000E+02  0.51100000000E-03 0.  1.
         11   -1    0    0    0    0 -0.00000000000E+00 -0.00000000000E+00 -0.45593999997E+02  0.45594000000E+02  0.51100000000E-03 0. -1.
    9900012    2    1    2    0    0  0.28796285614E+02  0.11854509434E+02 -0.68531361130E+01  0.59301938254E+02  0.49999989471E+02 0.  0.
         12    1    1    2    0    0 -0.28796285614E+02 -0.11854509434E+02  0.68531361130E+01  0.31886061746E+02  0.00000000000E+00 0. -1.
         11    1    3    3    0    0 -0.42302344891E+01 -0.36022906638E+01 -0.33790715854E+01  0.65030382822E+01  0.51100000000E-03 0. -1.
        -11    1    3    3    0    0 -0.46862658922E+01  0.11872743390E+02  0.54504719201E+01  0.13879148678E+02  0.51100000000E-03 0.  1.
         12    1    3    3    0    0  0.37712785995E+02  0.35840567084E+01 -0.89245364478E+01  0.38919751294E+02  0.00000000000E+00 0. -1.
</event>
<event>
 7    1  0.6246445E-012  0.5930193E+02  0.7816164E-02  0.1266605E+00
        -11   -1    0    0    0    0  0.00000000000E+00  0.00000000000E+00  0.45593999997E+02  0.45594000000E+02  0.51100000000E-03 0.  1.
         11   -1    0    0    0    0 -0.00000000000E+00 -0.00000000000E+00 -0.45593999997E+02  0.45594000000E+02  0.51100000000E-03 0. -1.
    9900012    2    1    2    0    0  0.43785440292E+00  0.45354878541E+00  0.31879833892E+02  0.59301933577E+02  0.49999980940E+02 0.  0.
         12    1    1    2    0    0 -0.43785440292E+00 -0.45354878541E+00 -0.31879833892E+02  0.31886066423E+02  0.00000000000E+00 0. -1.
         11    1    3    3    0    0  0.13822316937E+02  0.64134415130E+01  0.12914607036E+02  0.19974377405E+02  0.51100000000E-03 0.  1.
        -11    1    3    3    0    0 -0.10745063541E+02  0.18647886804E+01 -0.64048441614E+01  0.12647365588E+02  0.51100000000E-03 0. -1.
         12    1    3    3    0    0 -0.26393989931E+01 -0.78246814081E+01  0.25370071017E+02  0.26680190584E+02  0.00000000000E+00 0. -1.
</event>
<event>
 7    1  0.6246445E-012  0.5930196E+02  0.7816164E-02  0.1266605E+00
        -11   -1    0    0    0    0  0.00000000000E+00  0.00000000000E+00  0.45593999997E+02  0.45594000000E+02  0.51100000000E-03 0. -1.
         11   -1    0    0    0    0 -0.00000000000E+00 -0.00000000000E+00 -0.45593999997E+02  0.45594000000E+02  0.51100000000E-03 0.  1.
    9900012    2    1    2    0    0 -0.15509666597E+02 -0.11351189238E+02 -0.25442494893E+02  0.59301956008E+02  0.50000021848E+02 0.  0.
         12    1    1    2    0    0  0.15509666597E+02  0.11351189238E+02  0.25442494893E+02  0.31886043992E+02  0.00000000000E+00 0. -1.
         11    1    3    3    0    0  0.11200347707E+02 -0.15352202830E+02  0.39310552228E+00  0.19007694565E+02  0.51100000000E-03 0. -1.
        -11    1    3    3    0    0 -0.19773740256E+01 -0.41775098691E+01 -0.21951196853E+01  0.51166539298E+01  0.51100000000E-03 0.  1.
         12    1    3    3    0    0 -0.24732640278E+02  0.81785234607E+01 -0.23640480730E+02  0.35177607512E+02  0.00000000000E+00 0. -1.
</event>
<event>
 7    1  0.6246445E-012  0.5930193E+02  0.7816164E-02  0.1266605E+00
        -11   -1    0    0    0    0  0.00000000000E+00  0.00000000000E+00  0.45593999997E+02  0.45594000000E+02  0.51100000000E-03 0. -1.
         11   -1    0    0    0    0 -0.00000000000E+00 -0.00000000000E+00 -0.45593999997E+02  0.45594000000E+02  0.51100000000E-03 0.  1.
    9900012    2    1    2    0    0  0.97322116653E+01  0.30000612814E+02  0.46871108453E+01  0.59301925905E+02  0.49999966949E+02 0.  0.
         12    1    1    2    0    0 -0.97322116653E+01 -0.30000612814E+02 -0.46871108453E+01  0.31886074095E+02  0.00000000000E+00 0. -1.
         11    1    3    3    0    0 -0.22595446462E+01  0.32182327182E+02  0.10218956612E+02  0.33841317932E+02  0.51100000000E-03 0. -1.
        -11    1    3    3    0    0 -0.15518411568E+01  0.78458009430E+01 -0.19617376342E+01  0.82348781545E+01  0.51100000000E-03 0.  1.
         12    1    3    3    0    0  0.13543597468E+02 -0.10027515311E+02 -0.35701081321E+01  0.17225729819E+02  0.00000000000E+00 0. -1.
</event>
<event>
 7    1  0.6246445E-012  0.5930194E+02  0.7816164E-02  0.1266605E+00
        -11   -1    0    0    0    0  0.00000000000E+00  0.00000000000E+00  0.45593999997E+02  0.45594000000E+02  0.51100000000E-03 0. -1.
         11   -1    0    0    0    0 -0.00000000000E+00 -0.00000000000E+00 -0.45593999997E+02  0.45594000000E+02  0.51100000000E-03 0.  1.
    9900012    2    1    2    0    0  0.25147845367E+02 -0.26263301253E+01 -0.19427013751E+02  0.59301943490E+02  0.49999999019E+02 0.  0.
         12    1    1    2    0    0 -0.25147845367E+02  0.26263301253E+01  0.19427013751E+02  0.31886056510E+02  0.00000000000E+00 0. -1.
         11    1    3    3    0    0  0.10894927587E+02  0.16808638768E+02 -0.37723106094E+00  0.20034272831E+02  0.51100000000E-03 0. -1.
        -11    1    3    3    0    0  0.30612375901E+01  0.20575982460E+01  0.42664705919E+01  0.56398278075E+01  0.51100000000E-03 0.  1.
        -12    1    3    3    0    0  0.11191680190E+02 -0.21492567139E+02 -0.23316253282E+02  0.33627842851E+02  0.00000000000E+00 0.  1.
</event>
<event>
 7    1  0.6246445E-012  0.5930196E+02  0.7816164E-02  0.1266605E+00
        -11   -1    0    0    0    0  0.00000000000E+00  0.00000000000E+00  0.45593999997E+02  0.45594000000E+02  0.51100000000E-03 0.  1.
         11   -1    0    0    0    0 -0.00000000000E+00 -0.00000000000E+00 -0.45593999997E+02  0.45594000000E+02  0.51100000000E-03 0. -1.
    9900012    2    1    2    0    0  0.74169258543E+01 -0.20058678027E+02  0.23650751680E+02  0.59301962172E+02  0.50000033091E+02 0.  0.
         12    1    1    2    0    0 -0.74169258543E+01  0.20058678027E+02 -0.23650751680E+02  0.31886037828E+02  0.00000000000E+00 0. -1.
         11    1    3    3    0    0 -0.23833146277E+01 -0.63043076274E+01  0.17470385811E+02  0.18725353506E+02  0.51100000000E-03 0. -1.
        -11    1    3    3    0    0  0.13016898593E+01 -0.22480908216E+02  0.13606749045E+02  0.26310249914E+02  0.51100000000E-03 0.  1.
         12    1    3    3    0    0  0.84985506227E+01  0.87265378163E+01 -0.74263831766E+01  0.14266358752E+02  0.00000000000E+00 0. -1.
</event>
<event>
 7    1  0.6246445E-012  0.5930192E+02  0.7816164E-02  0.1266605E+00
        -11   -1    0    0    0    0  0.00000000000E+00  0.00000000000E+00  0.45593999997E+02  0.45594000000E+02  0.51100000000E-03 0. -1.
         11   -1    0    0    0    0 -0.00000000000E+00 -0.00000000000E+00 -0.45593999997E+02  0.45594000000E+02  0.51100000000E-03 0.  1.
    9900012    2    1    2    0    0 -0.51638369619E+01  0.26349617180E+02 -0.17197517754E+02  0.59301919109E+02  0.49999954554E+02 0.  0.
         12    1    1    2    0    0  0.51638369619E+01 -0.26349617180E+02  0.17197517754E+02  0.31886080891E+02  0.00000000000E+00 0. -1.
         11    1    3    3    0    0 -0.20154175383E+01  0.11116792518E+02 -0.30979928071E+02  0.32975762725E+02  0.51100000000E-03 0. -1.
        -11    1    3    3    0    0  0.11240563501E+01  0.78606839790E+01 -0.21777973198E+01  0.82338725229E+01  0.51100000000E-03 0.  1.
         12    1    3    3    0    0 -0.42724757736E+01  0.73721406833E+01  0.15960207637E+02  0.18092283861E+02  0.00000000000E+00 0. -1.
</event>
<event>
 7    1  0.6246445E-012  0.5930207E+02  0.7816164E-02  0.1266604E+00
        -11   -1    0    0    0    0  0.00000000000E+00  0.00000000000E+00  0.45593999997E+02  0.45594000000E+02  0.51100000000E-03 0. -1.
         11   -1    0    0    0    0 -0.00000000000E+00 -0.00000000000E+00 -0.45593999997E+02  0.45594000000E+02  0.51100000000E-03 0.  1.
    9900012    2    1    2    0    0 -0.12380834339E+02 -0.21148013269E+02 -0.20400711550E+02  0.59302069624E+02  0.50000229057E+02 0.  0.
         12    1    1    2    0    0  0.12380834339E+02  0.21148013269E+02  0.20400711550E+02  0.31885930376E+02  0.00000000000E+00 0. -1.
         11    1    3    3    0    0  0.36034589781E+01  0.78324468855E+01 -0.49700869602E+01  0.99515780394E+01  0.51100000000E-03 0. -1.
        -11    1    3    3    0    0  0.74687297141E+01  0.19292215839E+01 -0.34737392992E+00  0.77216894764E+01  0.51100000000E-03 0.  1.
         12    1    3    3    0    0 -0.23453023031E+02 -0.30909681739E+02 -0.15083250660E+02  0.41628802108E+02  0.00000000000E+00 0. -1.
</event>
<event>
 7    1  0.6246445E-012  0.5930197E+02  0.7816164E-02  0.1266605E+00
        -11   -1    0    0    0    0  0.00000000000E+00  0.00000000000E+00  0.45593999997E+02  0.45594000000E+02  0.51100000000E-03 0.  1.
         11   -1    0    0    0    0 -0.00000000000E+00 -0.00000000000E+00 -0.45593999997E+02  0.45594000000E+02  0.51100000000E-03 0. -1.
    9900012    2    1    2    0    0 -0.10931248299E+02 -0.25039276693E+01  0.29848903085E+02  0.59301970794E+02  0.50000048815E+02 0.  0.
         12    1    1    2    0    0  0.10931248299E+02  0.25039276693E+01 -0.29848903085E+02  0.31886029206E+02  0.00000000000E+00 0. -1.
         11    1    3    3    0    0  0.14916078466E+02 -0.35080887648E+01  0.30796643597E+01  0.15629472685E+02  0.51100000000E-03 0. -1.
        -11    1    3    3    0    0  0.35283521217E+01 -0.55825705308E+00  0.80431816104E+01  0.88007778242E+01  0.51100000000E-03 0.  1.
        -12    1    3    3    0    0 -0.29375678887E+02  0.15624181486E+01  0.18726057115E+02  0.34871720285E+02  0.00000000000E+00 0.  1.
</event>
<event>
 7    1  0.6246445E-012  0.5930197E+02  0.7816164E-02  0.1266605E+00
        -11   -1    0    0    0    0  0.00000000000E+00  0.00000000000E+00  0.45593999997E+02  0.45594000000E+02  0.51100000000E-03 0.  1.
         11   -1    0    0    0    0 -0.00000000000E+00 -0.00000000000E+00 -0.45593999997E+02  0.45594000000E+02  0.51100000000E-03 0. -1.
    9900012    2    1    2    0    0 -0.23812529289E+02  0.20938252701E+02 -0.33573256406E+01  0.59301974648E+02  0.50000055844E+02 0.  0.
         12    1    1    2    0    0  0.23812529289E+02 -0.20938252701E+02  0.33573256406E+01  0.31886025352E+02  0.00000000000E+00 0. -1.
         11    1    3    3    0    0 -0.21903814360E+02  0.99944026750E+01  0.23046396153E+01  0.24186288107E+02  0.51100000000E-03 0. -1.
        -11    1    3    3    0    0 -0.88185188972E+01  0.66328060805E+01  0.11611587142E+02  0.16018406546E+02  0.51100000000E-03 0.  1.
         12    1    3    3    0    0  0.69098039687E+01  0.43110439455E+01 -0.17273552398E+02  0.19097279996E+02  0.00000000000E+00 0. -1.
</event>
<event>
 7    1  0.6246445E-012  0.5930194E+02  0.7816164E-02  0.1266605E+00
        -11   -1    0    0    0    0  0.00000000000E+00  0.00000000000E+00  0.45593999997E+02  0.45594000000E+02  0.51100000000E-03 0.  1.
         11   -1    0    0    0    0 -0.00000000000E+00 -0.00000000000E+00 -0.45593999997E+02  0.45594000000E+02  0.51100000000E-03 0. -1.
    9900012    2    1    2    0    0  0.14672350075E+02 -0.31630942999E+01 -0.28132504050E+02  0.59301940250E+02  0.49999993110E+02 0.  0.
         12    1    1    2    0    0 -0.14672350075E+02  0.31630942999E+01  0.28132504050E+02  0.31886059750E+02  0.00000000000E+00 0. -1.
         11    1    3    3    0    0  0.67516357108E+01 -0.75850384286E+01 -0.23372905857E+02  0.25483526467E+02  0.51100000000E-03 0. -1.
        -11    1    3    3    0    0 -0.57533258828E+01 -0.84105462621E+01  0.63649168232E+01  0.12014583371E+02  0.51100000000E-03 0.  1.
        -12    1    3    3    0    0  0.13674040247E+02  0.12832490391E+02 -0.11124515016E+02  0.21803830412E+02  0.00000000000E+00 0.  1.
</event>
<event>
 7    1  0.7165428E-012  0.5930204E+02  0.7816164E-02  0.1266604E+00
        -11   -1    0    0    0    0  0.00000000000E+00  0.00000000000E+00  0.45593999997E+02  0.45594000000E+02  0.51100000000E-03 0. -1.
         11   -1    0    0    0    0 -0.00000000000E+00 -0.00000000000E+00 -0.45593999997E+02  0.45594000000E+02  0.51100000000E-03 0.  1.
    9900012    2    1    2    0    0  0.29803014933E+02 -0.11053114275E+02 -0.25146445497E+01  0.59302039586E+02  0.50000174276E+02 0.  0.
         12    1    1    2    0    0 -0.29803014933E+02  0.11053114275E+02  0.25146445497E+01  0.31885960414E+02  0.00000000000E+00 0. -1.
         11    1    3    3    0    0  0.63267837576E+01 -0.21000511666E+01 -0.16802169033E+02  0.18076263223E+02  0.51100000000E-03 0. -1.
        -11    1    3    3    0    0  0.16643259977E+02 -0.74656054671E+01 -0.64446584404E+01  0.19345981245E+02  0.51100000000E-03 0.  1.
         12    1    3    3    0    0  0.68329711982E+01 -0.14874576410E+01  0.20732182924E+02  0.21879795118E+02  0.00000000000E+00 0. -1.
</event>
<event>
 7    1  0.6246445E-012  0.5930192E+02  0.7816164E-02  0.1266605E+00
        -11   -1    0    0    0    0  0.00000000000E+00  0.00000000000E+00  0.45593999997E+02  0.45594000000E+02  0.51100000000E-03 0. -1.
         11   -1    0    0    0    0 -0.00000000000E+00 -0.00000000000E+00 -0.45593999997E+02  0.45594000000E+02  0.51100000000E-03 0.  1.
    9900012    2    1    2    0    0  0.31741045636E+02 -0.19235782988E+00 -0.30316368076E+01  0.59301924648E+02  0.49999964656E+02 0.  0.
         12    1    1    2    0    0 -0.31741045636E+02  0.19235782988E+00  0.30316368076E+01  0.31886075352E+02  0.00000000000E+00 0. -1.
         11    1    3    3    0    0  0.12765486133E+02  0.16312212380E+02  0.75538580396E+01  0.22047827115E+02  0.51100000000E-03 0. -1.
        -11    1    3    3    0    0  0.15739457004E+01  0.59250337268E+01 -0.58491895771E+01  0.84732726087E+01  0.51100000000E-03 0.  1.
        -12    1    3    3    0    0  0.17401613803E+02 -0.22429603937E+02 -0.47363052701E+01  0.28780824924E+02  0.00000000000E+00 0.  1.
</event>
<event>
 7    1  0.6246445E-012  0.5930193E+02  0.7816164E-02  0.1266605E+00
        -11   -1    0    0    0    0  0.00000000000E+00  0.00000000000E+00  0.45593999997E+02  0.45594000000E+02  0.51100000000E-03 0.  1.
         11   -1    0    0    0    0 -0.00000000000E+00 -0.00000000000E+00 -0.45593999997E+02  0.45594000000E+02  0.51100000000E-03 0. -1.
    9900012    2    1    2    0    0  0.20858318581E+02 -0.12362852027E+02  0.20707775285E+02  0.59301929036E+02  0.49999972659E+02 0.  0.
         12    1    1    2    0    0 -0.20858318581E+02  0.12362852027E+02 -0.20707775285E+02  0.31886070964E+02  0.00000000000E+00 0. -1.
         11    1    3    3    0    0 -0.29853616989E+01 -0.25862475204E+02  0.69252630929E+01  0.26939548573E+02  0.51100000000E-03 0.  1.
        -11    1    3    3    0    0  0.38738475935E+01  0.26875549417E+01  0.73986132054E+01  0.87732049085E+01  0.51100000000E-03 0. -1.
        -12    1    3    3    0    0  0.19969832687E+02  0.10812068236E+02  0.63838989863E+01  0.23589175554E+02  0.00000000000E+00 0.  1.
</event>
<event>
 7    1  0.6246445E-012  0.5930194E+02  0.7816164E-02  0.1266605E+00
        -11   -1    0    0    0    0  0.00000000000E+00  0.00000000000E+00  0.45593999997E+02  0.45594000000E+02  0.51100000000E-03 0. -1.
         11   -1    0    0    0    0 -0.00000000000E+00 -0.00000000000E+00 -0.45593999997E+02  0.45594000000E+02  0.51100000000E-03 0.  1.
    9900012    2    1    2    0    0 -0.12293666812E+02  0.24050043347E+02  0.16946447725E+02  0.59301938482E+02  0.49999989885E+02 0.  0.
         12    1    1    2    0    0  0.12293666812E+02 -0.24050043347E+02 -0.16946447725E+02  0.31886061518E+02  0.00000000000E+00 0. -1.
         11    1    3    3    0    0  0.24565066844E+01 -0.45885222013E+01 -0.97980293109E+00  0.52961283148E+01  0.51100000000E-03 0. -1.
        -11    1    3    3    0    0  0.60868781356E+01 -0.66782522261E+01  0.73772438003E+01  0.11665027415E+02  0.51100000000E-03 0.  1.
        -12    1    3    3    0    0 -0.20837051632E+02  0.35316817774E+02  0.10549006856E+02  0.42340782752E+02  0.00000000000E+00 0.  1.
</event>
<event>
 7    1  0.6246445E-012  0.5930191E+02  0.7816164E-02  0.1266605E+00
        -11   -1    0    0    0    0  0.00000000000E+00  0.00000000000E+00  0.45593999997E+02  0.45594000000E+02  0.51100000000E-03 0.  1.
         11   -1    0    0    0    0 -0.00000000000E+00 -0.00000000000E+00 -0.45593999997E+02  0.45594000000E+02  0.51100000000E-03 0. -1.
    9900012    2    1    2    0    0 -0.42164106803E+01  0.29151254509E+02 -0.12212647546E+02  0.59301913402E+02  0.49999944146E+02 0.  0.
         12    1    1    2    0    0  0.42164106803E+01 -0.29151254509E+02  0.12212647546E+02  0.31886086598E+02  0.00000000000E+00 0. -1.
         11    1    3    3    0    0 -0.88940897946E+01  0.18279305431E+02  0.26043282352E+01  0.20494398409E+02  0.51100000000E-03 0.  1.
        -11    1    3    3    0    0 -0.66679218961E+01  0.16240473966E+02  0.21665238618E+01  0.17689205831E+02  0.51100000000E-03 0. -1.
         12    1    3    3    0    0  0.11345601010E+02 -0.53685248879E+01 -0.16983499643E+02  0.21118309162E+02  0.00000000000E+00 0. -1.
</event>
<event>
 7    1  0.6246445E-012  0.5930193E+02  0.7816164E-02  0.1266605E+00
        -11   -1    0    0    0    0  0.00000000000E+00  0.00000000000E+00  0.45593999997E+02  0.45594000000E+02  0.51100000000E-03 0.  1.
         11   -1    0    0    0    0 -0.00000000000E+00 -0.00000000000E+00 -0.45593999997E+02  0.45594000000E+02  0.51100000000E-03 0. -1.
    9900012    2    1    2    0    0  0.10137209960E+02  0.29332634217E+02  0.73181082473E+01  0.59301934639E+02  0.49999982878E+02 0.  0.
         12    1    1    2    0    0 -0.10137209960E+02 -0.29332634217E+02 -0.73181082473E+01  0.31886065361E+02  0.00000000000E+00 0. -1.
         11    1    3    3    0    0  0.55105830546E+01 -0.37442401435E+01 -0.61318518344E+01  0.90545826538E+01  0.51100000000E-03 0. -1.
        -11    1    3    3    0    0  0.16655245780E+02  0.11989187052E+02 -0.32549546393E+01  0.20778174802E+02  0.51100000000E-03 0.  1.
        -12    1    3    3    0    0 -0.12028618874E+02  0.21087687308E+02  0.16704914721E+02  0.29469177183E+02  0.00000000000E+00 0.  1.
</event>
<event>
 7    1  0.6246445E-012  0.5930202E+02  0.7816164E-02  0.1266605E+00
        -11   -1    0    0    0    0  0.00000000000E+00  0.00000000000E+00  0.45593999997E+02  0.45594000000E+02  0.51100000000E-03 0.  1.
         11   -1    0    0    0    0 -0.00000000000E+00 -0.00000000000E+00 -0.45593999997E+02  0.45594000000E+02  0.51100000000E-03 0. -1.
    9900012    2    1    2    0    0  0.16372854752E+02 -0.27352123158E+02  0.71200426129E+00  0.59302016182E+02  0.50000131592E+02 0.  0.
         12    1    1    2    0    0 -0.16372854752E+02  0.27352123158E+02 -0.71200426129E+00  0.31885983818E+02  0.00000000000E+00 0. -1.
         11    1    3    3    0    0  0.91028154179E+01 -0.42517205493E+00  0.35096173411E+01  0.97652155097E+01  0.51100000000E-03 0. -1.
        -11    1    3    3    0    0  0.20209537800E+02 -0.12202696976E+02  0.10512895817E+02  0.25842836731E+02  0.51100000000E-03 0.  1.
        -12    1    3    3    0    0 -0.12939498466E+02 -0.14724254127E+02 -0.13310508897E+02  0.23693963941E+02  0.00000000000E+00 0.  1.
</event>
<event>
 7    1  0.6246445E-012  0.5930194E+02  0.7816164E-02  0.1266605E+00
        -11   -1    0    0    0    0  0.00000000000E+00  0.00000000000E+00  0.45593999997E+02  0.45594000000E+02  0.51100000000E-03 0.  1.
         11   -1    0    0    0    0 -0.00000000000E+00 -0.00000000000E+00 -0.45593999997E+02  0.45594000000E+02  0.51100000000E-03 0. -1.
    9900012    2    1    2    0    0  0.14556351945E+02  0.16849279605E+02  0.22824009228E+02  0.59301937176E+02  0.49999987504E+02 0.  0.
         12    1    1    2    0    0 -0.14556351945E+02 -0.16849279605E+02 -0.22824009228E+02  0.31886062824E+02  0.00000000000E+00 0. -1.
         11    1    3    3    0    0  0.12090269499E+02  0.78538596742E+01 -0.44768294133E+01  0.15096348241E+02  0.51100000000E-03 0. -1.
        -11    1    3    3    0    0 -0.82597756743E+01  0.16787489277E+02  0.24202434355E+02  0.30590873139E+02  0.51100000000E-03 0.  1.
         12    1    3    3    0    0  0.10725858120E+02 -0.77920693461E+01  0.30984042869E+01  0.13614715797E+02  0.00000000000E+00 0. -1.
</event>
<event>
 7    1  0.6246445E-012  0.5930195E+02  0.7816164E-02  0.1266605E+00
        -11   -1    0    0    0    0  0.00000000000E+00  0.00000000000E+00  0.45593999997E+02  0.45594000000E+02  0.51100000000E-03 0. -1.
         11   -1    0    0    0    0 -0.00000000000E+00 -0.00000000000E+00 -0.45593999997E+02  0.45594000000E+02  0.51100000000E-03 0.  1.
    9900012    2    1    2    0    0 -0.56276273534E+01 -0.19905260731E+01 -0.31322319515E+02  0.59301951585E+02  0.50000013783E+02 0.  0.
         12    1    1    2    0    0  0.56276273534E+01  0.19905260731E+01  0.31322319515E+02  0.31886048415E+02  0.00000000000E+00 0. -1.
         11    1    3    3    0    0  0.40682906381E+01 -0.16622043930E+02 -0.77972480283E+01  0.18805329303E+02  0.51100000000E-03 0. -1.
        -11    1    3    3    0    0 -0.80243299473E+01 -0.41906922251E+01  0.14608765731E+01  0.91698382239E+01  0.51100000000E-03 0.  1.
        -12    1    3    3    0    0 -0.16715880442E+01  0.18822210082E+02 -0.24985948060E+02  0.31326784058E+02  0.00000000000E+00 0.  1.
</event>
<event>
 7    1  0.6246445E-012  0.5930198E+02  0.7816164E-02  0.1266605E+00
        -11   -1    0    0    0    0  0.00000000000E+00  0.00000000000E+00  0.45593999997E+02  0.45594000000E+02  0.51100000000E-03 0.  1.
         11   -1    0    0    0    0 -0.00000000000E+00 -0.00000000000E+00 -0.45593999997E+02  0.45594000000E+02  0.51100000000E-03 0. -1.
    9900012    2    1    2    0    0 -0.34180446411E-01  0.24092660637E+02  0.20886853735E+02  0.59301982315E+02  0.50000069826E+02 0.  0.
         12    1    1    2    0    0  0.34180446411E-01 -0.24092660637E+02 -0.20886853735E+02  0.31886017685E+02  0.00000000000E+00 0. -1.
         11    1    3    3    0    0  0.18097949262E+02  0.11936196099E+02  0.62333460449E+01  0.22557995212E+02  0.51100000000E-03 0. -1.
        -11    1    3    3    0    0 -0.71845799390E+01  0.18209240572E+02  0.14277501769E+02  0.24228943191E+02  0.51100000000E-03 0.  1.
         12    1    3    3    0    0 -0.10947549769E+02 -0.60527760347E+01  0.37600592125E+00  0.12515043912E+02  0.00000000000E+00 0. -1.
</event>
<event>
 7    1  0.6246445E-012  0.5930189E+02  0.7816164E-02  0.1266605E+00
        -11   -1    0    0    0    0  0.00000000000E+00  0.00000000000E+00  0.45593999997E+02  0.45594000000E+02  0.51100000000E-03 0.  1.
         11   -1    0    0    0    0 -0.00000000000E+00 -0.00000000000E+00 -0.45593999997E+02  0.45594000000E+02  0.51100000000E-03 0. -1.
    9900012    2    1    2    0    0  0.24895880109E+02  0.16404114200E+02  0.11305931597E+02  0.59301891765E+02  0.49999904685E+02 0.  0.
         12    1    1    2    0    0 -0.24895880109E+02 -0.16404114200E+02 -0.11305931597E+02  0.31886108235E+02  0.00000000000E+00 0. -1.
         11    1    3    3    0    0 -0.26993123181E+01  0.72510239585E+01  0.25698576446E+01  0.81527789135E+01  0.51100000000E-03 0. -1.
        -11    1    3    3    0    0  0.19086996943E+02  0.20644934303E+02 -0.79073014053E+01  0.29207057031E+02  0.51100000000E-03 0.  1.
        -12    1    3    3    0    0  0.85081954841E+01 -0.11491844061E+02  0.16643375358E+02  0.21942055820E+02  0.00000000000E+00 0.  1.
</event>
<event>
 7    1  0.6246445E-012  0.5930192E+02  0.7816164E-02  0.1266605E+00
        -11   -1    0    0    0    0  0.00000000000E+00  0.00000000000E+00  0.45593999997E+02  0.45594000000E+02  0.51100000000E-03 0.  1.
         11   -1    0    0    0    0 -0.00000000000E+00 -0.00000000000E+00 -0.45593999997E+02  0.45594000000E+02  0.51100000000E-03 0. -1.
    9900012    2    1    2    0    0 -0.89665192344E+01 -0.32095991404E+01  0.30430608673E+02  0.59301922505E+02  0.49999960747E+02 0.  0.
         12    1    1    2    0    0  0.89665192344E+01  0.32095991404E+01 -0.30430608673E+02  0.31886077495E+02  0.00000000000E+00 0. -1.
         11    1    3    3    0    0 -0.75988851911E+01 -0.11940841795E+02  0.26227411819E+01  0.14394635476E+02  0.51100000000E-03 0. -1.
        -11    1    3    3    0    0 -0.75331836622E+01 -0.11613930574E+02  0.13079794192E+02  0.19045032313E+02  0.51100000000E-03 0.  1.
         12    1    3    3    0    0  0.61655496190E+01  0.20345173229E+02  0.14728073300E+02  0.25862254715E+02  0.00000000000E+00 0. -1.
</event>
<event>
 7    1  0.6246445E-012  0.5930195E+02  0.7816164E-02  0.1266605E+00
        -11   -1    0    0    0    0  0.00000000000E+00  0.00000000000E+00  0.45593999997E+02  0.45594000000E+02  0.51100000000E-03 0.  1.
         11   -1    0    0    0    0 -0.00000000000E+00 -0.00000000000E+00 -0.45593999997E+02  0.45594000000E+02  0.51100000000E-03 0. -1.
    9900012    2    1    2    0    0  0.27199879477E+02 -0.16379563863E+02  0.29320010532E+01  0.59301949977E+02  0.50000010849E+02 0.  0.
         12    1    1    2    0    0 -0.27199879477E+02  0.16379563863E+02 -0.29320010532E+01  0.31886050023E+02  0.00000000000E+00 0. -1.
         11    1    3    3    0    0  0.63369357343E+01 -0.16223736550E+02 -0.57513751946E+01  0.18342428929E+02  0.51100000000E-03 0. -1.
        -11    1    3    3    0    0  0.18806525710E+02 -0.12067635145E+02  0.15393139653E+02  0.27134147783E+02  0.51100000000E-03 0.  1.
        -12    1    3    3    0    0  0.20564180328E+01  0.11911807832E+02 -0.67097634050E+01  0.13825373264E+02  0.00000000000E+00 0.  1.
</event>
<event>
 7    1  0.6246445E-012  0.5930194E+02  0.7816164E-02  0.1266605E+00
        -11   -1    0    0    0    0  0.00000000000E+00  0.00000000000E+00  0.45593999997E+02  0.45594000000E+02  0.51100000000E-03 0.  1.
         11   -1    0    0    0    0 -0.00000000000E+00 -0.00000000000E+00 -0.45593999997E+02  0.45594000000E+02  0.51100000000E-03 0. -1.
    9900012    2    1    2    0    0  0.14507310823E+02 -0.27636997517E+01  0.28259875428E+02  0.59301942501E+02  0.49999997216E+02 0.  0.
         12    1    1    2    0    0 -0.14507310823E+02  0.27636997517E+01 -0.28259875428E+02  0.31886057499E+02  0.00000000000E+00 0. -1.
         11    1    3    3    0    0 -0.82100042313E+01 -0.91639713288E+01  0.57238454667E+01  0.13570001738E+02  0.51100000000E-03 0. -1.
        -11    1    3    3    0    0  0.12761178233E+01  0.16147931988E+02  0.10225443180E+02  0.19155779094E+02  0.51100000000E-03 0.  1.
         12    1    3    3    0    0  0.21441197231E+02 -0.97476604108E+01  0.12310586781E+02  0.26576161669E+02  0.00000000000E+00 0. -1.
</event>
<event>
 7    1  0.6246445E-012  0.5930194E+02  0.7816164E-02  0.1266605E+00
        -11   -1    0    0    0    0  0.00000000000E+00  0.00000000000E+00  0.45593999997E+02  0.45594000000E+02  0.51100000000E-03 0.  1.
         11   -1    0    0    0    0 -0.00000000000E+00 -0.00000000000E+00 -0.45593999997E+02  0.45594000000E+02  0.51100000000E-03 0. -1.
    9900012    2    1    2    0    0 -0.70500890520E+01 -0.94995124932E+00  0.31082388392E+02  0.59301936726E+02  0.49999986683E+02 0.  0.
         12    1    1    2    0    0  0.70500890520E+01  0.94995124932E+00 -0.31082388392E+02  0.31886063274E+02  0.00000000000E+00 0. -1.
         11    1    3    3    0    0  0.87627512427E+01 -0.48170027622E+00  0.33727171866E+01  0.94017586642E+01  0.51100000000E-03 0. -1.
        -11    1    3    3    0    0 -0.30814351363E+01 -0.24346501749E+01 -0.96303983826E+01  0.10400352746E+02  0.51100000000E-03 0.  1.
        -12    1    3    3    0    0 -0.12731405158E+02  0.19663992018E+01  0.37340069588E+02  0.39499825315E+02  0.00000000000E+00 0.  1.
</event>
<event>
 7    1  0.6246445E-012  0.5930194E+02  0.7816164E-02  0.1266605E+00
        -11   -1    0    0    0    0  0.00000000000E+00  0.00000000000E+00  0.45593999997E+02  0.45594000000E+02  0.51100000000E-03 0.  1.
         11   -1    0    0    0    0 -0.00000000000E+00 -0.00000000000E+00 -0.45593999997E+02  0.45594000000E+02  0.51100000000E-03 0. -1.
    9900012    2    1    2    0    0  0.94355383151E+01 -0.26243929743E+02  0.15457923294E+02  0.59301943106E+02  0.49999998319E+02 0.  0.
         12    1    1    2    0    0 -0.94355383151E+01  0.26243929743E+02 -0.15457923294E+02  0.31886056894E+02  0.00000000000E+00 0. -1.
         11    1    3    3    0    0  0.35065747047E+01 -0.13129240757E+02 -0.11131726574E+02  0.17566683403E+02  0.51100000000E-03 0. -1.
        -11    1    3    3    0    0  0.31261403104E+01 -0.12167993960E+02 -0.22339592773E+01  0.12760227450E+02  0.51100000000E-03 0.  1.
        -12    1    3    3    0    0  0.28028233000E+01 -0.94669502666E+00  0.28823609145E+02  0.28975032253E+02  0.00000000000E+00 0.  1.
</event>
<event>
 7    1  0.6246445E-012  0.5930186E+02  0.7816164E-02  0.1266605E+00
        -11   -1    0    0    0    0  0.00000000000E+00  0.00000000000E+00  0.45593999997E+02  0.45594000000E+02  0.51100000000E-03 0.  1.
         11   -1    0    0    0    0 -0.00000000000E+00 -0.00000000000E+00 -0.45593999997E+02  0.45594000000E+02  0.51100000000E-03 0. -1.
    9900012    2    1    2    0    0  0.30545085371E+02 -0.61439499741E+01  0.67805194758E+01  0.59301861852E+02  0.49999850132E+02 0.  0.
         12    1    1    2    0    0 -0.30545085371E+02  0.61439499741E+01 -0.67805194758E+01  0.31886138148E+02  0.00000000000E+00 0. -1.
         11    1    3    3    0    0  0.35751158463E+01  0.40528560563E+01 -0.15907590735E+02  0.16800551740E+02  0.51100000000E-03 0. -1.
        -11    1    3    3    0    0  0.77613045056E+01 -0.60689388472E+01  0.20484792298E+02  0.22730960871E+02  0.51100000000E-03 0.  1.
         12    1    3    3    0    0  0.19208665019E+02 -0.41278671832E+01  0.22033179119E+01  0.19770349241E+02  0.00000000000E+00 0. -1.
</event>
<event>
 7    1  0.6246445E-012  0.5930196E+02  0.7816164E-02  0.1266605E+00
        -11   -1    0    0    0    0  0.00000000000E+00  0.00000000000E+00  0.45593999997E+02  0.45594000000E+02  0.51100000000E-03 0.  1.
         11   -1    0    0    0    0 -0.00000000000E+00 -0.00000000000E+00 -0.45593999997E+02  0.45594000000E+02  0.51100000000E-03 0. -1.
    9900012    2    1    2    0    0 -0.50271541200E+01 -0.10109173413E+02  0.29820325803E+02  0.59301960788E+02  0.50000030567E+02 0.  0.
         12    1    1    2    0    0  0.50271541200E+01  0.10109173413E+02 -0.29820325803E+02  0.31886039212E+02  0.00000000000E+00 0. -1.
         11    1    3    3    0    0  0.12353750437E+02 -0.57623946714E+01  0.30524759092E+01  0.13969178631E+02  0.51100000000E-03 0. -1.
        -11    1    3    3    0    0 -0.12562067366E+02 -0.18067848439E+02  0.17118441831E+02  0.27879988069E+02  0.51100000000E-03 0.  1.
        -12    1    3    3    0    0 -0.48188371901E+01  0.13721069698E+02  0.96494080623E+01  0.17452794088E+02  0.00000000000E+00 0.  1.
</event>
<event>
 7    1  0.6246445E-012  0.5930195E+02  0.7816164E-02  0.1266605E+00
        -11   -1    0    0    0    0  0.00000000000E+00  0.00000000000E+00  0.45593999997E+02  0.45594000000E+02  0.51100000000E-03 0.  1.
         11   -1    0    0    0    0 -0.00000000000E+00 -0.00000000000E+00 -0.45593999997E+02  0.45594000000E+02  0.51100000000E-03 0. -1.
    9900012    2    1    2    0    0  0.19812201867E+02  0.21327184815E+02  0.13013370260E+02  0.59301953514E+02  0.50000017301E+02 0.  0.
         12    1    1    2    0    0 -0.19812201867E+02 -0.21327184815E+02 -0.13013370260E+02  0.31886046486E+02  0.00000000000E+00 0. -1.
         11    1    3    3    0    0 -0.97284300790E+01 -0.69668760738E+01 -0.87246386815E+00  0.11997537560E+02  0.51100000000E-03 0. -1.
        -11    1    3    3    0    0  0.13961093071E+02  0.35250942143E+01  0.10556418450E+02  0.17854309836E+02  0.51100000000E-03 0.  1.
        -12    1    3    3    0    0  0.15579538875E+02  0.24768966674E+02  0.33294156786E+01  0.29450106119E+02  0.00000000000E+00 0.  1.
</event>
<event>
 7    1  0.6246445E-012  0.5930193E+02  0.7816164E-02  0.1266605E+00
        -11   -1    0    0    0    0  0.00000000000E+00  0.00000000000E+00  0.45593999997E+02  0.45594000000E+02  0.51100000000E-03 0.  1.
         11   -1    0    0    0    0 -0.00000000000E+00 -0.00000000000E+00 -0.45593999997E+02  0.45594000000E+02  0.51100000000E-03 0. -1.
    9900012    2    1    2    0    0 -0.30379937330E+02  0.92728271245E+01 -0.27921020109E+01  0.59301925474E+02  0.49999966162E+02 0.  0.
         12    1    1    2    0    0  0.30379937330E+02 -0.92728271245E+01  0.27921020109E+01  0.31886074526E+02  0.00000000000E+00 0. -1.
         11    1    3    3    0    0 -0.57300777739E+01 -0.90045004256E+01  0.20550157059E+01  0.10869126415E+02  0.51100000000E-03 0. -1.
        -11    1    3    3    0    0 -0.17686422444E+02  0.41457859598E+01  0.14670804303E+02  0.23350151589E+02  0.51100000000E-03 0.  1.
         12    1    3    3    0    0 -0.69634371120E+01  0.14131541590E+02 -0.19517922020E+02  0.25082647470E+02  0.00000000000E+00 0. -1.
</event>
<event>
 7    1  0.6246445E-012  0.5930197E+02  0.7816164E-02  0.1266605E+00
        -11   -1    0    0    0    0  0.00000000000E+00  0.00000000000E+00  0.45593999997E+02  0.45594000000E+02  0.51100000000E-03 0.  1.
         11   -1    0    0    0    0 -0.00000000000E+00 -0.00000000000E+00 -0.45593999997E+02  0.45594000000E+02  0.51100000000E-03 0. -1.
    9900012    2    1    2    0    0 -0.57412315592E+01 -0.31054936128E+02  0.43986552095E+01  0.59301969119E+02  0.50000045760E+02 0.  0.
         12    1    1    2    0    0  0.57412315592E+01  0.31054936128E+02 -0.43986552095E+01  0.31886030881E+02  0.00000000000E+00 0. -1.
         11    1    3    3    0    0  0.87842743419E+01  0.17555755886E+01 -0.96871145451E+00  0.90102121786E+01  0.51100000000E-03 0. -1.
        -11    1    3    3    0    0 -0.57869666916E+01 -0.15906265953E+02  0.20062481598E+02  0.26248837083E+02  0.51100000000E-03 0.  1.
         12    1    3    3    0    0 -0.87385392095E+01 -0.16904245763E+02 -0.14695114934E+02  0.24042919857E+02  0.00000000000E+00 0. -1.
</event>
<event>
 7    1  0.6246445E-012  0.5930198E+02  0.7816164E-02  0.1266605E+00
        -11   -1    0    0    0    0  0.00000000000E+00  0.00000000000E+00  0.45593999997E+02  0.45594000000E+02  0.51100000000E-03 0. -1.
         11   -1    0    0    0    0 -0.00000000000E+00 -0.00000000000E+00 -0.45593999997E+02  0.45594000000E+02  0.51100000000E-03 0.  1.
    9900012    2    1    2    0    0  0.29458184184E+02 -0.60802378774E+01 -0.10581316801E+02  0.59301981539E+02  0.50000068411E+02 0.  0.
         12    1    1    2    0    0 -0.29458184184E+02  0.60802378774E+01  0.10581316801E+02  0.31886018461E+02  0.00000000000E+00 0. -1.
         11    1    3    3    0    0  0.12449939584E+02  0.55897979011E+01 -0.15959498591E+02  0.20998867393E+02  0.51100000000E-03 0. -1.
        -11    1    3    3    0    0  0.20623895410E+01  0.34490268505E+01 -0.10841828002E+02  0.11562632552E+02  0.51100000000E-03 0.  1.
         12    1    3    3    0    0  0.14945855059E+02 -0.15119062629E+02  0.16220009793E+02  0.26740481594E+02  0.00000000000E+00 0. -1.
</event>
<event>
 7    1  0.6246445E-012  0.5930195E+02  0.7816164E-02  0.1266605E+00
        -11   -1    0    0    0    0  0.00000000000E+00  0.00000000000E+00  0.45593999997E+02  0.45594000000E+02  0.51100000000E-03 0. -1.
         11   -1    0    0    0    0 -0.00000000000E+00 -0.00000000000E+00 -0.45593999997E+02  0.45594000000E+02  0.51100000000E-03 0.  1.
    9900012    2    1    2    0    0 -0.44496845609E+01 -0.11452268224E+02 -0.29423906944E+02  0.59301945995E+02  0.50000003588E+02 0.  0.
         12    1    1    2    0    0  0.44496845609E+01  0.11452268224E+02  0.29423906944E+02  0.31886054005E+02  0.00000000000E+00 0. -1.
         11    1    3    3    0    0 -0.12703703877E+02 -0.14083137491E+02  0.24922204526E+01  0.19129297343E+02  0.51100000000E-03 0. -1.
        -11    1    3    3    0    0  0.26123897926E+00 -0.27182686550E+01  0.29408381330E+01  0.40131981599E+01  0.51100000000E-03 0.  1.
        -12    1    3    3    0    0  0.79927803365E+01  0.53491379214E+01 -0.34856965529E+02  0.36159450493E+02  0.00000000000E+00 0.  1.
</event>
<event>
 7    1  0.6246445E-012  0.5930193E+02  0.7816164E-02  0.1266605E+00
        -11   -1    0    0    0    0  0.00000000000E+00  0.00000000000E+00  0.45593999997E+02  0.45594000000E+02  0.51100000000E-03 0.  1.
         11   -1    0    0    0    0 -0.00000000000E+00 -0.00000000000E+00 -0.45593999997E+02  0.45594000000E+02  0.51100000000E-03 0. -1.
    9900012    2    1    2    0    0  0.97888355588E+00 -0.27246755639E+02  0.16534130834E+02  0.59301931125E+02  0.49999976468E+02 0.  0.
         12    1    1    2    0    0 -0.97888355588E+00  0.27246755639E+02 -0.16534130834E+02  0.31886068875E+02  0.00000000000E+00 0. -1.
         11    1    3    3    0    0  0.93489314209E+01 -0.64081444989E+01 -0.10377181334E+02  0.15367261543E+02  0.51100000000E-03 0. -1.
        -11    1    3    3    0    0 -0.14101285798E+02 -0.22708611022E+01  0.63101303868E+01  0.15614762793E+02  0.51100000000E-03 0.  1.
        -12    1    3    3    0    0  0.57312379334E+01 -0.18567750038E+02  0.20601181781E+02  0.28319906789E+02  0.00000000000E+00 0.  1.
</event>
<event>
 7    1  0.6246445E-012  0.5930195E+02  0.7816164E-02  0.1266605E+00
        -11   -1    0    0    0    0  0.00000000000E+00  0.00000000000E+00  0.45593999997E+02  0.45594000000E+02  0.51100000000E-03 0.  1.
         11   -1    0    0    0    0 -0.00000000000E+00 -0.00000000000E+00 -0.45593999997E+02  0.45594000000E+02  0.51100000000E-03 0. -1.
    9900012    2    1    2    0    0  0.20549982350E+02  0.19898889157E+02  0.14087321283E+02  0.59301949990E+02  0.50000010874E+02 0.  0.
         12    1    1    2    0    0 -0.20549982350E+02 -0.19898889157E+02 -0.14087321283E+02  0.31886050010E+02  0.00000000000E+00 0. -1.
         11    1    3    3    0    0 -0.19062038833E+01  0.28344302462E+01  0.25810194214E+00  0.34255254982E+01  0.51100000000E-03 0.  1.
        -11    1    3    3    0    0 -0.10677914278E+02 -0.72472913067E+01  0.50148635963E+01  0.13845213677E+02  0.51100000000E-03 0. -1.
        -12    1    3    3    0    0  0.33134100512E+02  0.24311750218E+02  0.88143557447E+01  0.42031210815E+02  0.00000000000E+00 0.  1.
</event>
<event>
 7    1  0.6246445E-012  0.5930197E+02  0.7816164E-02  0.1266605E+00
        -11   -1    0    0    0    0  0.00000000000E+00  0.00000000000E+00  0.45593999997E+02  0.45594000000E+02  0.51100000000E-03 0.  1.
         11   -1    0    0    0    0 -0.00000000000E+00 -0.00000000000E+00 -0.45593999997E+02  0.45594000000E+02  0.51100000000E-03 0. -1.
    9900012    2    1    2    0    0 -0.24184722786E+02 -0.19982865424E+02  0.57011458765E+01  0.59301971851E+02  0.50000050743E+02 0.  0.
         12    1    1    2    0    0  0.24184722786E+02  0.19982865424E+02 -0.57011458765E+01  0.31886028149E+02  0.00000000000E+00 0. -1.
         11    1    3    3    0    0 -0.13368147818E+02 -0.23654811707E+02  0.71922836490E+01  0.28106697375E+02  0.51100000000E-03 0. -1.
        -11    1    3    3    0    0 -0.12051133932E+02 -0.73629090916E+01 -0.99170063063E+01  0.17256571899E+02  0.51100000000E-03 0.  1.
         12    1    3    3    0    0  0.12345589641E+01  0.11034855375E+02  0.84258685338E+01  0.13938702577E+02  0.00000000000E+00 0. -1.
</event>
<event>
 7    1  0.6246445E-012  0.5930193E+02  0.7816164E-02  0.1266605E+00
        -11   -1    0    0    0    0  0.00000000000E+00  0.00000000000E+00  0.45593999997E+02  0.45594000000E+02  0.51100000000E-03 0.  1.
         11   -1    0    0    0    0 -0.00000000000E+00 -0.00000000000E+00 -0.45593999997E+02  0.45594000000E+02  0.51100000000E-03 0. -1.
    9900012    2    1    2    0    0  0.17729804708E+02  0.20959074354E+02  0.16220141415E+02  0.59301925292E+02  0.49999965831E+02 0.  0.
         12    1    1    2    0    0 -0.17729804708E+02 -0.20959074354E+02 -0.16220141415E+02  0.31886074708E+02  0.00000000000E+00 0. -1.
         11    1    3    3    0    0  0.21272094832E+02  0.16843319402E+02  0.22161469295E+02  0.35033272023E+02  0.51100000000E-03 0. -1.
        -11    1    3    3    0    0 -0.36594482484E+01  0.13572473988E+02 -0.31183663585E+01  0.14398882618E+02  0.51100000000E-03 0.  1.
         12    1    3    3    0    0  0.11715812384E+00 -0.94567190365E+01 -0.28229615218E+01  0.98697706516E+01  0.00000000000E+00 0. -1.
</event>
<event>
 7    1  0.6246445E-012  0.5930192E+02  0.7816164E-02  0.1266605E+00
        -11   -1    0    0    0    0  0.00000000000E+00  0.00000000000E+00  0.45593999997E+02  0.45594000000E+02  0.51100000000E-03 0.  1.
         11   -1    0    0    0    0 -0.00000000000E+00 -0.00000000000E+00 -0.45593999997E+02  0.45594000000E+02  0.51100000000E-03 0. -1.
    9900012    2    1    2    0    0  0.22529551370E+02 -0.22495331933E+02 -0.17610451166E+01  0.59301922731E+02  0.49999961159E+02 0.  0.
         12    1    1    2    0    0 -0.22529551370E+02  0.22495331933E+02  0.17610451166E+01  0.31886077269E+02  0.00000000000E+00 0. -1.
         11    1    3    3    0    0 -0.33289418427E+01 -0.28288580679E+00  0.19203541388E+01  0.38535228625E+01  0.51100000000E-03 0. -1.
        -11    1    3    3    0    0 -0.10780037046E+01 -0.23067386115E+02  0.10070031183E+02  0.25192695816E+02  0.51100000000E-03 0.  1.
         12    1    3    3    0    0  0.26936496918E+02  0.85493998945E+00 -0.13751430439E+02  0.30255704052E+02  0.00000000000E+00 0. -1.
</event>
<event>
 7    1  0.6246445E-012  0.5930195E+02  0.7816164E-02  0.1266605E+00
        -11   -1    0    0    0    0  0.00000000000E+00  0.00000000000E+00  0.45593999997E+02  0.45594000000E+02  0.51100000000E-03 0. -1.
         11   -1    0    0    0    0 -0.00000000000E+00 -0.00000000000E+00 -0.45593999997E+02  0.45594000000E+02  0.51100000000E-03 0.  1.
    9900012    2    1    2    0    0 -0.25671780770E+01  0.28134499024E+02 -0.14784437210E+02  0.59301952547E+02  0.50000015536E+02 0.  0.
         12    1    1    2    0    0  0.25671780770E+01 -0.28134499024E+02  0.14784437210E+02  0.31886047453E+02  0.00000000000E+00 0. -1.
         11    1    3    3    0    0 -0.11437065167E+02  0.17426094749E+01 -0.21256553752E+02  0.24200913724E+02  0.51100000000E-03 0. -1.
        -11    1    3    3    0    0  0.73029571713E+01  0.11058485980E+02 -0.66785531001E+01  0.14840025856E+02  0.51100000000E-03 0.  1.
        -12    1    3    3    0    0  0.15669299185E+01  0.15333403569E+02  0.13150669643E+02  0.20261012967E+02  0.00000000000E+00 0.  1.
</event>
<event>
 7    1  0.6246445E-012  0.5930193E+02  0.7816164E-02  0.1266605E+00
        -11   -1    0    0    0    0  0.00000000000E+00  0.00000000000E+00  0.45593999997E+02  0.45594000000E+02  0.51100000000E-03 0. -1.
         11   -1    0    0    0    0 -0.00000000000E+00 -0.00000000000E+00 -0.45593999997E+02  0.45594000000E+02  0.51100000000E-03 0.  1.
    9900012    2    1    2    0    0 -0.20039849825E+02 -0.19142879804E+02 -0.15769473076E+02  0.59301926091E+02  0.49999967288E+02 0.  0.
         12    1    1    2    0    0  0.20039849825E+02  0.19142879804E+02  0.15769473076E+02  0.31886073909E+02  0.00000000000E+00 0. -1.
         11    1    3    3    0    0  0.47272525962E+01  0.78357135303E+01 -0.10467213794E+02  0.13903520724E+02  0.51100000000E-03 0. -1.
        -11    1    3    3    0    0  0.48020553340E+01 -0.64848856347E+01  0.27620265542E+01  0.85289077890E+01  0.51100000000E-03 0.  1.
         12    1    3    3    0    0 -0.29569157756E+02 -0.20493707700E+02 -0.80642858360E+01  0.36869497579E+02  0.00000000000E+00 0. -1.
</event>
<event>
 7    1  0.6246445E-012  0.5930198E+02  0.7816164E-02  0.1266605E+00
        -11   -1    0    0    0    0  0.00000000000E+00  0.00000000000E+00  0.45593999997E+02  0.45594000000E+02  0.51100000000E-03 0.  1.
         11   -1    0    0    0    0 -0.00000000000E+00 -0.00000000000E+00 -0.45593999997E+02  0.45594000000E+02  0.51100000000E-03 0. -1.
    9900012    2    1    2    0    0 -0.11520518676E+02  0.29418508661E+02  0.43066494182E+01  0.59301980625E+02  0.50000066744E+02 0.  0.
         12    1    1    2    0    0  0.11520518676E+02 -0.29418508661E+02 -0.43066494182E+01  0.31886019375E+02  0.00000000000E+00 0. -1.
         11    1    3    3    0    0  0.67998912652E+01 -0.95296463757E+01 -0.53923344962E+01  0.12889140889E+02  0.51100000000E-03 0. -1.
        -11    1    3    3    0    0 -0.66790435498E+01  0.25376908586E+01  0.19928629596E+01  0.74176142169E+01  0.51100000000E-03 0.  1.
        -12    1    3    3    0    0 -0.11641366392E+02  0.36410464178E+02  0.77061209548E+01  0.38995225519E+02  0.00000000000E+00 0.  1.
</event>
<event>
 7    1  0.6246445E-012  0.5930194E+02  0.7816164E-02  0.1266605E+00
        -11   -1    0    0    0    0  0.00000000000E+00  0.00000000000E+00  0.45593999997E+02  0.45594000000E+02  0.51100000000E-03 0.  1.
         11   -1    0    0    0    0 -0.00000000000E+00 -0.00000000000E+00 -0.45593999997E+02  0.45594000000E+02  0.51100000000E-03 0. -1.
    9900012    2    1    2    0    0 -0.14410877423E+01  0.31484484106E+02  0.48343792644E+01  0.59301941978E+02  0.49999996263E+02 0.  0.
         12    1    1    2    0    0  0.14410877423E+01 -0.31484484106E+02 -0.48343792644E+01  0.31886058022E+02  0.00000000000E+00 0. -1.
         11    1    3    3    0    0 -0.69395834868E+01  0.24740868279E+02 -0.99287530274E+01  0.27547205287E+02  0.51100000000E-03 0. -1.
        -11    1    3    3    0    0  0.23486700319E+01  0.10533943577E+02 -0.46310178925E+01  0.11744213264E+02  0.51100000000E-03 0.  1.
         12    1    3    3    0    0  0.31498257126E+01 -0.37903277508E+01  0.19394150184E+02  0.20010523428E+02  0.00000000000E+00 0. -1.
</event>
<event>
 7    1  0.6246445E-012  0.5930195E+02  0.7816164E-02  0.1266605E+00
        -11   -1    0    0    0    0  0.00000000000E+00  0.00000000000E+00  0.45593999997E+02  0.45594000000E+02  0.51100000000E-03 0.  1.
         11   -1    0    0    0    0 -0.00000000000E+00 -0.00000000000E+00 -0.45593999997E+02  0.45594000000E+02  0.51100000000E-03 0. -1.
    9900012    2    1    2    0    0 -0.21409282882E+02 -0.19432875406E+02  0.13443442743E+02  0.59301949871E+02  0.50000010656E+02 0.  0.
         12    1    1    2    0    0  0.21409282882E+02  0.19432875406E+02 -0.13443442743E+02  0.31886050129E+02  0.00000000000E+00 0. -1.
         11    1    3    3    0    0 -0.81816524440E+01 -0.20467369929E+02 -0.40686509038E+01  0.22414428143E+02  0.51100000000E-03 0. -1.
        -11    1    3    3    0    0 -0.19678816470E+02 -0.80228214130E+00  0.17682714743E+01  0.19774383899E+02  0.51100000000E-03 0.  1.
        -12    1    3    3    0    0  0.64511860327E+01  0.18367766644E+01  0.15743822173E+02  0.17113137829E+02  0.00000000000E+00 0.  1.
</event>
<event>
 7    1  0.6246445E-012  0.5930194E+02  0.7816164E-02  0.1266605E+00
        -11   -1    0    0    0    0  0.00000000000E+00  0.00000000000E+00  0.45593999997E+02  0.45594000000E+02  0.51100000000E-03 0. -1.
         11   -1    0    0    0    0 -0.00000000000E+00 -0.00000000000E+00 -0.45593999997E+02  0.45594000000E+02  0.51100000000E-03 0.  1.
    9900012    2    1    2    0    0 -0.31357340948E+02  0.50872677733E+01  0.27491018321E+01  0.59301942143E+02  0.49999996564E+02 0.  0.
         12    1    1    2    0    0  0.31357340948E+02 -0.50872677733E+01 -0.27491018321E+01  0.31886057857E+02  0.00000000000E+00 0. -1.
         11    1    3    3    0    0  0.40921596102E+01 -0.12889746809E+01  0.11630928578E+01  0.44452234207E+01  0.51100000000E-03 0. -1.
        -11    1    3    3    0    0  0.28983183860E+01 -0.11668171397E+02 -0.24973368336E+01  0.12279379656E+02  0.51100000000E-03 0.  1.
        -12    1    3    3    0    0 -0.38347818944E+02  0.18044413851E+02  0.40833458080E+01  0.42577339067E+02  0.00000000000E+00 0.  1.
</event>
<event>
 7    1  0.6246445E-012  0.5930197E+02  0.7816164E-02  0.1266605E+00
        -11   -1    0    0    0    0  0.00000000000E+00  0.00000000000E+00  0.45593999997E+02  0.45594000000E+02  0.51100000000E-03 0.  1.
         11   -1    0    0    0    0 -0.00000000000E+00 -0.00000000000E+00 -0.45593999997E+02  0.45594000000E+02  0.51100000000E-03 0. -1.
    9900012    2    1    2    0    0 -0.22208492481E+02 -0.14912488611E+02  0.17352795174E+02  0.59301969278E+02  0.50000046051E+02 0.  0.
         12    1    1    2    0    0  0.22208492481E+02  0.14912488611E+02 -0.17352795174E+02  0.31886030722E+02  0.00000000000E+00 0. -1.
         11    1    3    3    0    0  0.46441534764E+01  0.57232829377E+01  0.12267834426E+02  0.14311669744E+02  0.51100000000E-03 0. -1.
        -11    1    3    3    0    0  0.52600764113E+01  0.27353036955E+00  0.40706511161E+01  0.66568328420E+01  0.51100000000E-03 0.  1.
        -12    1    3    3    0    0 -0.32112722368E+02 -0.20909301918E+02  0.10143096312E+01  0.38333466692E+02  0.00000000000E+00 0.  1.
</event>
<event>
 7    1  0.6246445E-012  0.5930196E+02  0.7816164E-02  0.1266605E+00
        -11   -1    0    0    0    0  0.00000000000E+00  0.00000000000E+00  0.45593999997E+02  0.45594000000E+02  0.51100000000E-03 0. -1.
         11   -1    0    0    0    0 -0.00000000000E+00 -0.00000000000E+00 -0.45593999997E+02  0.45594000000E+02  0.51100000000E-03 0.  1.
    9900012    2    1    2    0    0  0.27214597963E+02 -0.15630615684E+02  0.56364127844E+01  0.59301958571E+02  0.50000026524E+02 0.  0.
         12    1    1    2    0    0 -0.27214597963E+02  0.15630615684E+02 -0.56364127844E+01  0.31886041429E+02  0.00000000000E+00 0. -1.
         11    1    3    3    0    0 -0.44801152117E+01 -0.29900827257E+01 -0.39659604942E+01  0.66888616311E+01  0.51100000000E-03 0. -1.
        -11    1    3    3    0    0  0.26799242077E+02 -0.25625874174E+02  0.28743573950E+01  0.37190680738E+02  0.51100000000E-03 0.  1.
         12    1    3    3    0    0  0.48954710977E+01  0.12985341216E+02  0.67280158836E+01  0.15422416202E+02  0.00000000000E+00 0. -1.
</event>
<event>
 7    1  0.6246445E-012  0.5930194E+02  0.7816164E-02  0.1266605E+00
        -11   -1    0    0    0    0  0.00000000000E+00  0.00000000000E+00  0.45593999997E+02  0.45594000000E+02  0.51100000000E-03 0.  1.
         11   -1    0    0    0    0 -0.00000000000E+00 -0.00000000000E+00 -0.45593999997E+02  0.45594000000E+02  0.51100000000E-03 0. -1.
    9900012    2    1    2    0    0 -0.20766978430E+02  0.23682382206E+02  0.49596720330E+01  0.59301937735E+02  0.49999988524E+02 0.  0.
         12    1    1    2    0    0  0.20766978430E+02 -0.23682382206E+02 -0.49596720330E+01  0.31886062265E+02  0.00000000000E+00 0. -1.
         11    1    3    3    0    0  0.40512139973E+01  0.15824908250E+02  0.11580089370E+02  0.20023449405E+02  0.51100000000E-03 0. -1.
        -11    1    3    3    0    0  0.22239803701E+01  0.11079470350E+02 -0.21798089625E+00  0.11302577930E+02  0.51100000000E-03 0.  1.
        -12    1    3    3    0    0 -0.27042172798E+02 -0.32219963946E+01 -0.64024364410E+01  0.27975910401E+02  0.00000000000E+00 0.  1.
</event>
<event>
 7    1  0.6246445E-012  0.5930196E+02  0.7816164E-02  0.1266605E+00
        -11   -1    0    0    0    0  0.00000000000E+00  0.00000000000E+00  0.45593999997E+02  0.45594000000E+02  0.51100000000E-03 0.  1.
         11   -1    0    0    0    0 -0.00000000000E+00 -0.00000000000E+00 -0.45593999997E+02  0.45594000000E+02  0.51100000000E-03 0. -1.
    9900012    2    1    2    0    0  0.23453408501E+02 -0.21548410912E+02 -0.15242250291E+01  0.59301958460E+02  0.50000026321E+02 0.  0.
         12    1    1    2    0    0 -0.23453408501E+02  0.21548410912E+02  0.15242250291E+01  0.31886041540E+02  0.00000000000E+00 0. -1.
         11    1    3    3    0    0  0.10919401926E+02 -0.10332889709E+02 -0.27654710516E+01  0.15285606909E+02  0.51100000000E-03 0. -1.
        -11    1    3    3    0    0  0.10960043454E+02 -0.18032381937E+02  0.16789730497E+02  0.26966356841E+02  0.51100000000E-03 0.  1.
        -12    1    3    3    0    0  0.15739631205E+01  0.68168607347E+01 -0.15548484474E+02  0.17049994710E+02  0.00000000000E+00 0.  1.
</event>
<event>
 7    1  0.6246445E-012  0.5930196E+02  0.7816164E-02  0.1266605E+00
        -11   -1    0    0    0    0  0.00000000000E+00  0.00000000000E+00  0.45593999997E+02  0.45594000000E+02  0.51100000000E-03 0.  1.
         11   -1    0    0    0    0 -0.00000000000E+00 -0.00000000000E+00 -0.45593999997E+02  0.45594000000E+02  0.51100000000E-03 0. -1.
    9900012    2    1    2    0    0  0.55824621608E+01 -0.34384507201E+01  0.31204694550E+02  0.59301956202E+02  0.50000022203E+02 0.  0.
         12    1    1    2    0    0 -0.55824621608E+01  0.34384507201E+01 -0.31204694550E+02  0.31886043798E+02  0.00000000000E+00 0. -1.
         11    1    3    3    0    0  0.18318335950E+01 -0.74328959915E+01 -0.61093285204E+01  0.97942560907E+01  0.51100000000E-03 0. -1.
        -11    1    3    3    0    0 -0.10850631230E+02 -0.33883747503E+01  0.34192269550E+01  0.11870484184E+02  0.51100000000E-03 0.  1.
         12    1    3    3    0    0  0.14601259795E+02  0.73828200217E+01  0.33894796115E+02  0.37637215928E+02  0.00000000000E+00 0. -1.
</event>
<event>
 7    1  0.6246445E-012  0.5930195E+02  0.7816164E-02  0.1266605E+00
        -11   -1    0    0    0    0  0.00000000000E+00  0.00000000000E+00  0.45593999997E+02  0.45594000000E+02  0.51100000000E-03 0.  1.
         11   -1    0    0    0    0 -0.00000000000E+00 -0.00000000000E+00 -0.45593999997E+02  0.45594000000E+02  0.51100000000E-03 0. -1.
    9900012    2    1    2    0    0  0.13944005712E+02  0.19302107364E+02  0.21206455055E+02  0.59301946936E+02  0.50000005303E+02 0.  0.
         12    1    1    2    0    0 -0.13944005712E+02 -0.19302107364E+02 -0.21206455055E+02  0.31886053064E+02  0.00000000000E+00 0. -1.
         11    1    3    3    0    0  0.90506494546E+01  0.13522500389E+01  0.12249785539E+02  0.15290522611E+02  0.51100000000E-03 0. -1.
        -11    1    3    3    0    0  0.18043350137E+02  0.99154081347E+01  0.16934943484E+02  0.26658396683E+02  0.51100000000E-03 0.  1.
         12    1    3    3    0    0 -0.13149993879E+02  0.80344491909E+01 -0.79782739677E+01  0.17353027641E+02  0.00000000000E+00 0. -1.
</event>
<event>
 7    1  0.6246445E-012  0.5930204E+02  0.7816164E-02  0.1266604E+00
        -11   -1    0    0    0    0  0.00000000000E+00  0.00000000000E+00  0.45593999997E+02  0.45594000000E+02  0.51100000000E-03 0.  1.
         11   -1    0    0    0    0 -0.00000000000E+00 -0.00000000000E+00 -0.45593999997E+02  0.45594000000E+02  0.51100000000E-03 0. -1.
    9900012    2    1    2    0    0 -0.68204385691E+01 -0.28903958422E+02  0.11608499021E+02  0.59302040014E+02  0.50000175055E+02 0.  0.
         12    1    1    2    0    0  0.68204385691E+01  0.28903958422E+02 -0.11608499021E+02  0.31885959986E+02  0.00000000000E+00 0. -1.
         11    1    3    3    0    0 -0.33807802944E+01 -0.81127815562E+01  0.20131842468E+02  0.21966747174E+02  0.51100000000E-03 0. -1.
        -11    1    3    3    0    0 -0.40133250581E+01 -0.54294894292E+01  0.10742521360E+02  0.12688100682E+02  0.51100000000E-03 0.  1.
         12    1    3    3    0    0  0.57366678342E+00 -0.15361687436E+02 -0.19265864808E+02  0.24647192158E+02  0.00000000000E+00 0. -1.
</event>
<event>
 7    1  0.6246445E-012  0.5930194E+02  0.7816164E-02  0.1266605E+00
        -11   -1    0    0    0    0  0.00000000000E+00  0.00000000000E+00  0.45593999997E+02  0.45594000000E+02  0.51100000000E-03 0. -1.
         11   -1    0    0    0    0 -0.00000000000E+00 -0.00000000000E+00 -0.45593999997E+02  0.45594000000E+02  0.51100000000E-03 0.  1.
    9900012    2    1    2    0    0  0.21966858407E+02 -0.69884082791E+01 -0.22030429782E+02  0.59301944193E+02  0.50000000302E+02 0.  0.
         12    1    1    2    0    0 -0.21966858407E+02  0.69884082791E+01  0.22030429782E+02  0.31886055807E+02  0.00000000000E+00 0. -1.
         11    1    3    3    0    0 -0.13454724387E+02 -0.47899358515E+01 -0.14084971647E+02  0.20058901275E+02  0.51100000000E-03 0. -1.
        -11    1    3    3    0    0  0.12366185763E+02 -0.10264348375E+01  0.42729538902E+01  0.13123804860E+02  0.51100000000E-03 0.  1.
        -12    1    3    3    0    0  0.23055397031E+02 -0.11720375901E+01 -0.12218412025E+02  0.26119238059E+02  0.00000000000E+00 0.  1.
</event>
<event>
 7    1  0.6246445E-012  0.5930225E+02  0.7816164E-02  0.1266604E+00
        -11   -1    0    0    0    0  0.00000000000E+00  0.00000000000E+00  0.45593999997E+02  0.45594000000E+02  0.51100000000E-03 0. -1.
         11   -1    0    0    0    0 -0.00000000000E+00 -0.00000000000E+00 -0.45593999997E+02  0.45594000000E+02  0.51100000000E-03 0.  1.
    9900012    2    1    2    0    0  0.26351021311E+02 -0.14682650719E+01  0.17893258557E+02  0.59302253526E+02  0.50000564447E+02 0.  0.
         12    1    1    2    0    0 -0.26351021311E+02  0.14682650719E+01 -0.17893258557E+02  0.31885746474E+02  0.00000000000E+00 0. -1.
         11    1    3    3    0    0 -0.37021095489E+01 -0.17596443105E+01  0.77831958389E+01  0.87965959859E+01  0.51100000000E-03 0. -1.
        -11    1    3    3    0    0 -0.10803816652E+01  0.15006590627E+02  0.28625380514E+01  0.15315322757E+02  0.51100000000E-03 0.  1.
        -12    1    3    3    0    0  0.31133512525E+02 -0.14715211388E+02  0.72475246665E+01  0.35190334783E+02  0.00000000000E+00 0.  1.
</event>
<event>
 7    1  0.6246445E-012  0.5930195E+02  0.7816164E-02  0.1266605E+00
        -11   -1    0    0    0    0  0.00000000000E+00  0.00000000000E+00  0.45593999997E+02  0.45594000000E+02  0.51100000000E-03 0. -1.
         11   -1    0    0    0    0 -0.00000000000E+00 -0.00000000000E+00 -0.45593999997E+02  0.45594000000E+02  0.51100000000E-03 0.  1.
    9900012    2    1    2    0    0 -0.20376839551E+01  0.16770614995E+02 -0.27042832262E+02  0.59301945682E+02  0.50000003017E+02 0.  0.
         12    1    1    2    0    0  0.20376839551E+01 -0.16770614995E+02  0.27042832262E+02  0.31886054318E+02  0.00000000000E+00 0. -1.
         11    1    3    3    0    0  0.12001075294E+02  0.67305729331E+01 -0.80126870693E+01  0.15922612052E+02  0.51100000000E-03 0. -1.
        -11    1    3    3    0    0 -0.53947262967E+01  0.22418751817E+02 -0.70704934723E+01  0.24118361948E+02  0.51100000000E-03 0.  1.
         12    1    3    3    0    0 -0.86440329525E+01 -0.12378709755E+02 -0.11959651721E+02  0.19260971682E+02  0.00000000000E+00 0. -1.
</event>
<event>
 7    1  0.6488844E-012  0.5930197E+02  0.7816164E-02  0.1266605E+00
        -11   -1    0    0    0    0  0.00000000000E+00  0.00000000000E+00  0.45593999997E+02  0.45594000000E+02  0.51100000000E-03 0. -1.
         11   -1    0    0    0    0 -0.00000000000E+00 -0.00000000000E+00 -0.45593999997E+02  0.45594000000E+02  0.51100000000E-03 0.  1.
    9900012    2    1    2    0    0  0.30108336006E+02  0.15210691869E+01  0.10387185146E+02  0.59301966007E+02  0.50000040085E+02 0.  0.
         12    1    1    2    0    0 -0.30108336006E+02 -0.15210691869E+01 -0.10387185146E+02  0.31886033993E+02  0.00000000000E+00 0. -1.
         11    1    3    3    0    0 -0.33927351420E+00 -0.68640523186E+01  0.58559757375E+01  0.90289962260E+01  0.51100000000E-03 0. -1.
        -11    1    3    3    0    0  0.26597066418E+02 -0.10724720175E+02 -0.40710072027E+01  0.28965439144E+02  0.51100000000E-03 0.  1.
         12    1    3    3    0    0  0.38505431020E+01  0.19109841680E+02  0.86022166113E+01  0.21307530637E+02  0.00000000000E+00 0. -1.
</event>
<event>
 7    1  0.6246445E-012  0.5930194E+02  0.7816164E-02  0.1266605E+00
        -11   -1    0    0    0    0  0.00000000000E+00  0.00000000000E+00  0.45593999997E+02  0.45594000000E+02  0.51100000000E-03 0.  1.
         11   -1    0    0    0    0 -0.00000000000E+00 -0.00000000000E+00 -0.45593999997E+02  0.45594000000E+02  0.51100000000E-03 0. -1.
    9900012    2    1    2    0    0 -0.96153411744E+01 -0.27839679023E+02  0.12215497848E+02  0.59301938755E+02  0.49999990384E+02 0.  0.
         12    1    1    2    0    0  0.96153411744E+01  0.27839679023E+02 -0.12215497848E+02  0.31886061245E+02  0.00000000000E+00 0. -1.
         11    1    3    3    0    0  0.63906889184E+01 -0.94629063398E+00 -0.95122540343E+01  0.11498667222E+02  0.51100000000E-03 0. -1.
        -11    1    3    3    0    0 -0.77098820586E+01 -0.23136106713E+02  0.15556632669E+00  0.24387413072E+02  0.51100000000E-03 0.  1.
        -12    1    3    3    0    0 -0.82961480342E+01 -0.37572816759E+01  0.21572185556E+02  0.23415858461E+02  0.00000000000E+00 0.  1.
</event>
<event>
 7    1  0.6246445E-012  0.5930196E+02  0.7816164E-02  0.1266605E+00
        -11   -1    0    0    0    0  0.00000000000E+00  0.00000000000E+00  0.45593999997E+02  0.45594000000E+02  0.51100000000E-03 0.  1.
         11   -1    0    0    0    0 -0.00000000000E+00 -0.00000000000E+00 -0.45593999997E+02  0.45594000000E+02  0.51100000000E-03 0. -1.
    9900012    2    1    2    0    0 -0.21377428265E+02 -0.16425468273E+02  0.17027309161E+02  0.59301957529E+02  0.50000024623E+02 0.  0.
         12    1    1    2    0    0  0.21377428265E+02  0.16425468273E+02 -0.17027309161E+02  0.31886042471E+02  0.00000000000E+00 0. -1.
         11    1    3    3    0    0 -0.23058957244E+02 -0.23851246701E+02  0.27165374510E+02  0.42878375096E+02  0.51100000000E-03 0. -1.
        -11    1    3    3    0    0  0.45810578095E+01 -0.36872156049E+00 -0.39013767988E+01  0.60284979415E+01  0.51100000000E-03 0.  1.
        -12    1    3    3    0    0 -0.28995288306E+01  0.77944999884E+01 -0.62366885507E+01  0.10395084492E+02  0.00000000000E+00 0.  1.
</event>
<event>
 7    1  0.6246445E-012  0.5930189E+02  0.7816164E-02  0.1266605E+00
        -11   -1    0    0    0    0  0.00000000000E+00  0.00000000000E+00  0.45593999997E+02  0.45594000000E+02  0.51100000000E-03 0.  1.
         11   -1    0    0    0    0 -0.00000000000E+00 -0.00000000000E+00 -0.45593999997E+02  0.45594000000E+02  0.51100000000E-03 0. -1.
    9900012    2    1    2    0    0  0.79468666771E+01  0.23937692667E+02  0.19507904112E+02  0.59301887929E+02  0.49999897689E+02 0.  0.
         12    1    1    2    0    0 -0.79468666771E+01 -0.23937692667E+02 -0.19507904112E+02  0.31886112071E+02  0.00000000000E+00 0. -1.
         11    1    3    3    0    0  0.81881835532E+01  0.83981773419E+01  0.24800440671E+02  0.27434241202E+02  0.51100000000E-03 0. -1.
        -11    1    3    3    0    0 -0.30508112694E+01  0.12383165576E+02  0.98704500725E+01  0.16126872728E+02  0.51100000000E-03 0.  1.
         12    1    3    3    0    0  0.28094943933E+01  0.31563497490E+01 -0.15162986632E+02  0.15740773999E+02  0.00000000000E+00 0. -1.
</event>
<event>
 7    1  0.6246445E-012  0.5930195E+02  0.7816164E-02  0.1266605E+00
        -11   -1    0    0    0    0  0.00000000000E+00  0.00000000000E+00  0.45593999997E+02  0.45594000000E+02  0.51100000000E-03 0. -1.
         11   -1    0    0    0    0 -0.00000000000E+00 -0.00000000000E+00 -0.45593999997E+02  0.45594000000E+02  0.51100000000E-03 0.  1.
    9900012    2    1    2    0    0  0.15488145457E+01  0.17135057584E+02 -0.26846068319E+02  0.59301946480E+02  0.50000004472E+02 0.  0.
         12    1    1    2    0    0 -0.15488145457E+01 -0.17135057584E+02  0.26846068319E+02  0.31886053520E+02  0.00000000000E+00 0. -1.
         11    1    3    3    0    0  0.29504357750E+01 -0.19350919621E+00  0.47805228614E+01  0.56210244761E+01  0.51100000000E-03 0. -1.
        -11    1    3    3    0    0  0.23098067142E+01 -0.84712937658E+01  0.39084411792E+01  0.96111361366E+01  0.51100000000E-03 0.  1.
        -12    1    3    3    0    0 -0.37114279435E+01  0.25799860547E+02 -0.35535032359E+02  0.44069785867E+02  0.00000000000E+00 0.  1.
</event>
<event>
 7    1  0.6246445E-012  0.5930185E+02  0.7816164E-02  0.1266605E+00
        -11   -1    0    0    0    0  0.00000000000E+00  0.00000000000E+00  0.45593999997E+02  0.45594000000E+02  0.51100000000E-03 0.  1.
         11   -1    0    0    0    0 -0.00000000000E+00 -0.00000000000E+00 -0.45593999997E+02  0.45594000000E+02  0.51100000000E-03 0. -1.
    9900012    2    1    2    0    0 -0.51633187687E+01 -0.31323861309E+02  0.29803690202E+01  0.59301847089E+02  0.49999823206E+02 0.  0.
         12    1    1    2    0    0  0.51633187687E+01  0.31323861309E+02 -0.29803690202E+01  0.31886152911E+02  0.00000000000E+00 0. -1.
         11    1    3    3    0    0 -0.10600354685E+02 -0.15121878081E+02 -0.24025793840E+01  0.18622865088E+02  0.51100000000E-03 0. -1.
        -11    1    3    3    0    0 -0.59428361749E+01 -0.67075294569E+00  0.17116559556E+02  0.18131294014E+02  0.51100000000E-03 0.  1.
         12    1    3    3    0    0  0.11379872091E+02 -0.15531230282E+02 -0.11733611152E+02  0.22547687986E+02  0.00000000000E+00 0. -1.
</event>
<event>
 7    1  0.6246445E-012  0.5930196E+02  0.7816164E-02  0.1266605E+00
        -11   -1    0    0    0    0  0.00000000000E+00  0.00000000000E+00  0.45593999997E+02  0.45594000000E+02  0.51100000000E-03 0. -1.
         11   -1    0    0    0    0 -0.00000000000E+00 -0.00000000000E+00 -0.45593999997E+02  0.45594000000E+02  0.51100000000E-03 0.  1.
    9900012    2    1    2    0    0  0.47116360010E+00  0.25820718463E+02 -0.18702619188E+02  0.59301961338E+02  0.50000031569E+02 0.  0.
         12    1    1    2    0    0 -0.47116360010E+00 -0.25820718463E+02  0.18702619188E+02  0.31886038662E+02  0.00000000000E+00 0. -1.
         11    1    3    3    0    0 -0.41797656887E+00 -0.65724312525E+01 -0.28844896523E+01  0.71897035959E+01  0.51100000000E-03 0. -1.
        -11    1    3    3    0    0 -0.11077742582E+02  0.80165038819E+01 -0.20413932469E+02  0.24570497641E+02  0.51100000000E-03 0.  1.
        -12    1    3    3    0    0  0.11966882751E+02  0.24376645833E+02  0.45958029333E+01  0.27541760101E+02  0.00000000000E+00 0.  1.
</event>
<event>
 7    1  0.6246445E-012  0.5930193E+02  0.7816164E-02  0.1266605E+00
        -11   -1    0    0    0    0  0.00000000000E+00  0.00000000000E+00  0.45593999997E+02  0.45594000000E+02  0.51100000000E-03 0.  1.
         11   -1    0    0    0    0 -0.00000000000E+00 -0.00000000000E+00 -0.45593999997E+02  0.45594000000E+02  0.51100000000E-03 0. -1.
    9900012    2    1    2    0    0 -0.26162267486E+02 -0.40296370190E+01  0.17776926511E+02  0.59301932029E+02  0.49999978117E+02 0.  0.
         12    1    1    2    0    0  0.26162267486E+02  0.40296370190E+01 -0.17776926511E+02  0.31886067971E+02  0.00000000000E+00 0. -1.
         11    1    3    3    0    0  0.12666377874E+01  0.26001342894E+01  0.16858975641E+01  0.33477336312E+01  0.51100000000E-03 0. -1.
        -11    1    3    3    0    0 -0.55474499619E+01  0.10073817862E+02  0.24587858943E+02  0.27144406700E+02  0.51100000000E-03 0.  1.
        -12    1    3    3    0    0 -0.21881455311E+02 -0.16703589170E+02 -0.84968299969E+01  0.28809791698E+02  0.00000000000E+00 0.  1.
</event>
<event>
 7    1  0.6246445E-012  0.5930191E+02  0.7816164E-02  0.1266605E+00
        -11   -1    0    0    0    0  0.00000000000E+00  0.00000000000E+00  0.45593999997E+02  0.45594000000E+02  0.51100000000E-03 0.  1.
         11   -1    0    0    0    0 -0.00000000000E+00 -0.00000000000E+00 -0.45593999997E+02  0.45594000000E+02  0.51100000000E-03 0. -1.
    9900012    2    1    2    0    0 -0.11152620478E+02 -0.78622839919E+01  0.28818850141E+02  0.59301912492E+02  0.49999942487E+02 0.  0.
         12    1    1    2    0    0  0.11152620478E+02  0.78622839919E+01 -0.28818850141E+02  0.31886087508E+02  0.00000000000E+00 0. -1.
         11    1    3    3    0    0  0.17928659428E+01 -0.44804511480E+01  0.11303019194E+02  0.12290120176E+02  0.51100000000E-03 0. -1.
        -11    1    3    3    0    0 -0.37471988277E+00 -0.54316500361E+01  0.29214630842E+02  0.29717636054E+02  0.51100000000E-03 0.  1.
         12    1    3    3    0    0 -0.12570766538E+02  0.20498171922E+01 -0.11698799895E+02  0.17294156263E+02  0.00000000000E+00 0. -1.
</event>
<event>
 7    1  0.6246445E-012  0.5930194E+02  0.7816164E-02  0.1266605E+00
        -11   -1    0    0    0    0  0.00000000000E+00  0.00000000000E+00  0.45593999997E+02  0.45594000000E+02  0.51100000000E-03 0. -1.
         11   -1    0    0    0    0 -0.00000000000E+00 -0.00000000000E+00 -0.45593999997E+02  0.45594000000E+02  0.51100000000E-03 0.  1.
    9900012    2    1    2    0    0 -0.73033428324E+01  0.20374213266E+02 -0.23415235499E+02  0.59301942919E+02  0.49999997977E+02 0.  0.
         12    1    1    2    0    0  0.73033428324E+01 -0.20374213266E+02  0.23415235499E+02  0.31886057081E+02  0.00000000000E+00 0. -1.
         11    1    3    3    0    0 -0.10274339131E+02 -0.68482080255E+01 -0.10678420886E+02  0.16324480715E+02  0.51100000000E-03 0. -1.
        -11    1    3    3    0    0  0.14233015784E+02  0.68535085466E+01 -0.11738612502E+02  0.19681065556E+02  0.51100000000E-03 0.  1.
         12    1    3    3    0    0 -0.11262019485E+02  0.20368912745E+02 -0.99820211105E+00  0.23296396647E+02  0.00000000000E+00 0. -1.
</event>
<event>
 7    1  0.6246445E-012  0.5930198E+02  0.7816164E-02  0.1266605E+00
        -11   -1    0    0    0    0  0.00000000000E+00  0.00000000000E+00  0.45593999997E+02  0.45594000000E+02  0.51100000000E-03 0. -1.
         11   -1    0    0    0    0 -0.00000000000E+00 -0.00000000000E+00 -0.45593999997E+02  0.45594000000E+02  0.51100000000E-03 0.  1.
    9900012    2    1    2    0    0 -0.42269207303E+01  0.63855025451E+01 -0.30952818468E+02  0.59301976844E+02  0.50000059848E+02 0.  0.
         12    1    1    2    0    0  0.42269207303E+01 -0.63855025451E+01  0.30952818468E+02  0.31886023156E+02  0.00000000000E+00 0. -1.
         11    1    3    3    0    0  0.24915935666E+01  0.17201967141E+01  0.68880462628E+01  0.75241143543E+01  0.51100000000E-03 0. -1.
        -11    1    3    3    0    0  0.29496567217E+01 -0.91843826630E+01  0.72684110794E+00  0.96737613126E+01  0.51100000000E-03 0.  1.
        -12    1    3    3    0    0 -0.96681710186E+01  0.13849688494E+02 -0.38567705839E+02  0.42104101177E+02  0.00000000000E+00 0.  1.
</event>
<event>
 7    1  0.6246445E-012  0.5930194E+02  0.7816164E-02  0.1266605E+00
        -11   -1    0    0    0    0  0.00000000000E+00  0.00000000000E+00  0.45593999997E+02  0.45594000000E+02  0.51100000000E-03 0. -1.
         11   -1    0    0    0    0 -0.00000000000E+00 -0.00000000000E+00 -0.45593999997E+02  0.45594000000E+02  0.51100000000E-03 0.  1.
    9900012    2    1    2    0    0  0.83113990965E+01  0.26547419474E+02 -0.15584468921E+02  0.59301944941E+02  0.50000001666E+02 0.  0.
         12    1    1    2    0    0 -0.83113990965E+01 -0.26547419474E+02  0.15584468921E+02  0.31886055059E+02  0.00000000000E+00 0. -1.
         11    1    3    3    0    0  0.46627462968E+01 -0.10631489622E+02 -0.31374462934E+01  0.12025528850E+02  0.51100000000E-03 0.  1.
        -11    1    3    3    0    0  0.63724744348E+01  0.18324278477E+02  0.64485656224E+01  0.20444354012E+02  0.51100000000E-03 0. -1.
        -12    1    3    3    0    0 -0.27238216351E+01  0.18854630619E+02 -0.18895588251E+02  0.26832062079E+02  0.00000000000E+00 0.  1.
</event>
<event>
 7    1  0.6246445E-012  0.5930193E+02  0.7816164E-02  0.1266605E+00
        -11   -1    0    0    0    0  0.00000000000E+00  0.00000000000E+00  0.45593999997E+02  0.45594000000E+02  0.51100000000E-03 0.  1.
         11   -1    0    0    0    0 -0.00000000000E+00 -0.00000000000E+00 -0.45593999997E+02  0.45594000000E+02  0.51100000000E-03 0. -1.
    9900012    2    1    2    0    0 -0.82551262849E+01 -0.30706789451E+02  0.23805957085E+01  0.59301933070E+02  0.49999980016E+02 0.  0.
         12    1    1    2    0    0  0.82551262849E+01  0.30706789451E+02 -0.23805957085E+01  0.31886066930E+02  0.00000000000E+00 0. -1.
         11    1    3    3    0    0 -0.16903652506E+02 -0.73832452744E+01  0.59213063029E+01  0.19372858525E+02  0.51100000000E-03 0. -1.
        -11    1    3    3    0    0  0.59622495758E+01 -0.11294009291E+02  0.13703898034E+02  0.18732321999E+02  0.51100000000E-03 0.  1.
        -12    1    3    3    0    0  0.26862766457E+01 -0.12029534885E+02 -0.17244608628E+02  0.21196752546E+02  0.00000000000E+00 0.  1.
</event>
<event>
 7    1  0.6246445E-012  0.5930192E+02  0.7816164E-02  0.1266605E+00
        -11   -1    0    0    0    0  0.00000000000E+00  0.00000000000E+00  0.45593999997E+02  0.45594000000E+02  0.51100000000E-03 0.  1.
         11   -1    0    0    0    0 -0.00000000000E+00 -0.00000000000E+00 -0.45593999997E+02  0.45594000000E+02  0.51100000000E-03 0. -1.
    9900012    2    1    2    0    0 -0.26202891138E+02  0.18018394933E+02  0.23383194868E+01  0.59301924701E+02  0.49999964752E+02 0.  0.
         12    1    1    2    0    0  0.26202891138E+02 -0.18018394933E+02 -0.23383194868E+01  0.31886075299E+02  0.00000000000E+00 0. -1.
         11    1    3    3    0    0 -0.52930825423E+01  0.29083252099E+01 -0.88359319396E+01  0.10702745995E+02  0.51100000000E-03 0. -1.
        -11    1    3    3    0    0 -0.30710391040E+02  0.97603928897E+01  0.16528929337E+02  0.36216003265E+02  0.51100000000E-03 0.  1.
         12    1    3    3    0    0  0.98005824443E+01  0.53496768339E+01 -0.53546779108E+01  0.12383175441E+02  0.00000000000E+00 0. -1.
</event>
<event>
 7    1  0.6246445E-012  0.5930194E+02  0.7816164E-02  0.1266605E+00
        -11   -1    0    0    0    0  0.00000000000E+00  0.00000000000E+00  0.45593999997E+02  0.45594000000E+02  0.51100000000E-03 0.  1.
         11   -1    0    0    0    0 -0.00000000000E+00 -0.00000000000E+00 -0.45593999997E+02  0.45594000000E+02  0.51100000000E-03 0. -1.
    9900012    2    1    2    0    0 -0.22808322643E+02 -0.11983534746E+02  0.18785537699E+02  0.59301935435E+02  0.49999984329E+02 0.  0.
         12    1    1    2    0    0  0.22808322643E+02  0.11983534746E+02 -0.18785537699E+02  0.31886064565E+02  0.00000000000E+00 0. -1.
         11    1    3    3    0    0 -0.49474125089E+01  0.61202271311E+00 -0.88867258490E+01  0.10189472946E+02  0.51100000000E-03 0. -1.
        -11    1    3    3    0    0  0.80402187625E+01 -0.12253663555E+02  0.93601677406E+01  0.17389943320E+02  0.51100000000E-03 0.  1.
        -12    1    3    3    0    0 -0.25901128897E+02 -0.34189390371E+00  0.18312095808E+02  0.31722519169E+02  0.00000000000E+00 0.  1.
</event>
<event>
 7    1  0.6246445E-012  0.5930195E+02  0.7816164E-02  0.1266605E+00
        -11   -1    0    0    0    0  0.00000000000E+00  0.00000000000E+00  0.45593999997E+02  0.45594000000E+02  0.51100000000E-03 0.  1.
         11   -1    0    0    0    0 -0.00000000000E+00 -0.00000000000E+00 -0.45593999997E+02  0.45594000000E+02  0.51100000000E-03 0. -1.
    9900012    2    1    2    0    0 -0.14347850343E+02  0.25182000052E+02  0.13293842941E+02  0.59301949818E+02  0.50000010560E+02 0.  0.
         12    1    1    2    0    0  0.14347850343E+02 -0.25182000052E+02 -0.13293842941E+02  0.31886050182E+02  0.00000000000E+00 0. -1.
         11    1    3    3    0    0  0.82137055326E+00 -0.48684653130E+01 -0.40362758839E+01  0.63771566832E+01  0.51100000000E-03 0. -1.
        -11    1    3    3    0    0  0.62839010370E+01  0.15314570324E+02 -0.63576612661E+01  0.17732550112E+02  0.51100000000E-03 0.  1.
        -12    1    3    3    0    0 -0.21453121933E+02  0.14735895041E+02  0.23687780091E+02  0.35192243023E+02  0.00000000000E+00 0.  1.
</event>
<event>
 7    1  0.6246445E-012  0.5930194E+02  0.7816164E-02  0.1266605E+00
        -11   -1    0    0    0    0  0.00000000000E+00  0.00000000000E+00  0.45593999997E+02  0.45594000000E+02  0.51100000000E-03 0.  1.
         11   -1    0    0    0    0 -0.00000000000E+00 -0.00000000000E+00 -0.45593999997E+02  0.45594000000E+02  0.51100000000E-03 0. -1.
    9900012    2    1    2    0    0  0.23928807252E+02 -0.11081283659E+02  0.17925900325E+02  0.59301944012E+02  0.49999999971E+02 0.  0.
         12    1    1    2    0    0 -0.23928807252E+02  0.11081283659E+02 -0.17925900325E+02  0.31886055988E+02  0.00000000000E+00 0. -1.
         11    1    3    3    0    0  0.27330090998E+02 -0.11562563856E+02  0.12908464987E+01  0.29703418016E+02  0.51100000000E-03 0. -1.
        -11    1    3    3    0    0  0.35124596355E+01 -0.26886331786E+01  0.20566445061E+02  0.21036748412E+02  0.51100000000E-03 0.  1.
         12    1    3    3    0    0 -0.69137433817E+01  0.31699133756E+01 -0.39313912342E+01  0.85617775838E+01  0.00000000000E+00 0. -1.
</event>
<event>
 7    1  0.6246445E-012  0.5930194E+02  0.7816164E-02  0.1266605E+00
        -11   -1    0    0    0    0  0.00000000000E+00  0.00000000000E+00  0.45593999997E+02  0.45594000000E+02  0.51100000000E-03 0. -1.
         11   -1    0    0    0    0 -0.00000000000E+00 -0.00000000000E+00 -0.45593999997E+02  0.45594000000E+02  0.51100000000E-03 0.  1.
    9900012    2    1    2    0    0 -0.20800712920E+02 -0.23186976085E+01 -0.24055660930E+02  0.59301939733E+02  0.49999992168E+02 0.  0.
         12    1    1    2    0    0  0.20800712920E+02  0.23186976085E+01  0.24055660930E+02  0.31886060267E+02  0.00000000000E+00 0. -1.
         11    1    3    3    0    0 -0.93947998291E+01 -0.48172584158E+01 -0.27116245237E+02  0.29099123672E+02  0.51100000000E-03 0.  1.
        -11    1    3    3    0    0 -0.99156383181E+01  0.87637545233E+01 -0.93619843765E+01  0.16210182859E+02  0.51100000000E-03 0. -1.
        -12    1    3    3    0    0 -0.14902747728E+01 -0.62651937161E+01  0.12422568684E+02  0.13992633201E+02  0.00000000000E+00 0.  1.
</event>
<event>
 7    1  0.7377938E-012  0.5930194E+02  0.7816164E-02  0.1266605E+00
        -11   -1    0    0    0    0  0.00000000000E+00  0.00000000000E+00  0.45593999997E+02  0.45594000000E+02  0.51100000000E-03 0.  1.
         11   -1    0    0    0    0 -0.00000000000E+00 -0.00000000000E+00 -0.45593999997E+02  0.45594000000E+02  0.51100000000E-03 0. -1.
    9900012    2    1    2    0    0  0.20508044573E+01 -0.31808336171E+02 -0.86288586045E+00  0.59301943158E+02  0.49999998414E+02 0.  0.
         12    1    1    2    0    0 -0.20508044573E+01  0.31808336171E+02  0.86288586045E+00  0.31886056842E+02  0.00000000000E+00 0. -1.
         11    1    3    3    0    0 -0.95889747917E+01 -0.39204037415E+01  0.38721312107E+01  0.11059448604E+02  0.51100000000E-03 0. -1.
        -11    1    3    3    0    0 -0.34923472515E+01 -0.32028641063E+02 -0.46610811549E+01  0.32553894013E+02  0.51100000000E-03 0.  1.
         12    1    3    3    0    0  0.15132126500E+02  0.41407086327E+01 -0.73935916309E-01  0.15688600541E+02  0.00000000000E+00 0. -1.
</event>
<event>
 7    1  0.9855990E-012  0.5930202E+02  0.7816164E-02  0.1266604E+00
        -11   -1    0    0    0    0  0.00000000000E+00  0.00000000000E+00  0.45593999997E+02  0.45594000000E+02  0.51100000000E-03 0. -1.
         11   -1    0    0    0    0 -0.00000000000E+00 -0.00000000000E+00 -0.45593999997E+02  0.45594000000E+02  0.51100000000E-03 0.  1.
    9900012    2    1    2    0    0  0.24885655101E+02 -0.92978471530E+01 -0.17634336308E+02  0.59302021757E+02  0.50000141760E+02 0.  0.
         12    1    1    2    0    0 -0.24885655101E+02  0.92978471530E+01  0.17634336308E+02  0.31885978243E+02  0.00000000000E+00 0. -1.
         11    1    3    3    0    0  0.18411587739E+02  0.69186583389E+01 -0.16580068218E+02  0.25724561389E+02  0.51100000000E-03 0. -1.
        -11    1    3    3    0    0  0.91100015924E+01 -0.29463088318E+01 -0.12576571812E+02  0.15806423490E+02  0.51100000000E-03 0.  1.
         12    1    3    3    0    0 -0.26359342304E+01 -0.13270196660E+02  0.11522303722E+02  0.17771036878E+02  0.00000000000E+00 0. -1.
</event>
<event>
 7    1  0.6246445E-012  0.5930194E+02  0.7816164E-02  0.1266605E+00
        -11   -1    0    0    0    0  0.00000000000E+00  0.00000000000E+00  0.45593999997E+02  0.45594000000E+02  0.51100000000E-03 0.  1.
         11   -1    0    0    0    0 -0.00000000000E+00 -0.00000000000E+00 -0.45593999997E+02  0.45594000000E+02  0.51100000000E-03 0. -1.
    9900012    2    1    2    0    0 -0.16279102596E+02  0.16777777997E+02  0.21684511701E+02  0.59301936217E+02  0.49999985754E+02 0.  0.
         12    1    1    2    0    0  0.16279102596E+02 -0.16777777997E+02 -0.21684511701E+02  0.31886063783E+02  0.00000000000E+00 0. -1.
         11    1    3    3    0    0 -0.63266066623E+01  0.14753583809E+02  0.28217427579E+02  0.32464094112E+02  0.51100000000E-03 0. -1.
        -11    1    3    3    0    0  0.41689154903E+01  0.92652055033E+01 -0.24360664832E+01  0.10447885411E+02  0.51100000000E-03 0.  1.
         12    1    3    3    0    0 -0.14121411424E+02 -0.72410113149E+01 -0.40968493943E+01  0.16389956694E+02  0.00000000000E+00 0. -1.
</event>
<event>
 7    1  0.6246445E-012  0.5930194E+02  0.7816164E-02  0.1266605E+00
        -11   -1    0    0    0    0  0.00000000000E+00  0.00000000000E+00  0.45593999997E+02  0.45594000000E+02  0.51100000000E-03 0.  1.
         11   -1    0    0    0    0 -0.00000000000E+00 -0.00000000000E+00 -0.45593999997E+02  0.45594000000E+02  0.51100000000E-03 0. -1.
    9900012    2    1    2    0    0 -0.26328767132E+02 -0.17232917015E+02 -0.51520579987E+01  0.59301935502E+02  0.49999984451E+02 0.  0.
         12    1    1    2    0    0  0.26328767132E+02  0.17232917015E+02  0.51520579987E+01  0.31886064498E+02  0.00000000000E+00 0. -1.
         11    1    3    3    0    0 -0.17885423153E+02 -0.12727473470E+02  0.11532817676E+02  0.24796830969E+02  0.51100000000E-03 0. -1.
        -11    1    3    3    0    0  0.26669502360E+01 -0.86781870991E+01  0.45679107824E+01  0.10163137511E+02  0.51100000000E-03 0.  1.
        -12    1    3    3    0    0 -0.11110294215E+02  0.41727435547E+01 -0.21252786457E+02  0.24341967022E+02  0.00000000000E+00 0.  1.
</event>
<event>
 7    1  0.6246445E-012  0.5930205E+02  0.7816164E-02  0.1266604E+00
        -11   -1    0    0    0    0  0.00000000000E+00  0.00000000000E+00  0.45593999997E+02  0.45594000000E+02  0.51100000000E-03 0.  1.
         11   -1    0    0    0    0 -0.00000000000E+00 -0.00000000000E+00 -0.45593999997E+02  0.45594000000E+02  0.51100000000E-03 0. -1.
    9900012    2    1    2    0    0 -0.83498116063E+01 -0.10942399683E+02  0.28762094456E+02  0.59302054159E+02  0.50000200852E+02 0.  0.
         12    1    1    2    0    0  0.83498116063E+01  0.10942399683E+02 -0.28762094456E+02  0.31885945841E+02  0.00000000000E+00 0. -1.
         11    1    3    3    0    0 -0.13973098474E+02 -0.59185619751E+01  0.30223038653E+00  0.15177885237E+02  0.51100000000E-03 0.  1.
        -11    1    3    3    0    0 -0.43595692292E+01 -0.17108497384E+02  0.18392640227E+02  0.25495014050E+02  0.51100000000E-03 0. -1.
         12    1    3    3    0    0  0.99828560966E+01  0.12084659676E+02  0.10067223842E+02  0.18629154872E+02  0.00000000000E+00 0. -1.
</event>
<event>
 7    1  0.6246445E-012  0.5930192E+02  0.7816164E-02  0.1266605E+00
        -11   -1    0    0    0    0  0.00000000000E+00  0.00000000000E+00  0.45593999997E+02  0.45594000000E+02  0.51100000000E-03 0. -1.
         11   -1    0    0    0    0 -0.00000000000E+00 -0.00000000000E+00 -0.45593999997E+02  0.45594000000E+02  0.51100000000E-03 0.  1.
    9900012    2    1    2    0    0 -0.19682570988E+02  0.64595189609E+01 -0.24240318163E+02  0.59301921368E+02  0.49999958674E+02 0.  0.
         12    1    1    2    0    0  0.19682570988E+02 -0.64595189609E+01  0.24240318163E+02  0.31886078632E+02  0.00000000000E+00 0. -1.
         11    1    3    3    0    0 -0.65522600433E+01  0.67262750185E+01  0.38902232207E+00  0.93982033351E+01  0.51100000000E-03 0. -1.
        -11    1    3    3    0    0 -0.84082673877E+01  0.16948407327E+02  0.68080700696E+00  0.18931745029E+02  0.51100000000E-03 0.  1.
        -12    1    3    3    0    0 -0.47220435568E+01 -0.17215163385E+02 -0.25310147492E+02  0.30971973004E+02  0.00000000000E+00 0.  1.
</event>
<event>
 7    1  0.6246445E-012  0.5930194E+02  0.7816164E-02  0.1266605E+00
        -11   -1    0    0    0    0  0.00000000000E+00  0.00000000000E+00  0.45593999997E+02  0.45594000000E+02  0.51100000000E-03 0.  1.
         11   -1    0    0    0    0 -0.00000000000E+00 -0.00000000000E+00 -0.45593999997E+02  0.45594000000E+02  0.51100000000E-03 0. -1.
    9900012    2    1    2    0    0  0.85899211521E+01  0.24306415784E+02  0.18765190378E+02  0.59301937785E+02  0.49999988615E+02 0.  0.
         12    1    1    2    0    0 -0.85899211521E+01 -0.24306415784E+02 -0.18765190378E+02  0.31886062215E+02  0.00000000000E+00 0. -1.
         11    1    3    3    0    0  0.88542275465E+01  0.23180837101E+01 -0.52578225852E+01  0.10555356751E+02  0.51100000000E-03 0. -1.
        -11    1    3    3    0    0  0.17839108125E+02  0.11784010968E+02  0.14848180633E+02  0.26030081858E+02  0.51100000000E-03 0.  1.
         12    1    3    3    0    0 -0.18103414520E+02  0.10204321106E+02  0.91748323303E+01  0.22716499176E+02  0.00000000000E+00 0. -1.
</event>
<event>
 7    1  0.6246445E-012  0.5930198E+02  0.7816164E-02  0.1266605E+00
        -11   -1    0    0    0    0  0.00000000000E+00  0.00000000000E+00  0.45593999997E+02  0.45594000000E+02  0.51100000000E-03 0.  1.
         11   -1    0    0    0    0 -0.00000000000E+00 -0.00000000000E+00 -0.45593999997E+02  0.45594000000E+02  0.51100000000E-03 0. -1.
    9900012    2    1    2    0    0  0.68372416036E+01 -0.79391721463E+01  0.30115445017E+02  0.59301978679E+02  0.50000063196E+02 0.  0.
         12    1    1    2    0    0 -0.68372416036E+01  0.79391721463E+01 -0.30115445017E+02  0.31886021321E+02  0.00000000000E+00 0. -1.
         11    1    3    3    0    0 -0.39037323484E+01  0.56314812900E+01  0.18810281138E+02  0.20019475131E+02  0.51100000000E-03 0. -1.
        -11    1    3    3    0    0  0.21035923068E+01  0.57386836836E+01  0.16419232589E+02  0.17519954055E+02  0.51100000000E-03 0.  1.
         12    1    3    3    0    0  0.86373816452E+01 -0.19309337120E+02 -0.51140687098E+01  0.21762549494E+02  0.00000000000E+00 0. -1.
</event>
<event>
 7    1  0.6246445E-012  0.5930194E+02  0.7816164E-02  0.1266605E+00
        -11   -1    0    0    0    0  0.00000000000E+00  0.00000000000E+00  0.45593999997E+02  0.45594000000E+02  0.51100000000E-03 0.  1.
         11   -1    0    0    0    0 -0.00000000000E+00 -0.00000000000E+00 -0.45593999997E+02  0.45594000000E+02  0.51100000000E-03 0. -1.
    9900012    2    1    2    0    0  0.13604510332E+02 -0.25864802766E+02  0.12753441086E+02  0.59301937480E+02  0.49999988058E+02 0.  0.
         12    1    1    2    0    0 -0.13604510332E+02  0.25864802766E+02 -0.12753441086E+02  0.31886062520E+02  0.00000000000E+00 0. -1.
         11    1    3    3    0    0 -0.13595181416E+02 -0.16164008898E+01  0.18897812314E+01  0.13820744660E+02  0.51100000000E-03 0. -1.
        -11    1    3    3    0    0  0.10072786039E+02 -0.24464997481E+02  0.10151439170E+02  0.28338116343E+02  0.51100000000E-03 0.  1.
        -12    1    3    3    0    0  0.17126905709E+02  0.21659560491E+00  0.71222068433E+00  0.17143076478E+02  0.00000000000E+00 0.  1.
</event>
<event>
 7    1  0.6246445E-012  0.5930207E+02  0.7816164E-02  0.1266604E+00
        -11   -1    0    0    0    0  0.00000000000E+00  0.00000000000E+00  0.45593999997E+02  0.45594000000E+02  0.51100000000E-03 0.  1.
         11   -1    0    0    0    0 -0.00000000000E+00 -0.00000000000E+00 -0.45593999997E+02  0.45594000000E+02  0.51100000000E-03 0. -1.
    9900012    2    1    2    0    0  0.13701339610E+02  0.59526131424E+01  0.28170056257E+02  0.59302072385E+02  0.50000234092E+02 0.  0.
         12    1    1    2    0    0 -0.13701339610E+02 -0.59526131424E+01 -0.28170056257E+02  0.31885927615E+02  0.00000000000E+00 0. -1.
         11    1    3    3    0    0  0.18034656136E+01  0.93487342857E+01  0.19266612791E+01  0.97140797253E+01  0.51100000000E-03 0. -1.
        -11    1    3    3    0    0  0.12369015580E+02  0.12127846795E+01  0.36379180357E+02  0.38443571072E+02  0.51100000000E-03 0.  1.
         12    1    3    3    0    0 -0.47114158336E+00 -0.46089058228E+01 -0.10135785379E+02  0.11144421587E+02  0.00000000000E+00 0. -1.
</event>
<event>
 7    1  0.6246445E-012  0.5930194E+02  0.7816164E-02  0.1266605E+00
        -11   -1    0    0    0    0  0.00000000000E+00  0.00000000000E+00  0.45593999997E+02  0.45594000000E+02  0.51100000000E-03 0. -1.
         11   -1    0    0    0    0 -0.00000000000E+00 -0.00000000000E+00 -0.45593999997E+02  0.45594000000E+02  0.51100000000E-03 0.  1.
    9900012    2    1    2    0    0  0.48134708795E+01  0.23136592811E+02 -0.21406763295E+02  0.59301938099E+02  0.49999989187E+02 0.  0.
         12    1    1    2    0    0 -0.48134708795E+01 -0.23136592811E+02  0.21406763295E+02  0.31886061901E+02  0.00000000000E+00 0. -1.
         11    1    3    3    0    0 -0.51464136969E+01  0.93391268865E+01 -0.59631784014E+01  0.12217379500E+02  0.51100000000E-03 0. -1.
        -11    1    3    3    0    0  0.15641308081E+02  0.25192159253E+02 -0.39187056280E+01  0.29910728182E+02  0.51100000000E-03 0.  1.
        -12    1    3    3    0    0 -0.56814235042E+01 -0.11394693329E+02 -0.11524879265E+02  0.17173830416E+02  0.00000000000E+00 0.  1.
</event>
<event>
 7    1  0.6246445E-012  0.5930194E+02  0.7816164E-02  0.1266605E+00
        -11   -1    0    0    0    0  0.00000000000E+00  0.00000000000E+00  0.45593999997E+02  0.45594000000E+02  0.51100000000E-03 0. -1.
         11   -1    0    0    0    0 -0.00000000000E+00 -0.00000000000E+00 -0.45593999997E+02  0.45594000000E+02  0.51100000000E-03 0.  1.
    9900012    2    1    2    0    0 -0.30653808612E+02  0.85657320990E+01  0.19217922706E+01  0.59301936676E+02  0.49999986592E+02 0.  0.
         12    1    1    2    0    0  0.30653808612E+02 -0.85657320990E+01 -0.19217922706E+01  0.31886063324E+02  0.00000000000E+00 0. -1.
         11    1    3    3    0    0 -0.12965737766E+02  0.85152510360E+01 -0.21063490702E+02  0.26158946784E+02  0.51100000000E-03 0. -1.
        -11    1    3    3    0    0  0.14059058680E+01 -0.39162393942E+01  0.24755281483E+01  0.48416672930E+01  0.51100000000E-03 0.  1.
         12    1    3    3    0    0 -0.19093976714E+02  0.39667204571E+01  0.20509754824E+02  0.28301322599E+02  0.00000000000E+00 0. -1.
</event>
<event>
 7    1  0.6246445E-012  0.5930193E+02  0.7816164E-02  0.1266605E+00
        -11   -1    0    0    0    0  0.00000000000E+00  0.00000000000E+00  0.45593999997E+02  0.45594000000E+02  0.51100000000E-03 0.  1.
         11   -1    0    0    0    0 -0.00000000000E+00 -0.00000000000E+00 -0.45593999997E+02  0.45594000000E+02  0.51100000000E-03 0. -1.
    9900012    2    1    2    0    0 -0.12322969094E+02  0.19602148371E+02  0.21923085101E+02  0.59301930183E+02  0.49999974750E+02 0.  0.
         12    1    1    2    0    0  0.12322969094E+02 -0.19602148371E+02 -0.21923085101E+02  0.31886069817E+02  0.00000000000E+00 0. -1.
         11    1    3    3    0    0  0.60735013728E+01  0.29950679943E+01 -0.25435806334E+01  0.72337855868E+01  0.51100000000E-03 0. -1.
        -11    1    3    3    0    0 -0.16123068161E+02 -0.93128274238E+01  0.42002509399E+01  0.19087278218E+02  0.51100000000E-03 0.  1.
        -12    1    3    3    0    0 -0.22734023055E+01  0.25919907800E+02  0.20266414795E+02  0.32980866378E+02  0.00000000000E+00 0.  1.
</event>
<event>
 7    1  0.6246445E-012  0.5930194E+02  0.7816164E-02  0.1266605E+00
        -11   -1    0    0    0    0  0.00000000000E+00  0.00000000000E+00  0.45593999997E+02  0.45594000000E+02  0.51100000000E-03 0. -1.
         11   -1    0    0    0    0 -0.00000000000E+00 -0.00000000000E+00 -0.45593999997E+02  0.45594000000E+02  0.51100000000E-03 0.  1.
    9900012    2    1    2    0    0 -0.27491600709E+02  0.15533043081E+02 -0.44336203434E+01  0.59301944643E+02  0.50000001122E+02 0.  0.
         12    1    1    2    0    0  0.27491600709E+02 -0.15533043081E+02  0.44336203434E+01  0.31886055357E+02  0.00000000000E+00 0. -1.
         11    1    3    3    0    0  0.74186708807E+01  0.17417898093E+01  0.45153392053E+00  0.76337666010E+01  0.51100000000E-03 0. -1.
        -11    1    3    3    0    0 -0.12292846532E+02  0.17450979608E+02  0.10779632799E+02  0.23913411481E+02  0.51100000000E-03 0.  1.
        -12    1    3    3    0    0 -0.22617425058E+02 -0.36597263364E+01 -0.15664787063E+02  0.27754766560E+02  0.00000000000E+00 0.  1.
</event>
<event>
 7    1  0.9145607E-012  0.5930195E+02  0.7816164E-02  0.1266605E+00
        -11   -1    0    0    0    0  0.00000000000E+00  0.00000000000E+00  0.45593999997E+02  0.45594000000E+02  0.51100000000E-03 0. -1.
         11   -1    0    0    0    0 -0.00000000000E+00 -0.00000000000E+00 -0.45593999997E+02  0.45594000000E+02  0.51100000000E-03 0.  1.
    9900012    2    1    2    0    0 -0.25168338922E+02 -0.35777176918E+01 -0.19247715181E+02  0.59301954656E+02  0.50000019384E+02 0.  0.
         12    1    1    2    0    0  0.25168338922E+02  0.35777176918E+01  0.19247715181E+02  0.31886045344E+02  0.00000000000E+00 0. -1.
         11    1    3    3    0    0  0.27851206938E+01  0.43535164610E-01 -0.11638916423E+02  0.11967588243E+02  0.51100000000E-03 0. -1.
        -11    1    3    3    0    0 -0.13368048770E+02 -0.62526828569E+01 -0.22120673977E+02  0.26591821831E+02  0.51100000000E-03 0.  1.
         12    1    3    3    0    0 -0.14585410845E+02  0.26314300005E+01  0.14511875219E+02  0.20742544582E+02  0.00000000000E+00 0. -1.
</event>
<event>
 7    1  0.6246445E-012  0.5930193E+02  0.7816164E-02  0.1266605E+00
        -11   -1    0    0    0    0  0.00000000000E+00  0.00000000000E+00  0.45593999997E+02  0.45594000000E+02  0.51100000000E-03 0. -1.
         11   -1    0    0    0    0 -0.00000000000E+00 -0.00000000000E+00 -0.45593999997E+02  0.45594000000E+02  0.51100000000E-03 0.  1.
    9900012    2    1    2    0    0 -0.16782089654E+02  0.23186542442E+02 -0.14052297868E+02  0.59301931585E+02  0.49999977308E+02 0.  0.
         12    1    1    2    0    0  0.16782089654E+02 -0.23186542442E+02  0.14052297868E+02  0.31886068415E+02  0.00000000000E+00 0. -1.
         11    1    3    3    0    0 -0.56822206080E+01  0.51780984224E-01  0.87385157509E+01  0.10423625574E+02  0.51100000000E-03 0. -1.
        -11    1    3    3    0    0 -0.85572629979E+01  0.22668285117E+02  0.16644532143E+01  0.24286792809E+02  0.51100000000E-03 0.  1.
        -12    1    3    3    0    0 -0.25426060484E+01  0.46647634040E+00 -0.24455266834E+02  0.24591513203E+02  0.00000000000E+00 0.  1.
</event>
<event>
 7    1  0.6246445E-012  0.5930194E+02  0.7816164E-02  0.1266605E+00
        -11   -1    0    0    0    0  0.00000000000E+00  0.00000000000E+00  0.45593999997E+02  0.45594000000E+02  0.51100000000E-03 0. -1.
         11   -1    0    0    0    0 -0.00000000000E+00 -0.00000000000E+00 -0.45593999997E+02  0.45594000000E+02  0.51100000000E-03 0.  1.
    9900012    2    1    2    0    0 -0.12546679163E+02  0.90354311276E+00 -0.29299916578E+02  0.59301942551E+02  0.49999997307E+02 0.  0.
         12    1    1    2    0    0  0.12546679163E+02 -0.90354311276E+00  0.29299916578E+02  0.31886057449E+02  0.00000000000E+00 0. -1.
         11    1    3    3    0    0 -0.20611025020E+02 -0.46936777916E+01  0.39682074636E+01  0.21507943516E+02  0.51100000000E-03 0. -1.
        -11    1    3    3    0    0 -0.37470009640E+01 -0.43309783947E+00 -0.13289789038E+02  0.13814705314E+02  0.51100000000E-03 0.  1.
        -12    1    3    3    0    0  0.11811346821E+02  0.60303187438E+01 -0.19978335003E+02  0.23979293721E+02  0.00000000000E+00 0.  1.
</event>
<event>
 7    1  0.6246445E-012  0.5930203E+02  0.7816164E-02  0.1266604E+00
        -11   -1    0    0    0    0  0.00000000000E+00  0.00000000000E+00  0.45593999997E+02  0.45594000000E+02  0.51100000000E-03 0. -1.
         11   -1    0    0    0    0 -0.00000000000E+00 -0.00000000000E+00 -0.45593999997E+02  0.45594000000E+02  0.51100000000E-03 0.  1.
    9900012    2    1    2    0    0  0.46105117137E+01 -0.31450279584E+02  0.25175961473E+01  0.59302028249E+02  0.50000153599E+02 0.  0.
         12    1    1    2    0    0 -0.46105117137E+01  0.31450279584E+02 -0.25175961473E+01  0.31885971751E+02  0.00000000000E+00 0. -1.
         11    1    3    3    0    0 -0.10345909471E+02  0.39262866927E+01  0.74653624828E+01  0.13348603194E+02  0.51100000000E-03 0. -1.
        -11    1    3    3    0    0  0.15951971363E+02 -0.72395369795E+01 -0.24466021505E+01  0.17687909667E+02  0.51100000000E-03 0.  1.
        -12    1    3    3    0    0 -0.99555017828E+00 -0.28137029297E+02 -0.25011641850E+01  0.28265515387E+02  0.00000000000E+00 0.  1.
</event>
<event>
 7    1  0.6246445E-012  0.5930195E+02  0.7816164E-02  0.1266605E+00
        -11   -1    0    0    0    0  0.00000000000E+00  0.00000000000E+00  0.45593999997E+02  0.45594000000E+02  0.51100000000E-03 0.  1.
         11   -1    0    0    0    0 -0.00000000000E+00 -0.00000000000E+00 -0.45593999997E+02  0.45594000000E+02  0.51100000000E-03 0. -1.
    9900012    2    1    2    0    0  0.68098888173E+01  0.27639357265E+02 -0.14367032862E+02  0.59301948363E+02  0.50000007907E+02 0.  0.
         12    1    1    2    0    0 -0.68098888173E+01 -0.27639357265E+02  0.14367032862E+02  0.31886051637E+02  0.00000000000E+00 0. -1.
         11    1    3    3    0    0  0.14541192813E+02 -0.47468060234E+01  0.38750416534E+01  0.15779556518E+02  0.51100000000E-03 0.  1.
        -11    1    3    3    0    0 -0.17954723623E+01  0.30581726548E+02 -0.81905921301E+01  0.31710432343E+02  0.51100000000E-03 0. -1.
        -12    1    3    3    0    0 -0.59358316331E+01  0.18044367402E+01 -0.10051482385E+02  0.11811959502E+02  0.00000000000E+00 0.  1.
</event>
<event>
 7    1  0.6246445E-012  0.5930196E+02  0.7816164E-02  0.1266605E+00
        -11   -1    0    0    0    0  0.00000000000E+00  0.00000000000E+00  0.45593999997E+02  0.45594000000E+02  0.51100000000E-03 0.  1.
         11   -1    0    0    0    0 -0.00000000000E+00 -0.00000000000E+00 -0.45593999997E+02  0.45594000000E+02  0.51100000000E-03 0. -1.
    9900012    2    1    2    0    0 -0.85037206417E+01 -0.30124102777E+02 -0.60782243884E+01  0.59301958468E+02  0.50000026336E+02 0.  0.
         12    1    1    2    0    0  0.85037206417E+01  0.30124102777E+02  0.60782243884E+01  0.31886041532E+02  0.00000000000E+00 0. -1.
         11    1    3    3    0    0  0.13959919557E+01  0.19073548443E+01  0.17335831216E+01  0.29312295616E+01  0.51100000000E-03 0. -1.
        -11    1    3    3    0    0  0.13553800068E+02 -0.92190951231E+01  0.99166760968E+01  0.19158227377E+02  0.51100000000E-03 0.  1.
         12    1    3    3    0    0 -0.23453512665E+02 -0.22812362498E+02 -0.17728483607E+02  0.37212501529E+02  0.00000000000E+00 0. -1.
</event>
<event>
 7    1  0.6246445E-012  0.5930193E+02  0.7816164E-02  0.1266605E+00
        -11   -1    0    0    0    0  0.00000000000E+00  0.00000000000E+00  0.45593999997E+02  0.45594000000E+02  0.51100000000E-03 0. -1.
         11   -1    0    0    0    0 -0.00000000000E+00 -0.00000000000E+00 -0.45593999997E+02  0.45594000000E+02  0.51100000000E-03 0.  1.
    9900012    2    1    2    0    0  0.25649155252E+02  0.48961949348E+01 -0.18299434048E+02  0.59301934447E+02  0.49999982527E+02 0.  0.
         12    1    1    2    0    0 -0.25649155252E+02 -0.48961949348E+01  0.18299434048E+02  0.31886065553E+02  0.00000000000E+00 0. -1.
         11    1    3    3    0    0  0.13160360937E+02 -0.10942220466E+02  0.17551159848E+01  0.17204874923E+02  0.51100000000E-03 0. -1.
        -11    1    3    3    0    0  0.17809615701E+02 -0.19366690363E+01 -0.13452186445E+02  0.22403000219E+02  0.51100000000E-03 0.  1.
        -12    1    3    3    0    0 -0.53208213864E+01  0.17775084437E+02 -0.66023635872E+01  0.19694059305E+02  0.00000000000E+00 0.  1.
</event>
<event>
 7    1  0.6246445E-012  0.5930192E+02  0.7816164E-02  0.1266605E+00
        -11   -1    0    0    0    0  0.00000000000E+00  0.00000000000E+00  0.45593999997E+02  0.45594000000E+02  0.51100000000E-03 0. -1.
         11   -1    0    0    0    0 -0.00000000000E+00 -0.00000000000E+00 -0.45593999997E+02  0.45594000000E+02  0.51100000000E-03 0.  1.
    9900012    2    1    2    0    0 -0.52647552239E+01  0.22266468633E+02 -0.22208300869E+02  0.59301923094E+02  0.49999961822E+02 0.  0.
         12    1    1    2    0    0  0.52647552239E+01 -0.22266468633E+02  0.22208300869E+02  0.31886076906E+02  0.00000000000E+00 0. -1.
         11    1    3    3    0    0  0.11846311861E+02  0.19713171769E+02 -0.47293780044E+01  0.23480018366E+02  0.51100000000E-03 0. -1.
        -11    1    3    3    0    0  0.47935543877E+01  0.71969584902E+01 -0.68716935483E+01  0.11045114199E+02  0.51100000000E-03 0.  1.
        -12    1    3    3    0    0 -0.21904621473E+02 -0.46436616258E+01 -0.10607229316E+02  0.24776790529E+02  0.00000000000E+00 0.  1.
</event>
<event>
 7    1  0.6246445E-012  0.5930176E+02  0.7816164E-02  0.1266605E+00
        -11   -1    0    0    0    0  0.00000000000E+00  0.00000000000E+00  0.45593999997E+02  0.45594000000E+02  0.51100000000E-03 0.  1.
         11   -1    0    0    0    0 -0.00000000000E+00 -0.00000000000E+00 -0.45593999997E+02  0.45594000000E+02  0.51100000000E-03 0. -1.
    9900012    2    1    2    0    0 -0.13230682003E+02 -0.44933342829E+01  0.28661668734E+02  0.59301760745E+02  0.49999665735E+02 0.  0.
         12    1    1    2    0    0  0.13230682003E+02  0.44933342829E+01 -0.28661668734E+02  0.31886239255E+02  0.00000000000E+00 0. -1.
         11    1    3    3    0    0 -0.14837866757E+02 -0.15363790144E+02  0.21690531955E+02  0.30441542573E+02  0.51100000000E-03 0. -1.
        -11    1    3    3    0    0  0.89255522270E+00  0.14989848037E+01  0.15841130513E+02  0.15936907682E+02  0.51100000000E-03 0.  1.
         12    1    3    3    0    0  0.71462953147E+00  0.93714710577E+01 -0.88699937343E+01  0.12923310489E+02  0.00000000000E+00 0. -1.
</event>
<event>
 7    1  0.6246445E-012  0.5930188E+02  0.7816164E-02  0.1266605E+00
        -11   -1    0    0    0    0  0.00000000000E+00  0.00000000000E+00  0.45593999997E+02  0.45594000000E+02  0.51100000000E-03 0.  1.
         11   -1    0    0    0    0 -0.00000000000E+00 -0.00000000000E+00 -0.45593999997E+02  0.45594000000E+02  0.51100000000E-03 0. -1.
    9900012    2    1    2    0    0 -0.52533148951E+01 -0.19898503083E+02  0.24355229460E+02  0.59301875363E+02  0.49999874772E+02 0.  0.
         12    1    1    2    0    0  0.52533148951E+01  0.19898503083E+02 -0.24355229460E+02  0.31886124637E+02  0.00000000000E+00 0. -1.
         11    1    3    3    0    0 -0.73552181035E+01 -0.21199995455E+02  0.60636948225E+01  0.23244514101E+02  0.51100000000E-03 0. -1.
        -11    1    3    3    0    0  0.83643057754E+01 -0.11209725128E+02  0.16989399912E+02  0.22005891443E+02  0.51100000000E-03 0.  1.
         12    1    3    3    0    0 -0.62624025670E+01  0.12511217500E+02  0.13021347252E+01  0.14051469819E+02  0.00000000000E+00 0. -1.
</event>
<event>
 7    1  0.6246445E-012  0.5930195E+02  0.7816164E-02  0.1266605E+00
        -11   -1    0    0    0    0  0.00000000000E+00  0.00000000000E+00  0.45593999997E+02  0.45594000000E+02  0.51100000000E-03 0. -1.
         11   -1    0    0    0    0 -0.00000000000E+00 -0.00000000000E+00 -0.45593999997E+02  0.45594000000E+02  0.51100000000E-03 0.  1.
    9900012    2    1    2    0    0 -0.22308951326E+02 -0.12437236458E+02 -0.19087854901E+02  0.59301947176E+02  0.50000005742E+02 0.  0.
         12    1    1    2    0    0  0.22308951326E+02  0.12437236458E+02  0.19087854901E+02  0.31886052824E+02  0.00000000000E+00 0. -1.
         11    1    3    3    0    0  0.10271326467E+02 -0.48720352613E+01  0.38266859195E+01  0.11995015647E+02  0.51100000000E-03 0. -1.
        -11    1    3    3    0    0  0.30435759980E+01 -0.58097447581E+00  0.16152537799E+01  0.34942712018E+01  0.51100000000E-03 0.  1.
        -12    1    3    3    0    0 -0.35623853791E+02 -0.69842267208E+01 -0.24529794600E+02  0.43812660327E+02  0.00000000000E+00 0.  1.
</event>
<event>
 7    1  0.6246445E-012  0.5930195E+02  0.7816164E-02  0.1266605E+00
        -11   -1    0    0    0    0  0.00000000000E+00  0.00000000000E+00  0.45593999997E+02  0.45594000000E+02  0.51100000000E-03 0.  1.
         11   -1    0    0    0    0 -0.00000000000E+00 -0.00000000000E+00 -0.45593999997E+02  0.45594000000E+02  0.51100000000E-03 0. -1.
    9900012    2    1    2    0    0  0.28930430805E+02 -0.98016080719E+01  0.91476052239E+01  0.59301952445E+02  0.50000015351E+02 0.  0.
         12    1    1    2    0    0 -0.28930430805E+02  0.98016080719E+01 -0.91476052239E+01  0.31886047555E+02  0.00000000000E+00 0. -1.
         11    1    3    3    0    0  0.57083052934E+01  0.17815238384E+01  0.34237530356E+01  0.68906212796E+01  0.51100000000E-03 0. -1.
        -11    1    3    3    0    0 -0.85957687211E+00  0.24945527534E+01  0.20620242819E+02  0.20788364053E+02  0.51100000000E-03 0.  1.
         12    1    3    3    0    0  0.24081702383E+02 -0.14077684664E+02 -0.14896390630E+02  0.31622967112E+02  0.00000000000E+00 0. -1.
</event>
<event>
 7    1  0.6246445E-012  0.5930191E+02  0.7816164E-02  0.1266605E+00
        -11   -1    0    0    0    0  0.00000000000E+00  0.00000000000E+00  0.45593999997E+02  0.45594000000E+02  0.51100000000E-03 0. -1.
         11   -1    0    0    0    0 -0.00000000000E+00 -0.00000000000E+00 -0.45593999997E+02  0.45594000000E+02  0.51100000000E-03 0.  1.
    9900012    2    1    2    0    0  0.14789594236E+02 -0.53226291417E+01 -0.27742746388E+02  0.59301914386E+02  0.49999945940E+02 0.  0.
         12    1    1    2    0    0 -0.14789594236E+02  0.53226291417E+01  0.27742746388E+02  0.31886085614E+02  0.00000000000E+00 0. -1.
         11    1    3    3    0    0  0.10029278298E+02  0.17813343544E+02 -0.23094194931E+02  0.30842235185E+02  0.51100000000E-03 0. -1.
        -11    1    3    3    0    0 -0.32416495830E+01 -0.61355730890E+01  0.37396777285E+01  0.78828128814E+01  0.51100000000E-03 0.  1.
        -12    1    3    3    0    0  0.80019655212E+01 -0.17000399597E+02 -0.83882291853E+01  0.20576866319E+02  0.00000000000E+00 0.  1.
</event>
<event>
 7    1  0.6246445E-012  0.5930197E+02  0.7816164E-02  0.1266605E+00
        -11   -1    0    0    0    0  0.00000000000E+00  0.00000000000E+00  0.45593999997E+02  0.45594000000E+02  0.51100000000E-03 0. -1.
         11   -1    0    0    0    0 -0.00000000000E+00 -0.00000000000E+00 -0.45593999997E+02  0.45594000000E+02  0.51100000000E-03 0.  1.
    9900012    2    1    2    0    0 -0.13209087428E+02 -0.10080471755E+02 -0.27214394994E+02  0.59301965496E+02  0.50000039154E+02 0.  0.
         12    1    1    2    0    0  0.13209087428E+02  0.10080471755E+02  0.27214394994E+02  0.31886034504E+02  0.00000000000E+00 0. -1.
         11    1    3    3    0    0  0.39971532326E+01 -0.88697741858E+01  0.51019069023E+01  0.10985425908E+02  0.51100000000E-03 0. -1.
        -11    1    3    3    0    0 -0.17143469858E+02 -0.42253673154E+00 -0.12004479909E+01  0.17190641980E+02  0.51100000000E-03 0.  1.
        -12    1    3    3    0    0 -0.62770803347E-01 -0.78816083752E+00 -0.31115853905E+02  0.31125897609E+02  0.00000000000E+00 0.  1.
</event>
<event>
 7    1  0.6246445E-012  0.5930192E+02  0.7816164E-02  0.1266605E+00
        -11   -1    0    0    0    0  0.00000000000E+00  0.00000000000E+00  0.45593999997E+02  0.45594000000E+02  0.51100000000E-03 0. -1.
         11   -1    0    0    0    0 -0.00000000000E+00 -0.00000000000E+00 -0.45593999997E+02  0.45594000000E+02  0.51100000000E-03 0.  1.
    9900012    2    1    2    0    0 -0.15038778882E+02  0.20166287990E+02 -0.19592801184E+02  0.59301923104E+02  0.49999961841E+02 0.  0.
         12    1    1    2    0    0  0.15038778882E+02 -0.20166287990E+02  0.19592801184E+02  0.31886076896E+02  0.00000000000E+00 0. -1.
         11    1    3    3    0    0  0.62789726015E+01 -0.79628662772E+01  0.67704896228E+01  0.12193123729E+02  0.51100000000E-03 0. -1.
        -11    1    3    3    0    0  0.10097891547E+01  0.97307856868E+01 -0.41199701584E+01  0.10615178688E+02  0.51100000000E-03 0.  1.
         12    1    3    3    0    0 -0.22327540638E+02  0.18398368580E+02 -0.22243320649E+02  0.36493620687E+02  0.00000000000E+00 0. -1.
</event>
<event>
 7    1  0.6246445E-012  0.5930195E+02  0.7816164E-02  0.1266605E+00
        -11   -1    0    0    0    0  0.00000000000E+00  0.00000000000E+00  0.45593999997E+02  0.45594000000E+02  0.51100000000E-03 0. -1.
         11   -1    0    0    0    0 -0.00000000000E+00 -0.00000000000E+00 -0.45593999997E+02  0.45594000000E+02  0.51100000000E-03 0.  1.
    9900012    2    1    2    0    0 -0.71270554956E+01  0.25271724271E+02 -0.18090472558E+02  0.59301950307E+02  0.50000011452E+02 0.  0.
         12    1    1    2    0    0  0.71270554956E+01 -0.25271724271E+02  0.18090472558E+02  0.31886049693E+02  0.00000000000E+00 0. -1.
         11    1    3    3    0    0 -0.18578860049E+02  0.23882596986E+02  0.34071138766E+01  0.30449316984E+02  0.51100000000E-03 0. -1.
        -11    1    3    3    0    0  0.86690823142E+00 -0.56832750850E+01 -0.32523597319E+01  0.66052244217E+01  0.51100000000E-03 0.  1.
        -12    1    3    3    0    0  0.10584896322E+02  0.70724023696E+01 -0.18245226702E+02  0.22247408902E+02  0.00000000000E+00 0.  1.
</event>
<event>
 7    1  0.6246445E-012  0.5930199E+02  0.7816164E-02  0.1266605E+00
        -11   -1    0    0    0    0  0.00000000000E+00  0.00000000000E+00  0.45593999997E+02  0.45594000000E+02  0.51100000000E-03 0.  1.
         11   -1    0    0    0    0 -0.00000000000E+00 -0.00000000000E+00 -0.45593999997E+02  0.45594000000E+02  0.51100000000E-03 0. -1.
    9900012    2    1    2    0    0 -0.18895651291E+02  0.10606572824E+01  0.25662166890E+02  0.59301993021E+02  0.50000089351E+02 0.  0.
         12    1    1    2    0    0  0.18895651291E+02 -0.10606572824E+01 -0.25662166890E+02  0.31886006979E+02  0.00000000000E+00 0. -1.
         11    1    3    3    0    0 -0.76213480505E+01 -0.61397353362E+01 -0.33602490756E+01  0.10347587652E+02  0.51100000000E-03 0. -1.
        -11    1    3    3    0    0 -0.31678364722E+01 -0.13334421079E+02  0.21754479202E+02  0.25711852112E+02  0.51100000000E-03 0.  1.
        -12    1    3    3    0    0 -0.81064667687E+01  0.20534813698E+02  0.72679367639E+01  0.23242553257E+02  0.00000000000E+00 0.  1.
</event>
<event>
 7    1  0.6246445E-012  0.5930192E+02  0.7816164E-02  0.1266605E+00
        -11   -1    0    0    0    0  0.00000000000E+00  0.00000000000E+00  0.45593999997E+02  0.45594000000E+02  0.51100000000E-03 0.  1.
         11   -1    0    0    0    0 -0.00000000000E+00 -0.00000000000E+00 -0.45593999997E+02  0.45594000000E+02  0.51100000000E-03 0. -1.
    9900012    2    1    2    0    0  0.12629109484E+02  0.24003587036E+02  0.16764717857E+02  0.59301915860E+02  0.49999948629E+02 0.  0.
         12    1    1    2    0    0 -0.12629109484E+02 -0.24003587036E+02 -0.16764717857E+02  0.31886084140E+02  0.00000000000E+00 0. -1.
         11    1    3    3    0    0  0.16327391517E+02  0.93200639624E+01 -0.79746191119E+01  0.20421602686E+02  0.51100000000E-03 0.  1.
        -11    1    3    3    0    0 -0.11649454017E+02  0.28306265786E+01  0.21799187084E+01  0.12185001911E+02  0.51100000000E-03 0. -1.
        -12    1    3    3    0    0  0.79511719839E+01  0.11852896495E+02  0.22559418261E+02  0.26695311264E+02  0.00000000000E+00 0.  1.
</event>
<event>
 7    1  0.6246445E-012  0.5930195E+02  0.7816164E-02  0.1266605E+00
        -11   -1    0    0    0    0  0.00000000000E+00  0.00000000000E+00  0.45593999997E+02  0.45594000000E+02  0.51100000000E-03 0.  1.
         11   -1    0    0    0    0 -0.00000000000E+00 -0.00000000000E+00 -0.45593999997E+02  0.45594000000E+02  0.51100000000E-03 0. -1.
    9900012    2    1    2    0    0 -0.22661341025E+02 -0.70656034812E+01  0.21289921363E+02  0.59301954757E+02  0.50000019567E+02 0.  0.
         12    1    1    2    0    0  0.22661341025E+02  0.70656034812E+01 -0.21289921363E+02  0.31886045243E+02  0.00000000000E+00 0. -1.
         11    1    3    3    0    0 -0.27052766795E+01 -0.77277043509E+01  0.95512355320E+01  0.12580224040E+02  0.51100000000E-03 0. -1.
        -11    1    3    3    0    0 -0.11638655527E+02 -0.12553536496E+02  0.22120156414E+02  0.27970536303E+02  0.51100000000E-03 0.  1.
        -12    1    3    3    0    0 -0.83174088190E+01  0.13215637366E+02 -0.10381470583E+02  0.18751194413E+02  0.00000000000E+00 0.  1.
</event>
<event>
 7    1  0.6246445E-012  0.5930232E+02  0.7816164E-02  0.1266603E+00
        -11   -1    0    0    0    0  0.00000000000E+00  0.00000000000E+00  0.45593999997E+02  0.45594000000E+02  0.51100000000E-03 0.  1.
         11   -1    0    0    0    0 -0.00000000000E+00 -0.00000000000E+00 -0.45593999997E+02  0.45594000000E+02  0.51100000000E-03 0. -1.
    9900012    2    1    2    0    0 -0.35244211906E+01  0.27977838128E+02  0.14883401646E+02  0.59302319584E+02  0.50000684919E+02 0.  0.
         12    1    1    2    0    0  0.35244211906E+01 -0.27977838128E+02 -0.14883401646E+02  0.31885680416E+02  0.00000000000E+00 0. -1.
         11    1    3    3    0    0  0.15728358413E+02  0.12954374846E+01 -0.44752866836E+01  0.16403890021E+02  0.51100000000E-03 0. -1.
        -11    1    3    3    0    0 -0.41925684536E+01  0.73975562257E+01 -0.37032970346E+01  0.92744745155E+01  0.51100000000E-03 0.  1.
        -12    1    3    3    0    0 -0.15060211150E+02  0.19284844418E+02  0.23061985364E+02  0.33623955048E+02  0.00000000000E+00 0.  1.
</event>
<event>
 7    1  0.6246445E-012  0.5930195E+02  0.7816164E-02  0.1266605E+00
        -11   -1    0    0    0    0  0.00000000000E+00  0.00000000000E+00  0.45593999997E+02  0.45594000000E+02  0.51100000000E-03 0.  1.
         11   -1    0    0    0    0 -0.00000000000E+00 -0.00000000000E+00 -0.45593999997E+02  0.45594000000E+02  0.51100000000E-03 0. -1.
    9900012    2    1    2    0    0 -0.21961082106E+02  0.58942977815E+01 -0.22353704578E+02  0.59301953177E+02  0.50000016686E+02 0.  0.
         12    1    1    2    0    0  0.21961082106E+02 -0.58942977815E+01  0.22353704578E+02  0.31886046823E+02  0.00000000000E+00 0. -1.
         11    1    3    3    0    0 -0.71102861372E+01 -0.10443878397E+02 -0.94244044684E+01  0.15762302014E+02  0.51100000000E-03 0. -1.
        -11    1    3    3    0    0  0.79630211970E+00  0.65468556107E+01  0.11298013105E+02  0.13082068484E+02  0.51100000000E-03 0.  1.
         12    1    3    3    0    0 -0.15647098089E+02  0.97913205676E+01 -0.24227313215E+02  0.30457582679E+02  0.00000000000E+00 0. -1.
</event>
<event>
 7    1  0.6246445E-012  0.5930196E+02  0.7816164E-02  0.1266605E+00
        -11   -1    0    0    0    0  0.00000000000E+00  0.00000000000E+00  0.45593999997E+02  0.45594000000E+02  0.51100000000E-03 0.  1.
         11   -1    0    0    0    0 -0.00000000000E+00 -0.00000000000E+00 -0.45593999997E+02  0.45594000000E+02  0.51100000000E-03 0. -1.
    9900012    2    1    2    0    0  0.28351968163E+01 -0.15239902293E+02  0.27864431543E+02  0.59301960609E+02  0.50000030239E+02 0.  0.
         12    1    1    2    0    0 -0.28351968163E+01  0.15239902293E+02 -0.27864431543E+02  0.31886039391E+02  0.00000000000E+00 0. -1.
         11    1    3    3    0    0  0.12728484594E+02  0.64662647694E+01  0.17779972104E+02  0.22802506625E+02  0.51100000000E-03 0. -1.
        -11    1    3    3    0    0 -0.27662763171E+01  0.58535577168E+01  0.63339502754E+00  0.65051988538E+01  0.51100000000E-03 0.  1.
        -12    1    3    3    0    0 -0.71270114609E+01 -0.27559724779E+02  0.94510644116E+01  0.29994255129E+02  0.00000000000E+00 0.  1.
</event>
<event>
 7    1  0.6246445E-012  0.5930204E+02  0.7816164E-02  0.1266604E+00
        -11   -1    0    0    0    0  0.00000000000E+00  0.00000000000E+00  0.45593999997E+02  0.45594000000E+02  0.51100000000E-03 0. -1.
         11   -1    0    0    0    0 -0.00000000000E+00 -0.00000000000E+00 -0.45593999997E+02  0.45594000000E+02  0.51100000000E-03 0.  1.
    9900012    2    1    2    0    0  0.29244044278E+02  0.12630619353E+02  0.14027213107E+01  0.59302042306E+02  0.50000179236E+02 0.  0.
         12    1    1    2    0    0 -0.29244044278E+02 -0.12630619353E+02 -0.14027213107E+01  0.31885957694E+02  0.00000000000E+00 0. -1.
         11    1    3    3    0    0 -0.78530694171E+01  0.10411891158E+02  0.56317864585E+00  0.13053556879E+02  0.51100000000E-03 0.  1.
        -11    1    3    3    0    0  0.73725353425E+01  0.47422057426E+01  0.11596412754E+02  0.14536835340E+02  0.51100000000E-03 0. -1.
        -12    1    3    3    0    0  0.29724578352E+02 -0.25234775468E+01 -0.10756870089E+02  0.31711650087E+02  0.00000000000E+00 0.  1.
</event>
<event>
 7    1  0.6246445E-012  0.5930196E+02  0.7816164E-02  0.1266605E+00
        -11   -1    0    0    0    0  0.00000000000E+00  0.00000000000E+00  0.45593999997E+02  0.45594000000E+02  0.51100000000E-03 0. -1.
         11   -1    0    0    0    0 -0.00000000000E+00 -0.00000000000E+00 -0.45593999997E+02  0.45594000000E+02  0.51100000000E-03 0.  1.
    9900012    2    1    2    0    0 -0.13896579048E+01  0.29333574056E+02 -0.12422968306E+02  0.59301955129E+02  0.50000020245E+02 0.  0.
         12    1    1    2    0    0  0.13896579048E+01 -0.29333574056E+02  0.12422968306E+02  0.31886044871E+02  0.00000000000E+00 0. -1.
         11    1    3    3    0    0  0.15000274281E+02  0.19769305086E+02  0.52907241417E+01  0.25373715027E+02  0.51100000000E-03 0. -1.
        -11    1    3    3    0    0  0.25043387298E+01  0.13544548045E+01 -0.12303778859E+02  0.12628904733E+02  0.51100000000E-03 0.  1.
         12    1    3    3    0    0 -0.18894270916E+02  0.82098141661E+01 -0.54099135883E+01  0.21299335368E+02  0.00000000000E+00 0. -1.
</event>
<event>
 7    1  0.6246445E-012  0.5930194E+02  0.7816164E-02  0.1266605E+00
        -11   -1    0    0    0    0  0.00000000000E+00  0.00000000000E+00  0.45593999997E+02  0.45594000000E+02  0.51100000000E-03 0. -1.
         11   -1    0    0    0    0 -0.00000000000E+00 -0.00000000000E+00 -0.45593999997E+02  0.45594000000E+02  0.51100000000E-03 0.  1.
    9900012    2    1    2    0    0 -0.16634820753E+02  0.14132016148E+02 -0.23244126138E+02  0.59301944398E+02  0.50000000676E+02 0.  0.
         12    1    1    2    0    0  0.16634820753E+02 -0.14132016148E+02  0.23244126138E+02  0.31886055602E+02  0.00000000000E+00 0. -1.
         11    1    3    3    0    0 -0.10150832279E+02 -0.23714887810E+01  0.40838301606E+01  0.11195580558E+02  0.51100000000E-03 0. -1.
        -11    1    3    3    0    0  0.98981686418E+01  0.16337010140E+02 -0.38633999893E+01  0.19488394047E+02  0.51100000000E-03 0.  1.
         12    1    3    3    0    0 -0.16382157116E+02  0.16649478928E+00 -0.23464556309E+02  0.28617969793E+02  0.00000000000E+00 0. -1.
</event>
<event>
 7    1  0.6246445E-012  0.5930195E+02  0.7816164E-02  0.1266605E+00
        -11   -1    0    0    0    0  0.00000000000E+00  0.00000000000E+00  0.45593999997E+02  0.45594000000E+02  0.51100000000E-03 0. -1.
         11   -1    0    0    0    0 -0.00000000000E+00 -0.00000000000E+00 -0.45593999997E+02  0.45594000000E+02  0.51100000000E-03 0.  1.
    9900012    2    1    2    0    0  0.26063588594E+02  0.99103310931E+01 -0.15465919348E+02  0.59301953302E+02  0.50000016914E+02 0.  0.
         12    1    1    2    0    0 -0.26063588594E+02 -0.99103310931E+01  0.15465919348E+02  0.31886046698E+02  0.00000000000E+00 0. -1.
         11    1    3    3    0    0 -0.66969333717E+00  0.65372100203E+01 -0.12254929102E+01  0.66847166843E+01  0.51100000000E-03 0. -1.
        -11    1    3    3    0    0  0.33601474416E+01  0.28046235501E+01 -0.26056080347E+02  0.26421124643E+02  0.51100000000E-03 0.  1.
         12    1    3    3    0    0  0.23373134489E+02  0.56849752273E+00  0.11815653909E+02  0.26196111975E+02  0.00000000000E+00 0. -1.
</event>
<event>
 7    1  0.6246445E-012  0.5930194E+02  0.7816164E-02  0.1266605E+00
        -11   -1    0    0    0    0  0.00000000000E+00  0.00000000000E+00  0.45593999997E+02  0.45594000000E+02  0.51100000000E-03 0.  1.
         11   -1    0    0    0    0 -0.00000000000E+00 -0.00000000000E+00 -0.45593999997E+02  0.45594000000E+02  0.51100000000E-03 0. -1.
    9900012    2    1    2    0    0  0.10372195730E+01 -0.31567755142E+02 -0.43728232574E+01  0.59301943919E+02  0.49999999802E+02 0.  0.
         12    1    1    2    0    0 -0.10372195730E+01  0.31567755142E+02  0.43728232574E+01  0.31886056081E+02  0.00000000000E+00 0. -1.
         11    1    3    3    0    0 -0.12919256230E+01  0.42614458834E+01  0.11867416863E+02  0.12675353095E+02  0.51100000000E-03 0. -1.
        -11    1    3    3    0    0  0.11451631576E+02 -0.20102954764E+02 -0.14351030454E+01  0.23180340313E+02  0.51100000000E-03 0.  1.
        -12    1    3    3    0    0 -0.91224863801E+01 -0.15726246261E+02 -0.14805137075E+02  0.23446250511E+02  0.00000000000E+00 0.  1.
</event>
<event>
 7    1  0.6246445E-012  0.5930193E+02  0.7816164E-02  0.1266605E+00
        -11   -1    0    0    0    0  0.00000000000E+00  0.00000000000E+00  0.45593999997E+02  0.45594000000E+02  0.51100000000E-03 0.  1.
         11   -1    0    0    0    0 -0.00000000000E+00 -0.00000000000E+00 -0.45593999997E+02  0.45594000000E+02  0.51100000000E-03 0. -1.
    9900012    2    1    2    0    0 -0.21925489774E+02 -0.14142097569E+02  0.18330185480E+02  0.59301925842E+02  0.49999966833E+02 0.  0.
         12    1    1    2    0    0  0.21925489774E+02  0.14142097569E+02 -0.18330185480E+02  0.31886074158E+02  0.00000000000E+00 0. -1.
         11    1    3    3    0    0 -0.17895610196E+02  0.52394325520E+01  0.75770785862E+01  0.20127509481E+02  0.51100000000E-03 0. -1.
        -11    1    3    3    0    0 -0.16104980161E+02 -0.36487849240E+01  0.10046907669E+02  0.19329365520E+02  0.51100000000E-03 0.  1.
         12    1    3    3    0    0  0.12075100583E+02 -0.15732745197E+02  0.70619922499E+00  0.19845050841E+02  0.00000000000E+00 0. -1.
</event>
<event>
 7    1  0.6246445E-012  0.5930209E+02  0.7816164E-02  0.1266604E+00
        -11   -1    0    0    0    0  0.00000000000E+00  0.00000000000E+00  0.45593999997E+02  0.45594000000E+02  0.51100000000E-03 0.  1.
         11   -1    0    0    0    0 -0.00000000000E+00 -0.00000000000E+00 -0.45593999997E+02  0.45594000000E+02  0.51100000000E-03 0. -1.
    9900012    2    1    2    0    0 -0.23535456968E+01 -0.26320995921E+02  0.17843128084E+02  0.59302090519E+02  0.50000267164E+02 0.  0.
         12    1    1    2    0    0  0.23535456968E+01  0.26320995921E+02 -0.17843128084E+02  0.31885909481E+02  0.00000000000E+00 0. -1.
         11    1    3    3    0    0 -0.15553016375E+02 -0.13594595951E+02  0.96063215673E+01  0.22781368961E+02  0.51100000000E-03 0. -1.
        -11    1    3    3    0    0 -0.72923180479E+01 -0.12610863671E+02  0.65101351502E+01  0.15955990880E+02  0.51100000000E-03 0.  1.
         12    1    3    3    0    0  0.20491788726E+02 -0.11553629889E+00  0.17266713665E+01  0.20564730678E+02  0.00000000000E+00 0. -1.
</event>
<event>
 7    1  0.6246445E-012  0.5930206E+02  0.7816164E-02  0.1266604E+00
        -11   -1    0    0    0    0  0.00000000000E+00  0.00000000000E+00  0.45593999997E+02  0.45594000000E+02  0.51100000000E-03 0.  1.
         11   -1    0    0    0    0 -0.00000000000E+00 -0.00000000000E+00 -0.45593999997E+02  0.45594000000E+02  0.51100000000E-03 0. -1.
    9900012    2    1    2    0    0 -0.21812356771E+02  0.19516891994E+02  0.12650113913E+02  0.59302056969E+02  0.50000205977E+02 0.  0.
         12    1    1    2    0    0  0.21812356771E+02 -0.19516891994E+02 -0.12650113913E+02  0.31885943031E+02  0.00000000000E+00 0. -1.
         11    1    3    3    0    0  0.88612644349E+01  0.18277783752E+01 -0.38254474539E+01  0.98232799847E+01  0.51100000000E-03 0. -1.
        -11    1    3    3    0    0 -0.52421966627E+01  0.19225303380E+02  0.12932319383E+02  0.23755795099E+02  0.51100000000E-03 0.  1.
        -12    1    3    3    0    0 -0.25431424543E+02 -0.15361897618E+01  0.35432419836E+01  0.25722981885E+02  0.00000000000E+00 0.  1.
</event>
<event>
 7    1  0.6246445E-012  0.5930199E+02  0.7816164E-02  0.1266605E+00
        -11   -1    0    0    0    0  0.00000000000E+00  0.00000000000E+00  0.45593999997E+02  0.45594000000E+02  0.51100000000E-03 0.  1.
         11   -1    0    0    0    0 -0.00000000000E+00 -0.00000000000E+00 -0.45593999997E+02  0.45594000000E+02  0.51100000000E-03 0. -1.
    9900012    2    1    2    0    0 -0.72873325257E+01 -0.27116254692E+02  0.15110305073E+02  0.59301987341E+02  0.50000078994E+02 0.  0.
         12    1    1    2    0    0  0.72873325257E+01  0.27116254692E+02 -0.15110305073E+02  0.31886012659E+02  0.00000000000E+00 0. -1.
         11    1    3    3    0    0  0.15255268143E+01  0.19841257281E+01  0.49579091056E+01  0.55538139982E+01  0.51100000000E-03 0. -1.
        -11    1    3    3    0    0 -0.17434147335E+02 -0.17423154094E+02  0.23480785532E+02  0.34042078099E+02  0.51100000000E-03 0.  1.
        -12    1    3    3    0    0  0.86212879947E+01 -0.11677226327E+02 -0.13328389565E+02  0.19706095244E+02  0.00000000000E+00 0.  1.
</event>
<event>
 7    1  0.6246445E-012  0.5930199E+02  0.7816164E-02  0.1266605E+00
        -11   -1    0    0    0    0  0.00000000000E+00  0.00000000000E+00  0.45593999997E+02  0.45594000000E+02  0.51100000000E-03 0. -1.
         11   -1    0    0    0    0 -0.00000000000E+00 -0.00000000000E+00 -0.45593999997E+02  0.45594000000E+02  0.51100000000E-03 0.  1.
    9900012    2    1    2    0    0 -0.84025307992E+01 -0.26889810661E+02 -0.14934958644E+02  0.59301993180E+02  0.50000089643E+02 0.  0.
         12    1    1    2    0    0  0.84025307992E+01  0.26889810661E+02  0.14934958644E+02  0.31886006820E+02  0.00000000000E+00 0. -1.
         11    1    3    3    0    0  0.49870923487E+01  0.62443021853E+01  0.63481971047E+01  0.10205978964E+02  0.51100000000E-03 0. -1.
        -11    1    3    3    0    0 -0.19070321237E+01  0.30390630405E+01  0.24406166957E+01  0.43392724968E+01  0.51100000000E-03 0.  1.
        -12    1    3    3    0    0 -0.11482591024E+02 -0.36173175887E+02 -0.23723772444E+02  0.44756741719E+02  0.00000000000E+00 0.  1.
</event>
<event>
 7    1  0.6246445E-012  0.5930199E+02  0.7816164E-02  0.1266605E+00
        -11   -1    0    0    0    0  0.00000000000E+00  0.00000000000E+00  0.45593999997E+02  0.45594000000E+02  0.51100000000E-03 0.  1.
         11   -1    0    0    0    0 -0.00000000000E+00 -0.00000000000E+00 -0.45593999997E+02  0.45594000000E+02  0.51100000000E-03 0. -1.
    9900012    2    1    2    0    0  0.33483821684E+00  0.29101317234E+02  0.13027624369E+02  0.59301987736E+02  0.50000079714E+02 0.  0.
         12    1    1    2    0    0 -0.33483821684E+00 -0.29101317234E+02 -0.13027624369E+02  0.31886012264E+02  0.00000000000E+00 0. -1.
         11    1    3    3    0    0 -0.74441683424E+01  0.10128385033E+02  0.47050103136E-01  0.12569886223E+02  0.51100000000E-03 0. -1.
        -11    1    3    3    0    0 -0.25961095537E+01  0.24165570823E+02  0.21411068956E+02  0.32390561466E+02  0.51100000000E-03 0.  1.
        -12    1    3    3    0    0  0.10375116113E+02 -0.51926386218E+01 -0.84304946895E+01  0.14341540047E+02  0.00000000000E+00 0.  1.
</event>
<event>
 7    1  0.6246445E-012  0.5930195E+02  0.7816164E-02  0.1266605E+00
        -11   -1    0    0    0    0  0.00000000000E+00  0.00000000000E+00  0.45593999997E+02  0.45594000000E+02  0.51100000000E-03 0.  1.
         11   -1    0    0    0    0 -0.00000000000E+00 -0.00000000000E+00 -0.45593999997E+02  0.45594000000E+02  0.51100000000E-03 0. -1.
    9900012    2    1    2    0    0  0.17971501697E+02  0.26338678331E+02 -0.13834770893E+00  0.59301953058E+02  0.50000016469E+02 0.  0.
         12    1    1    2    0    0 -0.17971501697E+02 -0.26338678331E+02  0.13834770893E+00  0.31886046942E+02  0.00000000000E+00 0. -1.
         11    1    3    3    0    0  0.10223952039E+02 -0.62183454831E+01  0.74614338767E+01  0.14102127910E+02  0.51100000000E-03 0. -1.
        -11    1    3    3    0    0  0.36459890846E+01 -0.82542448704E+00  0.74634082512E+01  0.83472765004E+01  0.51100000000E-03 0.  1.
        -12    1    3    3    0    0  0.41015605742E+01  0.33382448302E+02 -0.15063189837E+02  0.36852548647E+02  0.00000000000E+00 0.  1.
</event>
<event>
 7    1  0.6246445E-012  0.5930197E+02  0.7816164E-02  0.1266605E+00
        -11   -1    0    0    0    0  0.00000000000E+00  0.00000000000E+00  0.45593999997E+02  0.45594000000E+02  0.51100000000E-03 0. -1.
         11   -1    0    0    0    0 -0.00000000000E+00 -0.00000000000E+00 -0.45593999997E+02  0.45594000000E+02  0.51100000000E-03 0.  1.
    9900012    2    1    2    0    0  0.14154589979E+01  0.88757231437E+01 -0.30593088490E+02  0.59301967810E+02  0.50000043373E+02 0.  0.
         12    1    1    2    0    0 -0.14154589979E+01 -0.88757231437E+01  0.30593088490E+02  0.31886032190E+02  0.00000000000E+00 0. -1.
         11    1    3    3    0    0  0.12672876616E+02  0.21048101535E+02 -0.26688339222E+02  0.36275223372E+02  0.51100000000E-03 0. -1.
        -11    1    3    3    0    0  0.18751212099E+01  0.21064259472E+01 -0.21531911468E+01  0.35481463046E+01  0.51100000000E-03 0.  1.
        -12    1    3    3    0    0 -0.13132538828E+02 -0.14278804338E+02 -0.17515581203E+01  0.19478598134E+02  0.00000000000E+00 0.  1.
</event>
<event>
 7    1  0.6246445E-012  0.5930195E+02  0.7816164E-02  0.1266605E+00
        -11   -1    0    0    0    0  0.00000000000E+00  0.00000000000E+00  0.45593999997E+02  0.45594000000E+02  0.51100000000E-03 0. -1.
         11   -1    0    0    0    0 -0.00000000000E+00 -0.00000000000E+00 -0.45593999997E+02  0.45594000000E+02  0.51100000000E-03 0.  1.
    9900012    2    1    2    0    0 -0.16764065920E+02 -0.27110481029E+02  0.84138140105E+00  0.59301952730E+02  0.50000015872E+02 0.  0.
         12    1    1    2    0    0  0.16764065920E+02  0.27110481029E+02 -0.84138140105E+00  0.31886047270E+02  0.00000000000E+00 0. -1.
         11    1    3    3    0    0 -0.11100743357E+02 -0.81738388802E+01 -0.66760082161E+00  0.13801588178E+02  0.51100000000E-03 0. -1.
        -11    1    3    3    0    0 -0.10568746346E+02 -0.30512243819E+02 -0.22758765340E+01  0.32370897986E+02  0.51100000000E-03 0.  1.
         12    1    3    3    0    0  0.49054237826E+01  0.11575601670E+02  0.37848587567E+01  0.13129466566E+02  0.00000000000E+00 0. -1.
</event>
<event>
 7    1  0.6246445E-012  0.5930194E+02  0.7816164E-02  0.1266605E+00
        -11   -1    0    0    0    0  0.00000000000E+00  0.00000000000E+00  0.45593999997E+02  0.45594000000E+02  0.51100000000E-03 0.  1.
         11   -1    0    0    0    0 -0.00000000000E+00 -0.00000000000E+00 -0.45593999997E+02  0.45594000000E+02  0.51100000000E-03 0. -1.
    9900012    2    1    2    0    0 -0.17168085761E+02  0.12156363011E+02  0.23962476417E+02  0.59301943386E+02  0.49999998829E+02 0.  0.
         12    1    1    2    0    0  0.17168085761E+02 -0.12156363011E+02 -0.23962476417E+02  0.31886056614E+02  0.00000000000E+00 0. -1.
         11    1    3    3    0    0 -0.17391941466E+02 -0.33373152768E+01  0.39308085824E+01  0.18140246900E+02  0.51100000000E-03 0. -1.
        -11    1    3    3    0    0 -0.64556496760E+01 -0.50937507589E+01 -0.37218072265E+01  0.90262704826E+01  0.51100000000E-03 0.  1.
        -12    1    3    3    0    0  0.66795053815E+01  0.20587429047E+02  0.23753475061E+02  0.32135426003E+02  0.00000000000E+00 0.  1.
</event>
<event>
 7    1  0.6246445E-012  0.5930193E+02  0.7816164E-02  0.1266605E+00
        -11   -1    0    0    0    0  0.00000000000E+00  0.00000000000E+00  0.45593999997E+02  0.45594000000E+02  0.51100000000E-03 0.  1.
         11   -1    0    0    0    0 -0.00000000000E+00 -0.00000000000E+00 -0.45593999997E+02  0.45594000000E+02  0.51100000000E-03 0. -1.
    9900012    2    1    2    0    0  0.22555903801E+02 -0.18984932990E+02  0.12145976875E+02  0.59301933589E+02  0.49999980961E+02 0.  0.
         12    1    1    2    0    0 -0.22555903801E+02  0.18984932990E+02 -0.12145976875E+02  0.31886066411E+02  0.00000000000E+00 0. -1.
         11    1    3    3    0    0  0.11365226614E+02  0.99188917169E+01  0.46157476853E+00  0.15091913080E+02  0.51100000000E-03 0. -1.
        -11    1    3    3    0    0  0.18568966939E+02 -0.19549529965E+02  0.16215884566E+02  0.31463400445E+02  0.51100000000E-03 0.  1.
         12    1    3    3    0    0 -0.73782897515E+01 -0.93542947424E+01 -0.45314824591E+01  0.12746620064E+02  0.00000000000E+00 0. -1.
</event>
<event>
 7    1  0.6246445E-012  0.5930195E+02  0.7816164E-02  0.1266605E+00
        -11   -1    0    0    0    0  0.00000000000E+00  0.00000000000E+00  0.45593999997E+02  0.45594000000E+02  0.51100000000E-03 0.  1.
         11   -1    0    0    0    0 -0.00000000000E+00 -0.00000000000E+00 -0.45593999997E+02  0.45594000000E+02  0.51100000000E-03 0. -1.
    9900012    2    1    2    0    0  0.63341388390E+01  0.17661652293E+02  0.25781101944E+02  0.59301945148E+02  0.50000002044E+02 0.  0.
         12    1    1    2    0    0 -0.63341388390E+01 -0.17661652293E+02 -0.25781101944E+02  0.31886054852E+02  0.00000000000E+00 0. -1.
         11    1    3    3    0    0  0.14247631084E+02  0.21727749942E+02  0.17976615194E+02  0.31595075615E+02  0.51100000000E-03 0. -1.
        -11    1    3    3    0    0  0.83936687576E+00  0.68697634540E+01  0.11317337601E+02  0.13265757321E+02  0.51100000000E-03 0.  1.
        -12    1    3    3    0    0 -0.87528591208E+01 -0.10935861103E+02 -0.35128508504E+01  0.14441112213E+02  0.00000000000E+00 0.  1.
</event>
<event>
 7    1  0.6246445E-012  0.5930193E+02  0.7816164E-02  0.1266605E+00
        -11   -1    0    0    0    0  0.00000000000E+00  0.00000000000E+00  0.45593999997E+02  0.45594000000E+02  0.51100000000E-03 0.  1.
         11   -1    0    0    0    0 -0.00000000000E+00 -0.00000000000E+00 -0.45593999997E+02  0.45594000000E+02  0.51100000000E-03 0. -1.
    9900012    2    1    2    0    0  0.15978264154E+02  0.17928818037E+02  0.20975553442E+02  0.59301932764E+02  0.49999979457E+02 0.  0.
         12    1    1    2    0    0 -0.15978264154E+02 -0.17928818037E+02 -0.20975553442E+02  0.31886067236E+02  0.00000000000E+00 0. -1.
         11    1    3    3    0    0 -0.62598366043E+01  0.67666981505E+01  0.19920378187E+02  0.21949834295E+02  0.51100000000E-03 0. -1.
        -11    1    3    3    0    0  0.12832061189E+02  0.18926939627E+02  0.68189039983E+01  0.23861858478E+02  0.51100000000E-03 0.  1.
         12    1    3    3    0    0  0.94060395695E+01 -0.77648197406E+01 -0.57637287436E+01  0.13490239991E+02  0.00000000000E+00 0. -1.
</event>
<event>
 7    1  0.6246445E-012  0.5930194E+02  0.7816164E-02  0.1266605E+00
        -11   -1    0    0    0    0  0.00000000000E+00  0.00000000000E+00  0.45593999997E+02  0.45594000000E+02  0.51100000000E-03 0.  1.
         11   -1    0    0    0    0 -0.00000000000E+00 -0.00000000000E+00 -0.45593999997E+02  0.45594000000E+02  0.51100000000E-03 0. -1.
    9900012    2    1    2    0    0  0.24501037916E+02  0.18133793290E+02  0.93587165992E+01  0.59301938870E+02  0.49999990593E+02 0.  0.
         12    1    1    2    0    0 -0.24501037916E+02 -0.18133793290E+02 -0.93587165992E+01  0.31886061130E+02  0.00000000000E+00 0. -1.
         11    1    3    3    0    0 -0.45877471788E+00 -0.27712902816E+01  0.25056954115E+01  0.37641777087E+01  0.51100000000E-03 0. -1.
        -11    1    3    3    0    0  0.24410978299E+02  0.28057247034E+02  0.18747120668E+02  0.41648043246E+02  0.51100000000E-03 0.  1.
         12    1    3    3    0    0  0.54883433469E+00 -0.71521634621E+01 -0.11894099480E+02  0.13889717915E+02  0.00000000000E+00 0. -1.
</event>
<event>
 7    1  0.6246445E-012  0.5930203E+02  0.7816164E-02  0.1266604E+00
        -11   -1    0    0    0    0  0.00000000000E+00  0.00000000000E+00  0.45593999997E+02  0.45594000000E+02  0.51100000000E-03 0. -1.
         11   -1    0    0    0    0 -0.00000000000E+00 -0.00000000000E+00 -0.45593999997E+02  0.45594000000E+02  0.51100000000E-03 0.  1.
    9900012    2    1    2    0    0  0.24185183926E+02  0.20767072798E+02 -0.72146214557E+00  0.59302032212E+02  0.50000160827E+02 0.  0.
         12    1    1    2    0    0 -0.24185183926E+02 -0.20767072798E+02  0.72146214557E+00  0.31885967788E+02  0.00000000000E+00 0. -1.
         11    1    3    3    0    0  0.82438668159E+01  0.27434339477E+02  0.90952763602E+01  0.30055421723E+02  0.51100000000E-03 0. -1.
        -11    1    3    3    0    0  0.47296204683E+01  0.48086167437E+01  0.41973739782E+01  0.79441836167E+01  0.51100000000E-03 0.  1.
        -12    1    3    3    0    0  0.11211696642E+02 -0.11475883423E+02 -0.14014112484E+02  0.21302426872E+02  0.00000000000E+00 0.  1.
</event>
<event>
 7    1  0.6246445E-012  0.5930181E+02  0.7816164E-02  0.1266605E+00
        -11   -1    0    0    0    0  0.00000000000E+00  0.00000000000E+00  0.45593999997E+02  0.45594000000E+02  0.51100000000E-03 0. -1.
         11   -1    0    0    0    0 -0.00000000000E+00 -0.00000000000E+00 -0.45593999997E+02  0.45594000000E+02  0.51100000000E-03 0.  1.
    9900012    2    1    2    0    0  0.67848384481E+01 -0.28293886786E+02 -0.13044195776E+02  0.59301810110E+02  0.49999755766E+02 0.  0.
         12    1    1    2    0    0 -0.67848384481E+01  0.28293886786E+02  0.13044195776E+02  0.31886189890E+02  0.00000000000E+00 0. -1.
         11    1    3    3    0    0  0.78673422880E+01  0.64328082403E+01  0.70426245374E+01  0.12364249155E+02  0.51100000000E-03 0. -1.
        -11    1    3    3    0    0 -0.66285084101E+01  0.60679291852E+00 -0.31651850552E+01  0.73704625420E+01  0.51100000000E-03 0.  1.
         12    1    3    3    0    0  0.55460045702E+01 -0.35333487945E+02 -0.16921635258E+02  0.39567098413E+02  0.00000000000E+00 0. -1.
</event>
<event>
 7    1  0.6246445E-012  0.5930183E+02  0.7816164E-02  0.1266605E+00
        -11   -1    0    0    0    0  0.00000000000E+00  0.00000000000E+00  0.45593999997E+02  0.45594000000E+02  0.51100000000E-03 0. -1.
         11   -1    0    0    0    0 -0.00000000000E+00 -0.00000000000E+00 -0.45593999997E+02  0.45594000000E+02  0.51100000000E-03 0.  1.
    9900012    2    1    2    0    0  0.84069009315E+01 -0.29036316939E+02 -0.10146125220E+02  0.59301834636E+02  0.49999800495E+02 0.  0.
         12    1    1    2    0    0 -0.84069009315E+01  0.29036316939E+02  0.10146125220E+02  0.31886165364E+02  0.00000000000E+00 0. -1.
         11    1    3    3    0    0 -0.98015116368E+01  0.62080114421E+01 -0.36965508058E+00  0.11608000757E+02  0.51100000000E-03 0. -1.
        -11    1    3    3    0    0 -0.12755454899E+01  0.30765136230E+01 -0.23285725008E+01  0.40637670359E+01  0.51100000000E-03 0.  1.
        -12    1    3    3    0    0  0.19483958058E+02 -0.38320842004E+02 -0.74478976382E+01  0.43630066843E+02  0.00000000000E+00 0.  1.
</event>
<event>
 7    1  0.6246445E-012  0.5930194E+02  0.7816164E-02  0.1266605E+00
        -11   -1    0    0    0    0  0.00000000000E+00  0.00000000000E+00  0.45593999997E+02  0.45594000000E+02  0.51100000000E-03 0.  1.
         11   -1    0    0    0    0 -0.00000000000E+00 -0.00000000000E+00 -0.45593999997E+02  0.45594000000E+02  0.51100000000E-03 0. -1.
    9900012    2    1    2    0    0 -0.13025739541E+02  0.41266726835E+01  0.28810093424E+02  0.59301940333E+02  0.49999993261E+02 0.  0.
         12    1    1    2    0    0  0.13025739541E+02 -0.41266726835E+01 -0.28810093424E+02  0.31886059667E+02  0.00000000000E+00 0. -1.
         11    1    3    3    0    0  0.53422828707E+01 -0.35033772381E+00  0.40903528712E+01  0.67374854111E+01  0.51100000000E-03 0. -1.
        -11    1    3    3    0    0 -0.69108199640E+01  0.34257357881E+01  0.35781860704E+02  0.36603779231E+02  0.51100000000E-03 0.  1.
         12    1    3    3    0    0 -0.11457202448E+02  0.10512746192E+01 -0.11062120152E+02  0.15960675691E+02  0.00000000000E+00 0. -1.
</event>
<event>
 7    1  0.6246445E-012  0.5930209E+02  0.7816164E-02  0.1266604E+00
        -11   -1    0    0    0    0  0.00000000000E+00  0.00000000000E+00  0.45593999997E+02  0.45594000000E+02  0.51100000000E-03 0.  1.
         11   -1    0    0    0    0 -0.00000000000E+00 -0.00000000000E+00 -0.45593999997E+02  0.45594000000E+02  0.51100000000E-03 0. -1.
    9900012    2    1    2    0    0 -0.21100945339E+01 -0.14483739527E+02  0.28328075498E+02  0.59302092909E+02  0.50000271523E+02 0.  0.
         12    1    1    2    0    0  0.21100945339E+01  0.14483739527E+02 -0.28328075498E+02  0.31885907091E+02  0.00000000000E+00 0. -1.
         11    1    3    3    0    0 -0.15014517322E+01  0.22025444563E+01 -0.84484684443E+01  0.88590168022E+01  0.51100000000E-03 0. -1.
        -11    1    3    3    0    0  0.63153046712E+01 -0.19792903655E+02  0.10869845321E+02  0.23447721547E+02  0.51100000000E-03 0.  1.
        -12    1    3    3    0    0 -0.69239474729E+01  0.31066196711E+01  0.25906698621E+02  0.26995354560E+02  0.00000000000E+00 0.  1.
</event>
<event>
 7    1  0.6246445E-012  0.5930196E+02  0.7816164E-02  0.1266605E+00
        -11   -1    0    0    0    0  0.00000000000E+00  0.00000000000E+00  0.45593999997E+02  0.45594000000E+02  0.51100000000E-03 0.  1.
         11   -1    0    0    0    0 -0.00000000000E+00 -0.00000000000E+00 -0.45593999997E+02  0.45594000000E+02  0.51100000000E-03 0. -1.
    9900012    2    1    2    0    0 -0.34596002840E+01 -0.74081497249E+01  0.30819966673E+02  0.59301955055E+02  0.50000020112E+02 0.  0.
         12    1    1    2    0    0  0.34596002840E+01  0.74081497249E+01 -0.30819966673E+02  0.31886044945E+02  0.00000000000E+00 0. -1.
         11    1    3    3    0    0 -0.70832169794E+01 -0.21843394142E-01  0.20532455214E+02  0.21719902332E+02  0.51100000000E-03 0.  1.
        -11    1    3    3    0    0  0.91615109666E+01  0.10586201460E+02 -0.32963925601E+01  0.14382876927E+02  0.51100000000E-03 0. -1.
         12    1    3    3    0    0 -0.55378942711E+01 -0.17972507790E+02  0.13583904019E+02  0.23199175796E+02  0.00000000000E+00 0. -1.
</event>
<event>
 7    1  0.6246445E-012  0.5930200E+02  0.7816164E-02  0.1266605E+00
        -11   -1    0    0    0    0  0.00000000000E+00  0.00000000000E+00  0.45593999997E+02  0.45594000000E+02  0.51100000000E-03 0.  1.
         11   -1    0    0    0    0 -0.00000000000E+00 -0.00000000000E+00 -0.45593999997E+02  0.45594000000E+02  0.51100000000E-03 0. -1.
    9900012    2    1    2    0    0  0.19786193531E+02 -0.10984814850E+02  0.22462354958E+02  0.59301999906E+02  0.50000101908E+02 0.  0.
         12    1    1    2    0    0 -0.19786193531E+02  0.10984814850E+02 -0.22462354958E+02  0.31886000094E+02  0.00000000000E+00 0. -1.
         11    1    3    3    0    0 -0.75392135153E+00 -0.14904786156E+01  0.21644057333E+02  0.21708411780E+02  0.51100000000E-03 0.  1.
        -11    1    3    3    0    0  0.19195781537E+02  0.51434279983E+01  0.77641711854E+01  0.21335773594E+02  0.51100000000E-03 0. -1.
        -12    1    3    3    0    0  0.13443333454E+01 -0.14637764232E+02 -0.69458735598E+01  0.16257814533E+02  0.00000000000E+00 0.  1.
</event>
<event>
 7    1  0.6246445E-012  0.5930199E+02  0.7816164E-02  0.1266605E+00
        -11   -1    0    0    0    0  0.00000000000E+00  0.00000000000E+00  0.45593999997E+02  0.45594000000E+02  0.51100000000E-03 0. -1.
         11   -1    0    0    0    0 -0.00000000000E+00 -0.00000000000E+00 -0.45593999997E+02  0.45594000000E+02  0.51100000000E-03 0.  1.
    9900012    2    1    2    0    0  0.14489920306E+02  0.17874060601E+01 -0.28347217155E+02  0.59301994742E+02  0.50000092490E+02 0.  0.
         12    1    1    2    0    0 -0.14489920306E+02 -0.17874060601E+01  0.28347217155E+02  0.31886005258E+02  0.00000000000E+00 0. -1.
         11    1    3    3    0    0 -0.27190636211E+01  0.76413132500E+01  0.39794767261E+01  0.90343350854E+01  0.51100000000E-03 0. -1.
        -11    1    3    3    0    0 -0.10066487760E+02  0.15334412867E+01 -0.97555197815E+01  0.14101623469E+02  0.51100000000E-03 0.  1.
        -12    1    3    3    0    0  0.27275471687E+02 -0.73873484766E+01 -0.22571174100E+02  0.36166036187E+02  0.00000000000E+00 0.  1.
</event>
<event>
 7    1  0.6246445E-012  0.5930193E+02  0.7816164E-02  0.1266605E+00
        -11   -1    0    0    0    0  0.00000000000E+00  0.00000000000E+00  0.45593999997E+02  0.45594000000E+02  0.51100000000E-03 0.  1.
         11   -1    0    0    0    0 -0.00000000000E+00 -0.00000000000E+00 -0.45593999997E+02  0.45594000000E+02  0.51100000000E-03 0. -1.
    9900012    2    1    2    0    0 -0.31662495046E+02 -0.81851271528E+00 -0.36794188615E+01  0.59301926570E+02  0.49999968162E+02 0.  0.
         12    1    1    2    0    0  0.31662495046E+02  0.81851271528E+00  0.36794188615E+01  0.31886073430E+02  0.00000000000E+00 0. -1.
         11    1    3    3    0    0 -0.20806974565E+02  0.18194731231E+01 -0.61576123807E+01  0.21775143249E+02  0.51100000000E-03 0.  1.
        -11    1    3    3    0    0  0.77680765046E+00 -0.14464385458E+02  0.11634534454E+02  0.18579135314E+02  0.51100000000E-03 0. -1.
         12    1    3    3    0    0 -0.11632328131E+02  0.11826399619E+02 -0.91563409349E+01  0.18947648008E+02  0.00000000000E+00 0. -1.
</event>
<event>
 7    1  0.6246445E-012  0.5930188E+02  0.7816164E-02  0.1266605E+00
        -11   -1    0    0    0    0  0.00000000000E+00  0.00000000000E+00  0.45593999997E+02  0.45594000000E+02  0.51100000000E-03 0.  1.
         11   -1    0    0    0    0 -0.00000000000E+00 -0.00000000000E+00 -0.45593999997E+02  0.45594000000E+02  0.51100000000E-03 0. -1.
    9900012    2    1    2    0    0 -0.14601612075E+02 -0.27011311441E+02  0.85968913855E+01  0.59301881351E+02  0.49999885693E+02 0.  0.
         12    1    1    2    0    0  0.14601612075E+02  0.27011311441E+02 -0.85968913855E+01  0.31886118649E+02  0.00000000000E+00 0. -1.
         11    1    3    3    0    0  0.10377729323E+02 -0.84527002766E+01 -0.11313012989E+02  0.17525115435E+02  0.51100000000E-03 0. -1.
        -11    1    3    3    0    0  0.28416648708E+01 -0.43783575486E+01  0.47815027159E+01  0.70786893239E+01  0.51100000000E-03 0.  1.
        -12    1    3    3    0    0 -0.27821006269E+02 -0.14180253616E+02  0.15128401659E+02  0.34698076592E+02  0.00000000000E+00 0.  1.
</event>
<event>
 7    1  0.6246445E-012  0.5930197E+02  0.7816164E-02  0.1266605E+00
        -11   -1    0    0    0    0  0.00000000000E+00  0.00000000000E+00  0.45593999997E+02  0.45594000000E+02  0.51100000000E-03 0. -1.
         11   -1    0    0    0    0 -0.00000000000E+00 -0.00000000000E+00 -0.45593999997E+02  0.45594000000E+02  0.51100000000E-03 0.  1.
    9900012    2    1    2    0    0  0.18181395585E+02  0.96712406887E+01 -0.24343849093E+02  0.59301968097E+02  0.50000043896E+02 0.  0.
         12    1    1    2    0    0 -0.18181395585E+02 -0.96712406887E+01  0.24343849093E+02  0.31886031903E+02  0.00000000000E+00 0. -1.
         11    1    3    3    0    0  0.26687939521E+02  0.12954949984E+02 -0.56992988241E+01  0.30208589049E+02  0.51100000000E-03 0. -1.
        -11    1    3    3    0    0 -0.40325673457E+01 -0.54964937017E+00  0.40853271515E+01  0.57665944910E+01  0.51100000000E-03 0.  1.
        -12    1    3    3    0    0 -0.44739765904E+01 -0.27340599251E+01 -0.22729877421E+02  0.23326784557E+02  0.00000000000E+00 0.  1.
</event>
<event>
 7    1  0.6246445E-012  0.5930196E+02  0.7816164E-02  0.1266605E+00
        -11   -1    0    0    0    0  0.00000000000E+00  0.00000000000E+00  0.45593999997E+02  0.45594000000E+02  0.51100000000E-03 0.  1.
         11   -1    0    0    0    0 -0.00000000000E+00 -0.00000000000E+00 -0.45593999997E+02  0.45594000000E+02  0.51100000000E-03 0. -1.
    9900012    2    1    2    0    0  0.27890226990E+02  0.15193956877E+02 -0.28281456297E+01  0.59301960816E+02  0.50000030617E+02 0.  0.
         12    1    1    2    0    0 -0.27890226990E+02 -0.15193956877E+02  0.28281456297E+01  0.31886039184E+02  0.00000000000E+00 0. -1.
         11    1    3    3    0    0 -0.24287195330E+01  0.17500347855E+02  0.68031865382E+01  0.18932622664E+02  0.51100000000E-03 0. -1.
        -11    1    3    3    0    0  0.59844110733E+00 -0.61299657560E+01 -0.83509336468E+01  0.10376545907E+02  0.51100000000E-03 0.  1.
        -12    1    3    3    0    0  0.29720505416E+02  0.38235747789E+01 -0.12803985211E+01  0.29992792245E+02  0.00000000000E+00 0.  1.
</event>
<event>
 7    1  0.6246445E-012  0.5930193E+02  0.7816164E-02  0.1266605E+00
        -11   -1    0    0    0    0  0.00000000000E+00  0.00000000000E+00  0.45593999997E+02  0.45594000000E+02  0.51100000000E-03 0.  1.
         11   -1    0    0    0    0 -0.00000000000E+00 -0.00000000000E+00 -0.45593999997E+02  0.45594000000E+02  0.51100000000E-03 0. -1.
    9900012    2    1    2    0    0  0.57551832060E+01  0.13324466150E+02  0.28391156001E+02  0.59301932964E+02  0.49999979823E+02 0.  0.
         12    1    1    2    0    0 -0.57551832060E+01 -0.13324466150E+02 -0.28391156001E+02  0.31886067036E+02  0.00000000000E+00 0. -1.
         11    1    3    3    0    0  0.55540302090E-01 -0.81823288118E+01 -0.94064770661E+00  0.82364074619E+01  0.51100000000E-03 0. -1.
        -11    1    3    3    0    0  0.17865117769E+02  0.74691216674E+01  0.25633700357E+02  0.32125329658E+02  0.51100000000E-03 0.  1.
         12    1    3    3    0    0 -0.12165474866E+02  0.14037673295E+02  0.36981033508E+01  0.18940195844E+02  0.00000000000E+00 0. -1.
</event>
<event>
 7    1  0.6246445E-012  0.5930194E+02  0.7816164E-02  0.1266605E+00
        -11   -1    0    0    0    0  0.00000000000E+00  0.00000000000E+00  0.45593999997E+02  0.45594000000E+02  0.51100000000E-03 0.  1.
         11   -1    0    0    0    0 -0.00000000000E+00 -0.00000000000E+00 -0.45593999997E+02  0.45594000000E+02  0.51100000000E-03 0. -1.
    9900012    2    1    2    0    0 -0.85724757579E+01 -0.21703046198E+02  0.21730423958E+02  0.59301939091E+02  0.49999990996E+02 0.  0.
         12    1    1    2    0    0  0.85724757579E+01  0.21703046198E+02 -0.21730423958E+02  0.31886060909E+02  0.00000000000E+00 0. -1.
         11    1    3    3    0    0 -0.45303173057E+01 -0.28102985912E+02 -0.99603922060E+00  0.28483217628E+02  0.51100000000E-03 0.  1.
        -11    1    3    3    0    0 -0.76733875160E+01  0.83742288496E+01  0.46457150632E+01  0.12271562798E+02  0.51100000000E-03 0. -1.
        -12    1    3    3    0    0  0.36312290639E+01 -0.19742891359E+01  0.18080748116E+02  0.18547158665E+02  0.00000000000E+00 0.  1.
</event>
<event>
 7    1  0.6246445E-012  0.5930193E+02  0.7816164E-02  0.1266605E+00
        -11   -1    0    0    0    0  0.00000000000E+00  0.00000000000E+00  0.45593999997E+02  0.45594000000E+02  0.51100000000E-03 0.  1.
         11   -1    0    0    0    0 -0.00000000000E+00 -0.00000000000E+00 -0.45593999997E+02  0.45594000000E+02  0.51100000000E-03 0. -1.
    9900012    2    1    2    0    0  0.36458475505E+01 -0.16659300246E+02  0.26942478731E+02  0.59301927033E+02  0.49999969006E+02 0.  0.
         12    1    1    2    0    0 -0.36458475505E+01  0.16659300246E+02 -0.26942478731E+02  0.31886072967E+02  0.00000000000E+00 0. -1.
         11    1    3    3    0    0 -0.59130082685E+01 -0.42455200333E+01 -0.78928563637E+01  0.10737098722E+02  0.51100000000E-03 0. -1.
        -11    1    3    3    0    0 -0.70783906150E+01 -0.15252393206E+02  0.15132593453E+02  0.22621549397E+02  0.51100000000E-03 0.  1.
        -12    1    3    3    0    0  0.16637246434E+02  0.28386129937E+01  0.19702741642E+02  0.25943278914E+02  0.00000000000E+00 0.  1.
</event>
<event>
 7    1  0.6246445E-012  0.5930195E+02  0.7816164E-02  0.1266605E+00
        -11   -1    0    0    0    0  0.00000000000E+00  0.00000000000E+00  0.45593999997E+02  0.45594000000E+02  0.51100000000E-03 0. -1.
         11   -1    0    0    0    0 -0.00000000000E+00 -0.00000000000E+00 -0.45593999997E+02  0.45594000000E+02  0.51100000000E-03 0.  1.
    9900012    2    1    2    0    0  0.92785816928E-02 -0.23612148329E+02 -0.21428631712E+02  0.59301954591E+02  0.50000019264E+02 0.  0.
         12    1    1    2    0    0 -0.92785816928E-02  0.23612148329E+02  0.21428631712E+02  0.31886045409E+02  0.00000000000E+00 0. -1.
         11    1    3    3    0    0 -0.48488794349E+01 -0.49830252321E+01  0.12050639054E+02  0.13912586895E+02  0.51100000000E-03 0. -1.
        -11    1    3    3    0    0  0.65656691175E+01 -0.38604794031E+01  0.11507353938E+01  0.77029542638E+01  0.51100000000E-03 0.  1.
        -12    1    3    3    0    0 -0.17075111009E+01 -0.14768643694E+02 -0.34630006160E+02  0.37686413432E+02  0.00000000000E+00 0.  1.
</event>
<event>
 7    1  0.6246445E-012  0.5930191E+02  0.7816164E-02  0.1266605E+00
        -11   -1    0    0    0    0  0.00000000000E+00  0.00000000000E+00  0.45593999997E+02  0.45594000000E+02  0.51100000000E-03 0. -1.
         11   -1    0    0    0    0 -0.00000000000E+00 -0.00000000000E+00 -0.45593999997E+02  0.45594000000E+02  0.51100000000E-03 0.  1.
    9900012    2    1    2    0    0 -0.29571546063E+02  0.50898422990E+01  0.10786094727E+02  0.59301911017E+02  0.49999939796E+02 0.  0.
         12    1    1    2    0    0  0.29571546063E+02 -0.50898422990E+01 -0.10786094727E+02  0.31886088983E+02  0.00000000000E+00 0. -1.
         11    1    3    3    0    0  0.74654885471E+01  0.57973753401E+01 -0.74926991804E+01  0.12061659146E+02  0.51100000000E-03 0. -1.
        -11    1    3    3    0    0 -0.18196762371E+02  0.29552537403E+01 -0.28962968099E+01  0.18661302767E+02  0.51100000000E-03 0.  1.
        -12    1    3    3    0    0 -0.18840272239E+02 -0.36627867814E+01  0.21175090717E+02  0.28578949104E+02  0.00000000000E+00 0.  1.
</event>
<event>
 7    1  0.6246445E-012  0.5930192E+02  0.7816164E-02  0.1266605E+00
        -11   -1    0    0    0    0  0.00000000000E+00  0.00000000000E+00  0.45593999997E+02  0.45594000000E+02  0.51100000000E-03 0.  1.
         11   -1    0    0    0    0 -0.00000000000E+00 -0.00000000000E+00 -0.45593999997E+02  0.45594000000E+02  0.51100000000E-03 0. -1.
    9900012    2    1    2    0    0 -0.97370653963E+01  0.63236902921E+01  0.29697184542E+02  0.59301917281E+02  0.49999951220E+02 0.  0.
         12    1    1    2    0    0  0.97370653963E+01 -0.63236902921E+01 -0.29697184542E+02  0.31886082719E+02  0.00000000000E+00 0. -1.
         11    1    3    3    0    0 -0.60518158369E+01  0.70227035426E+01  0.73134298084E+01  0.11808009815E+02  0.51100000000E-03 0. -1.
        -11    1    3    3    0    0 -0.13925787565E+02 -0.35106389239E+01  0.30773824342E+02  0.33959982477E+02  0.51100000000E-03 0.  1.
         12    1    3    3    0    0  0.10240538005E+02  0.28116256733E+01 -0.83900696082E+01  0.13533924989E+02  0.00000000000E+00 0. -1.
</event>
<event>
 7    1  0.6246445E-012  0.5930198E+02  0.7816164E-02  0.1266605E+00
        -11   -1    0    0    0    0  0.00000000000E+00  0.00000000000E+00  0.45593999997E+02  0.45594000000E+02  0.51100000000E-03 0. -1.
         11   -1    0    0    0    0 -0.00000000000E+00 -0.00000000000E+00 -0.45593999997E+02  0.45594000000E+02  0.51100000000E-03 0.  1.
    9900012    2    1    2    0    0  0.91103003258E+01  0.27905212425E+01 -0.30429153885E+02  0.59301984460E+02  0.50000073739E+02 0.  0.
         12    1    1    2    0    0 -0.91103003258E+01 -0.27905212425E+01  0.30429153885E+02  0.31886015540E+02  0.00000000000E+00 0. -1.
         11    1    3    3    0    0  0.79221203027E+00  0.15262753387E+02 -0.51384920518E+01  0.16123998935E+02  0.51100000000E-03 0. -1.
        -11    1    3    3    0    0  0.11526167630E+00  0.10015166601E+02 -0.29645315938E+01  0.10445348014E+02  0.51100000000E-03 0.  1.
        -12    1    3    3    0    0  0.82028266192E+01 -0.22487398746E+02 -0.22326130240E+02  0.32732637510E+02  0.00000000000E+00 0.  1.
</event>
<event>
 7    1  0.6246445E-012  0.5930190E+02  0.7816164E-02  0.1266605E+00
        -11   -1    0    0    0    0  0.00000000000E+00  0.00000000000E+00  0.45593999997E+02  0.45594000000E+02  0.51100000000E-03 0.  1.
         11   -1    0    0    0    0 -0.00000000000E+00 -0.00000000000E+00 -0.45593999997E+02  0.45594000000E+02  0.51100000000E-03 0. -1.
    9900012    2    1    2    0    0  0.58185081375E+01 -0.17922698005E+01  0.31299454365E+02  0.59301904104E+02  0.49999927188E+02 0.  0.
         12    1    1    2    0    0 -0.58185081375E+01  0.17922698005E+01 -0.31299454365E+02  0.31886095896E+02  0.00000000000E+00 0. -1.
         11    1    3    3    0    0 -0.15252246952E+02 -0.21961313489E+01  0.73814633800E+01  0.17086252716E+02  0.51100000000E-03 0. -1.
        -11    1    3    3    0    0 -0.37699663202E+01  0.56602974305E+01  0.12805944281E+02  0.14499786973E+02  0.51100000000E-03 0.  1.
        -12    1    3    3    0    0  0.24840721410E+02 -0.52564358821E+01  0.11112046704E+02  0.27715864415E+02  0.00000000000E+00 0.  1.
</event>
<event>
 7    1  0.6246445E-012  0.5930184E+02  0.7816164E-02  0.1266605E+00
        -11   -1    0    0    0    0  0.00000000000E+00  0.00000000000E+00  0.45593999997E+02  0.45594000000E+02  0.51100000000E-03 0.  1.
         11   -1    0    0    0    0 -0.00000000000E+00 -0.00000000000E+00 -0.45593999997E+02  0.45594000000E+02  0.51100000000E-03 0. -1.
    9900012    2    1    2    0    0 -0.16255790602E+01  0.20795037136E+02  0.24117445154E+02  0.59301839404E+02  0.49999809192E+02 0.  0.
         12    1    1    2    0    0  0.16255790602E+01 -0.20795037136E+02 -0.24117445154E+02  0.31886160596E+02  0.00000000000E+00 0. -1.
         11    1    3    3    0    0  0.32912717284E+01  0.11908454356E+01  0.13479922542E+02  0.13926912596E+02  0.51100000000E-03 0. -1.
        -11    1    3    3    0    0 -0.56311199545E+01  0.26543767561E+02  0.19993101285E+02  0.33704676345E+02  0.51100000000E-03 0.  1.
         12    1    3    3    0    0  0.71426916594E+00 -0.69395758610E+01 -0.93555786729E+01  0.11670250463E+02  0.00000000000E+00 0. -1.
</event>
<event>
 7    1  0.6246445E-012  0.5930194E+02  0.7816164E-02  0.1266605E+00
        -11   -1    0    0    0    0  0.00000000000E+00  0.00000000000E+00  0.45593999997E+02  0.45594000000E+02  0.51100000000E-03 0. -1.
         11   -1    0    0    0    0 -0.00000000000E+00 -0.00000000000E+00 -0.45593999997E+02  0.45594000000E+02  0.51100000000E-03 0.  1.
    9900012    2    1    2    0    0 -0.53511492771E+01 -0.59655982504E+01 -0.30862558703E+02  0.59301942063E+02  0.49999996416E+02 0.  0.
         12    1    1    2    0    0  0.53511492771E+01  0.59655982504E+01  0.30862558703E+02  0.31886057937E+02  0.00000000000E+00 0. -1.
         11    1    3    3    0    0 -0.55493056762E+00 -0.13675670796E+02 -0.21218149176E+02  0.25249589588E+02  0.51100000000E-03 0. -1.
        -11    1    3    3    0    0  0.23806252730E+01 -0.84037449593E+01 -0.13420903457E+02  0.16012837222E+02  0.51100000000E-03 0.  1.
        -12    1    3    3    0    0 -0.71768439825E+01  0.16113817505E+02  0.37764939304E+01  0.18039515252E+02  0.00000000000E+00 0.  1.
</event>
<event>
 7    1  0.6246445E-012  0.5930195E+02  0.7816164E-02  0.1266605E+00
        -11   -1    0    0    0    0  0.00000000000E+00  0.00000000000E+00  0.45593999997E+02  0.45594000000E+02  0.51100000000E-03 0.  1.
         11   -1    0    0    0    0 -0.00000000000E+00 -0.00000000000E+00 -0.45593999997E+02  0.45594000000E+02  0.51100000000E-03 0. -1.
    9900012    2    1    2    0    0  0.16588171193E+02 -0.21691043459E+02  0.16463646393E+02  0.59301945957E+02  0.50000003518E+02 0.  0.
         12    1    1    2    0    0 -0.16588171193E+02  0.21691043459E+02 -0.16463646393E+02  0.31886054043E+02  0.00000000000E+00 0. -1.
         11    1    3    3    0    0 -0.20045663707E+01  0.51405556065E+00  0.78060474732E+01  0.80756991567E+01  0.51100000000E-03 0. -1.
        -11    1    3    3    0    0 -0.48005963883E+01 -0.98996268999E+01  0.19712637474E+02  0.22575128237E+02  0.51100000000E-03 0.  1.
         12    1    3    3    0    0  0.23393333953E+02 -0.12305472120E+02 -0.11055038554E+02  0.28651118563E+02  0.00000000000E+00 0. -1.
</event>
<event>
 7    1  0.6246445E-012  0.5930193E+02  0.7816164E-02  0.1266605E+00
        -11   -1    0    0    0    0  0.00000000000E+00  0.00000000000E+00  0.45593999997E+02  0.45594000000E+02  0.51100000000E-03 0. -1.
         11   -1    0    0    0    0 -0.00000000000E+00 -0.00000000000E+00 -0.45593999997E+02  0.45594000000E+02  0.51100000000E-03 0.  1.
    9900012    2    1    2    0    0  0.51235519038E+01  0.17594799020E+02 -0.26093940173E+02  0.59301930151E+02  0.49999974692E+02 0.  0.
         12    1    1    2    0    0 -0.51235519038E+01 -0.17594799020E+02  0.26093940173E+02  0.31886069849E+02  0.00000000000E+00 0. -1.
         11    1    3    3    0    0 -0.96760352375E+01 -0.77206062274E+01 -0.18672435835E+02  0.22402974774E+02  0.51100000000E-03 0. -1.
        -11    1    3    3    0    0 -0.29861026447E+01  0.34415575597E+01 -0.74194168962E+01  0.87068292037E+01  0.51100000000E-03 0.  1.
        -12    1    3    3    0    0  0.17785689786E+02  0.21873847688E+02 -0.20874415421E-02  0.28192126174E+02  0.00000000000E+00 0.  1.
</event>
<event>
 7    1  0.6246445E-012  0.5930194E+02  0.7816164E-02  0.1266605E+00
        -11   -1    0    0    0    0  0.00000000000E+00  0.00000000000E+00  0.45593999997E+02  0.45594000000E+02  0.51100000000E-03 0.  1.
         11   -1    0    0    0    0 -0.00000000000E+00 -0.00000000000E+00 -0.45593999997E+02  0.45594000000E+02  0.51100000000E-03 0. -1.
    9900012    2    1    2    0    0 -0.28584579960E+02  0.10528373435E+02  0.94231563871E+01  0.59301941370E+02  0.49999995152E+02 0.  0.
         12    1    1    2    0    0  0.28584579960E+02 -0.10528373435E+02 -0.94231563871E+01  0.31886058630E+02  0.00000000000E+00 0. -1.
         11    1    3    3    0    0 -0.91922683895E+01  0.28631632097E+02  0.45208680092E+00  0.30074449911E+02  0.51100000000E-03 0. -1.
        -11    1    3    3    0    0 -0.18604424437E+01 -0.61264873051E+01  0.35204468647E+01  0.73067529843E+01  0.51100000000E-03 0.  1.
        -12    1    3    3    0    0 -0.17531869127E+02 -0.11976771357E+02  0.54506227215E+01  0.21920738475E+02  0.00000000000E+00 0.  1.
</event>
<event>
 7    1  0.6246445E-012  0.5930196E+02  0.7816164E-02  0.1266605E+00
        -11   -1    0    0    0    0  0.00000000000E+00  0.00000000000E+00  0.45593999997E+02  0.45594000000E+02  0.51100000000E-03 0.  1.
         11   -1    0    0    0    0 -0.00000000000E+00 -0.00000000000E+00 -0.45593999997E+02  0.45594000000E+02  0.51100000000E-03 0. -1.
    9900012    2    1    2    0    0 -0.14216491073E+02  0.27626997470E+02 -0.71665889570E+01  0.59301959090E+02  0.50000027470E+02 0.  0.
         12    1    1    2    0    0  0.14216491073E+02 -0.27626997470E+02  0.71665889570E+01  0.31886040910E+02  0.00000000000E+00 0. -1.
         11    1    3    3    0    0  0.12303326178E+02  0.18062122210E+01 -0.10651005459E+02  0.16373092414E+02  0.51100000000E-03 0. -1.
        -11    1    3    3    0    0  0.24784787321E+01 -0.12855928336E+01  0.15356662200E+01  0.31865148297E+01  0.51100000000E-03 0.  1.
        -12    1    3    3    0    0 -0.28998295983E+02  0.27106378083E+02  0.19487502822E+01  0.39742351847E+02  0.00000000000E+00 0.  1.
</event>
<event>
 7    1  0.6246445E-012  0.5930194E+02  0.7816164E-02  0.1266605E+00
        -11   -1    0    0    0    0  0.00000000000E+00  0.00000000000E+00  0.45593999997E+02  0.45594000000E+02  0.51100000000E-03 0. -1.
         11   -1    0    0    0    0 -0.00000000000E+00 -0.00000000000E+00 -0.45593999997E+02  0.45594000000E+02  0.51100000000E-03 0.  1.
    9900012    2    1    2    0    0  0.24111438904E+02  0.13680153402E+02 -0.15754774612E+02  0.59301937117E+02  0.49999987397E+02 0.  0.
         12    1    1    2    0    0 -0.24111438904E+02 -0.13680153402E+02  0.15754774612E+02  0.31886062883E+02  0.00000000000E+00 0. -1.
         11    1    3    3    0    0  0.26502830597E+02 -0.31569245868E+01 -0.14015232206E+02  0.30146192737E+02  0.51100000000E-03 0.  1.
        -11    1    3    3    0    0 -0.47438651087E+01 -0.42686999406E+01  0.35055347683E+01  0.72811283209E+01  0.51100000000E-03 0. -1.
        -12    1    3    3    0    0  0.23524734156E+01  0.21105777929E+02 -0.52450771738E+01  0.21874616059E+02  0.00000000000E+00 0.  1.
</event>
<event>
 7    1  0.6246445E-012  0.5930198E+02  0.7816164E-02  0.1266605E+00
        -11   -1    0    0    0    0  0.00000000000E+00  0.00000000000E+00  0.45593999997E+02  0.45594000000E+02  0.51100000000E-03 0. -1.
         11   -1    0    0    0    0 -0.00000000000E+00 -0.00000000000E+00 -0.45593999997E+02  0.45594000000E+02  0.51100000000E-03 0.  1.
    9900012    2    1    2    0    0  0.11939405203E+02  0.44795646706E+01 -0.29225025731E+02  0.59301983861E+02  0.50000072647E+02 0.  0.
         12    1    1    2    0    0 -0.11939405203E+02 -0.44795646706E+01  0.29225025731E+02  0.31886016139E+02  0.00000000000E+00 0. -1.
         11    1    3    3    0    0  0.84156083282E+01 -0.74383499848E+01  0.22488448893E+01  0.11454641750E+02  0.51100000000E-03 0. -1.
        -11    1    3    3    0    0  0.69439372583E+01 -0.93230535740E+01 -0.27258584636E+01  0.11940179949E+02  0.51100000000E-03 0.  1.
        -12    1    3    3    0    0 -0.34201403831E+01  0.21240968229E+02 -0.28748012156E+02  0.35907162162E+02  0.00000000000E+00 0.  1.
</event>
<event>
 7    1  0.6246445E-012  0.5930194E+02  0.7816164E-02  0.1266605E+00
        -11   -1    0    0    0    0  0.00000000000E+00  0.00000000000E+00  0.45593999997E+02  0.45594000000E+02  0.51100000000E-03 0. -1.
         11   -1    0    0    0    0 -0.00000000000E+00 -0.00000000000E+00 -0.45593999997E+02  0.45594000000E+02  0.51100000000E-03 0.  1.
    9900012    2    1    2    0    0  0.15088857184E+02  0.19627570957E+02 -0.20094909999E+02  0.59301944103E+02  0.50000000137E+02 0.  0.
         12    1    1    2    0    0 -0.15088857184E+02 -0.19627570957E+02  0.20094909999E+02  0.31886055897E+02  0.00000000000E+00 0. -1.
         11    1    3    3    0    0  0.55546729972E+01  0.83475872320E+00 -0.47600975829E+01  0.73627266344E+01  0.51100000000E-03 0. -1.
        -11    1    3    3    0    0  0.16410581993E+01 -0.14892101957E+02 -0.56467750361E+01  0.16011053722E+02  0.51100000000E-03 0.  1.
         12    1    3    3    0    0  0.78931259880E+01  0.33684914191E+02 -0.96880373804E+01  0.35928163746E+02  0.00000000000E+00 0. -1.
</event>
<event>
 7    1  0.6246445E-012  0.5930188E+02  0.7816164E-02  0.1266605E+00
        -11   -1    0    0    0    0  0.00000000000E+00  0.00000000000E+00  0.45593999997E+02  0.45594000000E+02  0.51100000000E-03 0.  1.
         11   -1    0    0    0    0 -0.00000000000E+00 -0.00000000000E+00 -0.45593999997E+02  0.45594000000E+02  0.51100000000E-03 0. -1.
    9900012    2    1    2    0    0  0.25409846699E+02 -0.18353532089E+02  0.58490968090E+01  0.59301884168E+02  0.49999890829E+02 0.  0.
         12    1    1    2    0    0 -0.25409846699E+02  0.18353532089E+02 -0.58490968090E+01  0.31886115832E+02  0.00000000000E+00 0. -1.
         11    1    3    3    0    0  0.24835602901E+01  0.66625840056E+00 -0.24478539480E+01  0.35502057944E+01  0.51100000000E-03 0. -1.
        -11    1    3    3    0    0  0.87437660863E+01  0.15186583918E+02  0.64583234148E+01  0.18676073411E+02  0.51100000000E-03 0.  1.
        -12    1    3    3    0    0  0.14182520323E+02 -0.34206374407E+02  0.18386273421E+01  0.37075604962E+02  0.00000000000E+00 0.  1.
</event>
<event>
 7    1  0.6246445E-012  0.5930186E+02  0.7816164E-02  0.1266605E+00
        -11   -1    0    0    0    0  0.00000000000E+00  0.00000000000E+00  0.45593999997E+02  0.45594000000E+02  0.51100000000E-03 0.  1.
         11   -1    0    0    0    0 -0.00000000000E+00 -0.00000000000E+00 -0.45593999997E+02  0.45594000000E+02  0.51100000000E-03 0. -1.
    9900012    2    1    2    0    0  0.13951163024E+02  0.54120823861E+00  0.28667021960E+02  0.59301858745E+02  0.49999844465E+02 0.  0.
         12    1    1    2    0    0 -0.13951163024E+02 -0.54120823861E+00 -0.28667021960E+02  0.31886141255E+02  0.00000000000E+00 0. -1.
         11    1    3    3    0    0  0.15676884242E+02 -0.85755858170E+01  0.30529143528E+02  0.35374199305E+02  0.51100000000E-03 0. -1.
        -11    1    3    3    0    0 -0.61676363317E+01 -0.88485888264E+00  0.73409364306E+01  0.96287102511E+01  0.51100000000E-03 0.  1.
         12    1    3    3    0    0  0.44419151135E+01  0.10001652938E+02 -0.92030579994E+01  0.14298949189E+02  0.00000000000E+00 0. -1.
</event>
<event>
 7    1  0.6246445E-012  0.5930195E+02  0.7816164E-02  0.1266605E+00
        -11   -1    0    0    0    0  0.00000000000E+00  0.00000000000E+00  0.45593999997E+02  0.45594000000E+02  0.51100000000E-03 0.  1.
         11   -1    0    0    0    0 -0.00000000000E+00 -0.00000000000E+00 -0.45593999997E+02  0.45594000000E+02  0.51100000000E-03 0. -1.
    9900012    2    1    2    0    0 -0.12246804319E+02 -0.23025621190E+02 -0.18345475720E+02  0.59301954045E+02  0.50000018269E+02 0.  0.
         12    1    1    2    0    0  0.12246804319E+02  0.23025621190E+02  0.18345475720E+02  0.31886045955E+02  0.00000000000E+00 0. -1.
         11    1    3    3    0    0 -0.71368460147E+01 -0.11918122851E+01  0.13665720935E+01  0.73635933557E+01  0.51100000000E-03 0. -1.
        -11    1    3    3    0    0 -0.13069615868E+02 -0.25803091145E+02 -0.27651946239E+02  0.40015553259E+02  0.51100000000E-03 0.  1.
         12    1    3    3    0    0  0.79596575633E+01  0.39692822396E+01  0.79398984249E+01  0.11922807430E+02  0.00000000000E+00 0. -1.
</event>
<event>
 7    1  0.6246445E-012  0.5930189E+02  0.7816164E-02  0.1266605E+00
        -11   -1    0    0    0    0  0.00000000000E+00  0.00000000000E+00  0.45593999997E+02  0.45594000000E+02  0.51100000000E-03 0.  1.
         11   -1    0    0    0    0 -0.00000000000E+00 -0.00000000000E+00 -0.45593999997E+02  0.45594000000E+02  0.51100000000E-03 0. -1.
    9900012    2    1    2    0    0 -0.73944011914E+01 -0.12990160575E+02  0.28165627689E+02  0.59301889797E+02  0.49999901096E+02 0.  0.
         12    1    1    2    0    0  0.73944011914E+01  0.12990160575E+02 -0.28165627689E+02  0.31886110203E+02  0.00000000000E+00 0. -1.
         11    1    3    3    0    0 -0.96909107610E+00 -0.44720878487E+01 -0.14707166542E+01  0.48064243444E+01  0.51100000000E-03 0. -1.
        -11    1    3    3    0    0 -0.16207586245E+02 -0.20049014496E+02  0.60549281676E+01  0.26482276894E+02  0.51100000000E-03 0.  1.
         12    1    3    3    0    0  0.97822761294E+01  0.11530941769E+02  0.23581416176E+02  0.28013188559E+02  0.00000000000E+00 0. -1.
</event>
<event>
 7    1  0.6246445E-012  0.5930198E+02  0.7816164E-02  0.1266605E+00
        -11   -1    0    0    0    0  0.00000000000E+00  0.00000000000E+00  0.45593999997E+02  0.45594000000E+02  0.51100000000E-03 0.  1.
         11   -1    0    0    0    0 -0.00000000000E+00 -0.00000000000E+00 -0.45593999997E+02  0.45594000000E+02  0.51100000000E-03 0. -1.
    9900012    2    1    2    0    0 -0.46541136344E-01  0.19680840639E+01  0.31825192363E+02  0.59301978142E+02  0.50000062217E+02 0.  0.
         12    1    1    2    0    0  0.46541136344E-01 -0.19680840639E+01 -0.31825192363E+02  0.31886021858E+02  0.00000000000E+00 0. -1.
         11    1    3    3    0    0 -0.12925864008E+01 -0.52255315878E+01  0.31732800397E+01  0.62487331876E+01  0.51100000000E-03 0. -1.
        -11    1    3    3    0    0  0.21884757666E+02  0.95415797350E+01  0.15711135820E+02  0.28580135601E+02  0.51100000000E-03 0.  1.
         12    1    3    3    0    0 -0.20638712402E+02 -0.23479640833E+01  0.12940776503E+02  0.24473109354E+02  0.00000000000E+00 0. -1.
</event>
<event>
 7    1  0.6246445E-012  0.5930194E+02  0.7816164E-02  0.1266605E+00
        -11   -1    0    0    0    0  0.00000000000E+00  0.00000000000E+00  0.45593999997E+02  0.45594000000E+02  0.51100000000E-03 0.  1.
         11   -1    0    0    0    0 -0.00000000000E+00 -0.00000000000E+00 -0.45593999997E+02  0.45594000000E+02  0.51100000000E-03 0. -1.
    9900012    2    1    2    0    0 -0.91723381169E+01 -0.23950189595E+02 -0.18946703490E+02  0.59301938134E+02  0.49999989252E+02 0.  0.
         12    1    1    2    0    0  0.91723381169E+01  0.23950189595E+02  0.18946703490E+02  0.31886061866E+02  0.00000000000E+00 0. -1.
         11    1    3    3    0    0 -0.10245350085E+01 -0.84747792277E+01 -0.10485392399E+01  0.86006389147E+01  0.51100000000E-03 0. -1.
        -11    1    3    3    0    0 -0.25930049823E+02 -0.14214355071E+02 -0.12166937109E+02  0.31975767900E+02  0.51100000000E-03 0.  1.
         12    1    3    3    0    0  0.17782246714E+02 -0.12610552962E+01 -0.57312271409E+01  0.18725531320E+02  0.00000000000E+00 0. -1.
</event>
<event>
 7    1  0.6246445E-012  0.5930197E+02  0.7816164E-02  0.1266605E+00
        -11   -1    0    0    0    0  0.00000000000E+00  0.00000000000E+00  0.45593999997E+02  0.45594000000E+02  0.51100000000E-03 0.  1.
         11   -1    0    0    0    0 -0.00000000000E+00 -0.00000000000E+00 -0.45593999997E+02  0.45594000000E+02  0.51100000000E-03 0. -1.
    9900012    2    1    2    0    0  0.13581659692E+02  0.12643917271E+01  0.28821155713E+02  0.59301965705E+02  0.50000039534E+02 0.  0.
         12    1    1    2    0    0 -0.13581659692E+02 -0.12643917271E+01 -0.28821155713E+02  0.31886034295E+02  0.00000000000E+00 0. -1.
         11    1    3    3    0    0  0.86156603173E+01  0.48318945510E+01  0.34506548155E+01  0.10463451943E+02  0.51100000000E-03 0. -1.
        -11    1    3    3    0    0  0.22231414318E+01 -0.20589593815E+02  0.23765100992E+02  0.31522273977E+02  0.51100000000E-03 0.  1.
         12    1    3    3    0    0  0.27428579430E+01  0.17022090991E+02  0.16053999054E+01  0.17316239784E+02  0.00000000000E+00 0. -1.
</event>
<event>
 7    1  0.6246445E-012  0.5930190E+02  0.7816164E-02  0.1266605E+00
        -11   -1    0    0    0    0  0.00000000000E+00  0.00000000000E+00  0.45593999997E+02  0.45594000000E+02  0.51100000000E-03 0. -1.
         11   -1    0    0    0    0 -0.00000000000E+00 -0.00000000000E+00 -0.45593999997E+02  0.45594000000E+02  0.51100000000E-03 0.  1.
    9900012    2    1    2    0    0  0.14970509903E+02 -0.22775022446E+02 -0.16550100551E+02  0.59301895779E+02  0.49999912006E+02 0.  0.
         12    1    1    2    0    0 -0.14970509903E+02  0.22775022446E+02  0.16550100551E+02  0.31886104221E+02  0.00000000000E+00 0. -1.
         11    1    3    3    0    0 -0.12559940811E+01 -0.24134912244E+02 -0.12762314708E+02  0.27330352854E+02  0.51100000000E-03 0.  1.
        -11    1    3    3    0    0 -0.25768414147E+01  0.89272265796E+01  0.41853197952E+01  0.10190799190E+02  0.51100000000E-03 0. -1.
        -12    1    3    3    0    0  0.18803345398E+02 -0.75673367817E+01 -0.79731056378E+01  0.21780743735E+02  0.00000000000E+00 0.  1.
</event>
<event>
 7    1  0.6246445E-012  0.5930196E+02  0.7816164E-02  0.1266605E+00
        -11   -1    0    0    0    0  0.00000000000E+00  0.00000000000E+00  0.45593999997E+02  0.45594000000E+02  0.51100000000E-03 0.  1.
         11   -1    0    0    0    0 -0.00000000000E+00 -0.00000000000E+00 -0.45593999997E+02  0.45594000000E+02  0.51100000000E-03 0. -1.
    9900012    2    1    2    0    0 -0.15680997582E+02 -0.26321631035E+02 -0.88316140032E+01  0.59301963065E+02  0.50000034719E+02 0.  0.
         12    1    1    2    0    0  0.15680997582E+02  0.26321631035E+02  0.88316140032E+01  0.31886036935E+02  0.00000000000E+00 0. -1.
         11    1    3    3    0    0 -0.15946699304E+02  0.79026101693E+01 -0.28005795110E+01  0.18016428948E+02  0.51100000000E-03 0. -1.
        -11    1    3    3    0    0  0.11320882377E+01  0.22420344125E+01 -0.40369484556E+01  0.47545026216E+01  0.51100000000E-03 0.  1.
        -12    1    3    3    0    0 -0.86638651639E+00 -0.36466275617E+02 -0.19940860367E+01  0.36531031495E+02  0.00000000000E+00 0.  1.
</event>
<event>
 7    1  0.6246445E-012  0.5930196E+02  0.7816164E-02  0.1266605E+00
        -11   -1    0    0    0    0  0.00000000000E+00  0.00000000000E+00  0.45593999997E+02  0.45594000000E+02  0.51100000000E-03 0.  1.
         11   -1    0    0    0    0 -0.00000000000E+00 -0.00000000000E+00 -0.45593999997E+02  0.45594000000E+02  0.51100000000E-03 0. -1.
    9900012    2    1    2    0    0  0.30377852505E+02 -0.38054965823E+00  0.96830095766E+01  0.59301962063E+02  0.50000032892E+02 0.  0.
         12    1    1    2    0    0 -0.30377852505E+02  0.38054965823E+00 -0.96830095766E+01  0.31886037937E+02  0.00000000000E+00 0. -1.
         11    1    3    3    0    0  0.86147254332E+01 -0.34878274689E+01 -0.66164000042E+01  0.11408557491E+02  0.51100000000E-03 0. -1.
        -11    1    3    3    0    0  0.30790463275E+02  0.54275114679E-02  0.20983471038E+02  0.37260685920E+02  0.51100000000E-03 0.  1.
         12    1    3    3    0    0 -0.90273362030E+01  0.31018502992E+01 -0.46840614574E+01  0.10632718652E+02  0.00000000000E+00 0. -1.
</event>
<event>
 7    1  0.6246445E-012  0.5930195E+02  0.7816164E-02  0.1266605E+00
        -11   -1    0    0    0    0  0.00000000000E+00  0.00000000000E+00  0.45593999997E+02  0.45594000000E+02  0.51100000000E-03 0. -1.
         11   -1    0    0    0    0 -0.00000000000E+00 -0.00000000000E+00 -0.45593999997E+02  0.45594000000E+02  0.51100000000E-03 0.  1.
    9900012    2    1    2    0    0 -0.21308917079E+02 -0.88491349640E+01 -0.22007789428E+02  0.59301953958E+02  0.50000018111E+02 0.  0.
         12    1    1    2    0    0  0.21308917079E+02  0.88491349640E+01  0.22007789428E+02  0.31886046042E+02  0.00000000000E+00 0. -1.
         11    1    3    3    0    0  0.87176511362E+01 -0.65998239642E+01  0.53957605276E+01  0.12193004126E+02  0.51100000000E-03 0. -1.
        -11    1    3    3    0    0 -0.13764412177E+02 -0.12861728554E+02 -0.14828089372E+02  0.23974055532E+02  0.51100000000E-03 0.  1.
        -12    1    3    3    0    0 -0.16262156039E+02  0.10612417554E+02 -0.12575460583E+02  0.23134894300E+02  0.00000000000E+00 0.  1.
</event>
<event>
 7    1  0.6246445E-012  0.5930193E+02  0.7816164E-02  0.1266605E+00
        -11   -1    0    0    0    0  0.00000000000E+00  0.00000000000E+00  0.45593999997E+02  0.45594000000E+02  0.51100000000E-03 0.  1.
         11   -1    0    0    0    0 -0.00000000000E+00 -0.00000000000E+00 -0.45593999997E+02  0.45594000000E+02  0.51100000000E-03 0. -1.
    9900012    2    1    2    0    0  0.17104193580E+02 -0.10281486533E+02  0.24868835493E+02  0.59301931222E+02  0.49999976645E+02 0.  0.
         12    1    1    2    0    0 -0.17104193580E+02  0.10281486533E+02 -0.24868835493E+02  0.31886068778E+02  0.00000000000E+00 0. -1.
         11    1    3    3    0    0  0.18481303759E+02 -0.16649349845E+02  0.16835773973E+02  0.30036689638E+02  0.51100000000E-03 0. -1.
        -11    1    3    3    0    0  0.93018230781E+01  0.12156347372E+02  0.76506434383E+01  0.17112365100E+02  0.51100000000E-03 0.  1.
         12    1    3    3    0    0 -0.10678933257E+02 -0.57884840612E+01  0.38241808194E+00  0.12152876484E+02  0.00000000000E+00 0. -1.
</event>
<event>
 7    1  0.6246445E-012  0.5930193E+02  0.7816164E-02  0.1266605E+00
        -11   -1    0    0    0    0  0.00000000000E+00  0.00000000000E+00  0.45593999997E+02  0.45594000000E+02  0.51100000000E-03 0.  1.
         11   -1    0    0    0    0 -0.00000000000E+00 -0.00000000000E+00 -0.45593999997E+02  0.45594000000E+02  0.51100000000E-03 0. -1.
    9900012    2    1    2    0    0  0.23827066293E+02  0.40934369493E+01  0.20790287875E+02  0.59301931191E+02  0.49999976588E+02 0.  0.
         12    1    1    2    0    0 -0.23827066293E+02 -0.40934369493E+01 -0.20790287875E+02  0.31886068809E+02  0.00000000000E+00 0. -1.
         11    1    3    3    0    0 -0.79876346383E+01  0.27540580639E+01  0.86217142213E+01  0.12071499464E+02  0.51100000000E-03 0. -1.
        -11    1    3    3    0    0  0.14372673473E+02 -0.51747497706E+01  0.21523652768E+02  0.26393548581E+02  0.51100000000E-03 0.  1.
        -12    1    3    3    0    0  0.17442027458E+02  0.65141286559E+01 -0.93550791142E+01  0.20836883146E+02  0.00000000000E+00 0.  1.
</event>
<event>
 7    1  0.6246445E-012  0.5930194E+02  0.7816164E-02  0.1266605E+00
        -11   -1    0    0    0    0  0.00000000000E+00  0.00000000000E+00  0.45593999997E+02  0.45594000000E+02  0.51100000000E-03 0.  1.
         11   -1    0    0    0    0 -0.00000000000E+00 -0.00000000000E+00 -0.45593999997E+02  0.45594000000E+02  0.51100000000E-03 0. -1.
    9900012    2    1    2    0    0  0.43380804675E+00 -0.25709775712E+02  0.18855774741E+02  0.59301937250E+02  0.49999987640E+02 0.  0.
         12    1    1    2    0    0 -0.43380804675E+00  0.25709775712E+02 -0.18855774741E+02  0.31886062750E+02  0.00000000000E+00 0. -1.
         11    1    3    3    0    0 -0.33634349808E+01  0.14483788504E+01  0.72796208024E+01  0.81488266304E+01  0.51100000000E-03 0. -1.
        -11    1    3    3    0    0 -0.18717108869E+02 -0.16325649296E+02  0.54216083987E+01  0.25421463908E+02  0.51100000000E-03 0.  1.
         12    1    3    3    0    0  0.22514351897E+02 -0.10832505267E+02  0.61545455400E+01  0.25731646712E+02  0.00000000000E+00 0. -1.
</event>
<event>
 7    1  0.6246445E-012  0.5930193E+02  0.7816164E-02  0.1266605E+00
        -11   -1    0    0    0    0  0.00000000000E+00  0.00000000000E+00  0.45593999997E+02  0.45594000000E+02  0.51100000000E-03 0. -1.
         11   -1    0    0    0    0 -0.00000000000E+00 -0.00000000000E+00 -0.45593999997E+02  0.45594000000E+02  0.51100000000E-03 0.  1.
    9900012    2    1    2    0    0 -0.47943900175E+01 -0.30318072752E+02 -0.86342090291E+01  0.59301932877E+02  0.49999979663E+02 0.  0.
         12    1    1    2    0    0  0.47943900175E+01  0.30318072752E+02  0.86342090291E+01  0.31886067123E+02  0.00000000000E+00 0. -1.
         11    1    3    3    0    0 -0.21724854715E+02 -0.24154978378E+02 -0.44164418889E+01  0.32786235711E+02  0.51100000000E-03 0. -1.
        -11    1    3    3    0    0 -0.13961507599E+01 -0.40092129212E+01  0.44311273863E+01  0.61366045471E+01  0.51100000000E-03 0.  1.
         12    1    3    3    0    0  0.18326615457E+02 -0.21538814524E+01 -0.86488945266E+01  0.20379092619E+02  0.00000000000E+00 0. -1.
</event>
<event>
 7    1  0.6246445E-012  0.5930194E+02  0.7816164E-02  0.1266605E+00
        -11   -1    0    0    0    0  0.00000000000E+00  0.00000000000E+00  0.45593999997E+02  0.45594000000E+02  0.51100000000E-03 0. -1.
         11   -1    0    0    0    0 -0.00000000000E+00 -0.00000000000E+00 -0.45593999997E+02  0.45594000000E+02  0.51100000000E-03 0.  1.
    9900012    2    1    2    0    0 -0.69582304005E+01  0.28563179778E+02 -0.12347019182E+02  0.59301935771E+02  0.49999984941E+02 0.  0.
         12    1    1    2    0    0  0.69582304005E+01 -0.28563179778E+02  0.12347019182E+02  0.31886064229E+02  0.00000000000E+00 0. -1.
         11    1    3    3    0    0 -0.13909735658E+01 -0.32614925324E+01  0.59603764375E+01  0.69352886413E+01  0.51100000000E-03 0. -1.
        -11    1    3    3    0    0 -0.13726571343E+02  0.10082245115E+02 -0.23054704190E+02  0.28663388023E+02  0.51100000000E-03 0.  1.
        -12    1    3    3    0    0  0.81593145087E+01  0.21742427196E+02  0.47473085709E+01  0.23703259107E+02  0.00000000000E+00 0.  1.
</event>
<event>
 7    1  0.6246445E-012  0.5930195E+02  0.7816164E-02  0.1266605E+00
        -11   -1    0    0    0    0  0.00000000000E+00  0.00000000000E+00  0.45593999997E+02  0.45594000000E+02  0.51100000000E-03 0.  1.
         11   -1    0    0    0    0 -0.00000000000E+00 -0.00000000000E+00 -0.45593999997E+02  0.45594000000E+02  0.51100000000E-03 0. -1.
    9900012    2    1    2    0    0 -0.18992753046E+02 -0.25603873426E+02  0.66133478662E+00  0.59301947150E+02  0.50000005694E+02 0.  0.
         12    1    1    2    0    0  0.18992753046E+02  0.25603873426E+02 -0.66133478662E+00  0.31886052850E+02  0.00000000000E+00 0. -1.
         11    1    3    3    0    0  0.30917429439E+01  0.90750246642E+01 -0.68501910926E+01  0.11783041431E+02  0.51100000000E-03 0. -1.
        -11    1    3    3    0    0  0.20780271607E+01 -0.62557763633E+00 -0.36961823308E+01  0.42861764247E+01  0.51100000000E-03 0.  1.
        -12    1    3    3    0    0 -0.24162523151E+02 -0.34053320454E+02  0.11207708210E+02  0.43232729294E+02  0.00000000000E+00 0.  1.
</event>
<event>
 7    1  0.6246445E-012  0.5930197E+02  0.7816164E-02  0.1266605E+00
        -11   -1    0    0    0    0  0.00000000000E+00  0.00000000000E+00  0.45593999997E+02  0.45594000000E+02  0.51100000000E-03 0. -1.
         11   -1    0    0    0    0 -0.00000000000E+00 -0.00000000000E+00 -0.45593999997E+02  0.45594000000E+02  0.51100000000E-03 0.  1.
    9900012    2    1    2    0    0 -0.18294382865E+02  0.11257522159E+02 -0.23564860482E+02  0.59301970157E+02  0.50000047654E+02 0.  0.
         12    1    1    2    0    0  0.18294382865E+02 -0.11257522159E+02  0.23564860482E+02  0.31886029843E+02  0.00000000000E+00 0. -1.
         11    1    3    3    0    0 -0.12774540330E+02 -0.67798907846E+01  0.61871285316E+01  0.15730109962E+02  0.51100000000E-03 0. -1.
        -11    1    3    3    0    0 -0.15280571143E+02  0.94910554372E+01 -0.12156962945E+02  0.21711004953E+02  0.51100000000E-03 0.  1.
         12    1    3    3    0    0  0.97607286074E+01  0.85463575064E+01 -0.17595026069E+02  0.21860855242E+02  0.00000000000E+00 0. -1.
</event>
<event>
 7    1  0.6246445E-012  0.5930195E+02  0.7816164E-02  0.1266605E+00
        -11   -1    0    0    0    0  0.00000000000E+00  0.00000000000E+00  0.45593999997E+02  0.45594000000E+02  0.51100000000E-03 0.  1.
         11   -1    0    0    0    0 -0.00000000000E+00 -0.00000000000E+00 -0.45593999997E+02  0.45594000000E+02  0.51100000000E-03 0. -1.
    9900012    2    1    2    0    0 -0.54813314712E+00 -0.94265559192E+01  0.30455861338E+02  0.59301954521E+02  0.50000019138E+02 0.  0.
         12    1    1    2    0    0  0.54813314712E+00  0.94265559192E+01 -0.30455861338E+02  0.31886045479E+02  0.00000000000E+00 0. -1.
         11    1    3    3    0    0 -0.26668047970E+01  0.25580834939E+01 -0.34918049651E+01  0.50841263913E+01  0.51100000000E-03 0. -1.
        -11    1    3    3    0    0 -0.39154574312E+01 -0.19889601662E+02  0.15526411418E+01  0.20330709676E+02  0.51100000000E-03 0.  1.
        -12    1    3    3    0    0  0.60341290810E+01  0.79049622486E+01  0.32395025161E+02  0.33887118454E+02  0.00000000000E+00 0.  1.
</event>
<event>
 7    1  0.6246445E-012  0.5930194E+02  0.7816164E-02  0.1266605E+00
        -11   -1    0    0    0    0  0.00000000000E+00  0.00000000000E+00  0.45593999997E+02  0.45594000000E+02  0.51100000000E-03 0.  1.
         11   -1    0    0    0    0 -0.00000000000E+00 -0.00000000000E+00 -0.45593999997E+02  0.45594000000E+02  0.51100000000E-03 0. -1.
    9900012    2    1    2    0    0 -0.31626814706E+01 -0.20610304226E+02  0.24123295596E+02  0.59301943724E+02  0.49999999447E+02 0.  0.
         12    1    1    2    0    0  0.31626814706E+01  0.20610304226E+02 -0.24123295596E+02  0.31886056276E+02  0.00000000000E+00 0. -1.
         11    1    3    3    0    0  0.82841407356E+01  0.18533961103E+01  0.72949467923E+01  0.11192779540E+02  0.51100000000E-03 0. -1.
        -11    1    3    3    0    0  0.81212810094E+01 -0.19783817908E+02 -0.11286345492E+01  0.21415612820E+02  0.51100000000E-03 0.  1.
         12    1    3    3    0    0 -0.19568103216E+02 -0.26798824283E+01  0.17956983353E+02  0.26693551364E+02  0.00000000000E+00 0. -1.
</event>
<event>
 7    1  0.6246445E-012  0.5930193E+02  0.7816164E-02  0.1266605E+00
        -11   -1    0    0    0    0  0.00000000000E+00  0.00000000000E+00  0.45593999997E+02  0.45594000000E+02  0.51100000000E-03 0. -1.
         11   -1    0    0    0    0 -0.00000000000E+00 -0.00000000000E+00 -0.45593999997E+02  0.45594000000E+02  0.51100000000E-03 0.  1.
    9900012    2    1    2    0    0  0.14527478003E+02  0.17940279241E+02 -0.21995906925E+02  0.59301934739E+02  0.49999983060E+02 0.  0.
         12    1    1    2    0    0 -0.14527478003E+02 -0.17940279241E+02  0.21995906925E+02  0.31886065261E+02  0.00000000000E+00 0. -1.
         11    1    3    3    0    0 -0.24371699548E+00  0.30939681835E+01 -0.26390111146E+02  0.26571977789E+02  0.51100000000E-03 0. -1.
        -11    1    3    3    0    0  0.14420628116E+02  0.90058565471E+01 -0.81754465111E+01  0.18865256248E+02  0.51100000000E-03 0.  1.
         12    1    3    3    0    0  0.35056688274E+00  0.58404545101E+01  0.12569650732E+02  0.13864700702E+02  0.00000000000E+00 0. -1.
</event>
<event>
 7    1  0.6246445E-012  0.5930193E+02  0.7816164E-02  0.1266605E+00
        -11   -1    0    0    0    0  0.00000000000E+00  0.00000000000E+00  0.45593999997E+02  0.45594000000E+02  0.51100000000E-03 0. -1.
         11   -1    0    0    0    0 -0.00000000000E+00 -0.00000000000E+00 -0.45593999997E+02  0.45594000000E+02  0.51100000000E-03 0.  1.
    9900012    2    1    2    0    0  0.22200741852E+01 -0.25200281139E+02 -0.19409761499E+02  0.59301925605E+02  0.49999966402E+02 0.  0.
         12    1    1    2    0    0 -0.22200741852E+01  0.25200281139E+02  0.19409761499E+02  0.31886074395E+02  0.00000000000E+00 0. -1.
         11    1    3    3    0    0 -0.10455816793E+02 -0.25523915123E+02  0.63118916348E+01  0.28295482401E+02  0.51100000000E-03 0. -1.
        -11    1    3    3    0    0  0.31206216724E+01  0.42689305741E+01 -0.30876094793E+01  0.61233471588E+01  0.51100000000E-03 0.  1.
        -12    1    3    3    0    0  0.95552693054E+01 -0.39452965898E+01 -0.22634043654E+02  0.24883096046E+02  0.00000000000E+00 0.  1.
</event>
<event>
 7    1  0.6246445E-012  0.5930195E+02  0.7816164E-02  0.1266605E+00
        -11   -1    0    0    0    0  0.00000000000E+00  0.00000000000E+00  0.45593999997E+02  0.45594000000E+02  0.51100000000E-03 0.  1.
         11   -1    0    0    0    0 -0.00000000000E+00 -0.00000000000E+00 -0.45593999997E+02  0.45594000000E+02  0.51100000000E-03 0. -1.
    9900012    2    1    2    0    0 -0.77996399769E+01  0.93455533360E+01  0.29471106644E+02  0.59301954812E+02  0.50000019668E+02 0.  0.
         12    1    1    2    0    0  0.77996399769E+01 -0.93455533360E+01 -0.29471106644E+02  0.31886045188E+02  0.00000000000E+00 0. -1.
         11    1    3    3    0    0 -0.50107797804E+01  0.15988055344E+01  0.17339835656E+02  0.18119988797E+02  0.51100000000E-03 0. -1.
        -11    1    3    3    0    0 -0.37578899344E+01 -0.64201322583E+00  0.25274122092E+02  0.25560030624E+02  0.51100000000E-03 0.  1.
         12    1    3    3    0    0  0.96902973793E+00  0.83887610274E+01 -0.13142851104E+02  0.15621935391E+02  0.00000000000E+00 0. -1.
</event>
<event>
 7    1  0.6246445E-012  0.5930194E+02  0.7816164E-02  0.1266605E+00
        -11   -1    0    0    0    0  0.00000000000E+00  0.00000000000E+00  0.45593999997E+02  0.45594000000E+02  0.51100000000E-03 0.  1.
         11   -1    0    0    0    0 -0.00000000000E+00 -0.00000000000E+00 -0.45593999997E+02  0.45594000000E+02  0.51100000000E-03 0. -1.
    9900012    2    1    2    0    0 -0.94203856262E+01 -0.14807276635E+02  0.26621830599E+02  0.59301937667E+02  0.49999988399E+02 0.  0.
         12    1    1    2    0    0  0.94203856262E+01  0.14807276635E+02 -0.26621830599E+02  0.31886062333E+02  0.00000000000E+00 0. -1.
         11    1    3    3    0    0 -0.16459019584E+02 -0.84506042289E+01  0.98485824716E+00  0.18527870454E+02  0.51100000000E-03 0. -1.
        -11    1    3    3    0    0  0.64247821373E+01 -0.12193771794E+02 -0.69069342541E+00  0.13800107019E+02  0.51100000000E-03 0.  1.
         12    1    3    3    0    0  0.61385182091E+00  0.58370993874E+01  0.26327665777E+02  0.26973960194E+02  0.00000000000E+00 0. -1.
</event>
<event>
 7    1  0.6246445E-012  0.5930190E+02  0.7816164E-02  0.1266605E+00
        -11   -1    0    0    0    0  0.00000000000E+00  0.00000000000E+00  0.45593999997E+02  0.45594000000E+02  0.51100000000E-03 0.  1.
         11   -1    0    0    0    0 -0.00000000000E+00 -0.00000000000E+00 -0.45593999997E+02  0.45594000000E+02  0.51100000000E-03 0. -1.
    9900012    2    1    2    0    0  0.15760064580E+02  0.20324673080E+02  0.18848107413E+02  0.59301903901E+02  0.49999926819E+02 0.  0.
         12    1    1    2    0    0 -0.15760064580E+02 -0.20324673080E+02 -0.18848107413E+02  0.31886096099E+02  0.00000000000E+00 0. -1.
         11    1    3    3    0    0 -0.24337608570E+01 -0.89579767827E+01  0.59476357813E+01  0.11024650180E+02  0.51100000000E-03 0.  1.
        -11    1    3    3    0    0 -0.78474162922E+01  0.12147135764E+02 -0.20064524801E+00  0.14462887281E+02  0.51100000000E-03 0. -1.
        -12    1    3    3    0    0  0.26041241730E+02  0.17135514099E+02  0.13101116879E+02  0.33814366440E+02  0.00000000000E+00 0.  1.
</event>
<event>
 7    1  0.6246445E-012  0.5930193E+02  0.7816164E-02  0.1266605E+00
        -11   -1    0    0    0    0  0.00000000000E+00  0.00000000000E+00  0.45593999997E+02  0.45594000000E+02  0.51100000000E-03 0.  1.
         11   -1    0    0    0    0 -0.00000000000E+00 -0.00000000000E+00 -0.45593999997E+02  0.45594000000E+02  0.51100000000E-03 0. -1.
    9900012    2    1    2    0    0 -0.40117179571E+01 -0.13628452931E+02  0.28546332132E+02  0.59301926419E+02  0.49999967885E+02 0.  0.
         12    1    1    2    0    0  0.40117179571E+01  0.13628452931E+02 -0.28546332132E+02  0.31886073581E+02  0.00000000000E+00 0. -1.
         11    1    3    3    0    0 -0.38804077759E+01 -0.55429409389E+01  0.14721212720E+01  0.69245144277E+01  0.51100000000E-03 0. -1.
        -11    1    3    3    0    0 -0.79717487310E+01  0.62330533244E+01 -0.85134605901E+01  0.13224172679E+02  0.51100000000E-03 0.  1.
        -12    1    3    3    0    0  0.78404385497E+01 -0.14318565317E+02  0.35587671450E+02  0.39153239312E+02  0.00000000000E+00 0.  1.
</event>
<event>
 7    1  0.6246445E-012  0.5930195E+02  0.7816164E-02  0.1266605E+00
        -11   -1    0    0    0    0  0.00000000000E+00  0.00000000000E+00  0.45593999997E+02  0.45594000000E+02  0.51100000000E-03 0. -1.
         11   -1    0    0    0    0 -0.00000000000E+00 -0.00000000000E+00 -0.45593999997E+02  0.45594000000E+02  0.51100000000E-03 0.  1.
    9900012    2    1    2    0    0  0.18719482238E+02  0.13825037365E+01 -0.25775764152E+02  0.59301947415E+02  0.50000006178E+02 0.  0.
         12    1    1    2    0    0 -0.18719482238E+02 -0.13825037365E+01  0.25775764152E+02  0.31886052585E+02  0.00000000000E+00 0. -1.
         11    1    3    3    0    0  0.88867586768E+01 -0.17214220446E+01 -0.16048648297E+02  0.18425441272E+02  0.51100000000E-03 0.  1.
        -11    1    3    3    0    0 -0.13804380182E+02 -0.34833509226E+01 -0.78724590975E+01  0.16268689510E+02  0.51100000000E-03 0. -1.
         12    1    3    3    0    0  0.23637103744E+02  0.65872767036E+01 -0.18546567571E+01  0.24607816633E+02  0.00000000000E+00 0. -1.
</event>
<event>
 7    1  0.6246445E-012  0.5930189E+02  0.7816164E-02  0.1266605E+00
        -11   -1    0    0    0    0  0.00000000000E+00  0.00000000000E+00  0.45593999997E+02  0.45594000000E+02  0.51100000000E-03 0.  1.
         11   -1    0    0    0    0 -0.00000000000E+00 -0.00000000000E+00 -0.45593999997E+02  0.45594000000E+02  0.51100000000E-03 0. -1.
    9900012    2    1    2    0    0 -0.60946976758E+00  0.48408827347E+01  0.31510609594E+02  0.59301888352E+02  0.49999898461E+02 0.  0.
         12    1    1    2    0    0  0.60946976758E+00 -0.48408827347E+01 -0.31510609594E+02  0.31886111648E+02  0.00000000000E+00 0. -1.
         11    1    3    3    0    0  0.99929878548E+01  0.84310971682E+00  0.53953858584E+01  0.11387749079E+02  0.51100000000E-03 0. -1.
        -11    1    3    3    0    0 -0.37015148315E+01 -0.12452253114E+02  0.27095080896E+02  0.30048348186E+02  0.51100000000E-03 0.  1.
         12    1    3    3    0    0 -0.69009427908E+01  0.16450026132E+02 -0.97985716113E+00  0.17865791088E+02  0.00000000000E+00 0. -1.
</event>
<event>
 7    1  0.6246445E-012  0.5930202E+02  0.7816164E-02  0.1266604E+00
        -11   -1    0    0    0    0  0.00000000000E+00  0.00000000000E+00  0.45593999997E+02  0.45594000000E+02  0.51100000000E-03 0.  1.
         11   -1    0    0    0    0 -0.00000000000E+00 -0.00000000000E+00 -0.45593999997E+02  0.45594000000E+02  0.51100000000E-03 0. -1.
    9900012    2    1    2    0    0  0.31046071251E+02 -0.37001790542E+01 -0.62582629356E+01  0.59302020006E+02  0.50000138567E+02 0.  0.
         12    1    1    2    0    0 -0.31046071251E+02  0.37001790542E+01  0.62582629356E+01  0.31885979994E+02  0.00000000000E+00 0. -1.
         11    1    3    3    0    0  0.15062561462E+02  0.14043482958E+02 -0.16848998314E+02  0.26608061107E+02  0.51100000000E-03 0. -1.
        -11    1    3    3    0    0  0.14356669633E+02 -0.20353381002E+01  0.17772729907E+01  0.14608739291E+02  0.51100000000E-03 0.  1.
         12    1    3    3    0    0  0.16268401557E+01 -0.15708323912E+02  0.88134623883E+01  0.18085219608E+02  0.00000000000E+00 0. -1.
</event>
<event>
 7    1  0.6246445E-012  0.5930194E+02  0.7816164E-02  0.1266605E+00
        -11   -1    0    0    0    0  0.00000000000E+00  0.00000000000E+00  0.45593999997E+02  0.45594000000E+02  0.51100000000E-03 0.  1.
         11   -1    0    0    0    0 -0.00000000000E+00 -0.00000000000E+00 -0.45593999997E+02  0.45594000000E+02  0.51100000000E-03 0. -1.
    9900012    2    1    2    0    0 -0.13816190837E+01  0.31687588821E+02  0.32724579793E+01  0.59301935053E+02  0.49999983632E+02 0.  0.
         12    1    1    2    0    0  0.13816190837E+01 -0.31687588821E+02 -0.32724579793E+01  0.31886064947E+02  0.00000000000E+00 0. -1.
         11    1    3    3    0    0  0.65818317547E+01 -0.34302034126E+01 -0.94579526599E+01  0.12022465366E+02  0.51100000000E-03 0.  1.
        -11    1    3    3    0    0  0.38119614012E+01  0.41946994994E+01 -0.68030370313E+01  0.88548216654E+01  0.51100000000E-03 0. -1.
        -12    1    3    3    0    0 -0.11775412240E+02  0.30923092734E+02  0.19533447671E+02  0.38424648021E+02  0.00000000000E+00 0.  1.
</event>
<event>
 7    1  0.6246445E-012  0.5930194E+02  0.7816164E-02  0.1266605E+00
        -11   -1    0    0    0    0  0.00000000000E+00  0.00000000000E+00  0.45593999997E+02  0.45594000000E+02  0.51100000000E-03 0. -1.
         11   -1    0    0    0    0 -0.00000000000E+00 -0.00000000000E+00 -0.45593999997E+02  0.45594000000E+02  0.51100000000E-03 0.  1.
    9900012    2    1    2    0    0  0.41084884889E+00  0.31022383849E+02  0.73595984714E+01  0.59301940567E+02  0.49999993689E+02 0.  0.
         12    1    1    2    0    0 -0.41084884889E+00 -0.31022383849E+02 -0.73595984714E+01  0.31886059433E+02  0.00000000000E+00 0. -1.
         11    1    3    3    0    0 -0.87224903597E+01 -0.13066065251E+01 -0.95015318956E+01  0.12964110741E+02  0.51100000000E-03 0.  1.
        -11    1    3    3    0    0 -0.91911424474E+00 -0.13886888299E+01  0.10440539155E+02  0.10572515584E+02  0.51100000000E-03 0. -1.
         12    1    3    3    0    0  0.10052453453E+02  0.33717679204E+02  0.64205912121E+01  0.35765314243E+02  0.00000000000E+00 0. -1.
</event>
<event>
 7    1  0.6246445E-012  0.5930191E+02  0.7816164E-02  0.1266605E+00
        -11   -1    0    0    0    0  0.00000000000E+00  0.00000000000E+00  0.45593999997E+02  0.45594000000E+02  0.51100000000E-03 0.  1.
         11   -1    0    0    0    0 -0.00000000000E+00 -0.00000000000E+00 -0.45593999997E+02  0.45594000000E+02  0.51100000000E-03 0. -1.
    9900012    2    1    2    0    0  0.13567156233E+02  0.22652517229E+02  0.17875082262E+02  0.59301908503E+02  0.49999935212E+02 0.  0.
         12    1    1    2    0    0 -0.13567156233E+02 -0.22652517229E+02 -0.17875082262E+02  0.31886091497E+02  0.00000000000E+00 0. -1.
         11    1    3    3    0    0 -0.64002209985E+01 -0.97383582376E+01  0.11803664176E+02  0.16586890553E+02  0.51100000000E-03 0.  1.
        -11    1    3    3    0    0 -0.16591997438E+01 -0.13863516515E+01  0.90517270785E-01  0.21640490588E+01  0.51100000000E-03 0. -1.
         12    1    3    3    0    0  0.21626576976E+02  0.33777227118E+02  0.59809008152E+01  0.40550968891E+02  0.00000000000E+00 0. -1.
</event>
<event>
 7    1  0.6246445E-012  0.5930195E+02  0.7816164E-02  0.1266605E+00
        -11   -1    0    0    0    0  0.00000000000E+00  0.00000000000E+00  0.45593999997E+02  0.45594000000E+02  0.51100000000E-03 0. -1.
         11   -1    0    0    0    0 -0.00000000000E+00 -0.00000000000E+00 -0.45593999997E+02  0.45594000000E+02  0.51100000000E-03 0.  1.
    9900012    2    1    2    0    0 -0.93158763684E+01  0.17636884290E+02 -0.24877195756E+02  0.59301951190E+02  0.50000013063E+02 0.  0.
         12    1    1    2    0    0  0.93158763684E+01 -0.17636884290E+02  0.24877195756E+02  0.31886048810E+02  0.00000000000E+00 0. -1.
         11    1    3    3    0    0 -0.67056149157E+01 -0.76585351357E+01 -0.17724362219E+02  0.20439458118E+02  0.51100000000E-03 0. -1.
        -11    1    3    3    0    0 -0.13425727785E+02  0.19966793792E+02  0.13662667659E+01  0.24099578959E+02  0.51100000000E-03 0.  1.
        -12    1    3    3    0    0  0.10815466332E+02  0.53286256341E+01 -0.85191003030E+01  0.14762914113E+02  0.00000000000E+00 0.  1.
</event>
<event>
 7    1  0.6246445E-012  0.5930195E+02  0.7816164E-02  0.1266605E+00
        -11   -1    0    0    0    0  0.00000000000E+00  0.00000000000E+00  0.45593999997E+02  0.45594000000E+02  0.51100000000E-03 0.  1.
         11   -1    0    0    0    0 -0.00000000000E+00 -0.00000000000E+00 -0.45593999997E+02  0.45594000000E+02  0.51100000000E-03 0. -1.
    9900012    2    1    2    0    0  0.27308710226E+02  0.16444923642E+02  0.72026193127E+00  0.59301953756E+02  0.50000017742E+02 0.  0.
         12    1    1    2    0    0 -0.27308710226E+02 -0.16444923642E+02 -0.72026193127E+00  0.31886046244E+02  0.00000000000E+00 0. -1.
         11    1    3    3    0    0  0.17014844822E+01 -0.10005762906E+01  0.68483359797E+01  0.71271248276E+01  0.51100000000E-03 0. -1.
        -11    1    3    3    0    0  0.39296856053E+01  0.14488071931E+02  0.15382278033E+02  0.21493281159E+02  0.51100000000E-03 0.  1.
        -12    1    3    3    0    0  0.21677540139E+02  0.29574280017E+01 -0.21510352082E+02  0.30681547770E+02  0.00000000000E+00 0.  1.
</event>
<event>
 7    1  0.6246445E-012  0.5930209E+02  0.7816164E-02  0.1266604E+00
        -11   -1    0    0    0    0  0.00000000000E+00  0.00000000000E+00  0.45593999997E+02  0.45594000000E+02  0.51100000000E-03 0.  1.
         11   -1    0    0    0    0 -0.00000000000E+00 -0.00000000000E+00 -0.45593999997E+02  0.45594000000E+02  0.51100000000E-03 0. -1.
    9900012    2    1    2    0    0  0.13511674281E+02  0.25087852919E+02  0.14308926996E+02  0.59302092490E+02  0.50000270759E+02 0.  0.
         12    1    1    2    0    0 -0.13511674281E+02 -0.25087852919E+02 -0.14308926996E+02  0.31885907510E+02  0.00000000000E+00 0. -1.
         11    1    3    3    0    0  0.61115898760E+00 -0.76688409492E+00 -0.40171814687E+01  0.41351389018E+01  0.51100000000E-03 0. -1.
        -11    1    3    3    0    0 -0.30837103673E+01  0.33590320489E+02  0.81575508638E+01  0.34703955632E+02  0.51100000000E-03 0.  1.
         12    1    3    3    0    0  0.15984225661E+02 -0.77355834750E+01  0.10168557601E+02  0.20462997956E+02  0.00000000000E+00 0. -1.
</event>
<event>
 7    1  0.6246445E-012  0.5930194E+02  0.7816164E-02  0.1266605E+00
        -11   -1    0    0    0    0  0.00000000000E+00  0.00000000000E+00  0.45593999997E+02  0.45594000000E+02  0.51100000000E-03 0.  1.
         11   -1    0    0    0    0 -0.00000000000E+00 -0.00000000000E+00 -0.45593999997E+02  0.45594000000E+02  0.51100000000E-03 0. -1.
    9900012    2    1    2    0    0  0.28028123514E+02  0.13252547358E+02 -0.74508496391E+01  0.59301939103E+02  0.49999991019E+02 0.  0.
         12    1    1    2    0    0 -0.28028123514E+02 -0.13252547358E+02  0.74508496391E+01  0.31886060897E+02  0.00000000000E+00 0. -1.
         11    1    3    3    0    0  0.96784918794E+01 -0.13994980152E+02  0.19991687742E+01  0.17132698286E+02  0.51100000000E-03 0. -1.
        -11    1    3    3    0    0  0.37204288013E+01  0.14947895005E+02  0.70303472746E+01  0.16932422703E+02  0.51100000000E-03 0.  1.
        -12    1    3    3    0    0  0.14629202833E+02  0.12299632505E+02 -0.16480365688E+02  0.25236818113E+02  0.00000000000E+00 0.  1.
</event>
<event>
 7    1  0.6246445E-012  0.5930196E+02  0.7816164E-02  0.1266605E+00
        -11   -1    0    0    0    0  0.00000000000E+00  0.00000000000E+00  0.45593999997E+02  0.45594000000E+02  0.51100000000E-03 0.  1.
         11   -1    0    0    0    0 -0.00000000000E+00 -0.00000000000E+00 -0.45593999997E+02  0.45594000000E+02  0.51100000000E-03 0. -1.
    9900012    2    1    2    0    0  0.11254961059E+02 -0.22272542435E+02  0.19848903495E+02  0.59301964422E+02  0.50000037194E+02 0.  0.
         12    1    1    2    0    0 -0.11254961059E+02  0.22272542435E+02 -0.19848903495E+02  0.31886035578E+02  0.00000000000E+00 0. -1.
         11    1    3    3    0    0  0.59557076172E+01 -0.18801200083E+02  0.10349989972E+02  0.22272805626E+02  0.51100000000E-03 0. -1.
        -11    1    3    3    0    0  0.69234375643E+01 -0.96033757445E+01  0.20878188974E+02  0.24001199731E+02  0.51100000000E-03 0.  1.
         12    1    3    3    0    0 -0.16241841227E+01  0.61320333927E+01 -0.11379275452E+02  0.13027959065E+02  0.00000000000E+00 0. -1.
</event>
<event>
 7    1  0.6246445E-012  0.5930173E+02  0.7816164E-02  0.1266606E+00
        -11   -1    0    0    0    0  0.00000000000E+00  0.00000000000E+00  0.45593999997E+02  0.45594000000E+02  0.51100000000E-03 0.  1.
         11   -1    0    0    0    0 -0.00000000000E+00 -0.00000000000E+00 -0.45593999997E+02  0.45594000000E+02  0.51100000000E-03 0. -1.
    9900012    2    1    2    0    0  0.10080745497E+02  0.22189026630E+02  0.20561132235E+02  0.59301725659E+02  0.49999601745E+02 0.  0.
         12    1    1    2    0    0 -0.10080745497E+02 -0.22189026630E+02 -0.20561132235E+02  0.31886274341E+02  0.00000000000E+00 0. -1.
         11    1    3    3    0    0 -0.78050705475E+01  0.16132777595E+02 -0.34490199530E+01  0.18250517200E+02  0.51100000000E-03 0. -1.
        -11    1    3    3    0    0  0.59355424869E+01  0.16210715286E+02  0.15543530830E+02  0.23229707394E+02  0.51100000000E-03 0.  1.
         12    1    3    3    0    0  0.11950273558E+02 -0.10154466251E+02  0.84666213586E+01  0.17821501064E+02  0.00000000000E+00 0. -1.
</event>
<event>
 7    1  0.6246445E-012  0.5930194E+02  0.7816164E-02  0.1266605E+00
        -11   -1    0    0    0    0  0.00000000000E+00  0.00000000000E+00  0.45593999997E+02  0.45594000000E+02  0.51100000000E-03 0.  1.
         11   -1    0    0    0    0 -0.00000000000E+00 -0.00000000000E+00 -0.45593999997E+02  0.45594000000E+02  0.51100000000E-03 0. -1.
    9900012    2    1    2    0    0 -0.22609962023E+02 -0.36361989922E+01  0.22187570583E+02  0.59301943264E+02  0.49999998607E+02 0.  0.
         12    1    1    2    0    0  0.22609962023E+02  0.36361989922E+01 -0.22187570583E+02  0.31886056736E+02  0.00000000000E+00 0. -1.
         11    1    3    3    0    0  0.91886251606E+01 -0.91834610447E+01  0.22078913193E+02  0.25617283172E+02  0.51100000000E-03 0.  1.
        -11    1    3    3    0    0 -0.17245994362E+02  0.74254516516E+01  0.20302858905E+01  0.18886071980E+02  0.51100000000E-03 0. -1.
        -12    1    3    3    0    0 -0.14552592822E+02 -0.18781895991E+01 -0.19216285004E+01  0.14798588112E+02  0.00000000000E+00 0.  1.
</event>
<event>
 7    1  0.6246445E-012  0.5930195E+02  0.7816164E-02  0.1266605E+00
        -11   -1    0    0    0    0  0.00000000000E+00  0.00000000000E+00  0.45593999997E+02  0.45594000000E+02  0.51100000000E-03 0. -1.
         11   -1    0    0    0    0 -0.00000000000E+00 -0.00000000000E+00 -0.45593999997E+02  0.45594000000E+02  0.51100000000E-03 0.  1.
    9900012    2    1    2    0    0  0.68687131459E+01  0.15158101974E+02 -0.27198770754E+02  0.59301946524E+02  0.50000004553E+02 0.  0.
         12    1    1    2    0    0 -0.68687131459E+01 -0.15158101974E+02  0.27198770754E+02  0.31886053476E+02  0.00000000000E+00 0. -1.
         11    1    3    3    0    0  0.60082240473E+01  0.16522784046E+02  0.58072418640E+01  0.18515539613E+02  0.51100000000E-03 0. -1.
        -11    1    3    3    0    0  0.30553088128E+01  0.73486134421E+01 -0.15966343084E+01  0.81170359639E+01  0.51100000000E-03 0.  1.
        -12    1    3    3    0    0 -0.21948197142E+01 -0.87132955137E+01 -0.31409378310E+02  0.32669370947E+02  0.00000000000E+00 0.  1.
</event>
<event>
 7    1  0.6246445E-012  0.5930194E+02  0.7816164E-02  0.1266605E+00
        -11   -1    0    0    0    0  0.00000000000E+00  0.00000000000E+00  0.45593999997E+02  0.45594000000E+02  0.51100000000E-03 0.  1.
         11   -1    0    0    0    0 -0.00000000000E+00 -0.00000000000E+00 -0.45593999997E+02  0.45594000000E+02  0.51100000000E-03 0. -1.
    9900012    2    1    2    0    0  0.79292659975E+01 -0.62146182274E+00  0.30878164986E+02  0.59301944318E+02  0.50000000529E+02 0.  0.
         12    1    1    2    0    0 -0.79292659975E+01  0.62146182274E+00 -0.30878164986E+02  0.31886055682E+02  0.00000000000E+00 0. -1.
         11    1    3    3    0    0 -0.13367780581E+02  0.65124872437E+00  0.60173452042E+01  0.14674131188E+02  0.51100000000E-03 0. -1.
        -11    1    3    3    0    0  0.13936945835E+02  0.13475723329E+02  0.77753776935E+01  0.20887557947E+02  0.51100000000E-03 0.  1.
        -12    1    3    3    0    0  0.73601007435E+01 -0.14748433876E+02  0.17085442088E+02  0.23740255182E+02  0.00000000000E+00 0.  1.
</event>
<event>
 7    1  0.6246445E-012  0.5930197E+02  0.7816164E-02  0.1266605E+00
        -11   -1    0    0    0    0  0.00000000000E+00  0.00000000000E+00  0.45593999997E+02  0.45594000000E+02  0.51100000000E-03 0.  1.
         11   -1    0    0    0    0 -0.00000000000E+00 -0.00000000000E+00 -0.45593999997E+02  0.45594000000E+02  0.51100000000E-03 0. -1.
    9900012    2    1    2    0    0 -0.21195563301E+00 -0.26462956695E+02  0.17787245751E+02  0.59301966794E+02  0.50000041520E+02 0.  0.
         12    1    1    2    0    0  0.21195563301E+00  0.26462956695E+02 -0.17787245751E+02  0.31886033206E+02  0.00000000000E+00 0. -1.
         11    1    3    3    0    0 -0.16258932849E+02 -0.28313466303E+02  0.76028267080E+01  0.33523249330E+02  0.51100000000E-03 0. -1.
        -11    1    3    3    0    0  0.22776712928E+01 -0.66897335324E+01  0.53704996357E+01  0.88759556021E+01  0.51100000000E-03 0.  1.
        -12    1    3    3    0    0  0.13769305923E+02  0.85402431402E+01  0.48139194070E+01  0.16902761862E+02  0.00000000000E+00 0.  1.
</event>
<event>
 7    1  0.6246445E-012  0.5930192E+02  0.7816164E-02  0.1266605E+00
        -11   -1    0    0    0    0  0.00000000000E+00  0.00000000000E+00  0.45593999997E+02  0.45594000000E+02  0.51100000000E-03 0. -1.
         11   -1    0    0    0    0 -0.00000000000E+00 -0.00000000000E+00 -0.45593999997E+02  0.45594000000E+02  0.51100000000E-03 0.  1.
    9900012    2    1    2    0    0  0.24147306265E+02 -0.66758981778E+01 -0.19724648998E+02  0.59301924757E+02  0.49999964855E+02 0.  0.
         12    1    1    2    0    0 -0.24147306265E+02  0.66758981778E+01  0.19724648998E+02  0.31886075243E+02  0.00000000000E+00 0. -1.
         11    1    3    3    0    0  0.32764143987E+02 -0.55369515855E+01 -0.16173358957E+02  0.36955710036E+02  0.51100000000E-03 0. -1.
        -11    1    3    3    0    0 -0.37634061640E+01  0.94861725170E+01 -0.25383717894E+00  0.10208581123E+02  0.51100000000E-03 0.  1.
        -12    1    3    3    0    0 -0.48534315582E+01 -0.10625119109E+02 -0.32974528616E+01  0.12137633598E+02  0.00000000000E+00 0.  1.
</event>
<event>
 7    1  0.6246445E-012  0.5930193E+02  0.7816164E-02  0.1266605E+00
        -11   -1    0    0    0    0  0.00000000000E+00  0.00000000000E+00  0.45593999997E+02  0.45594000000E+02  0.51100000000E-03 0.  1.
         11   -1    0    0    0    0 -0.00000000000E+00 -0.00000000000E+00 -0.45593999997E+02  0.45594000000E+02  0.51100000000E-03 0. -1.
    9900012    2    1    2    0    0 -0.62589734128E+01  0.16485015797E+02  0.26566727505E+02  0.59301929305E+02  0.49999973150E+02 0.  0.
         12    1    1    2    0    0  0.62589734128E+01 -0.16485015797E+02 -0.26566727505E+02  0.31886070695E+02  0.00000000000E+00 0. -1.
         11    1    3    3    0    0 -0.44441838396E+00  0.16451790298E+02  0.87829544178E+01  0.18654736672E+02  0.51100000000E-03 0. -1.
        -11    1    3    3    0    0  0.14418739034E+02  0.41577197836E+01  0.11968487695E+02  0.19194566083E+02  0.51100000000E-03 0.  1.
         12    1    3    3    0    0 -0.20233294063E+02 -0.41244942853E+01  0.58152853923E+01  0.21452626551E+02  0.00000000000E+00 0. -1.
</event>
<event>
 7    1  0.6246445E-012  0.5930190E+02  0.7816164E-02  0.1266605E+00
        -11   -1    0    0    0    0  0.00000000000E+00  0.00000000000E+00  0.45593999997E+02  0.45594000000E+02  0.51100000000E-03 0. -1.
         11   -1    0    0    0    0 -0.00000000000E+00 -0.00000000000E+00 -0.45593999997E+02  0.45594000000E+02  0.51100000000E-03 0.  1.
    9900012    2    1    2    0    0  0.30622716016E+02  0.86374567426E+01  0.20897954497E+01  0.59301895814E+02  0.49999912069E+02 0.  0.
         12    1    1    2    0    0 -0.30622716016E+02 -0.86374567426E+01 -0.20897954497E+01  0.31886104186E+02  0.00000000000E+00 0. -1.
         11    1    3    3    0    0 -0.12735968609E+01 -0.27222351486E+01  0.57186561202E+01  0.64603127827E+01  0.51100000000E-03 0. -1.
        -11    1    3    3    0    0  0.20201500752E+02  0.63749431760E+00 -0.21115609091E+02  0.29229710556E+02  0.51100000000E-03 0.  1.
         12    1    3    3    0    0  0.11694812124E+02  0.10722197574E+02  0.17486748421E+02  0.23611872475E+02  0.00000000000E+00 0. -1.
</event>
<event>
 7    1  0.6246445E-012  0.5930197E+02  0.7816164E-02  0.1266605E+00
        -11   -1    0    0    0    0  0.00000000000E+00  0.00000000000E+00  0.45593999997E+02  0.45594000000E+02  0.51100000000E-03 0.  1.
         11   -1    0    0    0    0 -0.00000000000E+00 -0.00000000000E+00 -0.45593999997E+02  0.45594000000E+02  0.51100000000E-03 0. -1.
    9900012    2    1    2    0    0  0.30973406349E+02  0.47266132904E+01 -0.59182873591E+01  0.59301970154E+02  0.50000047648E+02 0.  0.
         12    1    1    2    0    0 -0.30973406349E+02 -0.47266132904E+01  0.59182873591E+01  0.31886029846E+02  0.00000000000E+00 0. -1.
         11    1    3    3    0    0 -0.12259757597E+02 -0.10956354776E+01 -0.56073035611E+01  0.13525676579E+02  0.51100000000E-03 0. -1.
        -11    1    3    3    0    0  0.49829368293E+01  0.11810985640E+01 -0.47574029793E+01  0.69898166379E+01  0.51100000000E-03 0.  1.
        -12    1    3    3    0    0  0.38250227116E+02  0.46411502041E+01  0.44464191813E+01  0.38786476937E+02  0.00000000000E+00 0.  1.
</event>
<event>
 7    1  0.6246445E-012  0.5930195E+02  0.7816164E-02  0.1266605E+00
        -11   -1    0    0    0    0  0.00000000000E+00  0.00000000000E+00  0.45593999997E+02  0.45594000000E+02  0.51100000000E-03 0. -1.
         11   -1    0    0    0    0 -0.00000000000E+00 -0.00000000000E+00 -0.45593999997E+02  0.45594000000E+02  0.51100000000E-03 0.  1.
    9900012    2    1    2    0    0  0.12634175221E+02  0.17971086626E+02 -0.23111419960E+02  0.59301951788E+02  0.50000014153E+02 0.  0.
         12    1    1    2    0    0 -0.12634175221E+02 -0.17971086626E+02  0.23111419960E+02  0.31886048212E+02  0.00000000000E+00 0. -1.
         11    1    3    3    0    0 -0.97914545655E+01  0.14323424960E+02  0.21761072039E+01  0.17486238244E+02  0.51100000000E-03 0. -1.
        -11    1    3    3    0    0  0.92714800057E+00  0.94921180174E+01 -0.23144981590E+01  0.98141127903E+01  0.51100000000E-03 0.  1.
        -12    1    3    3    0    0  0.21498481786E+02 -0.58444563519E+01 -0.22973029005E+02  0.32001600754E+02  0.00000000000E+00 0.  1.
</event>
<event>
 7    1  0.6246445E-012  0.5930195E+02  0.7816164E-02  0.1266605E+00
        -11   -1    0    0    0    0  0.00000000000E+00  0.00000000000E+00  0.45593999997E+02  0.45594000000E+02  0.51100000000E-03 0.  1.
         11   -1    0    0    0    0 -0.00000000000E+00 -0.00000000000E+00 -0.45593999997E+02  0.45594000000E+02  0.51100000000E-03 0. -1.
    9900012    2    1    2    0    0 -0.53774139072E+01 -0.20157931643E+02 -0.24113516806E+02  0.59301945349E+02  0.50000002409E+02 0.  0.
         12    1    1    2    0    0  0.53774139072E+01  0.20157931643E+02  0.24113516806E+02  0.31886054651E+02  0.00000000000E+00 0. -1.
         11    1    3    3    0    0 -0.47255476754E+01 -0.91115946156E+01 -0.18951221751E+02  0.21552279772E+02  0.51100000000E-03 0. -1.
        -11    1    3    3    0    0  0.12443987310E+02 -0.16637281723E+02 -0.95269162960E+01  0.22856379802E+02  0.51100000000E-03 0.  1.
         12    1    3    3    0    0 -0.13095853542E+02  0.55909446956E+01  0.43646212404E+01  0.14893285774E+02  0.00000000000E+00 0. -1.
</event>
<event>
 7    1  0.6246445E-012  0.5930195E+02  0.7816164E-02  0.1266605E+00
        -11   -1    0    0    0    0  0.00000000000E+00  0.00000000000E+00  0.45593999997E+02  0.45594000000E+02  0.51100000000E-03 0. -1.
         11   -1    0    0    0    0 -0.00000000000E+00 -0.00000000000E+00 -0.45593999997E+02  0.45594000000E+02  0.51100000000E-03 0.  1.
    9900012    2    1    2    0    0  0.45238971976E+01  0.98669385251E+01 -0.29981630334E+02  0.59301948517E+02  0.50000008187E+02 0.  0.
         12    1    1    2    0    0 -0.45238971976E+01 -0.98669385251E+01  0.29981630334E+02  0.31886051483E+02  0.00000000000E+00 0. -1.
         11    1    3    3    0    0 -0.12865017367E+01  0.60320613652E+01  0.14957646906E+01  0.63465079613E+01  0.51100000000E-03 0. -1.
        -11    1    3    3    0    0 -0.11151985785E+02  0.14181891238E+01  0.52656649177E+01  0.12413914557E+02  0.51100000000E-03 0.  1.
         12    1    3    3    0    0  0.16962384719E+02  0.24166880361E+01 -0.36743059942E+02  0.40541525999E+02  0.00000000000E+00 0. -1.
</event>
<event>
 7    1  0.6246445E-012  0.5930195E+02  0.7816164E-02  0.1266605E+00
        -11   -1    0    0    0    0  0.00000000000E+00  0.00000000000E+00  0.45593999997E+02  0.45594000000E+02  0.51100000000E-03 0.  1.
         11   -1    0    0    0    0 -0.00000000000E+00 -0.00000000000E+00 -0.45593999997E+02  0.45594000000E+02  0.51100000000E-03 0. -1.
    9900012    2    1    2    0    0  0.11452530274E+01  0.25629966408E+02  0.18934451877E+02  0.59301948968E+02  0.50000009009E+02 0.  0.
         12    1    1    2    0    0 -0.11452530274E+01 -0.25629966408E+02 -0.18934451877E+02  0.31886051032E+02  0.00000000000E+00 0. -1.
         11    1    3    3    0    0  0.70757060238E+01 -0.12259903656E+02  0.67845301492E+01  0.15697155889E+02  0.51100000000E-03 0. -1.
        -11    1    3    3    0    0 -0.47103380918E+01  0.10341057551E+02  0.11285811534E+02  0.16015439377E+02  0.51100000000E-03 0.  1.
        -12    1    3    3    0    0 -0.12201149047E+01  0.27548812513E+02  0.86411019401E+00  0.27589353702E+02  0.00000000000E+00 0.  1.
</event>
<event>
 7    1  0.6246445E-012  0.5930195E+02  0.7816164E-02  0.1266605E+00
        -11   -1    0    0    0    0  0.00000000000E+00  0.00000000000E+00  0.45593999997E+02  0.45594000000E+02  0.51100000000E-03 0. -1.
         11   -1    0    0    0    0 -0.00000000000E+00 -0.00000000000E+00 -0.45593999997E+02  0.45594000000E+02  0.51100000000E-03 0.  1.
    9900012    2    1    2    0    0  0.15955638101E+02  0.95277925965E+01  0.25910592614E+02  0.59301952447E+02  0.50000015354E+02 0.  0.
         12    1    1    2    0    0 -0.15955638101E+02 -0.95277925965E+01 -0.25910592614E+02  0.31886047553E+02  0.00000000000E+00 0. -1.
         11    1    3    3    0    0  0.14443282152E+02  0.69806079120E+01  0.50102477040E+00  0.16049558007E+02  0.51100000000E-03 0. -1.
        -11    1    3    3    0    0  0.69898297334E+01  0.98022714877E+01 -0.38288480068E+01  0.12633381311E+02  0.51100000000E-03 0.  1.
         12    1    3    3    0    0 -0.54774737838E+01 -0.72550868032E+01  0.29238415850E+02  0.30619013129E+02  0.00000000000E+00 0. -1.
</event>
<event>
 7    1  0.6246445E-012  0.5930196E+02  0.7816164E-02  0.1266605E+00
        -11   -1    0    0    0    0  0.00000000000E+00  0.00000000000E+00  0.45593999997E+02  0.45594000000E+02  0.51100000000E-03 0.  1.
         11   -1    0    0    0    0 -0.00000000000E+00 -0.00000000000E+00 -0.45593999997E+02  0.45594000000E+02  0.51100000000E-03 0. -1.
    9900012    2    1    2    0    0  0.50091833241E+01  0.30890522052E+02  0.61158199495E+01  0.59301960361E+02  0.50000029788E+02 0.  0.
         12    1    1    2    0    0 -0.50091833241E+01 -0.30890522052E+02 -0.61158199495E+01  0.31886039639E+02  0.00000000000E+00 0. -1.
         11    1    3    3    0    0  0.10983771632E+02 -0.35173973254E+01 -0.94648031978E+01  0.14919712566E+02  0.51100000000E-03 0. -1.
        -11    1    3    3    0    0 -0.59964102966E+01  0.31632716707E+01  0.10832128074E+02  0.12778819311E+02  0.51100000000E-03 0.  1.
         12    1    3    3    0    0  0.21821988679E-01  0.31244647706E+02  0.47484950729E+01  0.31603428484E+02  0.00000000000E+00 0. -1.
</event>
<event>
 7    1  0.6246445E-012  0.5930176E+02  0.7816164E-02  0.1266605E+00
        -11   -1    0    0    0    0  0.00000000000E+00  0.00000000000E+00  0.45593999997E+02  0.45594000000E+02  0.51100000000E-03 0.  1.
         11   -1    0    0    0    0 -0.00000000000E+00 -0.00000000000E+00 -0.45593999997E+02  0.45594000000E+02  0.51100000000E-03 0. -1.
    9900012    2    1    2    0    0  0.82809124534E+01  0.22065162080E+02  0.21477597850E+02  0.59301763187E+02  0.49999670188E+02 0.  0.
         12    1    1    2    0    0 -0.82809124534E+01 -0.22065162080E+02 -0.21477597850E+02  0.31886236813E+02  0.00000000000E+00 0. -1.
         11    1    3    3    0    0 -0.18650622304E+01 -0.17861822624E+01  0.11058271909E+02  0.11355803894E+02  0.51100000000E-03 0. -1.
        -11    1    3    3    0    0 -0.59073094689E+01 -0.16969432072E+01  0.16108373998E+02  0.17241103054E+02  0.51100000000E-03 0.  1.
         12    1    3    3    0    0  0.16053284153E+02  0.25548287550E+02 -0.56890480569E+01  0.30704856238E+02  0.00000000000E+00 0. -1.
</event>
<event>
 7    1  0.6246445E-012  0.5930194E+02  0.7816164E-02  0.1266605E+00
        -11   -1    0    0    0    0  0.00000000000E+00  0.00000000000E+00  0.45593999997E+02  0.45594000000E+02  0.51100000000E-03 0.  1.
         11   -1    0    0    0    0 -0.00000000000E+00 -0.00000000000E+00 -0.45593999997E+02  0.45594000000E+02  0.51100000000E-03 0. -1.
    9900012    2    1    2    0    0 -0.29541169444E+02 -0.75150011105E+01  0.93576070585E+01  0.59301941233E+02  0.49999994903E+02 0.  0.
         12    1    1    2    0    0  0.29541169444E+02  0.75150011105E+01 -0.93576070585E+01  0.31886058767E+02  0.00000000000E+00 0. -1.
         11    1    3    3    0    0 -0.28027241202E+01  0.53294040920E+00 -0.13247678891E+02  0.13551394180E+02  0.51100000000E-03 0. -1.
        -11    1    3    3    0    0 -0.12675036913E+01 -0.54633323359E+01 -0.54146888821E+01  0.77957309966E+01  0.51100000000E-03 0.  1.
        -12    1    3    3    0    0 -0.25470941633E+02 -0.25846091838E+01  0.28019974831E+02  0.37954816056E+02  0.00000000000E+00 0.  1.
</event>
<event>
 7    1  0.6246445E-012  0.5930199E+02  0.7816164E-02  0.1266605E+00
        -11   -1    0    0    0    0  0.00000000000E+00  0.00000000000E+00  0.45593999997E+02  0.45594000000E+02  0.51100000000E-03 0. -1.
         11   -1    0    0    0    0 -0.00000000000E+00 -0.00000000000E+00 -0.45593999997E+02  0.45594000000E+02  0.51100000000E-03 0.  1.
    9900012    2    1    2    0    0  0.23700184373E+02 -0.74068193238E+01 -0.20003948773E+02  0.59301989301E+02  0.50000082568E+02 0.  0.
         12    1    1    2    0    0 -0.23700184373E+02  0.74068193238E+01  0.20003948773E+02  0.31886010699E+02  0.00000000000E+00 0. -1.
         11    1    3    3    0    0  0.10816848885E+02 -0.13881465221E+02  0.86646106416E+01  0.19615676749E+02  0.51100000000E-03 0. -1.
        -11    1    3    3    0    0  0.73830879519E+01 -0.84108418285E+01 -0.15176960955E+02  0.18857157582E+02  0.51100000000E-03 0.  1.
        -12    1    3    3    0    0  0.55002475358E+01  0.14885487726E+02 -0.13491598459E+02  0.20829154971E+02  0.00000000000E+00 0.  1.
</event>
<event>
 7    1  0.6246445E-012  0.5930190E+02  0.7816164E-02  0.1266605E+00
        -11   -1    0    0    0    0  0.00000000000E+00  0.00000000000E+00  0.45593999997E+02  0.45594000000E+02  0.51100000000E-03 0.  1.
         11   -1    0    0    0    0 -0.00000000000E+00 -0.00000000000E+00 -0.45593999997E+02  0.45594000000E+02  0.51100000000E-03 0. -1.
    9900012    2    1    2    0    0  0.10199797417E+02  0.20084586983E+01  0.30143885215E+02  0.59301896607E+02  0.49999913517E+02 0.  0.
         12    1    1    2    0    0 -0.10199797417E+02 -0.20084586983E+01 -0.30143885215E+02  0.31886103393E+02  0.00000000000E+00 0. -1.
         11    1    3    3    0    0  0.24603447503E+01 -0.15359339912E+02 -0.43979484350E+01  0.16164917863E+02  0.51100000000E-03 0. -1.
        -11    1    3    3    0    0 -0.30825323317E+01 -0.86242900136E+00  0.81945069420E+00  0.33041321190E+01  0.51100000000E-03 0.  1.
        -12    1    3    3    0    0  0.10821984999E+02  0.18230227611E+02  0.33722382956E+02  0.39832846626E+02  0.00000000000E+00 0.  1.
</event>
<event>
 7    1  0.6246445E-012  0.5930194E+02  0.7816164E-02  0.1266605E+00
        -11   -1    0    0    0    0  0.00000000000E+00  0.00000000000E+00  0.45593999997E+02  0.45594000000E+02  0.51100000000E-03 0.  1.
         11   -1    0    0    0    0 -0.00000000000E+00 -0.00000000000E+00 -0.45593999997E+02  0.45594000000E+02  0.51100000000E-03 0. -1.
    9900012    2    1    2    0    0 -0.43843150362E+01 -0.30682982706E+02  0.74868504612E+01  0.59301943864E+02  0.49999999702E+02 0.  0.
         12    1    1    2    0    0  0.43843150362E+01  0.30682982706E+02 -0.74868504612E+01  0.31886056136E+02  0.00000000000E+00 0. -1.
         11    1    3    3    0    0  0.17270484270E+01  0.59494397790E+01 -0.57056040799E+01  0.84221403533E+01  0.51100000000E-03 0. -1.
        -11    1    3    3    0    0 -0.15937824479E+02 -0.19814796160E+02  0.17579270758E+02  0.30913931433E+02  0.51100000000E-03 0.  1.
         12    1    3    3    0    0  0.98264610163E+01 -0.16817626324E+02 -0.43868162170E+01  0.19965872077E+02  0.00000000000E+00 0. -1.
</event>
<event>
 7    1  0.6246445E-012  0.5930194E+02  0.7816164E-02  0.1266605E+00
        -11   -1    0    0    0    0  0.00000000000E+00  0.00000000000E+00  0.45593999997E+02  0.45594000000E+02  0.51100000000E-03 0. -1.
         11   -1    0    0    0    0 -0.00000000000E+00 -0.00000000000E+00 -0.45593999997E+02  0.45594000000E+02  0.51100000000E-03 0.  1.
    9900012    2    1    2    0    0 -0.17804284769E+02 -0.22350707765E+02 -0.14148296214E+02  0.59301937536E+02  0.49999988160E+02 0.  0.
         12    1    1    2    0    0  0.17804284769E+02  0.22350707765E+02  0.14148296214E+02  0.31886062464E+02  0.00000000000E+00 0. -1.
         11    1    3    3    0    0  0.28946532389E+01 -0.11706230585E+02 -0.36545306797E+01  0.12600414542E+02  0.51100000000E-03 0. -1.
        -11    1    3    3    0    0  0.82530494147E+01  0.75535124245E+01 -0.11200796446E+01  0.11243796212E+02  0.51100000000E-03 0.  1.
         12    1    3    3    0    0 -0.28951987422E+02 -0.18197989604E+02 -0.93736858898E+01  0.35457726781E+02  0.00000000000E+00 0. -1.
</event>
<event>
 7    1  0.6246445E-012  0.5930193E+02  0.7816164E-02  0.1266605E+00
        -11   -1    0    0    0    0  0.00000000000E+00  0.00000000000E+00  0.45593999997E+02  0.45594000000E+02  0.51100000000E-03 0.  1.
         11   -1    0    0    0    0 -0.00000000000E+00 -0.00000000000E+00 -0.45593999997E+02  0.45594000000E+02  0.51100000000E-03 0. -1.
    9900012    2    1    2    0    0 -0.23354013021E+02  0.12005153703E+02  0.18088339182E+02  0.59301926959E+02  0.49999968871E+02 0.  0.
         12    1    1    2    0    0  0.23354013021E+02 -0.12005153703E+02 -0.18088339182E+02  0.31886073041E+02  0.00000000000E+00 0. -1.
         11    1    3    3    0    0 -0.29292552338E+01  0.90552339540E+01 -0.37324055952E+01  0.10222947225E+02  0.51100000000E-03 0. -1.
        -11    1    3    3    0    0  0.17626901146E+01  0.15175603918E+02 -0.54282606236E+00  0.15287272193E+02  0.51100000000E-03 0.  1.
         12    1    3    3    0    0 -0.22187447902E+02 -0.12225684169E+02  0.22363570839E+02  0.33791707540E+02  0.00000000000E+00 0. -1.
</event>
<event>
 7    1  0.6246445E-012  0.5930197E+02  0.7816164E-02  0.1266605E+00
        -11   -1    0    0    0    0  0.00000000000E+00  0.00000000000E+00  0.45593999997E+02  0.45594000000E+02  0.51100000000E-03 0. -1.
         11   -1    0    0    0    0 -0.00000000000E+00 -0.00000000000E+00 -0.45593999997E+02  0.45594000000E+02  0.51100000000E-03 0.  1.
    9900012    2    1    2    0    0  0.31287548894E+02  0.25587621233E+00 -0.61435223843E+01  0.59301967702E+02  0.50000043176E+02 0.  0.
         12    1    1    2    0    0 -0.31287548894E+02 -0.25587621233E+00  0.61435223843E+01  0.31886032298E+02  0.00000000000E+00 0. -1.
         11    1    3    3    0    0  0.64672767068E+01 -0.13587915699E+02  0.32761098569E+01  0.15400974550E+02  0.51100000000E-03 0. -1.
        -11    1    3    3    0    0  0.10117685488E+01 -0.85949680508E+01  0.26163686651E+01  0.90411579260E+01  0.51100000000E-03 0.  1.
        -12    1    3    3    0    0  0.23808503638E+02  0.22438759962E+02 -0.12036000906E+02  0.34859835226E+02  0.00000000000E+00 0.  1.
</event>
<event>
 7    1  0.6246445E-012  0.5930195E+02  0.7816164E-02  0.1266605E+00
        -11   -1    0    0    0    0  0.00000000000E+00  0.00000000000E+00  0.45593999997E+02  0.45594000000E+02  0.51100000000E-03 0.  1.
         11   -1    0    0    0    0 -0.00000000000E+00 -0.00000000000E+00 -0.45593999997E+02  0.45594000000E+02  0.51100000000E-03 0. -1.
    9900012    2    1    2    0    0 -0.13954014277E+02  0.17227932421E+02  0.22917336697E+02  0.59301945192E+02  0.50000002123E+02 0.  0.
         12    1    1    2    0    0  0.13954014277E+02 -0.17227932421E+02 -0.22917336697E+02  0.31886054808E+02  0.00000000000E+00 0. -1.
         11    1    3    3    0    0  0.90105820515E+01 -0.96110847289E+00 -0.30135708391E+01  0.95496559031E+01  0.51100000000E-03 0. -1.
        -11    1    3    3    0    0  0.49081729948E+01 -0.39543941287E+01  0.12248778106E+01  0.64208816361E+01  0.51100000000E-03 0.  1.
        -12    1    3    3    0    0 -0.27872769324E+02  0.22143435023E+02  0.24706029725E+02  0.43331407653E+02  0.00000000000E+00 0.  1.
</event>
<event>
 7    1  0.6246445E-012  0.5930213E+02  0.7816164E-02  0.1266604E+00
        -11   -1    0    0    0    0  0.00000000000E+00  0.00000000000E+00  0.45593999997E+02  0.45594000000E+02  0.51100000000E-03 0.  1.
         11   -1    0    0    0    0 -0.00000000000E+00 -0.00000000000E+00 -0.45593999997E+02  0.45594000000E+02  0.51100000000E-03 0. -1.
    9900012    2    1    2    0    0 -0.60495873866E+01 -0.30930385945E+02  0.48396482535E+01  0.59302133578E+02  0.50000345693E+02 0.  0.
         12    1    1    2    0    0  0.60495873866E+01  0.30930385945E+02 -0.48396482535E+01  0.31885866422E+02  0.00000000000E+00 0. -1.
         11    1    3    3    0    0  0.52222661438E+01 -0.32313780087E+01 -0.11055068252E+02  0.12646280158E+02  0.51100000000E-03 0. -1.
        -11    1    3    3    0    0  0.71771961851E+01  0.32144325898E+01  0.29443435965E+01  0.83972543983E+01  0.51100000000E-03 0.  1.
        -12    1    3    3    0    0 -0.18449049716E+02 -0.30913440526E+02  0.12950372909E+02  0.38258599021E+02  0.00000000000E+00 0.  1.
</event>
<event>
 7    1  0.6246445E-012  0.5930196E+02  0.7816164E-02  0.1266605E+00
        -11   -1    0    0    0    0  0.00000000000E+00  0.00000000000E+00  0.45593999997E+02  0.45594000000E+02  0.51100000000E-03 0. -1.
         11   -1    0    0    0    0 -0.00000000000E+00 -0.00000000000E+00 -0.45593999997E+02  0.45594000000E+02  0.51100000000E-03 0.  1.
    9900012    2    1    2    0    0  0.12561911675E+02  0.15974424326E+02 -0.24571031409E+02  0.59301961645E+02  0.50000032130E+02 0.  0.
         12    1    1    2    0    0 -0.12561911675E+02 -0.15974424326E+02  0.24571031409E+02  0.31886038355E+02  0.00000000000E+00 0. -1.
         11    1    3    3    0    0  0.18273128930E+02  0.10145989757E+02 -0.24428374640E+02  0.32149554225E+02  0.51100000000E-03 0. -1.
        -11    1    3    3    0    0  0.30653689290E+00  0.12501551138E+02 -0.83058512488E+01  0.15012325301E+02  0.51100000000E-03 0.  1.
         12    1    3    3    0    0 -0.60177541481E+01 -0.66731165696E+01  0.81631944798E+01  0.12140082119E+02  0.00000000000E+00 0. -1.
</event>
<event>
 7    1  0.6246445E-012  0.5930193E+02  0.7816164E-02  0.1266605E+00
        -11   -1    0    0    0    0  0.00000000000E+00  0.00000000000E+00  0.45593999997E+02  0.45594000000E+02  0.51100000000E-03 0. -1.
         11   -1    0    0    0    0 -0.00000000000E+00 -0.00000000000E+00 -0.45593999997E+02  0.45594000000E+02  0.51100000000E-03 0.  1.
    9900012    2    1    2    0    0 -0.33143615583E+01 -0.28156705689E+02 -0.14592340293E+02  0.59301929954E+02  0.49999974332E+02 0.  0.
         12    1    1    2    0    0  0.33143615583E+01  0.28156705689E+02  0.14592340293E+02  0.31886070046E+02  0.00000000000E+00 0. -1.
         11    1    3    3    0    0 -0.76458081746E+01 -0.98898453514E+01 -0.49229550705E+01  0.13435137164E+02  0.51100000000E-03 0. -1.
        -11    1    3    3    0    0  0.10441077165E+01  0.93848882208E+01 -0.14795913709E+02  0.17552360257E+02  0.51100000000E-03 0.  1.
        -12    1    3    3    0    0  0.32873388998E+01 -0.27651748558E+02  0.51265284862E+01  0.28314432533E+02  0.00000000000E+00 0.  1.
</event>
<event>
 7    1  0.6246445E-012  0.5930196E+02  0.7816164E-02  0.1266605E+00
        -11   -1    0    0    0    0  0.00000000000E+00  0.00000000000E+00  0.45593999997E+02  0.45594000000E+02  0.51100000000E-03 0.  1.
         11   -1    0    0    0    0 -0.00000000000E+00 -0.00000000000E+00 -0.45593999997E+02  0.45594000000E+02  0.51100000000E-03 0. -1.
    9900012    2    1    2    0    0  0.73200697975E+01  0.20405944616E+02  0.23382333733E+02  0.59301960292E+02  0.50000029661E+02 0.  0.
         12    1    1    2    0    0 -0.73200697975E+01 -0.20405944616E+02 -0.23382333733E+02  0.31886039708E+02  0.00000000000E+00 0. -1.
         11    1    3    3    0    0 -0.64266730127E+01  0.11217657388E+02  0.15919556440E+02  0.20507809264E+02  0.51100000000E-03 0. -1.
        -11    1    3    3    0    0 -0.11311264523E+01  0.19224112603E+02  0.79681490336E+01  0.20840761783E+02  0.51100000000E-03 0.  1.
         12    1    3    3    0    0  0.14877869262E+02 -0.10035825376E+02 -0.50537174128E+00  0.17953389244E+02  0.00000000000E+00 0. -1.
</event>
<event>
 7    1  0.6246445E-012  0.5930194E+02  0.7816164E-02  0.1266605E+00
        -11   -1    0    0    0    0  0.00000000000E+00  0.00000000000E+00  0.45593999997E+02  0.45594000000E+02  0.51100000000E-03 0.  1.
         11   -1    0    0    0    0 -0.00000000000E+00 -0.00000000000E+00 -0.45593999997E+02  0.45594000000E+02  0.51100000000E-03 0. -1.
    9900012    2    1    2    0    0  0.39105868777E+01 -0.10174331997E+02  0.29965163886E+02  0.59301940851E+02  0.49999994206E+02 0.  0.
         12    1    1    2    0    0 -0.39105868777E+01  0.10174331997E+02 -0.29965163886E+02  0.31886059149E+02  0.00000000000E+00 0. -1.
         11    1    3    3    0    0 -0.11012368198E+02 -0.34331434412E+01 -0.63509986592E+00  0.11552578903E+02  0.51100000000E-03 0. -1.
        -11    1    3    3    0    0 -0.69647493211E+01  0.51836944372E+01  0.17628685706E+02  0.19650673808E+02  0.51100000000E-03 0.  1.
        -12    1    3    3    0    0  0.21887704397E+02 -0.11924882993E+02  0.12971578046E+02  0.28098688140E+02  0.00000000000E+00 0.  1.
</event>
<event>
 7    1  0.6246445E-012  0.5930195E+02  0.7816164E-02  0.1266605E+00
        -11   -1    0    0    0    0  0.00000000000E+00  0.00000000000E+00  0.45593999997E+02  0.45594000000E+02  0.51100000000E-03 0.  1.
         11   -1    0    0    0    0 -0.00000000000E+00 -0.00000000000E+00 -0.45593999997E+02  0.45594000000E+02  0.51100000000E-03 0. -1.
    9900012    2    1    2    0    0  0.11414941238E+02 -0.12849721232E+02  0.26857099460E+02  0.59301952728E+02  0.50000015868E+02 0.  0.
         12    1    1    2    0    0 -0.11414941238E+02  0.12849721232E+02 -0.26857099460E+02  0.31886047272E+02  0.00000000000E+00 0. -1.
         11    1    3    3    0    0 -0.14679947335E+01 -0.20470224435E+01  0.29881804813E+01  0.39082646113E+01  0.51100000000E-03 0. -1.
        -11    1    3    3    0    0  0.10335592626E+02 -0.12476882062E+02  0.37803767917E+02  0.41129331746E+02  0.51100000000E-03 0.  1.
        -12    1    3    3    0    0  0.25473433455E+01  0.16741832736E+01 -0.13934848938E+02  0.14264356371E+02  0.00000000000E+00 0.  1.
</event>
<event>
 7    1  0.6246445E-012  0.5930195E+02  0.7816164E-02  0.1266605E+00
        -11   -1    0    0    0    0  0.00000000000E+00  0.00000000000E+00  0.45593999997E+02  0.45594000000E+02  0.51100000000E-03 0.  1.
         11   -1    0    0    0    0 -0.00000000000E+00 -0.00000000000E+00 -0.45593999997E+02  0.45594000000E+02  0.51100000000E-03 0. -1.
    9900012    2    1    2    0    0 -0.27962640223E+02 -0.83320510394E+01  0.12860316017E+02  0.59301952097E+02  0.50000014717E+02 0.  0.
         12    1    1    2    0    0  0.27962640223E+02  0.83320510394E+01 -0.12860316017E+02  0.31886047903E+02  0.00000000000E+00 0. -1.
         11    1    3    3    0    0 -0.12684819095E+02 -0.10811171862E+02 -0.27685140920E+01  0.16895287599E+02  0.51100000000E-03 0. -1.
        -11    1    3    3    0    0 -0.13422136663E+02 -0.12223266180E+02  0.19947117597E+02  0.26971271557E+02  0.51100000000E-03 0.  1.
        -12    1    3    3    0    0 -0.18556844654E+01  0.14702387003E+02 -0.43182874879E+01  0.15435392941E+02  0.00000000000E+00 0.  1.
</event>
<event>
 7    1  0.6246445E-012  0.5930195E+02  0.7816164E-02  0.1266605E+00
        -11   -1    0    0    0    0  0.00000000000E+00  0.00000000000E+00  0.45593999997E+02  0.45594000000E+02  0.51100000000E-03 0. -1.
         11   -1    0    0    0    0 -0.00000000000E+00 -0.00000000000E+00 -0.45593999997E+02  0.45594000000E+02  0.51100000000E-03 0.  1.
    9900012    2    1    2    0    0  0.10164587436E+02 -0.35565738521E+00 -0.30220432663E+02  0.59301954772E+02  0.50000019595E+02 0.  0.
         12    1    1    2    0    0 -0.10164587436E+02  0.35565738521E+00  0.30220432663E+02  0.31886045228E+02  0.00000000000E+00 0. -1.
         11    1    3    3    0    0  0.41007772796E+01 -0.32673383326E+01 -0.94256247245E+01  0.10785836814E+02  0.51100000000E-03 0. -1.
        -11    1    3    3    0    0  0.94562736191E+01 -0.23593187346E+01 -0.33208738408E+02  0.34609360043E+02  0.51100000000E-03 0.  1.
         12    1    3    3    0    0 -0.33924634631E+01  0.52709996820E+01  0.12413930470E+02  0.13906757915E+02  0.00000000000E+00 0. -1.
</event>
<event>
 7    1  0.6246445E-012  0.5930184E+02  0.7816164E-02  0.1266605E+00
        -11   -1    0    0    0    0  0.00000000000E+00  0.00000000000E+00  0.45593999997E+02  0.45594000000E+02  0.51100000000E-03 0.  1.
         11   -1    0    0    0    0 -0.00000000000E+00 -0.00000000000E+00 -0.45593999997E+02  0.45594000000E+02  0.51100000000E-03 0. -1.
    9900012    2    1    2    0    0  0.22681459268E+02 -0.51313733684E+01  0.21816225667E+02  0.59301838589E+02  0.49999807705E+02 0.  0.
         12    1    1    2    0    0 -0.22681459268E+02  0.51313733684E+01 -0.21816225667E+02  0.31886161411E+02  0.00000000000E+00 0. -1.
         11    1    3    3    0    0  0.58306799465E+00  0.74026322034E+01  0.21235270492E+02  0.22496125110E+02  0.51100000000E-03 0. -1.
        -11    1    3    3    0    0  0.68456266776E+01  0.35963129256E+01  0.10041647141E+02  0.12674018654E+02  0.51100000000E-03 0.  1.
         12    1    3    3    0    0  0.15252764596E+02 -0.16130318497E+02 -0.94606919666E+01  0.24131694825E+02  0.00000000000E+00 0. -1.
</event>
<event>
 7    1  0.6246445E-012  0.5930195E+02  0.7816164E-02  0.1266605E+00
        -11   -1    0    0    0    0  0.00000000000E+00  0.00000000000E+00  0.45593999997E+02  0.45594000000E+02  0.51100000000E-03 0.  1.
         11   -1    0    0    0    0 -0.00000000000E+00 -0.00000000000E+00 -0.45593999997E+02  0.45594000000E+02  0.51100000000E-03 0. -1.
    9900012    2    1    2    0    0 -0.30312196906E+02 -0.97790370263E+01 -0.15036780408E+01  0.59301954556E+02  0.50000019201E+02 0.  0.
         12    1    1    2    0    0  0.30312196906E+02  0.97790370263E+01  0.15036780408E+01  0.31886045444E+02  0.00000000000E+00 0. -1.
         11    1    3    3    0    0  0.11104399412E+01  0.37883803702E+01 -0.22133266022E-01  0.39478339421E+01  0.51100000000E-03 0. -1.
        -11    1    3    3    0    0 -0.16601713446E+02 -0.24735990037E+00  0.20039550322E+02  0.26024251260E+02  0.51100000000E-03 0.  1.
        -12    1    3    3    0    0 -0.14820923401E+02 -0.13320057496E+02 -0.21521095097E+02  0.29329869354E+02  0.00000000000E+00 0.  1.
</event>
<event>
 7    1  0.6246445E-012  0.5930195E+02  0.7816164E-02  0.1266605E+00
        -11   -1    0    0    0    0  0.00000000000E+00  0.00000000000E+00  0.45593999997E+02  0.45594000000E+02  0.51100000000E-03 0.  1.
         11   -1    0    0    0    0 -0.00000000000E+00 -0.00000000000E+00 -0.45593999997E+02  0.45594000000E+02  0.51100000000E-03 0. -1.
    9900012    2    1    2    0    0 -0.50306770142E+01 -0.27510444883E+02  0.15316268215E+02  0.59301947235E+02  0.50000005849E+02 0.  0.
         12    1    1    2    0    0  0.50306770142E+01  0.27510444883E+02 -0.15316268215E+02  0.31886052765E+02  0.00000000000E+00 0. -1.
         11    1    3    3    0    0 -0.15642183641E+01  0.11775144513E+02  0.40343247319E+01  0.12544982411E+02  0.51100000000E-03 0. -1.
        -11    1    3    3    0    0 -0.26157614426E+01  0.16696411971E+01 -0.20018801584E+01  0.36928896655E+01  0.51100000000E-03 0.  1.
        -12    1    3    3    0    0 -0.85069720751E+00 -0.40955230594E+02  0.13283823641E+02  0.43064075158E+02  0.00000000000E+00 0.  1.
</event>
<event>
 7    1  0.6246445E-012  0.5930195E+02  0.7816164E-02  0.1266605E+00
        -11   -1    0    0    0    0  0.00000000000E+00  0.00000000000E+00  0.45593999997E+02  0.45594000000E+02  0.51100000000E-03 0. -1.
         11   -1    0    0    0    0 -0.00000000000E+00 -0.00000000000E+00 -0.45593999997E+02  0.45594000000E+02  0.51100000000E-03 0.  1.
    9900012    2    1    2    0    0 -0.12460730131E+02 -0.41510274966E+01 -0.29055457785E+02  0.59301945810E+02  0.50000003251E+02 0.  0.
         12    1    1    2    0    0  0.12460730131E+02  0.41510274966E+01  0.29055457785E+02  0.31886054190E+02  0.00000000000E+00 0. -1.
         11    1    3    3    0    0 -0.56075628214E+01 -0.38760109117E+01 -0.11191889995E+01  0.69080247293E+01  0.51100000000E-03 0. -1.
        -11    1    3    3    0    0 -0.66930166364E+01 -0.21793524291E+02 -0.13886924194E+02  0.26694584405E+02  0.51100000000E-03 0.  1.
         12    1    3    3    0    0 -0.16015067318E+00  0.21518507706E+02 -0.14049344591E+02  0.25699336676E+02  0.00000000000E+00 0. -1.
</event>
<event>
 7    1  0.6246445E-012  0.5930195E+02  0.7816164E-02  0.1266605E+00
        -11   -1    0    0    0    0  0.00000000000E+00  0.00000000000E+00  0.45593999997E+02  0.45594000000E+02  0.51100000000E-03 0. -1.
         11   -1    0    0    0    0 -0.00000000000E+00 -0.00000000000E+00 -0.45593999997E+02  0.45594000000E+02  0.51100000000E-03 0.  1.
    9900012    2    1    2    0    0  0.12212209374E+02  0.28447127717E+02  0.76382638664E+01  0.59301949633E+02  0.50000010223E+02 0.  0.
         12    1    1    2    0    0 -0.12212209374E+02 -0.28447127717E+02 -0.76382638664E+01  0.31886050367E+02  0.00000000000E+00 0. -1.
         11    1    3    3    0    0  0.14386859613E+02  0.47241138455E+01 -0.80466416037E+01  0.17147811012E+02  0.51100000000E-03 0. -1.
        -11    1    3    3    0    0  0.61174297696E+01 -0.58012101390E+01  0.27085235453E+01  0.88551163808E+01  0.51100000000E-03 0.  1.
         12    1    3    3    0    0 -0.82920800089E+01  0.29524224010E+02  0.12976381925E+02  0.33299022240E+02  0.00000000000E+00 0. -1.
</event>
<event>
 7    1  0.6246445E-012  0.5930196E+02  0.7816164E-02  0.1266605E+00
        -11   -1    0    0    0    0  0.00000000000E+00  0.00000000000E+00  0.45593999997E+02  0.45594000000E+02  0.51100000000E-03 0.  1.
         11   -1    0    0    0    0 -0.00000000000E+00 -0.00000000000E+00 -0.45593999997E+02  0.45594000000E+02  0.51100000000E-03 0. -1.
    9900012    2    1    2    0    0 -0.19950326255E+02  0.11315961830E+02  0.22150692471E+02  0.59301957807E+02  0.50000025129E+02 0.  0.
         12    1    1    2    0    0  0.19950326255E+02 -0.11315961830E+02 -0.22150692471E+02  0.31886042193E+02  0.00000000000E+00 0. -1.
         11    1    3    3    0    0 -0.10530997064E+01 -0.95153649009E+00 -0.11075588925E+02  0.11166159187E+02  0.51100000000E-03 0. -1.
        -11    1    3    3    0    0 -0.10778787904E+02  0.16353673874E+02  0.77100936952E+01  0.21049239010E+02  0.51100000000E-03 0.  1.
        -12    1    3    3    0    0 -0.81184386443E+01 -0.40861755535E+01  0.25516187701E+02  0.27086559610E+02  0.00000000000E+00 0.  1.
</event>
<event>
 7    1  0.6246445E-012  0.5930195E+02  0.7816164E-02  0.1266605E+00
        -11   -1    0    0    0    0  0.00000000000E+00  0.00000000000E+00  0.45593999997E+02  0.45594000000E+02  0.51100000000E-03 0.  1.
         11   -1    0    0    0    0 -0.00000000000E+00 -0.00000000000E+00 -0.45593999997E+02  0.45594000000E+02  0.51100000000E-03 0. -1.
    9900012    2    1    2    0    0 -0.27282897551E+02 -0.16184181652E+02 -0.32304649890E+01  0.59301950722E+02  0.50000012209E+02 0.  0.
         12    1    1    2    0    0  0.27282897551E+02  0.16184181652E+02  0.32304649890E+01  0.31886049278E+02  0.00000000000E+00 0. -1.
         11    1    3    3    0    0  0.29508638161E+01 -0.13058889530E+02  0.87346507556E+01  0.15985503342E+02  0.51100000000E-03 0. -1.
        -11    1    3    3    0    0 -0.27598291216E+02 -0.13169575036E+02 -0.54605583824E+01  0.31063178891E+02  0.51100000000E-03 0.  1.
        -12    1    3    3    0    0 -0.26354701506E+01  0.10044282915E+02 -0.65045573621E+01  0.12253268489E+02  0.00000000000E+00 0.  1.
</event>
<event>
 7    1  0.6246445E-012  0.5930192E+02  0.7816164E-02  0.1266605E+00
        -11   -1    0    0    0    0  0.00000000000E+00  0.00000000000E+00  0.45593999997E+02  0.45594000000E+02  0.51100000000E-03 0.  1.
         11   -1    0    0    0    0 -0.00000000000E+00 -0.00000000000E+00 -0.45593999997E+02  0.45594000000E+02  0.51100000000E-03 0. -1.
    9900012    2    1    2    0    0  0.21047204675E+02 -0.23597429853E+02 -0.41107791028E+01  0.59301921138E+02  0.49999958255E+02 0.  0.
         12    1    1    2    0    0 -0.21047204675E+02  0.23597429853E+02  0.41107791028E+01  0.31886078862E+02  0.00000000000E+00 0. -1.
         11    1    3    3    0    0  0.15762661583E+02 -0.26573944907E+02 -0.15001027914E+02  0.34346279083E+02  0.51100000000E-03 0. -1.
        -11    1    3    3    0    0  0.44416136181E+00 -0.89843462100E+01  0.18043988465E+01  0.91745087931E+01  0.51100000000E-03 0.  1.
         12    1    3    3    0    0  0.48403817311E+01  0.11960861264E+02  0.90858499648E+01  0.15781133263E+02  0.00000000000E+00 0. -1.
</event>
<event>
 7    1  0.6246445E-012  0.5930195E+02  0.7816164E-02  0.1266605E+00
        -11   -1    0    0    0    0  0.00000000000E+00  0.00000000000E+00  0.45593999997E+02  0.45594000000E+02  0.51100000000E-03 0.  1.
         11   -1    0    0    0    0 -0.00000000000E+00 -0.00000000000E+00 -0.45593999997E+02  0.45594000000E+02  0.51100000000E-03 0. -1.
    9900012    2    1    2    0    0  0.49232926076E+01 -0.31419926953E+02 -0.22954904389E+01  0.59301954523E+02  0.50000019140E+02 0.  0.
         12    1    1    2    0    0 -0.49232926076E+01  0.31419926953E+02  0.22954904389E+01  0.31886045477E+02  0.00000000000E+00 0. -1.
         11    1    3    3    0    0  0.71450201942E+01  0.17134280436E+01 -0.34427890315E+01  0.81141817710E+01  0.51100000000E-03 0. -1.
        -11    1    3    3    0    0  0.95436308147E+01 -0.66482195771E+01 -0.14231165102E+02  0.18379493277E+02  0.51100000000E-03 0.  1.
        -12    1    3    3    0    0 -0.11765358401E+02 -0.26485135419E+02  0.15378463695E+02  0.32808279475E+02  0.00000000000E+00 0.  1.
</event>
<event>
 7    1  0.6246445E-012  0.5930195E+02  0.7816164E-02  0.1266605E+00
        -11   -1    0    0    0    0  0.00000000000E+00  0.00000000000E+00  0.45593999997E+02  0.45594000000E+02  0.51100000000E-03 0.  1.
         11   -1    0    0    0    0 -0.00000000000E+00 -0.00000000000E+00 -0.45593999997E+02  0.45594000000E+02  0.51100000000E-03 0. -1.
    9900012    2    1    2    0    0 -0.72709190392E+01  0.11280699273E+02  0.28924037507E+02  0.59301946851E+02  0.50000005149E+02 0.  0.
         12    1    1    2    0    0  0.72709190392E+01 -0.11280699273E+02 -0.28924037507E+02  0.31886053149E+02  0.00000000000E+00 0. -1.
         11    1    3    3    0    0 -0.87591168592E+00 -0.52769082930E+01 -0.31674597854E+01  0.62165733461E+01  0.51100000000E-03 0. -1.
        -11    1    3    3    0    0 -0.17335125795E+02  0.35943467557E+01  0.10786163430E+01  0.17736666215E+02  0.51100000000E-03 0.  1.
         12    1    3    3    0    0  0.10940118442E+02  0.12963260810E+02  0.31012880949E+02  0.35348707290E+02  0.00000000000E+00 0. -1.
</event>
<event>
 7    1  0.7089777E-012  0.5930193E+02  0.7816164E-02  0.1266605E+00
        -11   -1    0    0    0    0  0.00000000000E+00  0.00000000000E+00  0.45593999997E+02  0.45594000000E+02  0.51100000000E-03 0. -1.
         11   -1    0    0    0    0 -0.00000000000E+00 -0.00000000000E+00 -0.45593999997E+02  0.45594000000E+02  0.51100000000E-03 0.  1.
    9900012    2    1    2    0    0  0.24884867872E+02 -0.19883528755E+02 -0.14526594344E+01  0.59301928054E+02  0.49999970867E+02 0.  0.
         12    1    1    2    0    0 -0.24884867872E+02  0.19883528755E+02  0.14526594344E+01  0.31886071946E+02  0.00000000000E+00 0. -1.
         11    1    3    3    0    0 -0.70802690997E+01 -0.66612836411E+01 -0.30395168983E+01  0.10185360745E+02  0.51100000000E-03 0. -1.
        -11    1    3    3    0    0  0.17419583417E+02 -0.11197835657E+02 -0.16025404084E+02  0.26184861775E+02  0.51100000000E-03 0.  1.
         12    1    3    3    0    0  0.14545553555E+02 -0.20244094561E+01  0.17612261548E+02  0.22931705534E+02  0.00000000000E+00 0. -1.
</event>
<event>
 7    1  0.6246445E-012  0.5930202E+02  0.7816164E-02  0.1266604E+00
        -11   -1    0    0    0    0  0.00000000000E+00  0.00000000000E+00  0.45593999997E+02  0.45594000000E+02  0.51100000000E-03 0. -1.
         11   -1    0    0    0    0 -0.00000000000E+00 -0.00000000000E+00 -0.45593999997E+02  0.45594000000E+02  0.51100000000E-03 0.  1.
    9900012    2    1    2    0    0 -0.27030241466E+02  0.85639054524E+01 -0.14585650671E+02  0.59302021329E+02  0.50000140979E+02 0.  0.
         12    1    1    2    0    0  0.27030241466E+02 -0.85639054524E+01  0.14585650671E+02  0.31885978671E+02  0.00000000000E+00 0. -1.
         11    1    3    3    0    0 -0.21437263710E+02  0.67960501328E+00 -0.11305713132E+02  0.24245356009E+02  0.51100000000E-03 0. -1.
        -11    1    3    3    0    0 -0.19206150635E+02  0.77762517609E+01  0.11165880244E+01  0.20750736920E+02  0.51100000000E-03 0.  1.
         12    1    3    3    0    0  0.13613172879E+02  0.10804867820E+00 -0.43965255637E+01  0.14305928400E+02  0.00000000000E+00 0. -1.
</event>
<event>
 7    1  0.6246445E-012  0.5930200E+02  0.7816164E-02  0.1266605E+00
        -11   -1    0    0    0    0  0.00000000000E+00  0.00000000000E+00  0.45593999997E+02  0.45594000000E+02  0.51100000000E-03 0. -1.
         11   -1    0    0    0    0 -0.00000000000E+00 -0.00000000000E+00 -0.45593999997E+02  0.45594000000E+02  0.51100000000E-03 0.  1.
    9900012    2    1    2    0    0 -0.41569696857E+01 -0.17678227609E+02 -0.26209101147E+02  0.59301998192E+02  0.50000098782E+02 0.  0.
         12    1    1    2    0    0  0.41569696857E+01  0.17678227609E+02  0.26209101147E+02  0.31886001808E+02  0.00000000000E+00 0. -1.
         11    1    3    3    0    0  0.79552191520E+01 -0.18210342841E+01 -0.55651621199E+01  0.98778898204E+01  0.51100000000E-03 0. -1.
        -11    1    3    3    0    0  0.13646505363E+02 -0.10441737472E+02 -0.22897021086E+01  0.17334927922E+02  0.51100000000E-03 0.  1.
         12    1    3    3    0    0 -0.25758694201E+02 -0.54154558534E+01 -0.18354236919E+02  0.32089180449E+02  0.00000000000E+00 0. -1.
</event>
<event>
 7    1  0.6246445E-012  0.5930195E+02  0.7816164E-02  0.1266605E+00
        -11   -1    0    0    0    0  0.00000000000E+00  0.00000000000E+00  0.45593999997E+02  0.45594000000E+02  0.51100000000E-03 0.  1.
         11   -1    0    0    0    0 -0.00000000000E+00 -0.00000000000E+00 -0.45593999997E+02  0.45594000000E+02  0.51100000000E-03 0. -1.
    9900012    2    1    2    0    0  0.20289675323E+01 -0.31403640550E+01  0.31666095502E+02  0.59301949758E+02  0.50000010451E+02 0.  0.
         12    1    1    2    0    0 -0.20289675323E+01  0.31403640550E+01 -0.31666095502E+02  0.31886050242E+02  0.00000000000E+00 0. -1.
         11    1    3    3    0    0 -0.31945170686E+01 -0.23338218641E+01 -0.24426468813E+01  0.46495363040E+01  0.51100000000E-03 0. -1.
        -11    1    3    3    0    0 -0.89439216371E+01 -0.12021440405E+02  0.33357052275E+02  0.36567768601E+02  0.51100000000E-03 0.  1.
         12    1    3    3    0    0  0.14167406238E+02  0.11214898214E+02  0.75169010817E+00  0.18084644854E+02  0.00000000000E+00 0. -1.
</event>
<event>
 7    1  0.6246445E-012  0.5930202E+02  0.7816164E-02  0.1266604E+00
        -11   -1    0    0    0    0  0.00000000000E+00  0.00000000000E+00  0.45593999997E+02  0.45594000000E+02  0.51100000000E-03 0.  1.
         11   -1    0    0    0    0 -0.00000000000E+00 -0.00000000000E+00 -0.45593999997E+02  0.45594000000E+02  0.51100000000E-03 0. -1.
    9900012    2    1    2    0    0 -0.19145012380E+02 -0.69873633254E+01  0.24522657637E+02  0.59302023727E+02  0.50000145353E+02 0.  0.
         12    1    1    2    0    0  0.19145012380E+02  0.69873633254E+01 -0.24522657637E+02  0.31885976273E+02  0.00000000000E+00 0. -1.
         11    1    3    3    0    0 -0.36483324387E+01 -0.12088002963E+01 -0.60718332385E+01  0.71860063232E+01  0.51100000000E-03 0. -1.
        -11    1    3    3    0    0 -0.26460265903E+01 -0.50464109103E+01 -0.89051475929E+01  0.10572103561E+02  0.51100000000E-03 0.  1.
        -12    1    3    3    0    0 -0.12850653351E+02 -0.73215211875E+00  0.39499638468E+02  0.41543913843E+02  0.00000000000E+00 0.  1.
</event>
<event>
 7    1  0.6246445E-012  0.5930196E+02  0.7816164E-02  0.1266605E+00
        -11   -1    0    0    0    0  0.00000000000E+00  0.00000000000E+00  0.45593999997E+02  0.45594000000E+02  0.51100000000E-03 0.  1.
         11   -1    0    0    0    0 -0.00000000000E+00 -0.00000000000E+00 -0.45593999997E+02  0.45594000000E+02  0.51100000000E-03 0. -1.
    9900012    2    1    2    0    0 -0.22391104799E+01  0.16859700101E+02  0.26971403492E+02  0.59301957449E+02  0.50000024477E+02 0.  0.
         12    1    1    2    0    0  0.22391104799E+01 -0.16859700101E+02 -0.26971403492E+02  0.31886042551E+02  0.00000000000E+00 0. -1.
         11    1    3    3    0    0  0.49609336648E+01 -0.64207950526E+01  0.28927297453E+01  0.86142531640E+01  0.51100000000E-03 0. -1.
        -11    1    3    3    0    0  0.89054615215E+01 -0.45328975634E+01 -0.82767002273E+00  0.10026935881E+02  0.51100000000E-03 0.  1.
         12    1    3    3    0    0 -0.16105505666E+02  0.27813392717E+02  0.24906343770E+02  0.40660768404E+02  0.00000000000E+00 0. -1.
</event>
<event>
 7    1  0.6246445E-012  0.5930195E+02  0.7816164E-02  0.1266605E+00
        -11   -1    0    0    0    0  0.00000000000E+00  0.00000000000E+00  0.45593999997E+02  0.45594000000E+02  0.51100000000E-03 0.  1.
         11   -1    0    0    0    0 -0.00000000000E+00 -0.00000000000E+00 -0.45593999997E+02  0.45594000000E+02  0.51100000000E-03 0. -1.
    9900012    2    1    2    0    0  0.11448784940E+02 -0.11836689081E+02  0.27304547368E+02  0.59301949885E+02  0.50000010682E+02 0.  0.
         12    1    1    2    0    0 -0.11448784940E+02  0.11836689081E+02 -0.27304547368E+02  0.31886050115E+02  0.00000000000E+00 0. -1.
         11    1    3    3    0    0  0.14166079080E+01  0.64890431689E+01  0.20686973669E+02  0.21727064667E+02  0.51100000000E-03 0. -1.
        -11    1    3    3    0    0 -0.89318269137E+01  0.20370176285E+01  0.17313071218E+01  0.93233254500E+01  0.51100000000E-03 0.  1.
         12    1    3    3    0    0  0.18964003945E+02 -0.20362749878E+02  0.48862665773E+01  0.28251559767E+02  0.00000000000E+00 0. -1.
</event>
<event>
 7    1  0.6246445E-012  0.5930196E+02  0.7816164E-02  0.1266605E+00
        -11   -1    0    0    0    0  0.00000000000E+00  0.00000000000E+00  0.45593999997E+02  0.45594000000E+02  0.51100000000E-03 0. -1.
         11   -1    0    0    0    0 -0.00000000000E+00 -0.00000000000E+00 -0.45593999997E+02  0.45594000000E+02  0.51100000000E-03 0.  1.
    9900012    2    1    2    0    0  0.26561100756E+02 -0.13157137586E+02 -0.11752335661E+02  0.59301957029E+02  0.50000023712E+02 0.  0.
         12    1    1    2    0    0 -0.26561100756E+02  0.13157137586E+02  0.11752335661E+02  0.31886042971E+02  0.00000000000E+00 0. -1.
         11    1    3    3    0    0 -0.43278983367E+01 -0.14351310070E+02  0.29404507773E+01  0.15275374162E+02  0.51100000000E-03 0. -1.
        -11    1    3    3    0    0 -0.43956011791E+01 -0.38657533628E+01 -0.18790882195E+01  0.61478721185E+01  0.51100000000E-03 0.  1.
        -12    1    3    3    0    0  0.35284600272E+02  0.50599258473E+01 -0.12813698219E+02  0.37878710749E+02  0.00000000000E+00 0.  1.
</event>
<event>
 7    1  0.6246445E-012  0.5930195E+02  0.7816164E-02  0.1266605E+00
        -11   -1    0    0    0    0  0.00000000000E+00  0.00000000000E+00  0.45593999997E+02  0.45594000000E+02  0.51100000000E-03 0. -1.
         11   -1    0    0    0    0 -0.00000000000E+00 -0.00000000000E+00 -0.45593999997E+02  0.45594000000E+02  0.51100000000E-03 0.  1.
    9900012    2    1    2    0    0  0.76912609596E+01 -0.14284806080E+02 -0.27450114579E+02  0.59301953360E+02  0.50000017021E+02 0.  0.
         12    1    1    2    0    0 -0.76912609596E+01  0.14284806080E+02  0.27450114579E+02  0.31886046640E+02  0.00000000000E+00 0. -1.
         11    1    3    3    0    0  0.47100777973E+01  0.53674362318E+01  0.68055209741E+00  0.71733782821E+01  0.51100000000E-03 0. -1.
        -11    1    3    3    0    0  0.18543640442E+02 -0.12885198525E+02 -0.44823542578E+01  0.23021434400E+02  0.51100000000E-03 0.  1.
        -12    1    3    3    0    0 -0.15562457280E+02 -0.67670437867E+01 -0.23648312419E+02  0.29107140678E+02  0.00000000000E+00 0.  1.
</event>
<event>
 7    1  0.6246445E-012  0.5930186E+02  0.7816164E-02  0.1266605E+00
        -11   -1    0    0    0    0  0.00000000000E+00  0.00000000000E+00  0.45593999997E+02  0.45594000000E+02  0.51100000000E-03 0. -1.
         11   -1    0    0    0    0 -0.00000000000E+00 -0.00000000000E+00 -0.45593999997E+02  0.45594000000E+02  0.51100000000E-03 0.  1.
    9900012    2    1    2    0    0 -0.34666129680E+01  0.12732239562E+02 -0.29027543974E+02  0.59301864472E+02  0.49999854909E+02 0.  0.
         12    1    1    2    0    0  0.34666129680E+01 -0.12732239562E+02  0.29027543974E+02  0.31886135528E+02  0.00000000000E+00 0. -1.
         11    1    3    3    0    0 -0.10821798754E+02 -0.27695648459E+01 -0.21196796845E+02  0.23960092121E+02  0.51100000000E-03 0. -1.
        -11    1    3    3    0    0 -0.11132528520E+02  0.53068399253E+01  0.11756121369E+01  0.12388615960E+02  0.51100000000E-03 0.  1.
        -12    1    3    3    0    0  0.18487714306E+02  0.10194964482E+02 -0.90063592662E+01  0.22953156391E+02  0.00000000000E+00 0.  1.
</event>
<event>
 7    1  0.6246445E-012  0.5930195E+02  0.7816164E-02  0.1266605E+00
        -11   -1    0    0    0    0  0.00000000000E+00  0.00000000000E+00  0.45593999997E+02  0.45594000000E+02  0.51100000000E-03 0. -1.
         11   -1    0    0    0    0 -0.00000000000E+00 -0.00000000000E+00 -0.45593999997E+02  0.45594000000E+02  0.51100000000E-03 0.  1.
    9900012    2    1    2    0    0 -0.17922800958E+02  0.19568171531E+02 -0.17679929354E+02  0.59301952374E+02  0.50000015222E+02 0.  0.
         12    1    1    2    0    0  0.17922800958E+02 -0.19568171531E+02  0.17679929354E+02  0.31886047626E+02  0.00000000000E+00 0. -1.
         11    1    3    3    0    0 -0.22020506350E+01  0.10626190276E+01  0.48683645758E+01  0.54478583040E+01  0.51100000000E-03 0. -1.
        -11    1    3    3    0    0 -0.54601007816E+00 -0.13407580139E+02 -0.43500545475E+01  0.14106179746E+02  0.51100000000E-03 0.  1.
         12    1    3    3    0    0 -0.15174740245E+02  0.31913132642E+02 -0.18198239382E+02  0.39747914324E+02  0.00000000000E+00 0. -1.
</event>
<event>
 7    1  0.6246445E-012  0.5930195E+02  0.7816164E-02  0.1266605E+00
        -11   -1    0    0    0    0  0.00000000000E+00  0.00000000000E+00  0.45593999997E+02  0.45594000000E+02  0.51100000000E-03 0.  1.
         11   -1    0    0    0    0 -0.00000000000E+00 -0.00000000000E+00 -0.45593999997E+02  0.45594000000E+02  0.51100000000E-03 0. -1.
    9900012    2    1    2    0    0 -0.54778207584E+01 -0.16701065760E+02  0.26604287564E+02  0.59301949216E+02  0.50000009463E+02 0.  0.
         12    1    1    2    0    0  0.54778207584E+01  0.16701065760E+02 -0.26604287564E+02  0.31886050784E+02  0.00000000000E+00 0. -1.
         11    1    3    3    0    0  0.14275897345E+02 -0.95021784548E+01  0.17320271295E+01  0.17236373128E+02  0.51100000000E-03 0. -1.
        -11    1    3    3    0    0 -0.89950516492E+01 -0.12634475096E+02  0.25663374693E+02  0.29985825252E+02  0.51100000000E-03 0.  1.
        -12    1    3    3    0    0 -0.10758666454E+02  0.54355877910E+01 -0.79111425822E+00  0.12079750836E+02  0.00000000000E+00 0.  1.
</event>
<event>
 7    1  0.6246445E-012  0.5930195E+02  0.7816164E-02  0.1266605E+00
        -11   -1    0    0    0    0  0.00000000000E+00  0.00000000000E+00  0.45593999997E+02  0.45594000000E+02  0.51100000000E-03 0. -1.
         11   -1    0    0    0    0 -0.00000000000E+00 -0.00000000000E+00 -0.45593999997E+02  0.45594000000E+02  0.51100000000E-03 0.  1.
    9900012    2    1    2    0    0 -0.14980593986E+02 -0.84082222358E+01 -0.26862687214E+02  0.59301947223E+02  0.50000005828E+02 0.  0.
         12    1    1    2    0    0  0.14980593986E+02  0.84082222358E+01  0.26862687214E+02  0.31886052777E+02  0.00000000000E+00 0. -1.
         11    1    3    3    0    0  0.74129354125E+00 -0.50653974657E+01 -0.13735264989E+02  0.14658283399E+02  0.51100000000E-03 0. -1.
        -11    1    3    3    0    0 -0.68271033163E+01  0.13537126073E+02 -0.19342982349E+02  0.24576698078E+02  0.51100000000E-03 0.  1.
        -12    1    3    3    0    0 -0.88947842112E+01 -0.16879950843E+02  0.62155601247E+01  0.20066965747E+02  0.00000000000E+00 0.  1.
</event>
<event>
 7    1  0.6246445E-012  0.5930202E+02  0.7816164E-02  0.1266604E+00
        -11   -1    0    0    0    0  0.00000000000E+00  0.00000000000E+00  0.45593999997E+02  0.45594000000E+02  0.51100000000E-03 0.  1.
         11   -1    0    0    0    0 -0.00000000000E+00 -0.00000000000E+00 -0.45593999997E+02  0.45594000000E+02  0.51100000000E-03 0. -1.
    9900012    2    1    2    0    0 -0.31353465581E+02  0.34419450382E+01 -0.46721270419E+01  0.59302022507E+02  0.50000143128E+02 0.  0.
         12    1    1    2    0    0  0.31353465581E+02 -0.34419450382E+01  0.46721270419E+01  0.31885977493E+02  0.00000000000E+00 0. -1.
         11    1    3    3    0    0 -0.29349136761E+02 -0.13380333490E+02 -0.10560442017E+02  0.33940066128E+02  0.51100000000E-03 0. -1.
        -11    1    3    3    0    0 -0.47344261392E+01 -0.14781746780E+01 -0.18668068121E+01  0.52995055601E+01  0.51100000000E-03 0.  1.
        -12    1    3    3    0    0  0.27300973197E+01  0.18300453206E+02  0.77551217869E+01  0.20062450819E+02  0.00000000000E+00 0.  1.
</event>
<event>
 7    1  0.6246445E-012  0.5930195E+02  0.7816164E-02  0.1266605E+00
        -11   -1    0    0    0    0  0.00000000000E+00  0.00000000000E+00  0.45593999997E+02  0.45594000000E+02  0.51100000000E-03 0. -1.
         11   -1    0    0    0    0 -0.00000000000E+00 -0.00000000000E+00 -0.45593999997E+02  0.45594000000E+02  0.51100000000E-03 0.  1.
    9900012    2    1    2    0    0 -0.62663865800E+01  0.17907763144E+02 -0.25627414717E+02  0.59301953417E+02  0.50000017125E+02 0.  0.
         12    1    1    2    0    0  0.62663865800E+01 -0.17907763144E+02  0.25627414717E+02  0.31886046583E+02  0.00000000000E+00 0. -1.
         11    1    3    3    0    0 -0.28062141321E+01  0.87880429831E+01 -0.76076374505E+01  0.11957453118E+02  0.51100000000E-03 0. -1.
        -11    1    3    3    0    0  0.16904298380E+02  0.40602608761E+01 -0.19723635378E+02  0.26291877356E+02  0.51100000000E-03 0.  1.
         12    1    3    3    0    0 -0.20364470828E+02  0.50594592846E+01  0.17038581114E+01  0.21052622944E+02  0.00000000000E+00 0. -1.
</event>
<event>
 7    1  0.6246445E-012  0.5930193E+02  0.7816164E-02  0.1266605E+00
        -11   -1    0    0    0    0  0.00000000000E+00  0.00000000000E+00  0.45593999997E+02  0.45594000000E+02  0.51100000000E-03 0.  1.
         11   -1    0    0    0    0 -0.00000000000E+00 -0.00000000000E+00 -0.45593999997E+02  0.45594000000E+02  0.51100000000E-03 0. -1.
    9900012    2    1    2    0    0 -0.29148132357E+02  0.12641822827E+02 -0.27003511363E+01  0.59301934069E+02  0.49999981837E+02 0.  0.
         12    1    1    2    0    0  0.29148132357E+02 -0.12641822827E+02  0.27003511363E+01  0.31886065931E+02  0.00000000000E+00 0. -1.
         11    1    3    3    0    0 -0.26357118249E+02  0.97239769633E+01 -0.34869808125E+01  0.28309228987E+02  0.51100000000E-03 0. -1.
        -11    1    3    3    0    0 -0.15759385247E+02 -0.26981442330E+00 -0.48594674447E+01  0.16493800268E+02  0.51100000000E-03 0.  1.
         12    1    3    3    0    0  0.12968371139E+02  0.31876602875E+01  0.56460971209E+01  0.14498904814E+02  0.00000000000E+00 0. -1.
</event>
<event>
 7    1  0.6246445E-012  0.5930192E+02  0.7816164E-02  0.1266605E+00
        -11   -1    0    0    0    0  0.00000000000E+00  0.00000000000E+00  0.45593999997E+02  0.45594000000E+02  0.51100000000E-03 0.  1.
         11   -1    0    0    0    0 -0.00000000000E+00 -0.00000000000E+00 -0.45593999997E+02  0.45594000000E+02  0.51100000000E-03 0. -1.
    9900012    2    1    2    0    0 -0.34595158100E+01 -0.83009428747E+01  0.30591631990E+02  0.59301923884E+02  0.49999963263E+02 0.  0.
         12    1    1    2    0    0  0.34595158100E+01  0.83009428747E+01 -0.30591631990E+02  0.31886076116E+02  0.00000000000E+00 0. -1.
         11    1    3    3    0    0  0.86829827598E+01  0.67075212118E+01 -0.75668875218E+01  0.13328271360E+02  0.51100000000E-03 0.  1.
        -11    1    3    3    0    0 -0.85032465215E+01 -0.89662126058E+00  0.53820208058E+01  0.10103231132E+02  0.51100000000E-03 0. -1.
        -12    1    3    3    0    0 -0.36392520483E+01 -0.14111842826E+02  0.32776498706E+02  0.35870421392E+02  0.00000000000E+00 0.  1.
</event>
<event>
 7    1  0.6246445E-012  0.5930194E+02  0.7816164E-02  0.1266605E+00
        -11   -1    0    0    0    0  0.00000000000E+00  0.00000000000E+00  0.45593999997E+02  0.45594000000E+02  0.51100000000E-03 0.  1.
         11   -1    0    0    0    0 -0.00000000000E+00 -0.00000000000E+00 -0.45593999997E+02  0.45594000000E+02  0.51100000000E-03 0. -1.
    9900012    2    1    2    0    0  0.41575360580E+01  0.19604304058E+02  0.24801346804E+02  0.59301942749E+02  0.49999997669E+02 0.  0.
         12    1    1    2    0    0 -0.41575360580E+01 -0.19604304058E+02 -0.24801346804E+02  0.31886057251E+02  0.00000000000E+00 0. -1.
         11    1    3    3    0    0 -0.84971352687E+01 -0.25873452445E+01  0.33581803107E+01  0.94959485282E+01  0.51100000000E-03 0.  1.
        -11    1    3    3    0    0  0.17126078986E+02  0.13100783227E+01  0.22639343492E+02  0.28417578374E+02  0.51100000000E-03 0. -1.
         12    1    3    3    0    0 -0.44714076592E+01  0.20881570980E+02 -0.11961769980E+01  0.21388415847E+02  0.00000000000E+00 0. -1.
</event>
<event>
 7    1  0.6246445E-012  0.5930195E+02  0.7816164E-02  0.1266605E+00
        -11   -1    0    0    0    0  0.00000000000E+00  0.00000000000E+00  0.45593999997E+02  0.45594000000E+02  0.51100000000E-03 0. -1.
         11   -1    0    0    0    0 -0.00000000000E+00 -0.00000000000E+00 -0.45593999997E+02  0.45594000000E+02  0.51100000000E-03 0.  1.
    9900012    2    1    2    0    0  0.27031904302E+01 -0.28068220078E+02 -0.14885833250E+02  0.59301949000E+02  0.50000009068E+02 0.  0.
         12    1    1    2    0    0 -0.27031904302E+01  0.28068220078E+02  0.14885833250E+02  0.31886051000E+02  0.00000000000E+00 0. -1.
         11    1    3    3    0    0  0.99776131868E+01 -0.15947146811E+02 -0.10455008633E+02  0.21521418682E+02  0.51100000000E-03 0. -1.
        -11    1    3    3    0    0 -0.20493487331E+02 -0.75824349168E+01 -0.81434055121E+01  0.23319335236E+02  0.51100000000E-03 0.  1.
         12    1    3    3    0    0  0.13219064574E+02 -0.45386383502E+01  0.37125808955E+01  0.14461195082E+02  0.00000000000E+00 0. -1.
</event>
<event>
 7    1  0.6246445E-012  0.5930195E+02  0.7816164E-02  0.1266605E+00
        -11   -1    0    0    0    0  0.00000000000E+00  0.00000000000E+00  0.45593999997E+02  0.45594000000E+02  0.51100000000E-03 0.  1.
         11   -1    0    0    0    0 -0.00000000000E+00 -0.00000000000E+00 -0.45593999997E+02  0.45594000000E+02  0.51100000000E-03 0. -1.
    9900012    2    1    2    0    0 -0.78458935985E+01 -0.25471160516E+02  0.17503771943E+02  0.59301951380E+02  0.50000013408E+02 0.  0.
         12    1    1    2    0    0  0.78458935985E+01  0.25471160516E+02 -0.17503771943E+02  0.31886048620E+02  0.00000000000E+00 0. -1.
         11    1    3    3    0    0 -0.99895437363E+01 -0.12475817961E+02  0.18359499502E+01  0.16087502302E+02  0.51100000000E-03 0. -1.
        -11    1    3    3    0    0 -0.64656441935E+01 -0.19330475596E+02  0.22631323571E+02  0.30457325038E+02  0.51100000000E-03 0.  1.
         12    1    3    3    0    0  0.86092943313E+01  0.63351330407E+01 -0.69635015783E+01  0.12757124039E+02  0.00000000000E+00 0. -1.
</event>
<event>
 7    1  0.6246445E-012  0.5930193E+02  0.7816164E-02  0.1266605E+00
        -11   -1    0    0    0    0  0.00000000000E+00  0.00000000000E+00  0.45593999997E+02  0.45594000000E+02  0.51100000000E-03 0.  1.
         11   -1    0    0    0    0 -0.00000000000E+00 -0.00000000000E+00 -0.45593999997E+02  0.45594000000E+02  0.51100000000E-03 0. -1.
    9900012    2    1    2    0    0 -0.13329475068E+02 -0.22731139202E+02  0.17953873797E+02  0.59301934402E+02  0.49999982444E+02 0.  0.
         12    1    1    2    0    0  0.13329475068E+02  0.22731139202E+02 -0.17953873797E+02  0.31886065598E+02  0.00000000000E+00 0. -1.
         11    1    3    3    0    0 -0.27006124902E+02  0.26054766978E-01  0.13116083997E+02  0.30022710083E+02  0.51100000000E-03 0. -1.
        -11    1    3    3    0    0  0.44127605586E+01 -0.50885388453E+01 -0.35780491135E+01  0.76268026753E+01  0.51100000000E-03 0.  1.
        -12    1    3    3    0    0  0.92638892753E+01 -0.17668655124E+02  0.84158389142E+01  0.21652421644E+02  0.00000000000E+00 0.  1.
</event>
<event>
 7    1  0.6246445E-012  0.5930196E+02  0.7816164E-02  0.1266605E+00
        -11   -1    0    0    0    0  0.00000000000E+00  0.00000000000E+00  0.45593999997E+02  0.45594000000E+02  0.51100000000E-03 0. -1.
         11   -1    0    0    0    0 -0.00000000000E+00 -0.00000000000E+00 -0.45593999997E+02  0.45594000000E+02  0.51100000000E-03 0.  1.
    9900012    2    1    2    0    0  0.23332889966E+02 -0.17162837709E+02  0.13331658076E+02  0.59301955099E+02  0.50000020191E+02 0.  0.
         12    1    1    2    0    0 -0.23332889966E+02  0.17162837709E+02 -0.13331658076E+02  0.31886044901E+02  0.00000000000E+00 0. -1.
         11    1    3    3    0    0 -0.52149811477E+01  0.16031331811E+01 -0.13895118883E+01  0.56299918220E+01  0.51100000000E-03 0. -1.
        -11    1    3    3    0    0  0.64868189180E+00  0.10676872135E+02  0.56664143611E+00  0.10711557756E+02  0.51100000000E-03 0.  1.
        -12    1    3    3    0    0  0.27899189222E+02 -0.29442843025E+02  0.14154528529E+02  0.42960405521E+02  0.00000000000E+00 0.  1.
</event>
<event>
 7    1  0.6246445E-012  0.5930196E+02  0.7816164E-02  0.1266605E+00
        -11   -1    0    0    0    0  0.00000000000E+00  0.00000000000E+00  0.45593999997E+02  0.45594000000E+02  0.51100000000E-03 0.  1.
         11   -1    0    0    0    0 -0.00000000000E+00 -0.00000000000E+00 -0.45593999997E+02  0.45594000000E+02  0.51100000000E-03 0. -1.
    9900012    2    1    2    0    0  0.12207861563E+02  0.53988811576E+01  0.28957548513E+02  0.59301962028E+02  0.50000032828E+02 0.  0.
         12    1    1    2    0    0 -0.12207861563E+02 -0.53988811576E+01 -0.28957548513E+02  0.31886037972E+02  0.00000000000E+00 0. -1.
         11    1    3    3    0    0 -0.76704523894E+00 -0.86658659442E+01  0.52453413442E+01  0.10158700559E+02  0.51100000000E-03 0. -1.
        -11    1    3    3    0    0  0.24817672458E+02  0.48453536518E+00  0.11367859391E+02  0.27301645887E+02  0.51100000000E-03 0.  1.
         12    1    3    3    0    0 -0.11842765656E+02  0.13580211737E+02  0.12344347777E+02  0.21841615582E+02  0.00000000000E+00 0. -1.
</event>
<event>
 7    1  0.6246445E-012  0.5930196E+02  0.7816164E-02  0.1266605E+00
        -11   -1    0    0    0    0  0.00000000000E+00  0.00000000000E+00  0.45593999997E+02  0.45594000000E+02  0.51100000000E-03 0.  1.
         11   -1    0    0    0    0 -0.00000000000E+00 -0.00000000000E+00 -0.45593999997E+02  0.45594000000E+02  0.51100000000E-03 0. -1.
    9900012    2    1    2    0    0  0.13136738357E+02  0.18409057136E+02  0.22477823679E+02  0.59301955456E+02  0.50000020842E+02 0.  0.
         12    1    1    2    0    0 -0.13136738357E+02 -0.18409057136E+02 -0.22477823679E+02  0.31886044544E+02  0.00000000000E+00 0. -1.
         11    1    3    3    0    0  0.13400770855E+02  0.72790602139E+01  0.34369694990E+01  0.15632598527E+02  0.51100000000E-03 0. -1.
        -11    1    3    3    0    0  0.48560557724E+01  0.57212620586E+01  0.29718231178E+02  0.30651058413E+02  0.51100000000E-03 0.  1.
        -12    1    3    3    0    0 -0.51200882696E+01  0.54087348632E+01 -0.10677376998E+02  0.13018298516E+02  0.00000000000E+00 0.  1.
</event>
<event>
 7    1  0.6246445E-012  0.5930202E+02  0.7816164E-02  0.1266605E+00
        -11   -1    0    0    0    0  0.00000000000E+00  0.00000000000E+00  0.45593999997E+02  0.45594000000E+02  0.51100000000E-03 0.  1.
         11   -1    0    0    0    0 -0.00000000000E+00 -0.00000000000E+00 -0.45593999997E+02  0.45594000000E+02  0.51100000000E-03 0. -1.
    9900012    2    1    2    0    0 -0.17389684908E+02  0.59037395370E+00  0.26720148561E+02  0.59302015278E+02  0.50000129943E+02 0.  0.
         12    1    1    2    0    0  0.17389684908E+02 -0.59037395370E+00 -0.26720148561E+02  0.31885984722E+02  0.00000000000E+00 0. -1.
         11    1    3    3    0    0  0.25385677190E+01 -0.11712383734E+02  0.12380690953E+02  0.17230953762E+02  0.51100000000E-03 0. -1.
        -11    1    3    3    0    0 -0.79641941966E+01  0.60858632227E+01  0.23649673570E+02  0.25686050312E+02  0.51100000000E-03 0.  1.
         12    1    3    3    0    0 -0.11964058430E+02  0.62168944654E+01 -0.93102159627E+01  0.16385011205E+02  0.00000000000E+00 0. -1.
</event>
<event>
 7    1  0.6246445E-012  0.5930194E+02  0.7816164E-02  0.1266605E+00
        -11   -1    0    0    0    0  0.00000000000E+00  0.00000000000E+00  0.45593999997E+02  0.45594000000E+02  0.51100000000E-03 0. -1.
         11   -1    0    0    0    0 -0.00000000000E+00 -0.00000000000E+00 -0.45593999997E+02  0.45594000000E+02  0.51100000000E-03 0.  1.
    9900012    2    1    2    0    0 -0.20949206899E+02 -0.16496027670E+02 -0.17485211713E+02  0.59301939923E+02  0.49999992513E+02 0.  0.
         12    1    1    2    0    0  0.20949206899E+02  0.16496027670E+02  0.17485211713E+02  0.31886060077E+02  0.00000000000E+00 0. -1.
         11    1    3    3    0    0 -0.43320152263E+01 -0.39988249775E+01  0.72214808202E+01  0.93223785923E+01  0.51100000000E-03 0. -1.
        -11    1    3    3    0    0 -0.11840323887E+02  0.11141078420E+02 -0.11994473412E+01  0.16302011296E+02  0.51100000000E-03 0.  1.
        -12    1    3    3    0    0 -0.47768677860E+01 -0.23638281112E+02 -0.23507245192E+02  0.33677550034E+02  0.00000000000E+00 0.  1.
</event>
<event>
 7    1  0.6246445E-012  0.5930195E+02  0.7816164E-02  0.1266605E+00
        -11   -1    0    0    0    0  0.00000000000E+00  0.00000000000E+00  0.45593999997E+02  0.45594000000E+02  0.51100000000E-03 0. -1.
         11   -1    0    0    0    0 -0.00000000000E+00 -0.00000000000E+00 -0.45593999997E+02  0.45594000000E+02  0.51100000000E-03 0.  1.
    9900012    2    1    2    0    0  0.15698348255E+02  0.25217248289E+02 -0.11591912751E+02  0.59301949908E+02  0.50000010725E+02 0.  0.
         12    1    1    2    0    0 -0.15698348255E+02 -0.25217248289E+02  0.11591912751E+02  0.31886050092E+02  0.00000000000E+00 0. -1.
         11    1    3    3    0    0 -0.12901572406E+01  0.25625636298E+02  0.83027826138E+01  0.26968016998E+02  0.51100000000E-03 0. -1.
        -11    1    3    3    0    0 -0.24202678766E+01 -0.49524368719E+00  0.19244159134E+01  0.31315075879E+01  0.51100000000E-03 0.  1.
        -12    1    3    3    0    0  0.19408773373E+02  0.86855677714E-01 -0.21819111278E+02  0.29202425323E+02  0.00000000000E+00 0.  1.
</event>
<event>
 7    1  0.6246445E-012  0.5930195E+02  0.7816164E-02  0.1266605E+00
        -11   -1    0    0    0    0  0.00000000000E+00  0.00000000000E+00  0.45593999997E+02  0.45594000000E+02  0.51100000000E-03 0. -1.
         11   -1    0    0    0    0 -0.00000000000E+00 -0.00000000000E+00 -0.45593999997E+02  0.45594000000E+02  0.51100000000E-03 0.  1.
    9900012    2    1    2    0    0 -0.25317951066E+02 -0.19381552702E+02 -0.27794407621E+00  0.59301945302E+02  0.50000002323E+02 0.  0.
         12    1    1    2    0    0  0.25317951066E+02  0.19381552702E+02  0.27794407621E+00  0.31886054698E+02  0.00000000000E+00 0. -1.
         11    1    3    3    0    0  0.30064560189E+00  0.33969651903E+01  0.67986226372E+00  0.34773514692E+01  0.51100000000E-03 0. -1.
        -11    1    3    3    0    0  0.57467580259E+01  0.85246889012E+01  0.44110109271E+01  0.11187160781E+02  0.51100000000E-03 0.  1.
        -12    1    3    3    0    0 -0.31365354694E+02 -0.31303206793E+02 -0.53688172670E+01  0.44637433052E+02  0.00000000000E+00 0.  1.
</event>
<event>
 7    1  0.6246445E-012  0.5930194E+02  0.7816164E-02  0.1266605E+00
        -11   -1    0    0    0    0  0.00000000000E+00  0.00000000000E+00  0.45593999997E+02  0.45594000000E+02  0.51100000000E-03 0. -1.
         11   -1    0    0    0    0 -0.00000000000E+00 -0.00000000000E+00 -0.45593999997E+02  0.45594000000E+02  0.51100000000E-03 0.  1.
    9900012    2    1    2    0    0  0.12089591795E+02  0.26889587802E+02  0.12145474305E+02  0.59301941792E+02  0.49999995923E+02 0.  0.
         12    1    1    2    0    0 -0.12089591795E+02 -0.26889587802E+02 -0.12145474305E+02  0.31886058208E+02  0.00000000000E+00 0. -1.
         11    1    3    3    0    0  0.17375858218E+01  0.54772312403E+01 -0.30259647224E+01  0.64942843571E+01  0.51100000000E-03 0.  1.
        -11    1    3    3    0    0 -0.49472767777E+01  0.29348895921E+02 -0.12528096347E+00  0.29763214458E+02  0.51100000000E-03 0. -1.
         12    1    3    3    0    0  0.15299282751E+02 -0.79365393589E+01  0.15296719991E+02  0.23044442978E+02  0.00000000000E+00 0. -1.
</event>
<event>
 7    1  0.6246445E-012  0.5930187E+02  0.7816164E-02  0.1266605E+00
        -11   -1    0    0    0    0  0.00000000000E+00  0.00000000000E+00  0.45593999997E+02  0.45594000000E+02  0.51100000000E-03 0.  1.
         11   -1    0    0    0    0 -0.00000000000E+00 -0.00000000000E+00 -0.45593999997E+02  0.45594000000E+02  0.51100000000E-03 0. -1.
    9900012    2    1    2    0    0  0.49027896015E+01 -0.55987677891E+01  0.31005508215E+02  0.59301873137E+02  0.49999870713E+02 0.  0.
         12    1    1    2    0    0 -0.49027896015E+01  0.55987677891E+01 -0.31005508215E+02  0.31886126863E+02  0.00000000000E+00 0. -1.
         11    1    3    3    0    0 -0.12317323197E+02  0.12060475747E+02  0.13800905091E+02  0.22082493237E+02  0.51100000000E-03 0. -1.
        -11    1    3    3    0    0  0.15754717594E+02 -0.79371470617E+00  0.58000324496E+01  0.16807185552E+02  0.51100000000E-03 0.  1.
        -12    1    3    3    0    0  0.14653952040E+01 -0.16865528830E+02  0.11404570675E+02  0.20412194348E+02  0.00000000000E+00 0.  1.
</event>
<event>
 7    1  0.6246445E-012  0.5930216E+02  0.7816164E-02  0.1266604E+00
        -11   -1    0    0    0    0  0.00000000000E+00  0.00000000000E+00  0.45593999997E+02  0.45594000000E+02  0.51100000000E-03 0.  1.
         11   -1    0    0    0    0 -0.00000000000E+00 -0.00000000000E+00 -0.45593999997E+02  0.45594000000E+02  0.51100000000E-03 0. -1.
    9900012    2    1    2    0    0 -0.20687001443E+02 -0.17932227338E+02  0.16345949635E+02  0.59302158699E+02  0.50000391507E+02 0.  0.
         12    1    1    2    0    0  0.20687001443E+02  0.17932227338E+02 -0.16345949635E+02  0.31885841301E+02  0.00000000000E+00 0. -1.
         11    1    3    3    0    0 -0.12636730495E+02 -0.97132004124E+01 -0.66847786091E+01  0.17283503267E+02  0.51100000000E-03 0. -1.
        -11    1    3    3    0    0  0.12427489152E+02 -0.73142838447E+01  0.11884125515E+02  0.18686189400E+02  0.51100000000E-03 0.  1.
         12    1    3    3    0    0 -0.20477760099E+02 -0.90474308121E+00  0.11146602729E+02  0.23332466032E+02  0.00000000000E+00 0. -1.
</event>
<event>
 7    1  0.6246445E-012  0.5930194E+02  0.7816164E-02  0.1266605E+00
        -11   -1    0    0    0    0  0.00000000000E+00  0.00000000000E+00  0.45593999997E+02  0.45594000000E+02  0.51100000000E-03 0. -1.
         11   -1    0    0    0    0 -0.00000000000E+00 -0.00000000000E+00 -0.45593999997E+02  0.45594000000E+02  0.51100000000E-03 0.  1.
    9900012    2    1    2    0    0  0.11377354605E+02  0.89095149763E+01 -0.28423531690E+02  0.59301940214E+02  0.49999993045E+02 0.  0.
         12    1    1    2    0    0 -0.11377354605E+02 -0.89095149763E+01  0.28423531690E+02  0.31886059786E+02  0.00000000000E+00 0. -1.
         11    1    3    3    0    0  0.70677908584E+01 -0.45350877209E+01 -0.11477405369E+02  0.14221516182E+02  0.51100000000E-03 0. -1.
        -11    1    3    3    0    0  0.14097049091E+02  0.56907306562E+01  0.80036098611E+01  0.17180482517E+02  0.51100000000E-03 0.  1.
        -12    1    3    3    0    0 -0.97874853437E+01  0.77538720410E+01 -0.24949736182E+02  0.27899941515E+02  0.00000000000E+00 0.  1.
</event>
<event>
 7    1  0.6246445E-012  0.5930193E+02  0.7816164E-02  0.1266605E+00
        -11   -1    0    0    0    0  0.00000000000E+00  0.00000000000E+00  0.45593999997E+02  0.45594000000E+02  0.51100000000E-03 0.  1.
         11   -1    0    0    0    0 -0.00000000000E+00 -0.00000000000E+00 -0.45593999997E+02  0.45594000000E+02  0.51100000000E-03 0. -1.
    9900012    2    1    2    0    0 -0.17841447163E+02  0.22674741258E+02  0.13574253501E+02  0.59301929592E+02  0.49999973672E+02 0.  0.
         12    1    1    2    0    0  0.17841447163E+02 -0.22674741258E+02 -0.13574253501E+02  0.31886070408E+02  0.00000000000E+00 0. -1.
         11    1    3    3    0    0  0.35709988271E+01  0.42822635946E+01  0.75654786793E+01  0.93982063196E+01  0.51100000000E-03 0.  1.
        -11    1    3    3    0    0 -0.18023240530E+02  0.30817498729E+02  0.21147178869E-01  0.35700922601E+02  0.51100000000E-03 0. -1.
         12    1    3    3    0    0 -0.33892054603E+01 -0.12425021065E+02  0.59876276425E+01  0.14202800671E+02  0.00000000000E+00 0. -1.
</event>
<event>
 7    1  0.6246445E-012  0.5930194E+02  0.7816164E-02  0.1266605E+00
        -11   -1    0    0    0    0  0.00000000000E+00  0.00000000000E+00  0.45593999997E+02  0.45594000000E+02  0.51100000000E-03 0. -1.
         11   -1    0    0    0    0 -0.00000000000E+00 -0.00000000000E+00 -0.45593999997E+02  0.45594000000E+02  0.51100000000E-03 0.  1.
    9900012    2    1    2    0    0 -0.26925498078E+02 -0.16666198616E+02  0.37385002687E+01  0.59301937099E+02  0.49999987363E+02 0.  0.
         12    1    1    2    0    0  0.26925498078E+02  0.16666198616E+02 -0.37385002687E+01  0.31886062901E+02  0.00000000000E+00 0. -1.
         11    1    3    3    0    0 -0.18792433194E+02  0.36543794607E+01 -0.44515155732E+01  0.19655178090E+02  0.51100000000E-03 0. -1.
        -11    1    3    3    0    0 -0.72477730158E+01  0.75544285063E+01 -0.36413435952E+00  0.10475313735E+02  0.51100000000E-03 0.  1.
         12    1    3    3    0    0 -0.88529186867E+00 -0.27875006583E+02  0.85541502014E+01  0.29171445274E+02  0.00000000000E+00 0. -1.
</event>
<event>
 7    1  0.6246445E-012  0.5930195E+02  0.7816164E-02  0.1266605E+00
        -11   -1    0    0    0    0  0.00000000000E+00  0.00000000000E+00  0.45593999997E+02  0.45594000000E+02  0.51100000000E-03 0. -1.
         11   -1    0    0    0    0 -0.00000000000E+00 -0.00000000000E+00 -0.45593999997E+02  0.45594000000E+02  0.51100000000E-03 0.  1.
    9900012    2    1    2    0    0  0.23944488213E+01  0.20990677991E+02 -0.23882590405E+02  0.59301951764E+02  0.50000014108E+02 0.  0.
         12    1    1    2    0    0 -0.23944488213E+01 -0.20990677991E+02  0.23882590405E+02  0.31886048236E+02  0.00000000000E+00 0. -1.
         11    1    3    3    0    0  0.98700981026E+00 -0.38378263329E+01 -0.85991575455E+01  0.94682949933E+01  0.51100000000E-03 0. -1.
        -11    1    3    3    0    0  0.39365861189E+01  0.30001397133E+02 -0.24522047439E+02  0.38947546149E+02  0.51100000000E-03 0.  1.
         12    1    3    3    0    0 -0.25291471078E+01 -0.51728928091E+01  0.92386145793E+01  0.10886110621E+02  0.00000000000E+00 0. -1.
</event>
<event>
 7    1  0.6246445E-012  0.5930189E+02  0.7816164E-02  0.1266605E+00
        -11   -1    0    0    0    0  0.00000000000E+00  0.00000000000E+00  0.45593999997E+02  0.45594000000E+02  0.51100000000E-03 0. -1.
         11   -1    0    0    0    0 -0.00000000000E+00 -0.00000000000E+00 -0.45593999997E+02  0.45594000000E+02  0.51100000000E-03 0.  1.
    9900012    2    1    2    0    0 -0.97623246350E+00  0.30401935943E+02 -0.95652055368E+01  0.59301891805E+02  0.49999904758E+02 0.  0.
         12    1    1    2    0    0  0.97623246350E+00 -0.30401935943E+02  0.95652055368E+01  0.31886108195E+02  0.00000000000E+00 0. -1.
         11    1    3    3    0    0  0.12673620569E+02  0.14108700575E+02  0.70900353119E+01  0.20247090933E+02  0.51100000000E-03 0. -1.
        -11    1    3    3    0    0 -0.64999692456E+01 -0.50206446103E+01  0.34371607994E+01  0.89034008738E+01  0.51100000000E-03 0.  1.
        -12    1    3    3    0    0 -0.71498837871E+01  0.21313879977E+02 -0.20092401648E+02  0.30151399998E+02  0.00000000000E+00 0.  1.
</event>
<event>
 7    1  0.6246445E-012  0.5930196E+02  0.7816164E-02  0.1266605E+00
        -11   -1    0    0    0    0  0.00000000000E+00  0.00000000000E+00  0.45593999997E+02  0.45594000000E+02  0.51100000000E-03 0.  1.
         11   -1    0    0    0    0 -0.00000000000E+00 -0.00000000000E+00 -0.45593999997E+02  0.45594000000E+02  0.51100000000E-03 0. -1.
    9900012    2    1    2    0    0 -0.16013160292E+02  0.24374940112E+02  0.12890331414E+02  0.59301958352E+02  0.50000026124E+02 0.  0.
         12    1    1    2    0    0  0.16013160292E+02 -0.24374940112E+02 -0.12890331414E+02  0.31886041648E+02  0.00000000000E+00 0. -1.
         11    1    3    3    0    0 -0.18862042831E+02  0.13879528991E+02  0.25170495858E+01  0.23553206229E+02  0.51100000000E-03 0. -1.
        -11    1    3    3    0    0 -0.58398628399E+01  0.20144758493E+02  0.84934768283E+01  0.22628619967E+02  0.51100000000E-03 0.  1.
        -12    1    3    3    0    0  0.86887453787E+01 -0.96493473717E+01  0.18798050001E+01  0.13120132156E+02  0.00000000000E+00 0.  1.
</event>
<event>
 7    1  0.6246445E-012  0.5930194E+02  0.7816164E-02  0.1266605E+00
        -11   -1    0    0    0    0  0.00000000000E+00  0.00000000000E+00  0.45593999997E+02  0.45594000000E+02  0.51100000000E-03 0.  1.
         11   -1    0    0    0    0 -0.00000000000E+00 -0.00000000000E+00 -0.45593999997E+02  0.45594000000E+02  0.51100000000E-03 0. -1.
    9900012    2    1    2    0    0  0.19381957971E+02 -0.12940099238E+02  0.21762687243E+02  0.59301936914E+02  0.49999987027E+02 0.  0.
         12    1    1    2    0    0 -0.19381957971E+02  0.12940099238E+02 -0.21762687243E+02  0.31886063086E+02  0.00000000000E+00 0. -1.
         11    1    3    3    0    0 -0.63229298527E+01  0.12037941067E+02  0.86361831811E+01  0.16108231662E+02  0.51100000000E-03 0. -1.
        -11    1    3    3    0    0 -0.21347279151E+01 -0.51230938977E+01  0.61697383854E+01  0.82987243816E+01  0.51100000000E-03 0.  1.
         12    1    3    3    0    0  0.27839615738E+02 -0.19854946408E+02  0.69567656762E+01  0.34894980871E+02  0.00000000000E+00 0. -1.
</event>
<event>
 7    1  0.6246445E-012  0.5930193E+02  0.7816164E-02  0.1266605E+00
        -11   -1    0    0    0    0  0.00000000000E+00  0.00000000000E+00  0.45593999997E+02  0.45594000000E+02  0.51100000000E-03 0. -1.
         11   -1    0    0    0    0 -0.00000000000E+00 -0.00000000000E+00 -0.45593999997E+02  0.45594000000E+02  0.51100000000E-03 0.  1.
    9900012    2    1    2    0    0  0.24106138902E+01  0.12274446082E+02 -0.29329992494E+02  0.59301928658E+02  0.49999971969E+02 0.  0.
         12    1    1    2    0    0 -0.24106138902E+01 -0.12274446082E+02  0.29329992494E+02  0.31886071342E+02  0.00000000000E+00 0. -1.
         11    1    3    3    0    0 -0.17176581205E+02  0.37396556857E+01 -0.74759234152E+01  0.19102601857E+02  0.51100000000E-03 0. -1.
        -11    1    3    3    0    0  0.60532499277E+01  0.16606490421E+02 -0.14240839482E+02  0.22698433166E+02  0.51100000000E-03 0.  1.
         12    1    3    3    0    0  0.13533945168E+02 -0.80717000248E+01 -0.76132295966E+01  0.17500893634E+02  0.00000000000E+00 0. -1.
</event>
<event>
 7    1  0.6246445E-012  0.5930197E+02  0.7816164E-02  0.1266605E+00
        -11   -1    0    0    0    0  0.00000000000E+00  0.00000000000E+00  0.45593999997E+02  0.45594000000E+02  0.51100000000E-03 0.  1.
         11   -1    0    0    0    0 -0.00000000000E+00 -0.00000000000E+00 -0.45593999997E+02  0.45594000000E+02  0.51100000000E-03 0. -1.
    9900012    2    1    2    0    0  0.18263682979E+02 -0.20268523025E+02  0.16502835669E+02  0.59301972861E+02  0.50000052585E+02 0.  0.
         12    1    1    2    0    0 -0.18263682979E+02  0.20268523025E+02 -0.16502835669E+02  0.31886027139E+02  0.00000000000E+00 0. -1.
         11    1    3    3    0    0  0.75011312614E+01  0.34335622500E+01  0.77850898961E+01  0.11343013042E+02  0.51100000000E-03 0. -1.
        -11    1    3    3    0    0  0.12186388585E+02  0.90421612396E+00  0.17885757542E+02  0.21661624977E+02  0.51100000000E-03 0.  1.
         12    1    3    3    0    0 -0.14238368669E+01 -0.24606301399E+02 -0.91680117687E+01  0.26297334841E+02  0.00000000000E+00 0. -1.
</event>
<event>
 7    1  0.6246445E-012  0.5930204E+02  0.7816164E-02  0.1266604E+00
        -11   -1    0    0    0    0  0.00000000000E+00  0.00000000000E+00  0.45593999997E+02  0.45594000000E+02  0.51100000000E-03 0.  1.
         11   -1    0    0    0    0 -0.00000000000E+00 -0.00000000000E+00 -0.45593999997E+02  0.45594000000E+02  0.51100000000E-03 0. -1.
    9900012    2    1    2    0    0  0.27318340635E+02 -0.68189302505E+01 -0.14964113948E+02  0.59302043043E+02  0.50000180580E+02 0.  0.
         12    1    1    2    0    0 -0.27318340635E+02  0.68189302505E+01  0.14964113948E+02  0.31885956957E+02  0.00000000000E+00 0. -1.
         11    1    3    3    0    0 -0.11913568667E+01  0.67532503650E+01 -0.13387802235E+01  0.69869918008E+01  0.51100000000E-03 0. -1.
        -11    1    3    3    0    0  0.14871859218E+02  0.63951818883E+01  0.95720492361E+01  0.18806772047E+02  0.51100000000E-03 0.  1.
        -12    1    3    3    0    0  0.13637838283E+02 -0.19967362504E+02 -0.23197382961E+02  0.33508279195E+02  0.00000000000E+00 0.  1.
</event>
<event>
 7    1  0.6246445E-012  0.5930196E+02  0.7816164E-02  0.1266605E+00
        -11   -1    0    0    0    0  0.00000000000E+00  0.00000000000E+00  0.45593999997E+02  0.45594000000E+02  0.51100000000E-03 0.  1.
         11   -1    0    0    0    0 -0.00000000000E+00 -0.00000000000E+00 -0.45593999997E+02  0.45594000000E+02  0.51100000000E-03 0. -1.
    9900012    2    1    2    0    0  0.61155022632E+01  0.12669177637E+02  0.28614893661E+02  0.59301959651E+02  0.50000028493E+02 0.  0.
         12    1    1    2    0    0 -0.61155022632E+01 -0.12669177637E+02 -0.28614893661E+02  0.31886040349E+02  0.00000000000E+00 0. -1.
         11    1    3    3    0    0 -0.55970462900E+01 -0.10457920800E+02  0.25479242995E+02  0.28104925876E+02  0.51100000000E-03 0.  1.
        -11    1    3    3    0    0  0.11020606762E+02  0.44613038520E+01 -0.14116224903E+01  0.11972872829E+02  0.51100000000E-03 0. -1.
        -12    1    3    3    0    0  0.69194179131E+00  0.18665794585E+02  0.45472731569E+01  0.19224160946E+02  0.00000000000E+00 0.  1.
</event>
<event>
 7    1  0.6246445E-012  0.5930193E+02  0.7816164E-02  0.1266605E+00
        -11   -1    0    0    0    0  0.00000000000E+00  0.00000000000E+00  0.45593999997E+02  0.45594000000E+02  0.51100000000E-03 0.  1.
         11   -1    0    0    0    0 -0.00000000000E+00 -0.00000000000E+00 -0.45593999997E+02  0.45594000000E+02  0.51100000000E-03 0. -1.
    9900012    2    1    2    0    0 -0.28360583187E+02  0.81124144723E+01  0.12107332566E+02  0.59301930171E+02  0.49999974729E+02 0.  0.
         12    1    1    2    0    0  0.28360583187E+02 -0.81124144723E+01 -0.12107332566E+02  0.31886069829E+02  0.00000000000E+00 0. -1.
         11    1    3    3    0    0  0.22678667571E-01  0.53115949835E+01 -0.40064355954E+00  0.53267317479E+01  0.51100000000E-03 0. -1.
        -11    1    3    3    0    0 -0.51222217226E+01  0.21482140880E+02  0.13592934798E+01  0.22126165759E+02  0.51100000000E-03 0.  1.
        -12    1    3    3    0    0 -0.23261040132E+02 -0.18681321391E+02  0.11148682646E+02  0.31849032665E+02  0.00000000000E+00 0.  1.
</event>
<event>
 7    1  0.6246445E-012  0.5930194E+02  0.7816164E-02  0.1266605E+00
        -11   -1    0    0    0    0  0.00000000000E+00  0.00000000000E+00  0.45593999997E+02  0.45594000000E+02  0.51100000000E-03 0.  1.
         11   -1    0    0    0    0 -0.00000000000E+00 -0.00000000000E+00 -0.45593999997E+02  0.45594000000E+02  0.51100000000E-03 0. -1.
    9900012    2    1    2    0    0 -0.18520809257E+02 -0.15435770046E+02  0.20867135983E+02  0.59301941344E+02  0.49999995105E+02 0.  0.
         12    1    1    2    0    0  0.18520809257E+02  0.15435770046E+02 -0.20867135983E+02  0.31886058656E+02  0.00000000000E+00 0. -1.
         11    1    3    3    0    0 -0.11531158665E+02  0.75540721841E+01 -0.93034138458E+00  0.13816553914E+02  0.51100000000E-03 0. -1.
        -11    1    3    3    0    0  0.87748686676E+01  0.32092808792E+01  0.53227645760E+01  0.10753121728E+02  0.51100000000E-03 0.  1.
         12    1    3    3    0    0 -0.15764519260E+02 -0.26199123110E+02  0.16474712792E+02  0.34732265702E+02  0.00000000000E+00 0. -1.
</event>
<event>
 7    1  0.6246445E-012  0.5930199E+02  0.7816164E-02  0.1266605E+00
        -11   -1    0    0    0    0  0.00000000000E+00  0.00000000000E+00  0.45593999997E+02  0.45594000000E+02  0.51100000000E-03 0. -1.
         11   -1    0    0    0    0 -0.00000000000E+00 -0.00000000000E+00 -0.45593999997E+02  0.45594000000E+02  0.51100000000E-03 0.  1.
    9900012    2    1    2    0    0  0.17660423094E+02 -0.24585637083E+02 -0.10018657455E+02  0.59301990656E+02  0.50000085039E+02 0.  0.
         12    1    1    2    0    0 -0.17660423094E+02  0.24585637083E+02  0.10018657455E+02  0.31886009344E+02  0.00000000000E+00 0. -1.
         11    1    3    3    0    0 -0.48731367701E+01 -0.40275452810E+01  0.82627271470E+00  0.63758379708E+01  0.51100000000E-03 0. -1.
        -11    1    3    3    0    0 -0.10155408490E+02  0.12399384416E+01 -0.89453283700E+01  0.13590020929E+02  0.51100000000E-03 0.  1.
         12    1    3    3    0    0  0.32688968354E+02 -0.21798030244E+02 -0.18996018000E+01  0.39336131757E+02  0.00000000000E+00 0. -1.
</event>
<event>
 7    1  0.6246445E-012  0.5930191E+02  0.7816164E-02  0.1266605E+00
        -11   -1    0    0    0    0  0.00000000000E+00  0.00000000000E+00  0.45593999997E+02  0.45594000000E+02  0.51100000000E-03 0.  1.
         11   -1    0    0    0    0 -0.00000000000E+00 -0.00000000000E+00 -0.45593999997E+02  0.45594000000E+02  0.51100000000E-03 0. -1.
    9900012    2    1    2    0    0 -0.69056119407E+01 -0.23201510397E+02  0.20753918138E+02  0.59301910885E+02  0.49999939555E+02 0.  0.
         12    1    1    2    0    0  0.69056119407E+01  0.23201510397E+02 -0.20753918138E+02  0.31886089115E+02  0.00000000000E+00 0. -1.
         11    1    3    3    0    0  0.82887815695E+01  0.20506722370E+01 -0.19519621375E+01  0.87589561580E+01  0.51100000000E-03 0. -1.
        -11    1    3    3    0    0 -0.19629078743E+01 -0.23216957016E+02 -0.99675898910E+00  0.23321098370E+02  0.51100000000E-03 0.  1.
         12    1    3    3    0    0 -0.13231485636E+02 -0.20352256179E+01  0.23702639264E+02  0.27221856357E+02  0.00000000000E+00 0. -1.
</event>
<event>
 7    1  0.6246445E-012  0.5930195E+02  0.7816164E-02  0.1266605E+00
        -11   -1    0    0    0    0  0.00000000000E+00  0.00000000000E+00  0.45593999997E+02  0.45594000000E+02  0.51100000000E-03 0.  1.
         11   -1    0    0    0    0 -0.00000000000E+00 -0.00000000000E+00 -0.45593999997E+02  0.45594000000E+02  0.51100000000E-03 0. -1.
    9900012    2    1    2    0    0  0.39480702141E+01  0.30774377838E+02  0.73532622591E+01  0.59301952023E+02  0.50000014582E+02 0.  0.
         12    1    1    2    0    0 -0.39480702141E+01 -0.30774377838E+02 -0.73532622591E+01  0.31886047977E+02  0.00000000000E+00 0. -1.
         11    1    3    3    0    0 -0.11619225677E+02 -0.41743172141E+01  0.47530523192E+01  0.13229619652E+02  0.51100000000E-03 0. -1.
        -11    1    3    3    0    0 -0.23412898405E+01 -0.25818884292E+01  0.28263495706E+01  0.44873197050E+01  0.51100000000E-03 0.  1.
        -12    1    3    3    0    0  0.17908585731E+02  0.37530583481E+02 -0.22613963064E+00  0.41585012666E+02  0.00000000000E+00 0.  1.
</event>
<event>
 7    1  0.6246445E-012  0.5930208E+02  0.7816164E-02  0.1266604E+00
        -11   -1    0    0    0    0  0.00000000000E+00  0.00000000000E+00  0.45593999997E+02  0.45594000000E+02  0.51100000000E-03 0. -1.
         11   -1    0    0    0    0 -0.00000000000E+00 -0.00000000000E+00 -0.45593999997E+02  0.45594000000E+02  0.51100000000E-03 0.  1.
    9900012    2    1    2    0    0  0.10917317749E+02  0.11953224719E+02 -0.27470795724E+02  0.59302077938E+02  0.50000244219E+02 0.  0.
         12    1    1    2    0    0 -0.10917317749E+02 -0.11953224719E+02  0.27470795724E+02  0.31885922062E+02  0.00000000000E+00 0. -1.
         11    1    3    3    0    0  0.83886208610E+00 -0.12118408496E+02 -0.70703303103E+01  0.14055215581E+02  0.51100000000E-03 0. -1.
        -11    1    3    3    0    0  0.65336524327E+01 -0.20401980133E+01 -0.17433436350E+02  0.18729007589E+02  0.51100000000E-03 0.  1.
        -12    1    3    3    0    0  0.35448032303E+01  0.26111831228E+02 -0.29670290642E+01  0.26517854768E+02  0.00000000000E+00 0.  1.
</event>
<event>
 7    1  0.7237674E-012  0.5930194E+02  0.7816164E-02  0.1266605E+00
        -11   -1    0    0    0    0  0.00000000000E+00  0.00000000000E+00  0.45593999997E+02  0.45594000000E+02  0.51100000000E-03 0. -1.
         11   -1    0    0    0    0 -0.00000000000E+00 -0.00000000000E+00 -0.45593999997E+02  0.45594000000E+02  0.51100000000E-03 0.  1.
    9900012    2    1    2    0    0  0.66999029420E+01 -0.23605446456E+02 -0.20362090792E+02  0.59301944376E+02  0.50000000636E+02 0.  0.
         12    1    1    2    0    0 -0.66999029420E+01  0.23605446456E+02  0.20362090792E+02  0.31886055624E+02  0.00000000000E+00 0. -1.
         11    1    3    3    0    0 -0.28189000614E+01  0.83702520297E+01 -0.78045670872E+01  0.11786372821E+02  0.51100000000E-03 0. -1.
        -11    1    3    3    0    0  0.12337942698E+02 -0.73635954334E+01 -0.17094082899E+02  0.22330585262E+02  0.51100000000E-03 0.  1.
         12    1    3    3    0    0 -0.28191396943E+01 -0.24612103052E+02  0.45365591942E+01  0.25184986293E+02  0.00000000000E+00 0. -1.
</event>
<event>
 7    1  0.6246445E-012  0.5930192E+02  0.7816164E-02  0.1266605E+00
        -11   -1    0    0    0    0  0.00000000000E+00  0.00000000000E+00  0.45593999997E+02  0.45594000000E+02  0.51100000000E-03 0.  1.
         11   -1    0    0    0    0 -0.00000000000E+00 -0.00000000000E+00 -0.45593999997E+02  0.45594000000E+02  0.51100000000E-03 0. -1.
    9900012    2    1    2    0    0 -0.90898947939E+01  0.92217573492E+00  0.30549068004E+02  0.59301919159E+02  0.49999954646E+02 0.  0.
         12    1    1    2    0    0  0.90898947939E+01 -0.92217573492E+00 -0.30549068004E+02  0.31886080841E+02  0.00000000000E+00 0. -1.
         11    1    3    3    0    0  0.10934972891E+02 -0.63147180016E+01 -0.48071320752E+01  0.13511395731E+02  0.51100000000E-03 0. -1.
        -11    1    3    3    0    0  0.27476506238E+01 -0.18720895451E+01  0.98901150813E+01  0.10434015516E+02  0.51100000000E-03 0.  1.
         12    1    3    3    0    0 -0.22772518309E+02  0.91089832816E+01  0.25466084998E+02  0.35356507911E+02  0.00000000000E+00 0. -1.
</event>
<event>
 7    1  0.6246445E-012  0.5930186E+02  0.7816164E-02  0.1266605E+00
        -11   -1    0    0    0    0  0.00000000000E+00  0.00000000000E+00  0.45593999997E+02  0.45594000000E+02  0.51100000000E-03 0.  1.
         11   -1    0    0    0    0 -0.00000000000E+00 -0.00000000000E+00 -0.45593999997E+02  0.45594000000E+02  0.51100000000E-03 0. -1.
    9900012    2    1    2    0    0 -0.18202234738E+02  0.23180340460E+02  0.12168664073E+02  0.59301860086E+02  0.49999846911E+02 0.  0.
         12    1    1    2    0    0  0.18202234738E+02 -0.23180340460E+02 -0.12168664073E+02  0.31886139914E+02  0.00000000000E+00 0. -1.
         11    1    3    3    0    0 -0.22782707048E+00 -0.64899766768E+01  0.12824423796E+02  0.14374892987E+02  0.51100000000E-03 0. -1.
        -11    1    3    3    0    0  0.52118632503E+01 -0.15714595216E+01  0.22991477776E+01  0.59092372039E+01  0.51100000000E-03 0.  1.
        -12    1    3    3    0    0 -0.23186270918E+02  0.31241776658E+02 -0.29549075011E+01  0.39017729895E+02  0.00000000000E+00 0.  1.
</event>
<event>
 7    1  0.6246445E-012  0.5930194E+02  0.7816164E-02  0.1266605E+00
        -11   -1    0    0    0    0  0.00000000000E+00  0.00000000000E+00  0.45593999997E+02  0.45594000000E+02  0.51100000000E-03 0.  1.
         11   -1    0    0    0    0 -0.00000000000E+00 -0.00000000000E+00 -0.45593999997E+02  0.45594000000E+02  0.51100000000E-03 0. -1.
    9900012    2    1    2    0    0 -0.11231705627E+02  0.24394185111E+02  0.17189913402E+02  0.59301943466E+02  0.49999998975E+02 0.  0.
         12    1    1    2    0    0  0.11231705627E+02 -0.24394185111E+02 -0.17189913402E+02  0.31886056534E+02  0.00000000000E+00 0. -1.
         11    1    3    3    0    0 -0.14422805435E+02  0.20694691284E+01  0.17508003322E+02  0.22777844492E+02  0.51100000000E-03 0. -1.
        -11    1    3    3    0    0 -0.10829803688E+02  0.20091936866E+01  0.34760396299E+01  0.11550080474E+02  0.51100000000E-03 0.  1.
         12    1    3    3    0    0  0.14020903496E+02  0.20315522296E+02 -0.37941295504E+01  0.24974018500E+02  0.00000000000E+00 0. -1.
</event>
<event>
 7    1  0.6246445E-012  0.5930194E+02  0.7816164E-02  0.1266605E+00
        -11   -1    0    0    0    0  0.00000000000E+00  0.00000000000E+00  0.45593999997E+02  0.45594000000E+02  0.51100000000E-03 0. -1.
         11   -1    0    0    0    0 -0.00000000000E+00 -0.00000000000E+00 -0.45593999997E+02  0.45594000000E+02  0.51100000000E-03 0.  1.
    9900012    2    1    2    0    0  0.13926768021E+02 -0.25444193594E+02  0.13242325617E+02  0.59301936541E+02  0.49999986346E+02 0.  0.
         12    1    1    2    0    0 -0.13926768021E+02  0.25444193594E+02 -0.13242325617E+02  0.31886063459E+02  0.00000000000E+00 0. -1.
         11    1    3    3    0    0  0.15126595290E+02 -0.19904460202E+02 -0.31475044248E+01  0.25197384891E+02  0.51100000000E-03 0. -1.
        -11    1    3    3    0    0  0.24186780574E+01 -0.13643543600E+02 -0.16948611082E+01  0.13959542971E+02  0.51100000000E-03 0.  1.
         12    1    3    3    0    0 -0.36185053264E+01  0.81038102077E+01  0.18084691150E+02  0.20145008679E+02  0.00000000000E+00 0. -1.
</event>
<event>
 7    1  0.6246445E-012  0.5930194E+02  0.7816164E-02  0.1266605E+00
        -11   -1    0    0    0    0  0.00000000000E+00  0.00000000000E+00  0.45593999997E+02  0.45594000000E+02  0.51100000000E-03 0.  1.
         11   -1    0    0    0    0 -0.00000000000E+00 -0.00000000000E+00 -0.45593999997E+02  0.45594000000E+02  0.51100000000E-03 0. -1.
    9900012    2    1    2    0    0 -0.31142734027E+02 -0.54274547242E+01  0.41705639043E+01  0.59301941123E+02  0.49999994702E+02 0.  0.
         12    1    1    2    0    0  0.31142734027E+02  0.54274547242E+01 -0.41705639043E+01  0.31886058877E+02  0.00000000000E+00 0. -1.
         11    1    3    3    0    0  0.32867743349E+01 -0.38106789665E+01  0.15023074463E+02  0.15843513698E+02  0.51100000000E-03 0. -1.
        -11    1    3    3    0    0 -0.13029143402E+02  0.80947550092E+01  0.37495394551E+01  0.15790588426E+02  0.51100000000E-03 0.  1.
        -12    1    3    3    0    0 -0.21400364960E+02 -0.97115307669E+01 -0.14602050014E+02  0.27667838999E+02  0.00000000000E+00 0.  1.
</event>
<event>
 7    1  0.6246445E-012  0.5930182E+02  0.7816164E-02  0.1266605E+00
        -11   -1    0    0    0    0  0.00000000000E+00  0.00000000000E+00  0.45593999997E+02  0.45594000000E+02  0.51100000000E-03 0. -1.
         11   -1    0    0    0    0 -0.00000000000E+00 -0.00000000000E+00 -0.45593999997E+02  0.45594000000E+02  0.51100000000E-03 0.  1.
    9900012    2    1    2    0    0 -0.12468143314E+02 -0.16424450166E+02 -0.24321005523E+02  0.59301820069E+02  0.49999773928E+02 0.  0.
         12    1    1    2    0    0  0.12468143314E+02  0.16424450166E+02  0.24321005523E+02  0.31886179931E+02  0.00000000000E+00 0. -1.
         11    1    3    3    0    0 -0.39238899430E+01 -0.19299129730E+02 -0.68479068700E+01  0.20850591104E+02  0.51100000000E-03 0. -1.
        -11    1    3    3    0    0 -0.28965559979E+01 -0.13451101394E+02  0.16794056737E+00  0.13760464005E+02  0.51100000000E-03 0.  1.
         12    1    3    3    0    0 -0.56476973736E+01  0.16325780958E+02 -0.17641039220E+02  0.24690764960E+02  0.00000000000E+00 0. -1.
</event>
<event>
 7    1  0.6246445E-012  0.5930195E+02  0.7816164E-02  0.1266605E+00
        -11   -1    0    0    0    0  0.00000000000E+00  0.00000000000E+00  0.45593999997E+02  0.45594000000E+02  0.51100000000E-03 0.  1.
         11   -1    0    0    0    0 -0.00000000000E+00 -0.00000000000E+00 -0.45593999997E+02  0.45594000000E+02  0.51100000000E-03 0. -1.
    9900012    2    1    2    0    0  0.53282230148E+01  0.19747605811E+02  0.24461445584E+02  0.59301949510E+02  0.50000009999E+02 0.  0.
         12    1    1    2    0    0 -0.53282230148E+01 -0.19747605811E+02 -0.24461445584E+02  0.31886050490E+02  0.00000000000E+00 0. -1.
         11    1    3    3    0    0  0.28816313146E+01  0.71950884845E+01  0.91511139693E+01  0.11992330235E+02  0.51100000000E-03 0. -1.
        -11    1    3    3    0    0  0.48043626693E+01  0.28120668869E+02  0.13162119802E+02  0.31418073083E+02  0.51100000000E-03 0.  1.
         12    1    3    3    0    0 -0.23577709692E+01 -0.15568151542E+02  0.21482118131E+01  0.15891546192E+02  0.00000000000E+00 0. -1.
</event>
<event>
 7    1  0.6246445E-012  0.5930196E+02  0.7816164E-02  0.1266605E+00
        -11   -1    0    0    0    0  0.00000000000E+00  0.00000000000E+00  0.45593999997E+02  0.45594000000E+02  0.51100000000E-03 0. -1.
         11   -1    0    0    0    0 -0.00000000000E+00 -0.00000000000E+00 -0.45593999997E+02  0.45594000000E+02  0.51100000000E-03 0.  1.
    9900012    2    1    2    0    0  0.28928045693E+02  0.87693498217E+01 -0.10148227304E+02  0.59301955383E+02  0.50000020708E+02 0.  0.
         12    1    1    2    0    0 -0.28928045693E+02 -0.87693498217E+01  0.10148227304E+02  0.31886044617E+02  0.00000000000E+00 0. -1.
         11    1    3    3    0    0  0.49905058510E+01  0.18548566300E+02 -0.17991570668E+02  0.26318265061E+02  0.51100000000E-03 0.  1.
        -11    1    3    3    0    0 -0.26906987694E-02  0.14809190325E+01  0.63118989693E+01  0.64833014183E+01  0.51100000000E-03 0. -1.
        -12    1    3    3    0    0  0.23940230541E+02 -0.11260135511E+02  0.15314443952E+01  0.26500388903E+02  0.00000000000E+00 0.  1.
</event>
<event>
 7    1  0.6246445E-012  0.5930192E+02  0.7816164E-02  0.1266605E+00
        -11   -1    0    0    0    0  0.00000000000E+00  0.00000000000E+00  0.45593999997E+02  0.45594000000E+02  0.51100000000E-03 0.  1.
         11   -1    0    0    0    0 -0.00000000000E+00 -0.00000000000E+00 -0.45593999997E+02  0.45594000000E+02  0.51100000000E-03 0. -1.
    9900012    2    1    2    0    0 -0.24070994966E+02 -0.17713183885E+02  0.11115423780E+02  0.59301916393E+02  0.49999949601E+02 0.  0.
         12    1    1    2    0    0  0.24070994966E+02  0.17713183885E+02 -0.11115423780E+02  0.31886083607E+02  0.00000000000E+00 0. -1.
         11    1    3    3    0    0 -0.32950834980E+02 -0.12926691592E+02  0.63196548901E+01  0.35955457438E+02  0.51100000000E-03 0.  1.
        -11    1    3    3    0    0 -0.21378804848E+01  0.70933719629E+00  0.98003381589E+01  0.10055860009E+02  0.51100000000E-03 0. -1.
         12    1    3    3    0    0  0.11017720499E+02 -0.54958294893E+01 -0.50045692695E+01  0.13290598946E+02  0.00000000000E+00 0. -1.
</event>
<event>
 7    1  0.6246445E-012  0.5930196E+02  0.7816164E-02  0.1266605E+00
        -11   -1    0    0    0    0  0.00000000000E+00  0.00000000000E+00  0.45593999997E+02  0.45594000000E+02  0.51100000000E-03 0.  1.
         11   -1    0    0    0    0 -0.00000000000E+00 -0.00000000000E+00 -0.45593999997E+02  0.45594000000E+02  0.51100000000E-03 0. -1.
    9900012    2    1    2    0    0  0.21856605381E+02 -0.12805448512E+02 -0.19365664077E+02  0.59301958296E+02  0.50000026023E+02 0.  0.
         12    1    1    2    0    0 -0.21856605381E+02  0.12805448512E+02  0.19365664077E+02  0.31886041704E+02  0.00000000000E+00 0. -1.
         11    1    3    3    0    0 -0.22650459150E+01  0.51385254986E+00 -0.80864006214E+01  0.84133437295E+01  0.51100000000E-03 0. -1.
        -11    1    3    3    0    0 -0.10520582475E+02 -0.48640547334E+01  0.37636813965E+01  0.12186344078E+02  0.51100000000E-03 0.  1.
        -12    1    3    3    0    0  0.34642233772E+02 -0.84552463281E+01 -0.15042944852E+02  0.38702270489E+02  0.00000000000E+00 0.  1.
</event>
<event>
 7    1  0.6246445E-012  0.5930187E+02  0.7816164E-02  0.1266605E+00
        -11   -1    0    0    0    0  0.00000000000E+00  0.00000000000E+00  0.45593999997E+02  0.45594000000E+02  0.51100000000E-03 0.  1.
         11   -1    0    0    0    0 -0.00000000000E+00 -0.00000000000E+00 -0.45593999997E+02  0.45594000000E+02  0.51100000000E-03 0. -1.
    9900012    2    1    2    0    0  0.18857389949E+01 -0.30824678343E+02  0.79378014263E+01  0.59301866681E+02  0.49999858939E+02 0.  0.
         12    1    1    2    0    0 -0.18857389949E+01  0.30824678343E+02 -0.79378014263E+01  0.31886133319E+02  0.00000000000E+00 0. -1.
         11    1    3    3    0    0 -0.19022236293E+01  0.12333511216E+01  0.12165278296E+01  0.25728486054E+01  0.51100000000E-03 0. -1.
        -11    1    3    3    0    0  0.84510436483E+01 -0.82065137449E+01 -0.18353936087E+02  0.21809034292E+02  0.51100000000E-03 0.  1.
        -12    1    3    3    0    0 -0.46630810241E+01 -0.23851515720E+02  0.25075209684E+02  0.34919983784E+02  0.00000000000E+00 0.  1.
</event>
<event>
 7    1  0.6246445E-012  0.5930197E+02  0.7816164E-02  0.1266605E+00
        -11   -1    0    0    0    0  0.00000000000E+00  0.00000000000E+00  0.45593999997E+02  0.45594000000E+02  0.51100000000E-03 0.  1.
         11   -1    0    0    0    0 -0.00000000000E+00 -0.00000000000E+00 -0.45593999997E+02  0.45594000000E+02  0.51100000000E-03 0. -1.
    9900012    2    1    2    0    0 -0.19028220912E+02 -0.16001002157E+02  0.19965312352E+02  0.59301969228E+02  0.50000045959E+02 0.  0.
         12    1    1    2    0    0  0.19028220912E+02  0.16001002157E+02 -0.19965312352E+02  0.31886030772E+02  0.00000000000E+00 0. -1.
         11    1    3    3    0    0  0.47838704760E+01  0.39542780257E+01  0.33144261846E+01  0.70361319367E+01  0.51100000000E-03 0. -1.
        -11    1    3    3    0    0 -0.19462666225E+02 -0.20659773049E+01  0.25249107455E+02  0.31946534497E+02  0.51100000000E-03 0.  1.
         12    1    3    3    0    0 -0.43494251632E+01 -0.17889302878E+02 -0.85982212883E+01  0.20319302794E+02  0.00000000000E+00 0. -1.
</event>
<event>
 7    1  0.6246445E-012  0.5930193E+02  0.7816164E-02  0.1266605E+00
        -11   -1    0    0    0    0  0.00000000000E+00  0.00000000000E+00  0.45593999997E+02  0.45594000000E+02  0.51100000000E-03 0.  1.
         11   -1    0    0    0    0 -0.00000000000E+00 -0.00000000000E+00 -0.45593999997E+02  0.45594000000E+02  0.51100000000E-03 0. -1.
    9900012    2    1    2    0    0  0.14710726585E+02 -0.20462246254E+02  0.19534909027E+02  0.59301926721E+02  0.49999968437E+02 0.  0.
         12    1    1    2    0    0 -0.14710726585E+02  0.20462246254E+02 -0.19534909027E+02  0.31886073279E+02  0.00000000000E+00 0. -1.
         11    1    3    3    0    0 -0.72504499683E+01  0.19942481962E+01  0.71050851087E+01  0.10345447563E+02  0.51100000000E-03 0. -1.
        -11    1    3    3    0    0  0.12194157828E+02  0.10699364089E+01 -0.93803569763E+01  0.15421846398E+02  0.51100000000E-03 0.  1.
         12    1    3    3    0    0  0.97670187261E+01 -0.23526430859E+02  0.21810180895E+02  0.33534632761E+02  0.00000000000E+00 0. -1.
</event>
<event>
 7    1  0.1013521E-011  0.5930197E+02  0.7816164E-02  0.1266605E+00
        -11   -1    0    0    0    0  0.00000000000E+00  0.00000000000E+00  0.45593999997E+02  0.45594000000E+02  0.51100000000E-03 0.  1.
         11   -1    0    0    0    0 -0.00000000000E+00 -0.00000000000E+00 -0.45593999997E+02  0.45594000000E+02  0.51100000000E-03 0. -1.
    9900012    2    1    2    0    0 -0.30337685015E+02 -0.82361114772E+01 -0.53394774544E+01  0.59301973533E+02  0.50000053811E+02 0.  0.
         12    1    1    2    0    0  0.30337685015E+02  0.82361114772E+01  0.53394774544E+01  0.31886026467E+02  0.00000000000E+00 0. -1.
         11    1    3    3    0    0 -0.95293490293E+01 -0.25750114999E+01  0.13530955629E+02  0.16748908551E+02  0.51100000000E-03 0. -1.
        -11    1    3    3    0    0 -0.25204925755E+02 -0.11878238929E+02 -0.74771265759E+01  0.28849406657E+02  0.51100000000E-03 0.  1.
         12    1    3    3    0    0  0.43965897686E+01  0.62171389515E+01 -0.11393306508E+02  0.13703658326E+02  0.00000000000E+00 0. -1.
</event>
<event>
 7    1  0.6246445E-012  0.5930190E+02  0.7816164E-02  0.1266605E+00
        -11   -1    0    0    0    0  0.00000000000E+00  0.00000000000E+00  0.45593999997E+02  0.45594000000E+02  0.51100000000E-03 0.  1.
         11   -1    0    0    0    0 -0.00000000000E+00 -0.00000000000E+00 -0.45593999997E+02  0.45594000000E+02  0.51100000000E-03 0. -1.
    9900012    2    1    2    0    0  0.98737320250E+01 -0.27783396011E+02  0.12137367203E+02  0.59301900198E+02  0.49999920064E+02 0.  0.
         12    1    1    2    0    0 -0.98737320250E+01  0.27783396011E+02 -0.12137367203E+02  0.31886099802E+02  0.00000000000E+00 0. -1.
         11    1    3    3    0    0  0.15721724349E+01 -0.12868836588E+02 -0.93264533383E+01  0.15970642236E+02  0.51100000000E-03 0.  1.
        -11    1    3    3    0    0  0.12440148928E+02  0.69786365160E+01  0.13585919488E+02  0.19698626388E+02  0.51100000000E-03 0. -1.
         12    1    3    3    0    0 -0.41385893377E+01 -0.21893195939E+02  0.78779010532E+01  0.23632631574E+02  0.00000000000E+00 0. -1.
</event>
<event>
 7    1  0.6246445E-012  0.5930202E+02  0.7816164E-02  0.1266604E+00
        -11   -1    0    0    0    0  0.00000000000E+00  0.00000000000E+00  0.45593999997E+02  0.45594000000E+02  0.51100000000E-03 0. -1.
         11   -1    0    0    0    0 -0.00000000000E+00 -0.00000000000E+00 -0.45593999997E+02  0.45594000000E+02  0.51100000000E-03 0.  1.
    9900012    2    1    2    0    0  0.20838632010E+02 -0.23894870301E+02 -0.33914815977E+01  0.59302022546E+02  0.50000143199E+02 0.  0.
         12    1    1    2    0    0 -0.20838632010E+02  0.23894870301E+02  0.33914815977E+01  0.31885977454E+02  0.00000000000E+00 0. -1.
         11    1    3    3    0    0  0.12305715233E+02 -0.69453548862E+01  0.19256011285E+02  0.23884357909E+02  0.51100000000E-03 0. -1.
        -11    1    3    3    0    0 -0.54376369248E+01 -0.41670036660E+01 -0.14656554878E+01  0.70057091824E+01  0.51100000000E-03 0.  1.
        -12    1    3    3    0    0  0.13970553702E+02 -0.12782511749E+02 -0.21181837395E+02  0.28411955455E+02  0.00000000000E+00 0.  1.
</event>
<event>
 7    1  0.6246445E-012  0.5930196E+02  0.7816164E-02  0.1266605E+00
        -11   -1    0    0    0    0  0.00000000000E+00  0.00000000000E+00  0.45593999997E+02  0.45594000000E+02  0.51100000000E-03 0. -1.
         11   -1    0    0    0    0 -0.00000000000E+00 -0.00000000000E+00 -0.45593999997E+02  0.45594000000E+02  0.51100000000E-03 0.  1.
    9900012    2    1    2    0    0 -0.18711795471E+02  0.22638121590E+02  0.12413854376E+02  0.59301958863E+02  0.50000027057E+02 0.  0.
         12    1    1    2    0    0  0.18711795471E+02 -0.22638121590E+02 -0.12413854376E+02  0.31886041137E+02  0.00000000000E+00 0. -1.
         11    1    3    3    0    0 -0.16254381304E+02 -0.12053566996E+02  0.77298403835E+01  0.21662036413E+02  0.51100000000E-03 0. -1.
        -11    1    3    3    0    0 -0.32997666525E+01  0.33541923547E+01 -0.27114849827E+01  0.54305816803E+01  0.51100000000E-03 0.  1.
         12    1    3    3    0    0  0.84235248551E+00  0.31337496232E+02  0.73954989752E+01  0.32209340771E+02  0.00000000000E+00 0. -1.
</event>
<event>
 7    1  0.6246445E-012  0.5930191E+02  0.7816164E-02  0.1266605E+00
        -11   -1    0    0    0    0  0.00000000000E+00  0.00000000000E+00  0.45593999997E+02  0.45594000000E+02  0.51100000000E-03 0.  1.
         11   -1    0    0    0    0 -0.00000000000E+00 -0.00000000000E+00 -0.45593999997E+02  0.45594000000E+02  0.51100000000E-03 0. -1.
    9900012    2    1    2    0    0 -0.10379380144E+02  0.29635061041E+02  0.55456466286E+01  0.59301912570E+02  0.49999942629E+02 0.  0.
         12    1    1    2    0    0  0.10379380144E+02 -0.29635061041E+02 -0.55456466286E+01  0.31886087430E+02  0.00000000000E+00 0. -1.
         11    1    3    3    0    0 -0.18474960309E+02  0.42698608027E+01 -0.28573965838E+01  0.19176041958E+02  0.51100000000E-03 0. -1.
        -11    1    3    3    0    0  0.48811047235E+00  0.13093021517E+02 -0.10180435795E+02  0.16592369859E+02  0.51100000000E-03 0.  1.
        -12    1    3    3    0    0  0.76074696921E+01  0.12272178721E+02  0.18583479008E+02  0.23533500753E+02  0.00000000000E+00 0.  1.
</event>
<event>
 7    1  0.8662376E-012  0.5930195E+02  0.7816164E-02  0.1266605E+00
        -11   -1    0    0    0    0  0.00000000000E+00  0.00000000000E+00  0.45593999997E+02  0.45594000000E+02  0.51100000000E-03 0. -1.
         11   -1    0    0    0    0 -0.00000000000E+00 -0.00000000000E+00 -0.45593999997E+02  0.45594000000E+02  0.51100000000E-03 0.  1.
    9900012    2    1    2    0    0  0.67462965876E+01 -0.52521713082E+01 -0.30718438974E+02  0.59301947969E+02  0.50000007189E+02 0.  0.
         12    1    1    2    0    0 -0.67462965876E+01  0.52521713082E+01  0.30718438974E+02  0.31886052031E+02  0.00000000000E+00 0. -1.
         11    1    3    3    0    0 -0.32262291530E+01  0.10733609258E+02 -0.11320687676E+02  0.15930376391E+02  0.51100000000E-03 0. -1.
        -11    1    3    3    0    0  0.19428640661E+01 -0.44544833772E+01 -0.26973588783E+02  0.27407875420E+02  0.51100000000E-03 0.  1.
         12    1    3    3    0    0  0.80296616746E+01 -0.11531297189E+02  0.75758374846E+01  0.15963696159E+02  0.00000000000E+00 0. -1.
</event>
<event>
 7    1  0.6246445E-012  0.5930192E+02  0.7816164E-02  0.1266605E+00
        -11   -1    0    0    0    0  0.00000000000E+00  0.00000000000E+00  0.45593999997E+02  0.45594000000E+02  0.51100000000E-03 0.  1.
         11   -1    0    0    0    0 -0.00000000000E+00 -0.00000000000E+00 -0.45593999997E+02  0.45594000000E+02  0.51100000000E-03 0. -1.
    9900012    2    1    2    0    0  0.27698481967E+02 -0.14121990402E+02  0.70770960876E+01  0.59301924587E+02  0.49999964545E+02 0.  0.
         12    1    1    2    0    0 -0.27698481967E+02  0.14121990402E+02 -0.70770960876E+01  0.31886075413E+02  0.00000000000E+00 0. -1.
         11    1    3    3    0    0  0.16948942959E+02 -0.14259864063E+02 -0.11550995481E+02  0.24980710306E+02  0.51100000000E-03 0. -1.
        -11    1    3    3    0    0  0.14479211866E+02 -0.90037777258E+01  0.55422090740E+01  0.17928515590E+02  0.51100000000E-03 0.  1.
        -12    1    3    3    0    0 -0.37296728571E+01  0.91416513873E+01  0.13085882495E+02  0.16392698691E+02  0.00000000000E+00 0.  1.
</event>
<event>
 7    1  0.6246445E-012  0.5930215E+02  0.7816164E-02  0.1266604E+00
        -11   -1    0    0    0    0  0.00000000000E+00  0.00000000000E+00  0.45593999997E+02  0.45594000000E+02  0.51100000000E-03 0.  1.
         11   -1    0    0    0    0 -0.00000000000E+00 -0.00000000000E+00 -0.45593999997E+02  0.45594000000E+02  0.51100000000E-03 0. -1.
    9900012    2    1    2    0    0  0.13405113433E+02  0.27445897354E+02  0.91505878614E+01  0.59302147245E+02  0.50000370618E+02 0.  0.
         12    1    1    2    0    0 -0.13405113433E+02 -0.27445897354E+02 -0.91505878614E+01  0.31885852755E+02  0.00000000000E+00 0. -1.
         11    1    3    3    0    0  0.13602627726E+02 -0.56504343071E+01  0.76279525741E+01  0.16587481715E+02  0.51100000000E-03 0. -1.
        -11    1    3    3    0    0 -0.53764874192E+01  0.43276764228E+01 -0.92679170827E+01  0.11555504641E+02  0.51100000000E-03 0.  1.
        -12    1    3    3    0    0  0.51789731262E+01  0.28768655238E+02  0.10790552370E+02  0.31159160889E+02  0.00000000000E+00 0.  1.
</event>
<event>
 7    1  0.6246445E-012  0.5930191E+02  0.7816164E-02  0.1266605E+00
        -11   -1    0    0    0    0  0.00000000000E+00  0.00000000000E+00  0.45593999997E+02  0.45594000000E+02  0.51100000000E-03 0.  1.
         11   -1    0    0    0    0 -0.00000000000E+00 -0.00000000000E+00 -0.45593999997E+02  0.45594000000E+02  0.51100000000E-03 0. -1.
    9900012    2    1    2    0    0 -0.12983390719E+02  0.24636265939E+02  0.15530897302E+02  0.59301908910E+02  0.49999935954E+02 0.  0.
         12    1    1    2    0    0  0.12983390719E+02 -0.24636265939E+02 -0.15530897302E+02  0.31886091090E+02  0.00000000000E+00 0. -1.
         11    1    3    3    0    0 -0.13926907928E+02  0.18564755686E+02  0.31066761190E+01  0.23414960066E+02  0.51100000000E-03 0.  1.
        -11    1    3    3    0    0  0.61448568063E+01  0.18640201109E+02  0.44698596667E+01  0.20129481073E+02  0.51100000000E-03 0. -1.
        -12    1    3    3    0    0 -0.52013395972E+01 -0.12568690856E+02  0.79543615160E+01  0.15757467771E+02  0.00000000000E+00 0.  1.
</event>
<event>
 7    1  0.6246445E-012  0.5930196E+02  0.7816164E-02  0.1266605E+00
        -11   -1    0    0    0    0  0.00000000000E+00  0.00000000000E+00  0.45593999997E+02  0.45594000000E+02  0.51100000000E-03 0.  1.
         11   -1    0    0    0    0 -0.00000000000E+00 -0.00000000000E+00 -0.45593999997E+02  0.45594000000E+02  0.51100000000E-03 0. -1.
    9900012    2    1    2    0    0 -0.10961894026E+02 -0.29685422922E+02  0.39156606247E+01  0.59301955203E+02  0.50000020380E+02 0.  0.
         12    1    1    2    0    0  0.10961894026E+02  0.29685422922E+02 -0.39156606247E+01  0.31886044797E+02  0.00000000000E+00 0. -1.
         11    1    3    3    0    0 -0.57776244686E+01 -0.84546988794E+01 -0.46191519585E+01  0.11233852532E+02  0.51100000000E-03 0. -1.
        -11    1    3    3    0    0 -0.76202438027E+01 -0.26071040606E+02 -0.98566393490E+01  0.28894992877E+02  0.51100000000E-03 0.  1.
         12    1    3    3    0    0  0.24359742455E+01  0.48403165630E+01  0.18391451932E+02  0.19173109793E+02  0.00000000000E+00 0. -1.
</event>
<event>
 7    1  0.6246445E-012  0.5930190E+02  0.7816164E-02  0.1266605E+00
        -11   -1    0    0    0    0  0.00000000000E+00  0.00000000000E+00  0.45593999997E+02  0.45594000000E+02  0.51100000000E-03 0. -1.
         11   -1    0    0    0    0 -0.00000000000E+00 -0.00000000000E+00 -0.45593999997E+02  0.45594000000E+02  0.51100000000E-03 0.  1.
    9900012    2    1    2    0    0  0.28384933610E+02 -0.14272958388E+02  0.27021346887E+01  0.59301900693E+02  0.49999920967E+02 0.  0.
         12    1    1    2    0    0 -0.28384933610E+02  0.14272958388E+02 -0.27021346887E+01  0.31886099307E+02  0.00000000000E+00 0. -1.
         11    1    3    3    0    0 -0.40374005945E+01 -0.25958065525E+01  0.60425913869E+01  0.77169764900E+01  0.51100000000E-03 0. -1.
        -11    1    3    3    0    0  0.34761890070E+02  0.44089113028E+01 -0.42894631555E+01  0.35301940379E+02  0.51100000000E-03 0.  1.
         12    1    3    3    0    0 -0.23395558657E+01 -0.16086063138E+02  0.94900645739E+00  0.16282983824E+02  0.00000000000E+00 0. -1.
</event>
<event>
 7    1  0.6246445E-012  0.5930194E+02  0.7816164E-02  0.1266605E+00
        -11   -1    0    0    0    0  0.00000000000E+00  0.00000000000E+00  0.45593999997E+02  0.45594000000E+02  0.51100000000E-03 0. -1.
         11   -1    0    0    0    0 -0.00000000000E+00 -0.00000000000E+00 -0.45593999997E+02  0.45594000000E+02  0.51100000000E-03 0.  1.
    9900012    2    1    2    0    0 -0.11756127247E+02  0.55793199769E+01 -0.29109883056E+02  0.59301943004E+02  0.49999998133E+02 0.  0.
         12    1    1    2    0    0  0.11756127247E+02 -0.55793199769E+01  0.29109883056E+02  0.31886056996E+02  0.00000000000E+00 0. -1.
         11    1    3    3    0    0 -0.10235186694E+02  0.12703615799E+02  0.30468015901E+01  0.16595900133E+02  0.51100000000E-03 0. -1.
        -11    1    3    3    0    0 -0.42566113841E+01 -0.25280978701E+01  0.38703791938E+01  0.62840953749E+01  0.51100000000E-03 0.  1.
        -12    1    3    3    0    0  0.27356708311E+01 -0.45961979519E+01 -0.36027063839E+02  0.36421947496E+02  0.00000000000E+00 0.  1.
</event>
<event>
 7    1  0.6246445E-012  0.5930194E+02  0.7816164E-02  0.1266605E+00
        -11   -1    0    0    0    0  0.00000000000E+00  0.00000000000E+00  0.45593999997E+02  0.45594000000E+02  0.51100000000E-03 0. -1.
         11   -1    0    0    0    0 -0.00000000000E+00 -0.00000000000E+00 -0.45593999997E+02  0.45594000000E+02  0.51100000000E-03 0.  1.
    9900012    2    1    2    0    0 -0.71113529795E+01 -0.20026883941E+02 -0.23771268469E+02  0.59301943076E+02  0.49999998263E+02 0.  0.
         12    1    1    2    0    0  0.71113529795E+01  0.20026883941E+02  0.23771268469E+02  0.31886056924E+02  0.00000000000E+00 0. -1.
         11    1    3    3    0    0  0.44154832438E+01  0.79380498451E+01  0.69816244253E+01  0.11456535580E+02  0.51100000000E-03 0.  1.
        -11    1    3    3    0    0  0.35086927507E+01  0.87080870240E+00 -0.95823616280E+00  0.37399798689E+01  0.51100000000E-03 0. -1.
        -12    1    3    3    0    0 -0.15035528974E+02 -0.28835742489E+02 -0.29794656731E+02  0.44105427627E+02  0.00000000000E+00 0.  1.
</event>
<event>
 7    1  0.6246445E-012  0.5930195E+02  0.7816164E-02  0.1266605E+00
        -11   -1    0    0    0    0  0.00000000000E+00  0.00000000000E+00  0.45593999997E+02  0.45594000000E+02  0.51100000000E-03 0. -1.
         11   -1    0    0    0    0 -0.00000000000E+00 -0.00000000000E+00 -0.45593999997E+02  0.45594000000E+02  0.51100000000E-03 0.  1.
    9900012    2    1    2    0    0  0.30071773247E+02  0.48295410628E+01 -0.94384486260E+01  0.59301947789E+02  0.50000006860E+02 0.  0.
         12    1    1    2    0    0 -0.30071773247E+02 -0.48295410628E+01  0.94384486260E+01  0.31886052211E+02  0.00000000000E+00 0. -1.
         11    1    3    3    0    0  0.23453771350E+02  0.37683525927E+01  0.14185839659E+02  0.27667994486E+02  0.51100000000E-03 0. -1.
        -11    1    3    3    0    0  0.87732166519E+01  0.80272201731E+00 -0.95555815482E+00  0.88615339929E+01  0.51100000000E-03 0.  1.
        -12    1    3    3    0    0 -0.21552147542E+01  0.25846645286E+00 -0.22668730130E+02  0.22772419310E+02  0.00000000000E+00 0.  1.
</event>
<event>
 7    1  0.6246445E-012  0.5930195E+02  0.7816164E-02  0.1266605E+00
        -11   -1    0    0    0    0  0.00000000000E+00  0.00000000000E+00  0.45593999997E+02  0.45594000000E+02  0.51100000000E-03 0. -1.
         11   -1    0    0    0    0 -0.00000000000E+00 -0.00000000000E+00 -0.45593999997E+02  0.45594000000E+02  0.51100000000E-03 0.  1.
    9900012    2    1    2    0    0  0.27399594942E+02  0.10999957791E+02 -0.12040910384E+02  0.59301946665E+02  0.50000004810E+02 0.  0.
         12    1    1    2    0    0 -0.27399594942E+02 -0.10999957791E+02  0.12040910384E+02  0.31886053335E+02  0.00000000000E+00 0. -1.
         11    1    3    3    0    0 -0.65510371991E+00  0.94705038761E+01  0.12451163918E+01  0.95744409571E+01  0.51100000000E-03 0. -1.
        -11    1    3    3    0    0  0.34132815867E+02  0.11583486523E+02 -0.84459924083E+01  0.37021089490E+02  0.51100000000E-03 0.  1.
        -12    1    3    3    0    0 -0.60781172047E+01 -0.10054032608E+02 -0.48400343670E+01  0.12706416218E+02  0.00000000000E+00 0.  1.
</event>
<event>
 7    1  0.6246445E-012  0.5930194E+02  0.7816164E-02  0.1266605E+00
        -11   -1    0    0    0    0  0.00000000000E+00  0.00000000000E+00  0.45593999997E+02  0.45594000000E+02  0.51100000000E-03 0.  1.
         11   -1    0    0    0    0 -0.00000000000E+00 -0.00000000000E+00 -0.45593999997E+02  0.45594000000E+02  0.51100000000E-03 0. -1.
    9900012    2    1    2    0    0  0.85709066163E+01  0.30646116224E+02 -0.20188430080E+01  0.59301943378E+02  0.49999998815E+02 0.  0.
         12    1    1    2    0    0 -0.85709066163E+01 -0.30646116224E+02  0.20188430080E+01  0.31886056622E+02  0.00000000000E+00 0. -1.
         11    1    3    3    0    0 -0.50010506967E+01 -0.58973625827E+01  0.75059078253E+01  0.10776272363E+02  0.51100000000E-03 0. -1.
        -11    1    3    3    0    0  0.15190995910E+02  0.59825604577E+01  0.46356378915E+00  0.16333164973E+02  0.51100000000E-03 0.  1.
        -12    1    3    3    0    0 -0.16190385972E+01  0.30560918349E+02 -0.99883146225E+01  0.32192506042E+02  0.00000000000E+00 0.  1.
</event>
<event>
 7    1  0.6246445E-012  0.5930196E+02  0.7816164E-02  0.1266605E+00
        -11   -1    0    0    0    0  0.00000000000E+00  0.00000000000E+00  0.45593999997E+02  0.45594000000E+02  0.51100000000E-03 0. -1.
         11   -1    0    0    0    0 -0.00000000000E+00 -0.00000000000E+00 -0.45593999997E+02  0.45594000000E+02  0.51100000000E-03 0.  1.
    9900012    2    1    2    0    0 -0.11728325363E+01 -0.86632867234E+00 -0.31852683690E+02  0.59301960425E+02  0.50000029905E+02 0.  0.
         12    1    1    2    0    0  0.11728325363E+01  0.86632867234E+00  0.31852683690E+02  0.31886039575E+02  0.00000000000E+00 0. -1.
         11    1    3    3    0    0  0.53104900138E+01 -0.62487145379E+01 -0.17300686846E+02  0.19145795966E+02  0.51100000000E-03 0.  1.
        -11    1    3    3    0    0 -0.10159174774E+02  0.14714713703E+02 -0.21492999090E+02  0.27958552209E+02  0.51100000000E-03 0. -1.
         12    1    3    3    0    0  0.36758522237E+01 -0.93323278378E+01  0.69410022462E+01  0.12197612251E+02  0.00000000000E+00 0. -1.
</event>
<event>
 7    1  0.6246445E-012  0.5930209E+02  0.7816164E-02  0.1266604E+00
        -11   -1    0    0    0    0  0.00000000000E+00  0.00000000000E+00  0.45593999997E+02  0.45594000000E+02  0.51100000000E-03 0.  1.
         11   -1    0    0    0    0 -0.00000000000E+00 -0.00000000000E+00 -0.45593999997E+02  0.45594000000E+02  0.51100000000E-03 0. -1.
    9900012    2    1    2    0    0 -0.22206560443E+02  0.15582962570E+01  0.22828747029E+02  0.59302089242E+02  0.50000264836E+02 0.  0.
         12    1    1    2    0    0  0.22206560443E+02 -0.15582962570E+01 -0.22828747029E+02  0.31885910758E+02  0.00000000000E+00 0. -1.
         11    1    3    3    0    0  0.37478140947E+01 -0.60860748042E+01 -0.77450874293E+01  0.10539107958E+02  0.51100000000E-03 0. -1.
        -11    1    3    3    0    0  0.43375164180E+01 -0.12771715385E+01  0.10267785211E+02  0.11219297180E+02  0.51100000000E-03 0.  1.
        -12    1    3    3    0    0 -0.30291890956E+02  0.89215425997E+01  0.20306049247E+02  0.37543684104E+02  0.00000000000E+00 0.  1.
</event>
<event>
 7    1  0.6246445E-012  0.5930201E+02  0.7816164E-02  0.1266605E+00
        -11   -1    0    0    0    0  0.00000000000E+00  0.00000000000E+00  0.45593999997E+02  0.45594000000E+02  0.51100000000E-03 0. -1.
         11   -1    0    0    0    0 -0.00000000000E+00 -0.00000000000E+00 -0.45593999997E+02  0.45594000000E+02  0.51100000000E-03 0.  1.
    9900012    2    1    2    0    0  0.30853115936E+02 -0.67180275908E+01 -0.44350721267E+01  0.59302007426E+02  0.50000115623E+02 0.  0.
         12    1    1    2    0    0 -0.30853115936E+02  0.67180275908E+01  0.44350721267E+01  0.31885992574E+02  0.00000000000E+00 0. -1.
         11    1    3    3    0    0  0.20231511403E+02 -0.10471191762E+01 -0.85429367356E+01  0.21986183856E+02  0.51100000000E-03 0. -1.
        -11    1    3    3    0    0  0.21429505320E+02 -0.19206332726E+01 -0.56882608984E+01  0.22254636432E+02  0.51100000000E-03 0.  1.
         12    1    3    3    0    0 -0.10807900787E+02 -0.37502751421E+01  0.97961255072E+01  0.15061187138E+02  0.00000000000E+00 0. -1.
</event>
<event>
 7    1  0.6246445E-012  0.5930195E+02  0.7816164E-02  0.1266605E+00
        -11   -1    0    0    0    0  0.00000000000E+00  0.00000000000E+00  0.45593999997E+02  0.45594000000E+02  0.51100000000E-03 0.  1.
         11   -1    0    0    0    0 -0.00000000000E+00 -0.00000000000E+00 -0.45593999997E+02  0.45594000000E+02  0.51100000000E-03 0. -1.
    9900012    2    1    2    0    0  0.32525183479E+01  0.11941372358E+02  0.29386139759E+02  0.59301945692E+02  0.50000003034E+02 0.  0.
         12    1    1    2    0    0 -0.32525183479E+01 -0.11941372358E+02 -0.29386139759E+02  0.31886054308E+02  0.00000000000E+00 0. -1.
         11    1    3    3    0    0 -0.94844583998E+01  0.74624176548E+01 -0.46739567899E+01  0.12941734842E+02  0.51100000000E-03 0. -1.
        -11    1    3    3    0    0  0.44781522261E+01 -0.51391748823E+01 -0.28088625004E+01  0.73725622844E+01  0.51100000000E-03 0.  1.
        -12    1    3    3    0    0  0.82588245217E+01  0.96181295858E+01  0.36868959050E+02  0.38987648565E+02  0.00000000000E+00 0.  1.
</event>
<event>
 7    1  0.6246445E-012  0.5930195E+02  0.7816164E-02  0.1266605E+00
        -11   -1    0    0    0    0  0.00000000000E+00  0.00000000000E+00  0.45593999997E+02  0.45594000000E+02  0.51100000000E-03 0.  1.
         11   -1    0    0    0    0 -0.00000000000E+00 -0.00000000000E+00 -0.45593999997E+02  0.45594000000E+02  0.51100000000E-03 0. -1.
    9900012    2    1    2    0    0 -0.14999374440E+02  0.20029849056E+02  0.19762189251E+02  0.59301949589E+02  0.50000010143E+02 0.  0.
         12    1    1    2    0    0  0.14999374440E+02 -0.20029849056E+02 -0.19762189251E+02  0.31886050411E+02  0.00000000000E+00 0. -1.
         11    1    3    3    0    0 -0.60518452125E+01 -0.31730223404E+01  0.15506529632E+02  0.16945364049E+02  0.51100000000E-03 0.  1.
        -11    1    3    3    0    0  0.69901995519E+01  0.22178506320E+02 -0.51564128494E+01  0.23818850226E+02  0.51100000000E-03 0. -1.
         12    1    3    3    0    0 -0.15937728779E+02  0.10243650769E+01  0.94120724679E+01  0.18537735315E+02  0.00000000000E+00 0. -1.
</event>
<event>
 7    1  0.6246445E-012  0.5930194E+02  0.7816164E-02  0.1266605E+00
        -11   -1    0    0    0    0  0.00000000000E+00  0.00000000000E+00  0.45593999997E+02  0.45594000000E+02  0.51100000000E-03 0.  1.
         11   -1    0    0    0    0 -0.00000000000E+00 -0.00000000000E+00 -0.45593999997E+02  0.45594000000E+02  0.51100000000E-03 0. -1.
    9900012    2    1    2    0    0  0.28815246594E+02 -0.53583212811E+01  0.12557490833E+02  0.59301943185E+02  0.49999998463E+02 0.  0.
         12    1    1    2    0    0 -0.28815246594E+02  0.53583212811E+01 -0.12557490833E+02  0.31886056815E+02  0.00000000000E+00 0. -1.
         11    1    3    3    0    0  0.73787086229E+01 -0.36420435714E+01  0.14546085166E+02  0.16712223557E+02  0.51100000000E-03 0. -1.
        -11    1    3    3    0    0  0.12124924421E+02 -0.39895553201E+01  0.17035687448E+02  0.21287202516E+02  0.51100000000E-03 0.  1.
         12    1    3    3    0    0  0.93116135503E+01  0.22732776105E+01 -0.19024281781E+02  0.21302517112E+02  0.00000000000E+00 0. -1.
</event>
<event>
 7    1  0.6246445E-012  0.5930196E+02  0.7816164E-02  0.1266605E+00
        -11   -1    0    0    0    0  0.00000000000E+00  0.00000000000E+00  0.45593999997E+02  0.45594000000E+02  0.51100000000E-03 0. -1.
         11   -1    0    0    0    0 -0.00000000000E+00 -0.00000000000E+00 -0.45593999997E+02  0.45594000000E+02  0.51100000000E-03 0.  1.
    9900012    2    1    2    0    0  0.25087659955E+02  0.18972117720E+02 -0.52332890324E+01  0.59301964704E+02  0.50000037709E+02 0.  0.
         12    1    1    2    0    0 -0.25087659955E+02 -0.18972117720E+02  0.52332890324E+01  0.31886035296E+02  0.00000000000E+00 0. -1.
         11    1    3    3    0    0  0.11293942371E+02  0.42526212425E+01  0.39539965601E+01  0.12699291743E+02  0.51100000000E-03 0. -1.
        -11    1    3    3    0    0 -0.79386865366E+01 -0.96671056732E+00  0.10606602037E+02  0.13283722380E+02  0.51100000000E-03 0.  1.
         12    1    3    3    0    0  0.21732404120E+02  0.15686207045E+02 -0.19793887630E+02  0.33318950581E+02  0.00000000000E+00 0. -1.
</event>
<event>
 7    1  0.6246445E-012  0.5930193E+02  0.7816164E-02  0.1266605E+00
        -11   -1    0    0    0    0  0.00000000000E+00  0.00000000000E+00  0.45593999997E+02  0.45594000000E+02  0.51100000000E-03 0. -1.
         11   -1    0    0    0    0 -0.00000000000E+00 -0.00000000000E+00 -0.45593999997E+02  0.45594000000E+02  0.51100000000E-03 0.  1.
    9900012    2    1    2    0    0  0.15769320484E+02 -0.25020508776E+02 -0.11917384593E+02  0.59301931201E+02  0.49999976607E+02 0.  0.
         12    1    1    2    0    0 -0.15769320484E+02  0.25020508776E+02  0.11917384593E+02  0.31886068799E+02  0.00000000000E+00 0. -1.
         11    1    3    3    0    0  0.11226430594E+02  0.11316854758E+02  0.11287266868E+01  0.15980549731E+02  0.51100000000E-03 0. -1.
        -11    1    3    3    0    0  0.47989506240E+01 -0.78301405408E+01 -0.11574132863E+02  0.14775032310E+02  0.51100000000E-03 0.  1.
        -12    1    3    3    0    0 -0.25606073431E+00 -0.28507222993E+02 -0.14719784172E+01  0.28546349160E+02  0.00000000000E+00 0.  1.
</event>
<event>
 7    1  0.6246445E-012  0.5930194E+02  0.7816164E-02  0.1266605E+00
        -11   -1    0    0    0    0  0.00000000000E+00  0.00000000000E+00  0.45593999997E+02  0.45594000000E+02  0.51100000000E-03 0. -1.
         11   -1    0    0    0    0 -0.00000000000E+00 -0.00000000000E+00 -0.45593999997E+02  0.45594000000E+02  0.51100000000E-03 0.  1.
    9900012    2    1    2    0    0 -0.56660669514E+01 -0.30860934948E+02  0.56761857428E+01  0.59301941838E+02  0.49999996006E+02 0.  0.
         12    1    1    2    0    0  0.56660669514E+01  0.30860934948E+02 -0.56761857428E+01  0.31886058162E+02  0.00000000000E+00 0. -1.
         11    1    3    3    0    0  0.10969934882E+02 -0.19497728576E+02  0.31263547949E+01  0.22589267042E+02  0.51100000000E-03 0. -1.
        -11    1    3    3    0    0  0.43407825754E+01 -0.14182783691E+02 -0.22713423910E+01  0.15005090573E+02  0.51100000000E-03 0.  1.
        -12    1    3    3    0    0 -0.20976784409E+02  0.28195773193E+01  0.48211733389E+01  0.21707584222E+02  0.00000000000E+00 0.  1.
</event>
<event>
 7    1  0.6246445E-012  0.5930188E+02  0.7816164E-02  0.1266605E+00
        -11   -1    0    0    0    0  0.00000000000E+00  0.00000000000E+00  0.45593999997E+02  0.45594000000E+02  0.51100000000E-03 0. -1.
         11   -1    0    0    0    0 -0.00000000000E+00 -0.00000000000E+00 -0.45593999997E+02  0.45594000000E+02  0.51100000000E-03 0.  1.
    9900012    2    1    2    0    0  0.14476753708E+02  0.56954194047E+01 -0.27833621451E+02  0.59301879458E+02  0.49999882240E+02 0.  0.
         12    1    1    2    0    0 -0.14476753708E+02 -0.56954194047E+01  0.27833621451E+02  0.31886120542E+02  0.00000000000E+00 0. -1.
         11    1    3    3    0    0  0.91083782319E+01 -0.52354434128E+01 -0.11434941154E+02  0.15528370848E+02  0.51100000000E-03 0. -1.
        -11    1    3    3    0    0 -0.40322273900E+01  0.21693126594E+02 -0.19156279173E+02  0.29220089513E+02  0.51100000000E-03 0.  1.
         12    1    3    3    0    0  0.94006028659E+01 -0.10762263777E+02  0.27575988758E+01  0.14553419097E+02  0.00000000000E+00 0. -1.
</event>
<event>
 7    1  0.6246445E-012  0.5930177E+02  0.7816164E-02  0.1266605E+00
        -11   -1    0    0    0    0  0.00000000000E+00  0.00000000000E+00  0.45593999997E+02  0.45594000000E+02  0.51100000000E-03 0. -1.
         11   -1    0    0    0    0 -0.00000000000E+00 -0.00000000000E+00 -0.45593999997E+02  0.45594000000E+02  0.51100000000E-03 0.  1.
    9900012    2    1    2    0    0  0.14808780096E+02  0.28237894591E+02 -0.23012412313E+00  0.59301770747E+02  0.49999683976E+02 0.  0.
         12    1    1    2    0    0 -0.14808780096E+02 -0.28237894591E+02  0.23012412313E+00  0.31886229253E+02  0.00000000000E+00 0. -1.
         11    1    3    3    0    0  0.13906267497E+02  0.71044652818E+01 -0.82801151286E+01  0.17675350335E+02  0.51100000000E-03 0. -1.
        -11    1    3    3    0    0  0.12631255707E+02 -0.18078488586E+01 -0.37323684555E+01  0.13294642259E+02  0.51100000000E-03 0.  1.
         12    1    3    3    0    0 -0.11728743108E+02  0.22941278168E+02  0.11782359461E+02  0.28331778154E+02  0.00000000000E+00 0. -1.
</event>
<event>
 7    1  0.6246445E-012  0.5930197E+02  0.7816164E-02  0.1266605E+00
        -11   -1    0    0    0    0  0.00000000000E+00  0.00000000000E+00  0.45593999997E+02  0.45594000000E+02  0.51100000000E-03 0.  1.
         11   -1    0    0    0    0 -0.00000000000E+00 -0.00000000000E+00 -0.45593999997E+02  0.45594000000E+02  0.51100000000E-03 0. -1.
    9900012    2    1    2    0    0  0.87559192195E+01  0.27795453864E+02  0.12940839780E+02  0.59301973106E+02  0.50000053032E+02 0.  0.
         12    1    1    2    0    0 -0.87559192195E+01 -0.27795453864E+02 -0.12940839780E+02  0.31886026894E+02  0.00000000000E+00 0. -1.
         11    1    3    3    0    0  0.60808472780E+01  0.48464088200E+01 -0.81535648333E+01  0.11266987256E+02  0.51100000000E-03 0. -1.
        -11    1    3    3    0    0  0.12989916702E+02 -0.45662579246E+01  0.68895440121E+01  0.15396573135E+02  0.51100000000E-03 0.  1.
         12    1    3    3    0    0 -0.10314844760E+02  0.27515302968E+02  0.14204860601E+02  0.32638412715E+02  0.00000000000E+00 0. -1.
</event>
<event>
 7    1  0.6246445E-012  0.5930192E+02  0.7816164E-02  0.1266605E+00
        -11   -1    0    0    0    0  0.00000000000E+00  0.00000000000E+00  0.45593999997E+02  0.45594000000E+02  0.51100000000E-03 0. -1.
         11   -1    0    0    0    0 -0.00000000000E+00 -0.00000000000E+00 -0.45593999997E+02  0.45594000000E+02  0.51100000000E-03 0.  1.
    9900012    2    1    2    0    0 -0.81781807506E+01 -0.14575779740E+02 -0.27154850318E+02  0.59301923239E+02  0.49999962086E+02 0.  0.
         12    1    1    2    0    0  0.81781807506E+01  0.14575779740E+02  0.27154850318E+02  0.31886076761E+02  0.00000000000E+00 0. -1.
         11    1    3    3    0    0  0.62558994449E+01 -0.93685886781E+01  0.11225091560E+02  0.15903125871E+02  0.51100000000E-03 0. -1.
        -11    1    3    3    0    0 -0.88709969239E+01  0.28698012968E+01 -0.11619232672E+02  0.14897547250E+02  0.51100000000E-03 0.  1.
        -12    1    3    3    0    0 -0.55630832717E+01 -0.80769923589E+01 -0.26760709206E+02  0.28501250117E+02  0.00000000000E+00 0.  1.
</event>
<event>
 7    1  0.6246445E-012  0.5930194E+02  0.7816164E-02  0.1266605E+00
        -11   -1    0    0    0    0  0.00000000000E+00  0.00000000000E+00  0.45593999997E+02  0.45594000000E+02  0.51100000000E-03 0. -1.
         11   -1    0    0    0    0 -0.00000000000E+00 -0.00000000000E+00 -0.45593999997E+02  0.45594000000E+02  0.51100000000E-03 0.  1.
    9900012    2    1    2    0    0  0.30329408603E+02 -0.54593445639E+01  0.81879863848E+01  0.59301943638E+02  0.49999999289E+02 0.  0.
         12    1    1    2    0    0 -0.30329408603E+02  0.54593445639E+01 -0.81879863848E+01  0.31886056362E+02  0.00000000000E+00 0. -1.
         11    1    3    3    0    0  0.55744006584E+01  0.60422038347E+01  0.13419403762E+02  0.15737298608E+02  0.51100000000E-03 0. -1.
        -11    1    3    3    0    0  0.30364127163E+02 -0.16773067632E+02 -0.75987412002E+01  0.35511362748E+02  0.51100000000E-03 0.  1.
         12    1    3    3    0    0 -0.56091192177E+01  0.52715192336E+01  0.23673238233E+01  0.80532822820E+01  0.00000000000E+00 0. -1.
</event>
<event>
 7    1  0.6246445E-012  0.5930192E+02  0.7816164E-02  0.1266605E+00
        -11   -1    0    0    0    0  0.00000000000E+00  0.00000000000E+00  0.45593999997E+02  0.45594000000E+02  0.51100000000E-03 0.  1.
         11   -1    0    0    0    0 -0.00000000000E+00 -0.00000000000E+00 -0.45593999997E+02  0.45594000000E+02  0.51100000000E-03 0. -1.
    9900012    2    1    2    0    0 -0.11325142417E+02  0.27280857338E+02  0.12009069672E+02  0.59301924948E+02  0.49999965202E+02 0.  0.
         12    1    1    2    0    0  0.11325142417E+02 -0.27280857338E+02 -0.12009069672E+02  0.31886075052E+02  0.00000000000E+00 0. -1.
         11    1    3    3    0    0  0.38070176209E+01 -0.90312086084E+01 -0.46280374833E+01  0.10838581240E+02  0.51100000000E-03 0. -1.
        -11    1    3    3    0    0  0.48053856677E+01  0.31504805767E+01  0.60578540700E+01  0.83495422314E+01  0.51100000000E-03 0.  1.
        -12    1    3    3    0    0 -0.19937545706E+02  0.33161585370E+02  0.10579253085E+02  0.40113801476E+02  0.00000000000E+00 0.  1.
</event>
<event>
 7    1  0.6246445E-012  0.5930197E+02  0.7816164E-02  0.1266605E+00
        -11   -1    0    0    0    0  0.00000000000E+00  0.00000000000E+00  0.45593999997E+02  0.45594000000E+02  0.51100000000E-03 0. -1.
         11   -1    0    0    0    0 -0.00000000000E+00 -0.00000000000E+00 -0.45593999997E+02  0.45594000000E+02  0.51100000000E-03 0.  1.
    9900012    2    1    2    0    0  0.31488555895E+02  0.20751417918E+01 -0.45698830602E+01  0.59301965486E+02  0.50000039135E+02 0.  0.
         12    1    1    2    0    0 -0.31488555895E+02 -0.20751417918E+01  0.45698830602E+01  0.31886034514E+02  0.00000000000E+00 0. -1.
         11    1    3    3    0    0  0.24731518992E+02  0.12481255101E+02  0.15811893148E+02  0.31897425064E+02  0.51100000000E-03 0. -1.
        -11    1    3    3    0    0  0.29944320940E+01  0.29458992829E+01 -0.67858794134E+01  0.79807960646E+01  0.51100000000E-03 0.  1.
        -12    1    3    3    0    0  0.37626048096E+01 -0.13352012592E+02 -0.13595896795E+02  0.19423744358E+02  0.00000000000E+00 0.  1.
</event>
<event>
 7    1  0.6246445E-012  0.5930193E+02  0.7816164E-02  0.1266605E+00
        -11   -1    0    0    0    0  0.00000000000E+00  0.00000000000E+00  0.45593999997E+02  0.45594000000E+02  0.51100000000E-03 0.  1.
         11   -1    0    0    0    0 -0.00000000000E+00 -0.00000000000E+00 -0.45593999997E+02  0.45594000000E+02  0.51100000000E-03 0. -1.
    9900012    2    1    2    0    0  0.25633495144E+02  0.17659035689E+02  0.69140205906E+01  0.59301932580E+02  0.49999979122E+02 0.  0.
         12    1    1    2    0    0 -0.25633495144E+02 -0.17659035689E+02 -0.69140205906E+01  0.31886067420E+02  0.00000000000E+00 0. -1.
         11    1    3    3    0    0 -0.16446178601E+01 -0.15996826842E+01  0.35671719751E+01  0.42412814993E+01  0.51100000000E-03 0. -1.
        -11    1    3    3    0    0 -0.14506551489E+01 -0.76254653450E+01  0.12453573186E+02  0.14674590538E+02  0.51100000000E-03 0.  1.
        -12    1    3    3    0    0  0.28728768153E+02  0.26884183718E+02 -0.91067245705E+01  0.40386060543E+02  0.00000000000E+00 0.  1.
</event>
<event>
 7    1  0.6246445E-012  0.5930195E+02  0.7816164E-02  0.1266605E+00
        -11   -1    0    0    0    0  0.00000000000E+00  0.00000000000E+00  0.45593999997E+02  0.45594000000E+02  0.51100000000E-03 0. -1.
         11   -1    0    0    0    0 -0.00000000000E+00 -0.00000000000E+00 -0.45593999997E+02  0.45594000000E+02  0.51100000000E-03 0.  1.
    9900012    2    1    2    0    0  0.16743230582E+02 -0.21438493164E+02  0.16636567932E+02  0.59301950511E+02  0.50000011824E+02 0.  0.
         12    1    1    2    0    0 -0.16743230582E+02  0.21438493164E+02 -0.16636567932E+02  0.31886049489E+02  0.00000000000E+00 0. -1.
         11    1    3    3    0    0 -0.94486210155E+01 -0.85055924817E+01  0.28285252074E+01  0.13023904855E+02  0.51100000000E-03 0. -1.
        -11    1    3    3    0    0  0.25617668712E+02 -0.49974706792E+01 -0.43433861720E+01  0.26459491059E+02  0.51100000000E-03 0.  1.
         12    1    3    3    0    0  0.57418288577E+00 -0.79354300035E+01  0.18151428896E+02  0.19818554597E+02  0.00000000000E+00 0. -1.
</event>
<event>
 7    1  0.6246445E-012  0.5930193E+02  0.7816164E-02  0.1266605E+00
        -11   -1    0    0    0    0  0.00000000000E+00  0.00000000000E+00  0.45593999997E+02  0.45594000000E+02  0.51100000000E-03 0.  1.
         11   -1    0    0    0    0 -0.00000000000E+00 -0.00000000000E+00 -0.45593999997E+02  0.45594000000E+02  0.51100000000E-03 0. -1.
    9900012    2    1    2    0    0  0.12247854365E+02  0.84439440375E+01  0.28203037065E+02  0.59301930515E+02  0.49999975357E+02 0.  0.
         12    1    1    2    0    0 -0.12247854365E+02 -0.84439440375E+01 -0.28203037065E+02  0.31886069485E+02  0.00000000000E+00 0. -1.
         11    1    3    3    0    0  0.12202337379E+02  0.22016579302E+01  0.23306532914E+02  0.26399598706E+02  0.51100000000E-03 0.  1.
        -11    1    3    3    0    0 -0.15290430744E+02  0.17124591278E+01  0.67553387738E+01  0.16803701699E+02  0.51100000000E-03 0. -1.
         12    1    3    3    0    0  0.15335947730E+02  0.45298269795E+01 -0.18588346220E+01  0.16098630110E+02  0.00000000000E+00 0. -1.
</event>
<event>
 7    1  0.6246445E-012  0.5930198E+02  0.7816164E-02  0.1266605E+00
        -11   -1    0    0    0    0  0.00000000000E+00  0.00000000000E+00  0.45593999997E+02  0.45594000000E+02  0.51100000000E-03 0.  1.
         11   -1    0    0    0    0 -0.00000000000E+00 -0.00000000000E+00 -0.45593999997E+02  0.45594000000E+02  0.51100000000E-03 0. -1.
    9900012    2    1    2    0    0 -0.15255171468E+02 -0.19316082341E+02  0.20270344293E+02  0.59301981884E+02  0.50000069041E+02 0.  0.
         12    1    1    2    0    0  0.15255171468E+02  0.19316082341E+02 -0.20270344293E+02  0.31886018116E+02  0.00000000000E+00 0. -1.
         11    1    3    3    0    0 -0.91634640078E+01  0.60491641274E+01  0.26012251269E+01  0.11283963474E+02  0.51100000000E-03 0. -1.
        -11    1    3    3    0    0  0.80980781393E+01  0.80073214848E+00  0.16302657040E+02  0.18220775734E+02  0.51100000000E-03 0.  1.
         12    1    3    3    0    0 -0.14189785600E+02 -0.26165978617E+02  0.13664621262E+01  0.29797242676E+02  0.00000000000E+00 0. -1.
</event>
<event>
 7    1  0.6246445E-012  0.5930192E+02  0.7816164E-02  0.1266605E+00
        -11   -1    0    0    0    0  0.00000000000E+00  0.00000000000E+00  0.45593999997E+02  0.45594000000E+02  0.51100000000E-03 0. -1.
         11   -1    0    0    0    0 -0.00000000000E+00 -0.00000000000E+00 -0.45593999997E+02  0.45594000000E+02  0.51100000000E-03 0.  1.
    9900012    2    1    2    0    0 -0.15683779479E+02 -0.15554640736E+02 -0.22995533579E+02  0.59301916018E+02  0.49999948916E+02 0.  0.
         12    1    1    2    0    0  0.15683779479E+02  0.15554640736E+02  0.22995533579E+02  0.31886083982E+02  0.00000000000E+00 0. -1.
         11    1    3    3    0    0  0.24822106413E+01 -0.11199345402E+02  0.20844786361E+00  0.11473018690E+02  0.51100000000E-03 0. -1.
        -11    1    3    3    0    0  0.42544632359E+01 -0.12508582299E+02 -0.19693680998E+02  0.23715104049E+02  0.51100000000E-03 0.  1.
        -12    1    3    3    0    0 -0.22420453356E+02  0.81532869652E+01 -0.35103004443E+01  0.24113793278E+02  0.00000000000E+00 0.  1.
</event>
<event>
 7    1  0.6246445E-012  0.5930196E+02  0.7816164E-02  0.1266605E+00
        -11   -1    0    0    0    0  0.00000000000E+00  0.00000000000E+00  0.45593999997E+02  0.45594000000E+02  0.51100000000E-03 0.  1.
         11   -1    0    0    0    0 -0.00000000000E+00 -0.00000000000E+00 -0.45593999997E+02  0.45594000000E+02  0.51100000000E-03 0. -1.
    9900012    2    1    2    0    0 -0.12843867254E+02 -0.10266813145E+02  0.27319352225E+02  0.59301962552E+02  0.50000033783E+02 0.  0.
         12    1    1    2    0    0  0.12843867254E+02  0.10266813145E+02 -0.27319352225E+02  0.31886037448E+02  0.00000000000E+00 0. -1.
         11    1    3    3    0    0  0.23818289217E+01 -0.14071805513E+02  0.35324269129E+01  0.14702614039E+02  0.51100000000E-03 0. -1.
        -11    1    3    3    0    0  0.20995651777E+01 -0.68044809543E+01  0.23207493299E+02  0.24275437802E+02  0.51100000000E-03 0.  1.
        -12    1    3    3    0    0 -0.17325261353E+02  0.10609473323E+02  0.57943201277E+00  0.20323910711E+02  0.00000000000E+00 0.  1.
</event>
<event>
 7    1  0.6246445E-012  0.5930193E+02  0.7816164E-02  0.1266605E+00
        -11   -1    0    0    0    0  0.00000000000E+00  0.00000000000E+00  0.45593999997E+02  0.45594000000E+02  0.51100000000E-03 0.  1.
         11   -1    0    0    0    0 -0.00000000000E+00 -0.00000000000E+00 -0.45593999997E+02  0.45594000000E+02  0.51100000000E-03 0. -1.
    9900012    2    1    2    0    0 -0.19292183048E+02  0.21161569775E+02  0.14025719513E+02  0.59301934549E+02  0.49999982714E+02 0.  0.
         12    1    1    2    0    0  0.19292183048E+02 -0.21161569775E+02 -0.14025719513E+02  0.31886065451E+02  0.00000000000E+00 0. -1.
         11    1    3    3    0    0 -0.14867573594E+01  0.20398630376E+02  0.14153461668E+02  0.24872375160E+02  0.51100000000E-03 0. -1.
        -11    1    3    3    0    0 -0.87211498822E+00 -0.51783419072E+01  0.11776857944E+02  0.12894579976E+02  0.51100000000E-03 0.  1.
         12    1    3    3    0    0 -0.16933310700E+02  0.59412813061E+01 -0.11904600099E+02  0.21534979413E+02  0.00000000000E+00 0. -1.
</event>
<event>
 7    1  0.6246445E-012  0.5930198E+02  0.7816164E-02  0.1266605E+00
        -11   -1    0    0    0    0  0.00000000000E+00  0.00000000000E+00  0.45593999997E+02  0.45594000000E+02  0.51100000000E-03 0.  1.
         11   -1    0    0    0    0 -0.00000000000E+00 -0.00000000000E+00 -0.45593999997E+02  0.45594000000E+02  0.51100000000E-03 0. -1.
    9900012    2    1    2    0    0  0.49278774643E+01  0.29904317405E+02  0.99078957993E+01  0.59301975241E+02  0.50000056926E+02 0.  0.
         12    1    1    2    0    0 -0.49278774643E+01 -0.29904317405E+02 -0.99078957993E+01  0.31886024759E+02  0.00000000000E+00 0. -1.
         11    1    3    3    0    0  0.14219818691E+02  0.24605069079E+02 -0.12012452190E+02  0.30853065907E+02  0.51100000000E-03 0. -1.
        -11    1    3    3    0    0 -0.10184358567E+01 -0.47500888315E+01  0.39601736200E+01  0.62676575260E+01  0.51100000000E-03 0.  1.
        -12    1    3    3    0    0 -0.82735053700E+01  0.10049337158E+02  0.17960174369E+02  0.22181251808E+02  0.00000000000E+00 0.  1.
</event>
<event>
 7    1  0.6246445E-012  0.5930193E+02  0.7816164E-02  0.1266605E+00
        -11   -1    0    0    0    0  0.00000000000E+00  0.00000000000E+00  0.45593999997E+02  0.45594000000E+02  0.51100000000E-03 0.  1.
         11   -1    0    0    0    0 -0.00000000000E+00 -0.00000000000E+00 -0.45593999997E+02  0.45594000000E+02  0.51100000000E-03 0. -1.
    9900012    2    1    2    0    0 -0.19749242225E+02 -0.21469648554E+02  0.12874118294E+02  0.59301932520E+02  0.49999979013E+02 0.  0.
         12    1    1    2    0    0  0.19749242225E+02  0.21469648554E+02 -0.12874118294E+02  0.31886067480E+02  0.00000000000E+00 0. -1.
         11    1    3    3    0    0 -0.28566903510E+01  0.50215332731E+01 -0.26170208977E+01  0.63423398533E+01  0.51100000000E-03 0. -1.
        -11    1    3    3    0    0 -0.15816190971E+02  0.51250689455E+01  0.13224446963E+02  0.21243922102E+02  0.51100000000E-03 0.  1.
        -12    1    3    3    0    0 -0.10763609024E+01 -0.31616250772E+02  0.22666922289E+01  0.31715670565E+02  0.00000000000E+00 0.  1.
</event>
<event>
 7    1  0.6246445E-012  0.5930195E+02  0.7816164E-02  0.1266605E+00
        -11   -1    0    0    0    0  0.00000000000E+00  0.00000000000E+00  0.45593999997E+02  0.45594000000E+02  0.51100000000E-03 0. -1.
         11   -1    0    0    0    0 -0.00000000000E+00 -0.00000000000E+00 -0.45593999997E+02  0.45594000000E+02  0.51100000000E-03 0.  1.
    9900012    2    1    2    0    0  0.61625774606E+01  0.27925317429E+02  0.14103874962E+02  0.59301952842E+02  0.50000016074E+02 0.  0.
         12    1    1    2    0    0 -0.61625774606E+01 -0.27925317429E+02 -0.14103874962E+02  0.31886047158E+02  0.00000000000E+00 0. -1.
         11    1    3    3    0    0 -0.15668055450E+02  0.12703032645E+02  0.17456811287E+02  0.26675742924E+02  0.51100000000E-03 0. -1.
        -11    1    3    3    0    0  0.48422262330E+01  0.45331490903E+01  0.73326443899E+01  0.98875815838E+01  0.51100000000E-03 0.  1.
        -12    1    3    3    0    0  0.16988406678E+02  0.10689135693E+02 -0.10685580715E+02  0.22738628334E+02  0.00000000000E+00 0.  1.
</event>
<event>
 7    1  0.6246445E-012  0.5930194E+02  0.7816164E-02  0.1266605E+00
        -11   -1    0    0    0    0  0.00000000000E+00  0.00000000000E+00  0.45593999997E+02  0.45594000000E+02  0.51100000000E-03 0.  1.
         11   -1    0    0    0    0 -0.00000000000E+00 -0.00000000000E+00 -0.45593999997E+02  0.45594000000E+02  0.51100000000E-03 0. -1.
    9900012    2    1    2    0    0  0.10138489379E+02  0.18925176275E+02  0.23574758910E+02  0.59301944715E+02  0.50000001254E+02 0.  0.
         12    1    1    2    0    0 -0.10138489379E+02 -0.18925176275E+02 -0.23574758910E+02  0.31886055285E+02  0.00000000000E+00 0. -1.
         11    1    3    3    0    0 -0.69346294762E+01  0.40788709186E+01  0.32993869477E+01  0.86955292211E+01  0.51100000000E-03 0.  1.
        -11    1    3    3    0    0  0.54881230954E+01 -0.11644973208E+02  0.17265465331E+02  0.21536508293E+02  0.51100000000E-03 0. -1.
         12    1    3    3    0    0  0.11584995760E+02  0.26491278564E+02  0.30099066318E+01  0.29069907201E+02  0.00000000000E+00 0. -1.
</event>
<event>
 7    1  0.6246445E-012  0.5930196E+02  0.7816164E-02  0.1266605E+00
        -11   -1    0    0    0    0  0.00000000000E+00  0.00000000000E+00  0.45593999997E+02  0.45594000000E+02  0.51100000000E-03 0.  1.
         11   -1    0    0    0    0 -0.00000000000E+00 -0.00000000000E+00 -0.45593999997E+02  0.45594000000E+02  0.51100000000E-03 0. -1.
    9900012    2    1    2    0    0  0.16039180472E+02 -0.53316103710E+01  0.27037722203E+02  0.59301956010E+02  0.50000021853E+02 0.  0.
         12    1    1    2    0    0 -0.16039180472E+02  0.53316103710E+01 -0.27037722203E+02  0.31886043990E+02  0.00000000000E+00 0. -1.
         11    1    3    3    0    0 -0.79493646082E+01 -0.18712511016E+01  0.29714416981E+01  0.86904225666E+01  0.51100000000E-03 0. -1.
        -11    1    3    3    0    0 -0.58502100146E+01 -0.19432752369E+01  0.19420239081E+02  0.20375155511E+02  0.51100000000E-03 0.  1.
        -12    1    3    3    0    0  0.29838755095E+02 -0.15170840324E+01  0.46460414240E+01  0.30236377933E+02  0.00000000000E+00 0.  1.
</event>
<event>
 7    1  0.6246445E-012  0.5930189E+02  0.7816164E-02  0.1266605E+00
        -11   -1    0    0    0    0  0.00000000000E+00  0.00000000000E+00  0.45593999997E+02  0.45594000000E+02  0.51100000000E-03 0.  1.
         11   -1    0    0    0    0 -0.00000000000E+00 -0.00000000000E+00 -0.45593999997E+02  0.45594000000E+02  0.51100000000E-03 0. -1.
    9900012    2    1    2    0    0  0.23631537902E+02  0.21384297863E+02  0.99318725014E+00  0.59301887042E+02  0.49999896071E+02 0.  0.
         12    1    1    2    0    0 -0.23631537902E+02 -0.21384297863E+02 -0.99318725014E+00  0.31886112958E+02  0.00000000000E+00 0. -1.
         11    1    3    3    0    0  0.28725919031E+01  0.12464208277E+02  0.32045481325E+01  0.13186258044E+02  0.51100000000E-03 0.  1.
        -11    1    3    3    0    0  0.13312549893E+02  0.16856661868E+02 -0.17252445023E+02  0.27550279373E+02  0.51100000000E-03 0. -1.
        -12    1    3    3    0    0  0.74463961057E+01 -0.79365722827E+01  0.15041084140E+02  0.18565349625E+02  0.00000000000E+00 0.  1.
</event>
<event>
 7    1  0.6246445E-012  0.5930176E+02  0.7816164E-02  0.1266605E+00
        -11   -1    0    0    0    0  0.00000000000E+00  0.00000000000E+00  0.45593999997E+02  0.45594000000E+02  0.51100000000E-03 0. -1.
         11   -1    0    0    0    0 -0.00000000000E+00 -0.00000000000E+00 -0.45593999997E+02  0.45594000000E+02  0.51100000000E-03 0.  1.
    9900012    2    1    2    0    0  0.20415202646E+02  0.10601520733E+02 -0.22080757669E+02  0.59301755314E+02  0.49999655830E+02 0.  0.
         12    1    1    2    0    0 -0.20415202646E+02 -0.10601520733E+02  0.22080757669E+02  0.31886244686E+02  0.00000000000E+00 0. -1.
         11    1    3    3    0    0  0.81010230246E+01  0.28481456059E+01 -0.10726773490E+01  0.86538514197E+01  0.51100000000E-03 0. -1.
        -11    1    3    3    0    0  0.12673931919E+02  0.21112524057E+02  0.12827972028E+01  0.24657915388E+02  0.51100000000E-03 0.  1.
        -12    1    3    3    0    0 -0.35975229744E+00 -0.13359148930E+02 -0.22290877523E+02  0.25989988507E+02  0.00000000000E+00 0.  1.
</event>
<event>
 7    1  0.6246445E-012  0.5930193E+02  0.7816164E-02  0.1266605E+00
        -11   -1    0    0    0    0  0.00000000000E+00  0.00000000000E+00  0.45593999997E+02  0.45594000000E+02  0.51100000000E-03 0.  1.
         11   -1    0    0    0    0 -0.00000000000E+00 -0.00000000000E+00 -0.45593999997E+02  0.45594000000E+02  0.51100000000E-03 0. -1.
    9900012    2    1    2    0    0  0.28298301384E+02  0.13340930847E+02  0.61601437057E+01  0.59301926746E+02  0.49999968483E+02 0.  0.
         12    1    1    2    0    0 -0.28298301384E+02 -0.13340930847E+02 -0.61601437057E+01  0.31886073254E+02  0.00000000000E+00 0. -1.
         11    1    3    3    0    0 -0.54969251043E+01  0.67839476638E+01 -0.10811496281E+02  0.13896999086E+02  0.51100000000E-03 0. -1.
        -11    1    3    3    0    0  0.24008436500E+02  0.14777789838E+02  0.66233752016E+01  0.28959578640E+02  0.51100000000E-03 0.  1.
        -12    1    3    3    0    0  0.97867899880E+01 -0.82208066556E+01  0.10348264785E+02  0.16445349020E+02  0.00000000000E+00 0.  1.
</event>
<event>
 7    1  0.6246445E-012  0.5930195E+02  0.7816164E-02  0.1266605E+00
        -11   -1    0    0    0    0  0.00000000000E+00  0.00000000000E+00  0.45593999997E+02  0.45594000000E+02  0.51100000000E-03 0.  1.
         11   -1    0    0    0    0 -0.00000000000E+00 -0.00000000000E+00 -0.45593999997E+02  0.45594000000E+02  0.51100000000E-03 0. -1.
    9900012    2    1    2    0    0  0.10473552851E+02 -0.29977127576E+02 -0.28976606022E+01  0.59301954087E+02  0.50000018345E+02 0.  0.
         12    1    1    2    0    0 -0.10473552851E+02  0.29977127576E+02  0.28976606022E+01  0.31886045913E+02  0.00000000000E+00 0. -1.
         11    1    3    3    0    0  0.18491279814E+01 -0.28918077684E+02 -0.11022437017E+02  0.31002719385E+02  0.51100000000E-03 0. -1.
        -11    1    3    3    0    0  0.95214929798E+00 -0.61164820096E+01 -0.77730486804E+01  0.99367110509E+01  0.51100000000E-03 0.  1.
        -12    1    3    3    0    0  0.76722755714E+01  0.50574321180E+01  0.15897825095E+02  0.18362523651E+02  0.00000000000E+00 0.  1.
</event>
<event>
 7    1  0.6246445E-012  0.5930195E+02  0.7816164E-02  0.1266605E+00
        -11   -1    0    0    0    0  0.00000000000E+00  0.00000000000E+00  0.45593999997E+02  0.45594000000E+02  0.51100000000E-03 0. -1.
         11   -1    0    0    0    0 -0.00000000000E+00 -0.00000000000E+00 -0.45593999997E+02  0.45594000000E+02  0.51100000000E-03 0.  1.
    9900012    2    1    2    0    0 -0.21361412893E+02  0.10295876969E+02 -0.21316780469E+02  0.59301950184E+02  0.50000011227E+02 0.  0.
         12    1    1    2    0    0  0.21361412893E+02 -0.10295876969E+02  0.21316780469E+02  0.31886049816E+02  0.00000000000E+00 0. -1.
         11    1    3    3    0    0  0.55273477145E+01 -0.44182050718E+01 -0.10420500288E+02  0.12595988858E+02  0.51100000000E-03 0. -1.
        -11    1    3    3    0    0  0.36876417410E+01  0.13836299676E+02 -0.67730061910E+01  0.15840312606E+02  0.51100000000E-03 0.  1.
         12    1    3    3    0    0 -0.30576402349E+02  0.87778236433E+00 -0.41232739899E+01  0.30865648719E+02  0.00000000000E+00 0. -1.
</event>
<event>
 7    1  0.6246445E-012  0.5930196E+02  0.7816164E-02  0.1266605E+00
        -11   -1    0    0    0    0  0.00000000000E+00  0.00000000000E+00  0.45593999997E+02  0.45594000000E+02  0.51100000000E-03 0. -1.
         11   -1    0    0    0    0 -0.00000000000E+00 -0.00000000000E+00 -0.45593999997E+02  0.45594000000E+02  0.51100000000E-03 0.  1.
    9900012    2    1    2    0    0  0.14488826742E+02 -0.12414067385E+02 -0.25547687272E+02  0.59301960823E+02  0.50000030631E+02 0.  0.
         12    1    1    2    0    0 -0.14488826742E+02  0.12414067385E+02  0.25547687272E+02  0.31886039177E+02  0.00000000000E+00 0. -1.
         11    1    3    3    0    0  0.15654541984E+02  0.22395852822E+00 -0.69667499844E+01  0.17136232018E+02  0.51100000000E-03 0.  1.
        -11    1    3    3    0    0  0.72361261855E+01 -0.65227735449E+01  0.86445459509E+01  0.13024449004E+02  0.51100000000E-03 0. -1.
        -12    1    3    3    0    0 -0.84018414276E+01 -0.61152523685E+01 -0.27225483239E+02  0.29141279802E+02  0.00000000000E+00 0.  1.
</event>
<event>
 7    1  0.6246445E-012  0.5930186E+02  0.7816164E-02  0.1266605E+00
        -11   -1    0    0    0    0  0.00000000000E+00  0.00000000000E+00  0.45593999997E+02  0.45594000000E+02  0.51100000000E-03 0. -1.
         11   -1    0    0    0    0 -0.00000000000E+00 -0.00000000000E+00 -0.45593999997E+02  0.45594000000E+02  0.51100000000E-03 0.  1.
    9900012    2    1    2    0    0 -0.29376529294E+02  0.17971070668E+01  0.12268495107E+02  0.59301858192E+02  0.49999843457E+02 0.  0.
         12    1    1    2    0    0  0.29376529294E+02 -0.17971070668E+01 -0.12268495107E+02  0.31886141808E+02  0.00000000000E+00 0. -1.
         11    1    3    3    0    0  0.58032654242E+01  0.50655603974E+01  0.99771498013E+01  0.12604812975E+02  0.51100000000E-03 0. -1.
        -11    1    3    3    0    0 -0.35963673927E+00  0.89240045617E+01  0.39521284779E+01  0.97666020584E+01  0.51100000000E-03 0.  1.
        -12    1    3    3    0    0 -0.34820157979E+02 -0.12192457892E+02 -0.16607831718E+01  0.36930443159E+02  0.00000000000E+00 0.  1.
</event>
<event>
 7    1  0.6246445E-012  0.5930194E+02  0.7816164E-02  0.1266605E+00
        -11   -1    0    0    0    0  0.00000000000E+00  0.00000000000E+00  0.45593999997E+02  0.45594000000E+02  0.51100000000E-03 0. -1.
         11   -1    0    0    0    0 -0.00000000000E+00 -0.00000000000E+00 -0.45593999997E+02  0.45594000000E+02  0.51100000000E-03 0.  1.
    9900012    2    1    2    0    0 -0.86835977885E+01 -0.23141227038E+02 -0.20144469288E+02  0.59301938746E+02  0.49999990368E+02 0.  0.
         12    1    1    2    0    0  0.86835977885E+01  0.23141227038E+02  0.20144469288E+02  0.31886061254E+02  0.00000000000E+00 0. -1.
         11    1    3    3    0    0 -0.57342450095E+00 -0.16364571295E+02 -0.15002885197E+02  0.22208434745E+02  0.51100000000E-03 0. -1.
        -11    1    3    3    0    0 -0.14362571096E+02 -0.18384951146E+02 -0.52261192077E+01  0.23908203599E+02  0.51100000000E-03 0.  1.
         12    1    3    3    0    0  0.62523978080E+01  0.11608295403E+02  0.84535116036E-01  0.13185300402E+02  0.00000000000E+00 0. -1.
</event>
<event>
 7    1  0.6246445E-012  0.5930200E+02  0.7816164E-02  0.1266605E+00
        -11   -1    0    0    0    0  0.00000000000E+00  0.00000000000E+00  0.45593999997E+02  0.45594000000E+02  0.51100000000E-03 0.  1.
         11   -1    0    0    0    0 -0.00000000000E+00 -0.00000000000E+00 -0.45593999997E+02  0.45594000000E+02  0.51100000000E-03 0. -1.
    9900012    2    1    2    0    0 -0.31804019198E+02  0.18832857092E+01  0.12940590663E+01  0.59302000078E+02  0.50000102221E+02 0.  0.
         12    1    1    2    0    0  0.31804019198E+02 -0.18832857092E+01 -0.12940590663E+01  0.31885999922E+02  0.00000000000E+00 0. -1.
         11    1    3    3    0    0  0.11093208866E+02 -0.19933253011E+01  0.65979061292E+01  0.13060053379E+02  0.51100000000E-03 0. -1.
        -11    1    3    3    0    0 -0.24303389697E+02  0.41963510706E+01  0.47279628973E+01  0.25112103586E+02  0.51100000000E-03 0.  1.
        -12    1    3    3    0    0 -0.18593838367E+02 -0.31974006027E+00 -0.10031809960E+02  0.21129843113E+02  0.00000000000E+00 0.  1.
</event>
<event>
 7    1  0.6246445E-012  0.5930231E+02  0.7816164E-02  0.1266603E+00
        -11   -1    0    0    0    0  0.00000000000E+00  0.00000000000E+00  0.45593999997E+02  0.45594000000E+02  0.51100000000E-03 0. -1.
         11   -1    0    0    0    0 -0.00000000000E+00 -0.00000000000E+00 -0.45593999997E+02  0.45594000000E+02  0.51100000000E-03 0.  1.
    9900012    2    1    2    0    0 -0.24253679505E+02  0.15236987866E+02  0.14010367113E+02  0.59302311120E+02  0.50000669483E+02 0.  0.
         12    1    1    2    0    0  0.24253679505E+02 -0.15236987866E+02 -0.14010367113E+02  0.31885688880E+02  0.00000000000E+00 0. -1.
         11    1    3    3    0    0  0.22879811852E+01 -0.39666655574E+00  0.14272178795E+02  0.14459850970E+02  0.51100000000E-03 0. -1.
        -11    1    3    3    0    0  0.61771554723E+00  0.91608981337E+01 -0.11525761372E+02  0.14735901825E+02  0.51100000000E-03 0.  1.
         12    1    3    3    0    0 -0.27159376237E+02  0.64727562876E+01  0.11263949691E+02  0.30106558325E+02  0.00000000000E+00 0. -1.
</event>
<event>
 7    1  0.6246445E-012  0.5930195E+02  0.7816164E-02  0.1266605E+00
        -11   -1    0    0    0    0  0.00000000000E+00  0.00000000000E+00  0.45593999997E+02  0.45594000000E+02  0.51100000000E-03 0.  1.
         11   -1    0    0    0    0 -0.00000000000E+00 -0.00000000000E+00 -0.45593999997E+02  0.45594000000E+02  0.51100000000E-03 0. -1.
    9900012    2    1    2    0    0 -0.29676966018E+02 -0.10367529366E+02  0.53396786352E+01  0.59301950619E+02  0.50000012021E+02 0.  0.
         12    1    1    2    0    0  0.29676966018E+02  0.10367529366E+02 -0.53396786352E+01  0.31886049381E+02  0.00000000000E+00 0. -1.
         11    1    3    3    0    0  0.48411869583E+01 -0.61687501589E+01 -0.97473763901E+01  0.12510072599E+02  0.51100000000E-03 0. -1.
        -11    1    3    3    0    0  0.27228706566E+01  0.39426392443E+01  0.58618031883E+01  0.75709421939E+01  0.51100000000E-03 0.  1.
        -12    1    3    3    0    0 -0.37241023633E+02 -0.81414184516E+01  0.92252518370E+01  0.39220935826E+02  0.00000000000E+00 0.  1.
</event>
<event>
 7    1  0.6246445E-012  0.5930193E+02  0.7816164E-02  0.1266605E+00
        -11   -1    0    0    0    0  0.00000000000E+00  0.00000000000E+00  0.45593999997E+02  0.45594000000E+02  0.51100000000E-03 0.  1.
         11   -1    0    0    0    0 -0.00000000000E+00 -0.00000000000E+00 -0.45593999997E+02  0.45594000000E+02  0.51100000000E-03 0. -1.
    9900012    2    1    2    0    0  0.15269851243E+02 -0.11806706016E+02  0.25380204695E+02  0.59301930090E+02  0.49999974581E+02 0.  0.
         12    1    1    2    0    0 -0.15269851243E+02  0.11806706016E+02 -0.25380204695E+02  0.31886069910E+02  0.00000000000E+00 0. -1.
         11    1    3    3    0    0  0.73056781715E+01 -0.11087803294E+02 -0.89132806820E+01  0.15992463481E+02  0.51100000000E-03 0. -1.
        -11    1    3    3    0    0 -0.71195142168E+01  0.22679254528E+01  0.23087544100E+01  0.78205700386E+01  0.51100000000E-03 0.  1.
        -12    1    3    3    0    0  0.15083687289E+02 -0.29868281754E+01  0.31984730967E+02  0.35488896570E+02  0.00000000000E+00 0.  1.
</event>
<event>
 7    1  0.6246445E-012  0.5930195E+02  0.7816164E-02  0.1266605E+00
        -11   -1    0    0    0    0  0.00000000000E+00  0.00000000000E+00  0.45593999997E+02  0.45594000000E+02  0.51100000000E-03 0.  1.
         11   -1    0    0    0    0 -0.00000000000E+00 -0.00000000000E+00 -0.45593999997E+02  0.45594000000E+02  0.51100000000E-03 0. -1.
    9900012    2    1    2    0    0 -0.14791491794E+02  0.22775249611E+02  0.16709870550E+02  0.59301952924E+02  0.50000016225E+02 0.  0.
         12    1    1    2    0    0  0.14791491794E+02 -0.22775249611E+02 -0.16709870550E+02  0.31886047076E+02  0.00000000000E+00 0. -1.
         11    1    3    3    0    0 -0.27428309107E+01  0.10689109893E+02 -0.16382675495E+01  0.11156348531E+02  0.51100000000E-03 0. -1.
        -11    1    3    3    0    0 -0.19873956330E+02  0.20831941203E+02  0.31783719981E+01  0.28966290120E+02  0.51100000000E-03 0.  1.
         12    1    3    3    0    0  0.78252954462E+01 -0.87458014857E+01  0.15169766101E+02  0.19179314274E+02  0.00000000000E+00 0. -1.
</event>
<event>
 7    1  0.6246445E-012  0.5930194E+02  0.7816164E-02  0.1266605E+00
        -11   -1    0    0    0    0  0.00000000000E+00  0.00000000000E+00  0.45593999997E+02  0.45594000000E+02  0.51100000000E-03 0.  1.
         11   -1    0    0    0    0 -0.00000000000E+00 -0.00000000000E+00 -0.45593999997E+02  0.45594000000E+02  0.51100000000E-03 0. -1.
    9900012    2    1    2    0    0  0.58814426557E+01  0.30236599389E+02  0.82387876209E+01  0.59301938284E+02  0.49999989524E+02 0.  0.
         12    1    1    2    0    0 -0.58814426557E+01 -0.30236599389E+02 -0.82387876209E+01  0.31886061716E+02  0.00000000000E+00 0. -1.
         11    1    3    3    0    0  0.17202719144E+02  0.13973192889E+01 -0.72435481799E+01  0.18717773309E+02  0.51100000000E-03 0. -1.
        -11    1    3    3    0    0  0.34001004640E+01  0.18754673147E+02  0.43446488838E+01  0.19549281885E+02  0.51100000000E-03 0.  1.
        -12    1    3    3    0    0 -0.14721376952E+02  0.10084606953E+02  0.11137686917E+02  0.21034883090E+02  0.00000000000E+00 0.  1.
</event>
<event>
 7    1  0.6246445E-012  0.5930193E+02  0.7816164E-02  0.1266605E+00
        -11   -1    0    0    0    0  0.00000000000E+00  0.00000000000E+00  0.45593999997E+02  0.45594000000E+02  0.51100000000E-03 0. -1.
         11   -1    0    0    0    0 -0.00000000000E+00 -0.00000000000E+00 -0.45593999997E+02  0.45594000000E+02  0.51100000000E-03 0.  1.
    9900012    2    1    2    0    0  0.40968838020E+01 -0.13835236298E+02 -0.28434543859E+02  0.59301929299E+02  0.49999973138E+02 0.  0.
         12    1    1    2    0    0 -0.40968838020E+01  0.13835236298E+02  0.28434543859E+02  0.31886070701E+02  0.00000000000E+00 0. -1.
         11    1    3    3    0    0 -0.16828632155E+02 -0.46650274037E+01  0.36824800634E+01  0.17847296730E+02  0.51100000000E-03 0. -1.
        -11    1    3    3    0    0  0.11099201688E+02 -0.13767822473E+01 -0.65092416716E+01  0.12940557749E+02  0.51100000000E-03 0.  1.
        -12    1    3    3    0    0  0.98263142694E+01 -0.77934266471E+01 -0.25607782250E+02  0.28514074819E+02  0.00000000000E+00 0.  1.
</event>
<event>
 7    1  0.6246445E-012  0.5930194E+02  0.7816164E-02  0.1266605E+00
        -11   -1    0    0    0    0  0.00000000000E+00  0.00000000000E+00  0.45593999997E+02  0.45594000000E+02  0.51100000000E-03 0.  1.
         11   -1    0    0    0    0 -0.00000000000E+00 -0.00000000000E+00 -0.45593999997E+02  0.45594000000E+02  0.51100000000E-03 0. -1.
    9900012    2    1    2    0    0 -0.17967893909E+02  0.18117964789E+02  0.19121066789E+02  0.59301936355E+02  0.49999986007E+02 0.  0.
         12    1    1    2    0    0  0.17967893909E+02 -0.18117964789E+02 -0.19121066789E+02  0.31886063645E+02  0.00000000000E+00 0. -1.
         11    1    3    3    0    0  0.55440717215E+01  0.55981700969E+01  0.25227238341E+02  0.26428957495E+02  0.51100000000E-03 0. -1.
        -11    1    3    3    0    0 -0.14830573846E+02  0.31187072591E+01  0.49696869961E+01  0.15948982559E+02  0.51100000000E-03 0.  1.
        -12    1    3    3    0    0 -0.86813917842E+01  0.94010874327E+01 -0.11075858548E+02  0.16923996301E+02  0.00000000000E+00 0.  1.
</event>
<event>
 7    1  0.6246445E-012  0.5930216E+02  0.7816164E-02  0.1266604E+00
        -11   -1    0    0    0    0  0.00000000000E+00  0.00000000000E+00  0.45593999997E+02  0.45594000000E+02  0.51100000000E-03 0. -1.
         11   -1    0    0    0    0 -0.00000000000E+00 -0.00000000000E+00 -0.45593999997E+02  0.45594000000E+02  0.51100000000E-03 0.  1.
    9900012    2    1    2    0    0  0.23587933296E+02  0.18787547621E+02 -0.10360714723E+02  0.59302157494E+02  0.50000389309E+02 0.  0.
         12    1    1    2    0    0 -0.23587933296E+02 -0.18787547621E+02  0.10360714723E+02  0.31885842506E+02  0.00000000000E+00 0. -1.
         11    1    3    3    0    0  0.21889808648E+02 -0.61487624693E+01 -0.34546951830E+01  0.22997954726E+02  0.51100000000E-03 0. -1.
        -11    1    3    3    0    0  0.95135956629E+01  0.59732177501E+01  0.53166515869E+01  0.12427977192E+02  0.51100000000E-03 0.  1.
        -12    1    3    3    0    0 -0.78154710144E+01  0.18963092340E+02 -0.12222671127E+02  0.23876225575E+02  0.00000000000E+00 0.  1.
</event>
<event>
 7    1  0.6246445E-012  0.5930199E+02  0.7816164E-02  0.1266605E+00
        -11   -1    0    0    0    0  0.00000000000E+00  0.00000000000E+00  0.45593999997E+02  0.45594000000E+02  0.51100000000E-03 0. -1.
         11   -1    0    0    0    0 -0.00000000000E+00 -0.00000000000E+00 -0.45593999997E+02  0.45594000000E+02  0.51100000000E-03 0.  1.
    9900012    2    1    2    0    0  0.31558209320E+02  0.42325765350E+01 -0.16977286760E+01  0.59301991120E+02  0.50000085885E+02 0.  0.
         12    1    1    2    0    0 -0.31558209320E+02 -0.42325765350E+01  0.16977286760E+01  0.31886008880E+02  0.00000000000E+00 0. -1.
         11    1    3    3    0    0  0.19931988043E+02  0.98489170073E+01 -0.39023901281E+01  0.22572415966E+02  0.51100000000E-03 0. -1.
        -11    1    3    3    0    0  0.19949450729E+02  0.59834476169E+01 -0.39221395503E+01  0.21193522800E+02  0.51100000000E-03 0.  1.
         12    1    3    3    0    0 -0.83232294520E+01 -0.11599788089E+02  0.61268010024E+01  0.15536052354E+02  0.00000000000E+00 0. -1.
</event>
<event>
 7    1  0.6246445E-012  0.5930196E+02  0.7816164E-02  0.1266605E+00
        -11   -1    0    0    0    0  0.00000000000E+00  0.00000000000E+00  0.45593999997E+02  0.45594000000E+02  0.51100000000E-03 0.  1.
         11   -1    0    0    0    0 -0.00000000000E+00 -0.00000000000E+00 -0.45593999997E+02  0.45594000000E+02  0.51100000000E-03 0. -1.
    9900012    2    1    2    0    0 -0.11561982433E+02  0.28219580335E+02  0.93110434888E+01  0.59301957867E+02  0.50000025239E+02 0.  0.
         12    1    1    2    0    0  0.11561982433E+02 -0.28219580335E+02 -0.93110434888E+01  0.31886042133E+02  0.00000000000E+00 0. -1.
         11    1    3    3    0    0 -0.72898265634E+01  0.68857083374E+01  0.13081616712E+02  0.16482816710E+02  0.51100000000E-03 0.  1.
        -11    1    3    3    0    0  0.14938136698E-01  0.31521655875E+02 -0.39244046381E+01  0.31765011636E+02  0.51100000000E-03 0. -1.
         12    1    3    3    0    0 -0.42870940065E+01 -0.10187783877E+02  0.15383141502E+00  0.11054129521E+02  0.00000000000E+00 0. -1.
</event>
<event>
 7    1  0.6246445E-012  0.5930206E+02  0.7816164E-02  0.1266604E+00
        -11   -1    0    0    0    0  0.00000000000E+00  0.00000000000E+00  0.45593999997E+02  0.45594000000E+02  0.51100000000E-03 0.  1.
         11   -1    0    0    0    0 -0.00000000000E+00 -0.00000000000E+00 -0.45593999997E+02  0.45594000000E+02  0.51100000000E-03 0. -1.
    9900012    2    1    2    0    0  0.10892864527E+02 -0.13210401451E+02  0.26898778363E+02  0.59302055110E+02  0.50000202587E+02 0.  0.
         12    1    1    2    0    0 -0.10892864527E+02  0.13210401451E+02 -0.26898778363E+02  0.31885944890E+02  0.00000000000E+00 0. -1.
         11    1    3    3    0    0 -0.14085397125E+02  0.49605075723E+01  0.82938939119E+00  0.14956367693E+02  0.51100000000E-03 0. -1.
        -11    1    3    3    0    0  0.16611823141E+02 -0.55448859904E+01  0.46635548890E+01  0.18123111575E+02  0.51100000000E-03 0.  1.
        -12    1    3    3    0    0  0.83664385112E+01 -0.12626023033E+02  0.21405834083E+02  0.26222575842E+02  0.00000000000E+00 0.  1.
</event>
<event>
 7    1  0.6246445E-012  0.5930195E+02  0.7816164E-02  0.1266605E+00
        -11   -1    0    0    0    0  0.00000000000E+00  0.00000000000E+00  0.45593999997E+02  0.45594000000E+02  0.51100000000E-03 0.  1.
         11   -1    0    0    0    0 -0.00000000000E+00 -0.00000000000E+00 -0.45593999997E+02  0.45594000000E+02  0.51100000000E-03 0. -1.
    9900012    2    1    2    0    0 -0.22764493611E+02 -0.77383523326E+01  0.20943158447E+02  0.59301950512E+02  0.50000011826E+02 0.  0.
         12    1    1    2    0    0  0.22764493611E+02  0.77383523326E+01 -0.20943158447E+02  0.31886049488E+02  0.00000000000E+00 0. -1.
         11    1    3    3    0    0 -0.65049299872E+01 -0.94234391609E+01  0.43355457663E-01  0.11450641891E+02  0.51100000000E-03 0. -1.
        -11    1    3    3    0    0 -0.29151101776E+02  0.34701645497E+01  0.18257766717E+02  0.34571300561E+02  0.51100000000E-03 0.  1.
         12    1    3    3    0    0  0.12891538152E+02 -0.17850777214E+01  0.26420362730E+01  0.13280008060E+02  0.00000000000E+00 0. -1.
</event>
<event>
 7    1  0.6246445E-012  0.5930194E+02  0.7816164E-02  0.1266605E+00
        -11   -1    0    0    0    0  0.00000000000E+00  0.00000000000E+00  0.45593999997E+02  0.45594000000E+02  0.51100000000E-03 0. -1.
         11   -1    0    0    0    0 -0.00000000000E+00 -0.00000000000E+00 -0.45593999997E+02  0.45594000000E+02  0.51100000000E-03 0.  1.
    9900012    2    1    2    0    0  0.29608165491E+02  0.11712590925E+02 -0.17006779305E+01  0.59301944186E+02  0.50000000289E+02 0.  0.
         12    1    1    2    0    0 -0.29608165491E+02 -0.11712590925E+02  0.17006779305E+01  0.31886055814E+02  0.00000000000E+00 0. -1.
         11    1    3    3    0    0 -0.11413638859E+01 -0.17112386749E+01 -0.23164972837E+01  0.30979362887E+01  0.51100000000E-03 0. -1.
        -11    1    3    3    0    0  0.12547340647E+02 -0.15894352218E+02 -0.58851566636E+01  0.21087941079E+02  0.51100000000E-03 0.  1.
         12    1    3    3    0    0  0.18202188730E+02  0.29318181817E+02  0.65009760168E+01  0.35116066818E+02  0.00000000000E+00 0. -1.
</event>
<event>
 7    1  0.6246445E-012  0.5930193E+02  0.7816164E-02  0.1266605E+00
        -11   -1    0    0    0    0  0.00000000000E+00  0.00000000000E+00  0.45593999997E+02  0.45594000000E+02  0.51100000000E-03 0.  1.
         11   -1    0    0    0    0 -0.00000000000E+00 -0.00000000000E+00 -0.45593999997E+02  0.45594000000E+02  0.51100000000E-03 0. -1.
    9900012    2    1    2    0    0 -0.19807635754E+02 -0.22281479666E+02  0.11309931154E+02  0.59301932306E+02  0.49999978623E+02 0.  0.
         12    1    1    2    0    0  0.19807635754E+02  0.22281479666E+02 -0.11309931154E+02  0.31886067694E+02  0.00000000000E+00 0. -1.
         11    1    3    3    0    0  0.57117860388E+01  0.80309324631E+01  0.38983376445E+01  0.10597990971E+02  0.51100000000E-03 0. -1.
        -11    1    3    3    0    0 -0.97556436391E+01  0.82570048644E+00 -0.58075130606E+01  0.11383390194E+02  0.51100000000E-03 0.  1.
        -12    1    3    3    0    0 -0.15763778153E+02 -0.31138112615E+02  0.13219106571E+02  0.37320551141E+02  0.00000000000E+00 0.  1.
</event>
<event>
 7    1  0.6246445E-012  0.5930196E+02  0.7816164E-02  0.1266605E+00
        -11   -1    0    0    0    0  0.00000000000E+00  0.00000000000E+00  0.45593999997E+02  0.45594000000E+02  0.51100000000E-03 0.  1.
         11   -1    0    0    0    0 -0.00000000000E+00 -0.00000000000E+00 -0.45593999997E+02  0.45594000000E+02  0.51100000000E-03 0. -1.
    9900012    2    1    2    0    0  0.28646438345E+02 -0.73776401998E+01  0.11902572932E+02  0.59301964700E+02  0.50000037700E+02 0.  0.
         12    1    1    2    0    0 -0.28646438345E+02  0.73776401998E+01 -0.11902572932E+02  0.31886035300E+02  0.00000000000E+00 0. -1.
         11    1    3    3    0    0  0.14490548369E+02 -0.19241785698E+02  0.83938414391E+01  0.25508408089E+02  0.51100000000E-03 0. -1.
        -11    1    3    3    0    0 -0.49025747411E+01 -0.54429283812E+01 -0.17182322638E+01  0.75241631315E+01  0.51100000000E-03 0.  1.
         12    1    3    3    0    0  0.19058464718E+02  0.17307073879E+02  0.52269637569E+01  0.26269393479E+02  0.00000000000E+00 0. -1.
</event>
<event>
 7    1  0.6246445E-012  0.5930195E+02  0.7816164E-02  0.1266605E+00
        -11   -1    0    0    0    0  0.00000000000E+00  0.00000000000E+00  0.45593999997E+02  0.45594000000E+02  0.51100000000E-03 0.  1.
         11   -1    0    0    0    0 -0.00000000000E+00 -0.00000000000E+00 -0.45593999997E+02  0.45594000000E+02  0.51100000000E-03 0. -1.
    9900012    2    1    2    0    0 -0.22628639700E+02 -0.22335065923E+02  0.24102839559E+01  0.59301953315E+02  0.50000016938E+02 0.  0.
         12    1    1    2    0    0  0.22628639700E+02  0.22335065923E+02 -0.24102839559E+01  0.31886046685E+02  0.00000000000E+00 0. -1.
         11    1    3    3    0    0  0.10226275090E-01 -0.61081464174E+01 -0.10118712378E+02  0.11819386519E+02  0.51100000000E-03 0. -1.
        -11    1    3    3    0    0 -0.18012105631E+02 -0.24781941679E+02 -0.11974396812E+01  0.30659654999E+02  0.51100000000E-03 0.  1.
        -12    1    3    3    0    0 -0.46267603437E+01  0.85550221735E+01  0.13726436015E+02  0.16822911797E+02  0.00000000000E+00 0.  1.
</event>
<event>
 7    1  0.6246445E-012  0.5930182E+02  0.7816164E-02  0.1266605E+00
        -11   -1    0    0    0    0  0.00000000000E+00  0.00000000000E+00  0.45593999997E+02  0.45594000000E+02  0.51100000000E-03 0.  1.
         11   -1    0    0    0    0 -0.00000000000E+00 -0.00000000000E+00 -0.45593999997E+02  0.45594000000E+02  0.51100000000E-03 0. -1.
    9900012    2    1    2    0    0 -0.58267996223E+01 -0.85884146607E+01  0.30149891202E+02  0.59301821180E+02  0.49999775955E+02 0.  0.
         12    1    1    2    0    0  0.58267996223E+01  0.85884146607E+01 -0.30149891202E+02  0.31886178820E+02  0.00000000000E+00 0. -1.
         11    1    3    3    0    0  0.16724882418E+02  0.23361665440E+00  0.27097006843E+02  0.31843744264E+02  0.51100000000E-03 0. -1.
        -11    1    3    3    0    0 -0.50296009144E+01 -0.82386851162E+01  0.22307566612E+01  0.99070224258E+01  0.51100000000E-03 0.  1.
        -12    1    3    3    0    0 -0.17522081126E+02 -0.58334619883E+00  0.82212769797E+00  0.17551054490E+02  0.00000000000E+00 0.  1.
</event>
<event>
 7    1  0.6246445E-012  0.5930195E+02  0.7816164E-02  0.1266605E+00
        -11   -1    0    0    0    0  0.00000000000E+00  0.00000000000E+00  0.45593999997E+02  0.45594000000E+02  0.51100000000E-03 0.  1.
         11   -1    0    0    0    0 -0.00000000000E+00 -0.00000000000E+00 -0.45593999997E+02  0.45594000000E+02  0.51100000000E-03 0. -1.
    9900012    2    1    2    0    0  0.86826695596E+01  0.29493550881E+02  0.84535234473E+01  0.59301947361E+02  0.50000006079E+02 0.  0.
         12    1    1    2    0    0 -0.86826695596E+01 -0.29493550881E+02 -0.84535234473E+01  0.31886052639E+02  0.00000000000E+00 0. -1.
         11    1    3    3    0    0 -0.92894987668E+01  0.87302052606E+01 -0.51458196640E+01  0.13747389989E+02  0.51100000000E-03 0. -1.
        -11    1    3    3    0    0  0.19758569910E+01  0.13939259611E+02  0.22095102501E+02  0.26199246633E+02  0.51100000000E-03 0.  1.
        -12    1    3    3    0    0  0.15996311335E+02  0.68240860088E+01 -0.84957593893E+01  0.19355310739E+02  0.00000000000E+00 0.  1.
</event>
<event>
 7    1  0.6246445E-012  0.5930190E+02  0.7816164E-02  0.1266605E+00
        -11   -1    0    0    0    0  0.00000000000E+00  0.00000000000E+00  0.45593999997E+02  0.45594000000E+02  0.51100000000E-03 0.  1.
         11   -1    0    0    0    0 -0.00000000000E+00 -0.00000000000E+00 -0.45593999997E+02  0.45594000000E+02  0.51100000000E-03 0. -1.
    9900012    2    1    2    0    0  0.14037496493E+02 -0.48016714890E+01  0.28224381769E+02  0.59301904548E+02  0.49999927999E+02 0.  0.
         12    1    1    2    0    0 -0.14037496493E+02  0.48016714890E+01 -0.28224381769E+02  0.31886095452E+02  0.00000000000E+00 0. -1.
         11    1    3    3    0    0  0.11069911260E+02 -0.23670317553E+00  0.20638421178E+02  0.23421003238E+02  0.51100000000E-03 0. -1.
        -11    1    3    3    0    0  0.11228054865E+02 -0.76161944260E+01  0.17808864784E+02  0.22388195523E+02  0.51100000000E-03 0.  1.
         12    1    3    3    0    0 -0.82604696320E+01  0.30512261125E+01 -0.10222904193E+02  0.13492705788E+02  0.00000000000E+00 0. -1.
</event>
<event>
 7    1  0.6246445E-012  0.5930197E+02  0.7816164E-02  0.1266605E+00
        -11   -1    0    0    0    0  0.00000000000E+00  0.00000000000E+00  0.45593999997E+02  0.45594000000E+02  0.51100000000E-03 0. -1.
         11   -1    0    0    0    0 -0.00000000000E+00 -0.00000000000E+00 -0.45593999997E+02  0.45594000000E+02  0.51100000000E-03 0.  1.
    9900012    2    1    2    0    0 -0.51760054411E+01  0.23641077659E+02 -0.20761199422E+02  0.59301968785E+02  0.50000045151E+02 0.  0.
         12    1    1    2    0    0  0.51760054411E+01 -0.23641077659E+02  0.20761199422E+02  0.31886031215E+02  0.00000000000E+00 0. -1.
         11    1    3    3    0    0 -0.83395575719E+01 -0.83494152058E+01 -0.15698452618E+02  0.19639306750E+02  0.51100000000E-03 0. -1.
        -11    1    3    3    0    0  0.72235651075E+01  0.40830840686E+00 -0.27379611953E+01  0.77358283580E+01  0.51100000000E-03 0.  1.
        -12    1    3    3    0    0 -0.40600129766E+01  0.31582184458E+02 -0.23247856095E+01  0.31926833677E+02  0.00000000000E+00 0.  1.
</event>
<event>
 7    1  0.6246445E-012  0.5930233E+02  0.7816164E-02  0.1266603E+00
        -11   -1    0    0    0    0  0.00000000000E+00  0.00000000000E+00  0.45593999997E+02  0.45594000000E+02  0.51100000000E-03 0.  1.
         11   -1    0    0    0    0 -0.00000000000E+00 -0.00000000000E+00 -0.45593999997E+02  0.45594000000E+02  0.51100000000E-03 0. -1.
    9900012    2    1    2    0    0  0.24221553884E+02 -0.63088020268E+01  0.19753769437E+02  0.59302328256E+02  0.50000700735E+02 0.  0.
         12    1    1    2    0    0 -0.24221553884E+02  0.63088020268E+01 -0.19753769437E+02  0.31885671744E+02  0.00000000000E+00 0. -1.
         11    1    3    3    0    0  0.12049923856E+02 -0.19878471197E+02  0.12004897245E+02  0.26162412736E+02  0.51100000000E-03 0. -1.
        -11    1    3    3    0    0  0.20470009644E+01  0.35238651061E+01 -0.97484447549E+01  0.10565983799E+02  0.51100000000E-03 0.  1.
        -12    1    3    3    0    0  0.10124629064E+02  0.10045804064E+02  0.17497316948E+02  0.22573931721E+02  0.00000000000E+00 0.  1.
</event>
<event>
 7    1  0.6246445E-012  0.5930193E+02  0.7816164E-02  0.1266605E+00
        -11   -1    0    0    0    0  0.00000000000E+00  0.00000000000E+00  0.45593999997E+02  0.45594000000E+02  0.51100000000E-03 0.  1.
         11   -1    0    0    0    0 -0.00000000000E+00 -0.00000000000E+00 -0.45593999997E+02  0.45594000000E+02  0.51100000000E-03 0. -1.
    9900012    2    1    2    0    0  0.26300331120E+02  0.11311547079E+02 -0.14037905331E+02  0.59301932503E+02  0.49999978981E+02 0.  0.
         12    1    1    2    0    0 -0.26300331120E+02 -0.11311547079E+02  0.14037905331E+02  0.31886067497E+02  0.00000000000E+00 0. -1.
         11    1    3    3    0    0  0.12104701966E+02 -0.15486236060E+02 -0.61287887933E+01  0.20589059457E+02  0.51100000000E-03 0. -1.
        -11    1    3    3    0    0  0.22267533525E+01 -0.32586296283E+01  0.25658088510E+01  0.47074911437E+01  0.51100000000E-03 0.  1.
         12    1    3    3    0    0  0.11968875801E+02  0.30056412768E+02 -0.10474925389E+02  0.34005381902E+02  0.00000000000E+00 0. -1.
</event>
<event>
 7    1  0.6246445E-012  0.5930194E+02  0.7816164E-02  0.1266605E+00
        -11   -1    0    0    0    0  0.00000000000E+00  0.00000000000E+00  0.45593999997E+02  0.45594000000E+02  0.51100000000E-03 0. -1.
         11   -1    0    0    0    0 -0.00000000000E+00 -0.00000000000E+00 -0.45593999997E+02  0.45594000000E+02  0.51100000000E-03 0.  1.
    9900012    2    1    2    0    0 -0.24500330797E+01  0.26195439936E+02 -0.18014353538E+02  0.59301942405E+02  0.49999997041E+02 0.  0.
         12    1    1    2    0    0  0.24500330797E+01 -0.26195439936E+02  0.18014353538E+02  0.31886057595E+02  0.00000000000E+00 0. -1.
         11    1    3    3    0    0  0.23145702828E+01  0.11400485779E+02  0.10719125202E+02  0.15818595291E+02  0.51100000000E-03 0. -1.
        -11    1    3    3    0    0 -0.49182577425E+01 -0.77103960186E+01 -0.13501963607E+02  0.16307743176E+02  0.51100000000E-03 0.  1.
         12    1    3    3    0    0  0.15365438004E+00  0.22505350175E+02 -0.15231515134E+02  0.27175603939E+02  0.00000000000E+00 0. -1.
</event>
<event>
 7    1  0.6246445E-012  0.5930194E+02  0.7816164E-02  0.1266605E+00
        -11   -1    0    0    0    0  0.00000000000E+00  0.00000000000E+00  0.45593999997E+02  0.45594000000E+02  0.51100000000E-03 0. -1.
         11   -1    0    0    0    0 -0.00000000000E+00 -0.00000000000E+00 -0.45593999997E+02  0.45594000000E+02  0.51100000000E-03 0.  1.
    9900012    2    1    2    0    0  0.13612523463E+02  0.25132120597E+02  0.14134940376E+02  0.59301940034E+02  0.49999992716E+02 0.  0.
         12    1    1    2    0    0 -0.13612523463E+02 -0.25132120597E+02 -0.14134940376E+02  0.31886059966E+02  0.00000000000E+00 0. -1.
         11    1    3    3    0    0  0.12286937347E+02  0.12802680247E+02 -0.49349772153E+01  0.18418236920E+02  0.51100000000E-03 0. -1.
        -11    1    3    3    0    0  0.39816655568E+01 -0.11494985654E+02  0.56824634737E+01  0.13426792141E+02  0.51100000000E-03 0.  1.
        -12    1    3    3    0    0 -0.26560794406E+01  0.23824426004E+02  0.13387454118E+02  0.27456910973E+02  0.00000000000E+00 0.  1.
</event>
<event>
 7    1  0.6246445E-012  0.5930178E+02  0.7816164E-02  0.1266605E+00
        -11   -1    0    0    0    0  0.00000000000E+00  0.00000000000E+00  0.45593999997E+02  0.45594000000E+02  0.51100000000E-03 0.  1.
         11   -1    0    0    0    0 -0.00000000000E+00 -0.00000000000E+00 -0.45593999997E+02  0.45594000000E+02  0.51100000000E-03 0. -1.
    9900012    2    1    2    0    0  0.61006772057E+01  0.13521328001E+02  0.28225630260E+02  0.59301783905E+02  0.49999707974E+02 0.  0.
         12    1    1    2    0    0 -0.61006772057E+01 -0.13521328001E+02 -0.28225630260E+02  0.31886216095E+02  0.00000000000E+00 0. -1.
         11    1    3    3    0    0 -0.94534331916E+00 -0.16852889381E+01 -0.29462874054E+01  0.35234191536E+01  0.51100000000E-03 0. -1.
        -11    1    3    3    0    0 -0.65802267471E+00 -0.45556167780E+01 -0.91361611313E+01  0.10230155353E+02  0.51100000000E-03 0.  1.
        -12    1    3    3    0    0  0.77040431995E+01  0.19762233717E+02  0.40308078797E+02  0.45548209398E+02  0.00000000000E+00 0.  1.
</event>
<event>
 7    1  0.6246445E-012  0.5930201E+02  0.7816164E-02  0.1266605E+00
        -11   -1    0    0    0    0  0.00000000000E+00  0.00000000000E+00  0.45593999997E+02  0.45594000000E+02  0.51100000000E-03 0. -1.
         11   -1    0    0    0    0 -0.00000000000E+00 -0.00000000000E+00 -0.45593999997E+02  0.45594000000E+02  0.51100000000E-03 0.  1.
    9900012    2    1    2    0    0 -0.11626111505E+02  0.17456732265E+02 -0.24016916344E+02  0.59302011843E+02  0.50000123679E+02 0.  0.
         12    1    1    2    0    0  0.11626111505E+02 -0.17456732265E+02  0.24016916344E+02  0.31885988157E+02  0.00000000000E+00 0. -1.
         11    1    3    3    0    0  0.37785630993E+01  0.45645961782E+01 -0.15453797138E+02  0.16550919117E+02  0.51100000000E-03 0.  1.
        -11    1    3    3    0    0 -0.11790575619E+02  0.78457693719E+01  0.13660480365E+02  0.19676953385E+02  0.51100000000E-03 0. -1.
         12    1    3    3    0    0 -0.36140989852E+01  0.50463667146E+01 -0.22223599570E+02  0.23074139341E+02  0.00000000000E+00 0. -1.
</event>
<event>
 7    1  0.6246445E-012  0.5930196E+02  0.7816164E-02  0.1266605E+00
        -11   -1    0    0    0    0  0.00000000000E+00  0.00000000000E+00  0.45593999997E+02  0.45594000000E+02  0.51100000000E-03 0. -1.
         11   -1    0    0    0    0 -0.00000000000E+00 -0.00000000000E+00 -0.45593999997E+02  0.45594000000E+02  0.51100000000E-03 0.  1.
    9900012    2    1    2    0    0 -0.81330884388E+01  0.15187518808E+02 -0.26831167208E+02  0.59301962478E+02  0.50000033649E+02 0.  0.
         12    1    1    2    0    0  0.81330884388E+01 -0.15187518808E+02  0.26831167208E+02  0.31886037522E+02  0.00000000000E+00 0. -1.
         11    1    3    3    0    0  0.84508295358E+01  0.10599693120E+02  0.49329332633E+01  0.14425804827E+02  0.51100000000E-03 0. -1.
        -11    1    3    3    0    0  0.43107038422E+01  0.20320390273E+01  0.19343583475E+01  0.51432570129E+01  0.51100000000E-03 0.  1.
        -12    1    3    3    0    0 -0.20894621817E+02  0.25557866610E+01 -0.33698458819E+02  0.39732900638E+02  0.00000000000E+00 0.  1.
</event>
<event>
 7    1  0.8184179E-012  0.5930194E+02  0.7816164E-02  0.1266605E+00
        -11   -1    0    0    0    0  0.00000000000E+00  0.00000000000E+00  0.45593999997E+02  0.45594000000E+02  0.51100000000E-03 0. -1.
         11   -1    0    0    0    0 -0.00000000000E+00 -0.00000000000E+00 -0.45593999997E+02  0.45594000000E+02  0.51100000000E-03 0.  1.
    9900012    2    1    2    0    0 -0.27550392095E+00  0.28536658010E+02 -0.14223362631E+02  0.59301940392E+02  0.49999993370E+02 0.  0.
         12    1    1    2    0    0  0.27550392095E+00 -0.28536658010E+02  0.14223362631E+02  0.31886059608E+02  0.00000000000E+00 0. -1.
         11    1    3    3    0    0  0.30042411773E+01  0.14040181288E+02  0.85011856745E+01  0.16685991543E+02  0.51100000000E-03 0. -1.
        -11    1    3    3    0    0 -0.10531749100E+02  0.22686142124E+02 -0.14317989055E+02  0.28819847231E+02  0.51100000000E-03 0.  1.
         12    1    3    3    0    0  0.72520040015E+01 -0.81896654018E+01 -0.84065592499E+01  0.13796101618E+02  0.00000000000E+00 0. -1.
</event>
<event>
 7    1  0.6246445E-012  0.5930199E+02  0.7816164E-02  0.1266605E+00
        -11   -1    0    0    0    0  0.00000000000E+00  0.00000000000E+00  0.45593999997E+02  0.45594000000E+02  0.51100000000E-03 0.  1.
         11   -1    0    0    0    0 -0.00000000000E+00 -0.00000000000E+00 -0.45593999997E+02  0.45594000000E+02  0.51100000000E-03 0. -1.
    9900012    2    1    2    0    0 -0.12907264196E+02 -0.92387928702E+00  0.29142180434E+02  0.59301988923E+02  0.50000081878E+02 0.  0.
         12    1    1    2    0    0  0.12907264196E+02  0.92387928702E+00 -0.29142180434E+02  0.31886011077E+02  0.00000000000E+00 0. -1.
         11    1    3    3    0    0  0.59707502164E+01  0.69214260012E+01 -0.26556356714E+00  0.91447537040E+01  0.51100000000E-03 0. -1.
        -11    1    3    3    0    0  0.68801825393E+01  0.72371980691E+01  0.33449455575E+01  0.10531030752E+02  0.51100000000E-03 0.  1.
         12    1    3    3    0    0 -0.25758196952E+02 -0.15082503357E+02  0.26062798443E+02  0.39626204467E+02  0.00000000000E+00 0. -1.
</event>
<event>
 7    1  0.6246445E-012  0.5930193E+02  0.7816164E-02  0.1266605E+00
        -11   -1    0    0    0    0  0.00000000000E+00  0.00000000000E+00  0.45593999997E+02  0.45594000000E+02  0.51100000000E-03 0.  1.
         11   -1    0    0    0    0 -0.00000000000E+00 -0.00000000000E+00 -0.45593999997E+02  0.45594000000E+02  0.51100000000E-03 0. -1.
    9900012    2    1    2    0    0  0.26771445563E+02 -0.16346532262E+02  0.57273020210E+01  0.59301930895E+02  0.49999976049E+02 0.  0.
         12    1    1    2    0    0 -0.26771445563E+02  0.16346532262E+02 -0.57273020210E+01  0.31886069105E+02  0.00000000000E+00 0. -1.
         11    1    3    3    0    0  0.26759748509E+02 -0.44023646047E+01 -0.12847911913E+02  0.30008895268E+02  0.51100000000E-03 0. -1.
        -11    1    3    3    0    0 -0.57009495268E+01 -0.12799641565E+02  0.55987435789E+01  0.15088988688E+02  0.51100000000E-03 0.  1.
        -12    1    3    3    0    0  0.57126465802E+01  0.85547390832E+00  0.12976470356E+02  0.14204046939E+02  0.00000000000E+00 0.  1.
</event>
<event>
 7    1  0.6246445E-012  0.5930193E+02  0.7816164E-02  0.1266605E+00
        -11   -1    0    0    0    0  0.00000000000E+00  0.00000000000E+00  0.45593999997E+02  0.45594000000E+02  0.51100000000E-03 0.  1.
         11   -1    0    0    0    0 -0.00000000000E+00 -0.00000000000E+00 -0.45593999997E+02  0.45594000000E+02  0.51100000000E-03 0. -1.
    9900012    2    1    2    0    0 -0.30007469765E+02 -0.51688371299E+01  0.94634054171E+01  0.59301934688E+02  0.49999982967E+02 0.  0.
         12    1    1    2    0    0  0.30007469765E+02  0.51688371299E+01 -0.94634054171E+01  0.31886065312E+02  0.00000000000E+00 0. -1.
         11    1    3    3    0    0 -0.60983675227E+01 -0.25612196076E+01  0.13772881098E+02  0.15278814952E+02  0.51100000000E-03 0. -1.
        -11    1    3    3    0    0 -0.22742007071E+02 -0.46246027608E+01  0.12970934658E+02  0.26586293131E+02  0.51100000000E-03 0.  1.
         12    1    3    3    0    0 -0.11670951717E+01  0.20169852385E+01 -0.17280410339E+02  0.17436826606E+02  0.00000000000E+00 0. -1.
</event>
<event>
 7    1  0.6246445E-012  0.5930194E+02  0.7816164E-02  0.1266605E+00
        -11   -1    0    0    0    0  0.00000000000E+00  0.00000000000E+00  0.45593999997E+02  0.45594000000E+02  0.51100000000E-03 0. -1.
         11   -1    0    0    0    0 -0.00000000000E+00 -0.00000000000E+00 -0.45593999997E+02  0.45594000000E+02  0.51100000000E-03 0.  1.
    9900012    2    1    2    0    0  0.11774972905E+02 -0.25865930595E+02 -0.14457678348E+02  0.59301940104E+02  0.49999992844E+02 0.  0.
         12    1    1    2    0    0 -0.11774972905E+02  0.25865930595E+02  0.14457678348E+02  0.31886059896E+02  0.00000000000E+00 0. -1.
         11    1    3    3    0    0  0.19240636072E+01  0.85984023371E+01 -0.12677617834E+02  0.15438799750E+02  0.51100000000E-03 0. -1.
        -11    1    3    3    0    0 -0.14597026949E+01  0.13046751528E+00 -0.69483187613E+01  0.71011891680E+01  0.51100000000E-03 0.  1.
         12    1    3    3    0    0  0.11310611993E+02 -0.34594800448E+02  0.51682582478E+01  0.36761951186E+02  0.00000000000E+00 0. -1.
</event>
<event>
 7    1  0.6246445E-012  0.5930195E+02  0.7816164E-02  0.1266605E+00
        -11   -1    0    0    0    0  0.00000000000E+00  0.00000000000E+00  0.45593999997E+02  0.45594000000E+02  0.51100000000E-03 0. -1.
         11   -1    0    0    0    0 -0.00000000000E+00 -0.00000000000E+00 -0.45593999997E+02  0.45594000000E+02  0.51100000000E-03 0.  1.
    9900012    2    1    2    0    0  0.19994625575E+02 -0.19251014766E+02 -0.15695010476E+02  0.59301953283E+02  0.50000016880E+02 0.  0.
         12    1    1    2    0    0 -0.19994625575E+02  0.19251014766E+02  0.15695010476E+02  0.31886046717E+02  0.00000000000E+00 0. -1.
         11    1    3    3    0    0  0.10192215547E+02 -0.46512757067E+01  0.24669370204E+00  0.11206091268E+02  0.51100000000E-03 0. -1.
        -11    1    3    3    0    0  0.88157807940E+00  0.22667683832E+01  0.13112737366E+02  0.13336390078E+02  0.51100000000E-03 0.  1.
        -12    1    3    3    0    0  0.89208319486E+01 -0.16866507442E+02 -0.29054441544E+02  0.34759471938E+02  0.00000000000E+00 0.  1.
</event>
<event>
 7    1  0.6246445E-012  0.5930197E+02  0.7816164E-02  0.1266605E+00
        -11   -1    0    0    0    0  0.00000000000E+00  0.00000000000E+00  0.45593999997E+02  0.45594000000E+02  0.51100000000E-03 0. -1.
         11   -1    0    0    0    0 -0.00000000000E+00 -0.00000000000E+00 -0.45593999997E+02  0.45594000000E+02  0.51100000000E-03 0.  1.
    9900012    2    1    2    0    0  0.17444089872E+02 -0.22825834833E+02  0.13834891228E+02  0.59301965085E+02  0.50000038404E+02 0.  0.
         12    1    1    2    0    0 -0.17444089872E+02  0.22825834833E+02 -0.13834891228E+02  0.31886034915E+02  0.00000000000E+00 0. -1.
         11    1    3    3    0    0 -0.90400327647E+01  0.17720344423E+01 -0.42257047369E+01  0.10135032276E+02  0.51100000000E-03 0. -1.
        -11    1    3    3    0    0  0.33777940439E+01 -0.22221319990E+02  0.80715386906E+01  0.23881923955E+02  0.51100000000E-03 0.  1.
         12    1    3    3    0    0  0.23106328592E+02 -0.23765492856E+01  0.99890572744E+01  0.25285008854E+02  0.00000000000E+00 0. -1.
</event>
<event>
 7    1  0.6246445E-012  0.5930194E+02  0.7816164E-02  0.1266605E+00
        -11   -1    0    0    0    0  0.00000000000E+00  0.00000000000E+00  0.45593999997E+02  0.45594000000E+02  0.51100000000E-03 0.  1.
         11   -1    0    0    0    0 -0.00000000000E+00 -0.00000000000E+00 -0.45593999997E+02  0.45594000000E+02  0.51100000000E-03 0. -1.
    9900012    2    1    2    0    0  0.25663292264E+02  0.10941917725E+02  0.15439909151E+02  0.59301938344E+02  0.49999989634E+02 0.  0.
         12    1    1    2    0    0 -0.25663292264E+02 -0.10941917725E+02 -0.15439909151E+02  0.31886061656E+02  0.00000000000E+00 0. -1.
         11    1    3    3    0    0  0.13435617335E+02  0.16264656095E+01  0.19634300249E+02  0.23846738772E+02  0.51100000000E-03 0.  1.
        -11    1    3    3    0    0  0.71197430332E+01 -0.11630656389E+02 -0.12246121900E+01  0.13691697636E+02  0.51100000000E-03 0. -1.
        -12    1    3    3    0    0  0.51079318960E+01  0.20946108504E+02 -0.29697789075E+01  0.21763501935E+02  0.00000000000E+00 0.  1.
</event>
<event>
 7    1  0.6246445E-012  0.5930193E+02  0.7816164E-02  0.1266605E+00
        -11   -1    0    0    0    0  0.00000000000E+00  0.00000000000E+00  0.45593999997E+02  0.45594000000E+02  0.51100000000E-03 0.  1.
         11   -1    0    0    0    0 -0.00000000000E+00 -0.00000000000E+00 -0.45593999997E+02  0.45594000000E+02  0.51100000000E-03 0. -1.
    9900012    2    1    2    0    0  0.24839316736E+02 -0.84074019603E+01  0.18139611648E+02  0.59301928207E+02  0.49999971147E+02 0.  0.
         12    1    1    2    0    0 -0.24839316736E+02  0.84074019603E+01 -0.18139611648E+02  0.31886071793E+02  0.00000000000E+00 0. -1.
         11    1    3    3    0    0 -0.66805207248E+00  0.10956399755E+01  0.39847859721E+00  0.13436911777E+01  0.51100000000E-03 0. -1.
        -11    1    3    3    0    0  0.99191030168E+01 -0.61726543925E+01  0.33539213234E+02  0.35515758355E+02  0.51100000000E-03 0.  1.
        -12    1    3    3    0    0  0.15588265792E+02 -0.33303875433E+01 -0.15798080183E+02  0.22442478675E+02  0.00000000000E+00 0.  1.
</event>
<event>
 7    1  0.6680985E-012  0.5930195E+02  0.7816164E-02  0.1266605E+00
        -11   -1    0    0    0    0  0.00000000000E+00  0.00000000000E+00  0.45593999997E+02  0.45594000000E+02  0.51100000000E-03 0. -1.
         11   -1    0    0    0    0 -0.00000000000E+00 -0.00000000000E+00 -0.45593999997E+02  0.45594000000E+02  0.51100000000E-03 0.  1.
    9900012    2    1    2    0    0 -0.11959971005E+02  0.29387967219E+02 -0.31664880962E+01  0.59301950220E+02  0.50000011294E+02 0.  0.
         12    1    1    2    0    0  0.11959971005E+02 -0.29387967219E+02  0.31664880962E+01  0.31886049780E+02  0.00000000000E+00 0. -1.
         11    1    3    3    0    0 -0.99842056874E+01  0.31914633713E+00  0.85775804874E+01  0.13166666430E+02  0.51100000000E-03 0. -1.
        -11    1    3    3    0    0 -0.10660059247E+02  0.17794259644E+02 -0.20712681712E+02  0.29313609866E+02  0.51100000000E-03 0.  1.
         12    1    3    3    0    0  0.86842939293E+01  0.11274561238E+02  0.89686131288E+01  0.16821673924E+02  0.00000000000E+00 0. -1.
</event>
<event>
 7    1  0.6246445E-012  0.5930195E+02  0.7816164E-02  0.1266605E+00
        -11   -1    0    0    0    0  0.00000000000E+00  0.00000000000E+00  0.45593999997E+02  0.45594000000E+02  0.51100000000E-03 0.  1.
         11   -1    0    0    0    0 -0.00000000000E+00 -0.00000000000E+00 -0.45593999997E+02  0.45594000000E+02  0.51100000000E-03 0. -1.
    9900012    2    1    2    0    0 -0.10825665212E+02 -0.14152055962E+02  0.26443225822E+02  0.59301954351E+02  0.50000018827E+02 0.  0.
         12    1    1    2    0    0  0.10825665212E+02  0.14152055962E+02 -0.26443225822E+02  0.31886045649E+02  0.00000000000E+00 0. -1.
         11    1    3    3    0    0 -0.57697814118E+00  0.28646688617E+01  0.92475358897E+00  0.30650286988E+01  0.51100000000E-03 0. -1.
        -11    1    3    3    0    0 -0.18081193756E+02 -0.27804499749E+01  0.33472885977E+02  0.38145701797E+02  0.51100000000E-03 0.  1.
         12    1    3    3    0    0  0.78325066844E+01 -0.14236274849E+02 -0.79544137440E+01  0.18091223855E+02  0.00000000000E+00 0. -1.
</event>
<event>
 7    1  0.6246445E-012  0.5930194E+02  0.7816164E-02  0.1266605E+00
        -11   -1    0    0    0    0  0.00000000000E+00  0.00000000000E+00  0.45593999997E+02  0.45594000000E+02  0.51100000000E-03 0.  1.
         11   -1    0    0    0    0 -0.00000000000E+00 -0.00000000000E+00 -0.45593999997E+02  0.45594000000E+02  0.51100000000E-03 0. -1.
    9900012    2    1    2    0    0  0.16647413037E+02 -0.27171035973E+02 -0.11484722854E+01  0.59301944344E+02  0.50000000577E+02 0.  0.
         12    1    1    2    0    0 -0.16647413037E+02  0.27171035973E+02  0.11484722854E+01  0.31886055656E+02  0.00000000000E+00 0. -1.
         11    1    3    3    0    0  0.26339701009E+02 -0.20873672829E+02  0.33700612726E+00  0.33609576611E+02  0.51100000000E-03 0.  1.
        -11    1    3    3    0    0 -0.10996823029E+02 -0.12895735475E+02  0.35182482366E+01  0.17309193542E+02  0.51100000000E-03 0. -1.
        -12    1    3    3    0    0  0.13045350576E+01  0.65983723305E+01 -0.50037266493E+01  0.83831741906E+01  0.00000000000E+00 0.  1.
</event>
<event>
 7    1  0.6246445E-012  0.5930191E+02  0.7816164E-02  0.1266605E+00
        -11   -1    0    0    0    0  0.00000000000E+00  0.00000000000E+00  0.45593999997E+02  0.45594000000E+02  0.51100000000E-03 0. -1.
         11   -1    0    0    0    0 -0.00000000000E+00 -0.00000000000E+00 -0.45593999997E+02  0.45594000000E+02  0.51100000000E-03 0.  1.
    9900012    2    1    2    0    0  0.26208893814E+02 -0.12704436567E+01 -0.18116356817E+02  0.59301913279E+02  0.49999943922E+02 0.  0.
         12    1    1    2    0    0 -0.26208893814E+02  0.12704436567E+01  0.18116356817E+02  0.31886086721E+02  0.00000000000E+00 0. -1.
         11    1    3    3    0    0  0.84286565168E+00  0.90118457888E+01  0.66712542372E+01  0.11244083795E+02  0.51100000000E-03 0. -1.
        -11    1    3    3    0    0 -0.44058743334E+01  0.38035454760E+01 -0.10812507815E+02  0.12279617760E+02  0.51100000000E-03 0.  1.
         12    1    3    3    0    0  0.29771902495E+02 -0.14085834922E+02 -0.13975103240E+02  0.35778211724E+02  0.00000000000E+00 0. -1.
</event>
<event>
 7    1  0.6246445E-012  0.5930193E+02  0.7816164E-02  0.1266605E+00
        -11   -1    0    0    0    0  0.00000000000E+00  0.00000000000E+00  0.45593999997E+02  0.45594000000E+02  0.51100000000E-03 0. -1.
         11   -1    0    0    0    0 -0.00000000000E+00 -0.00000000000E+00 -0.45593999997E+02  0.45594000000E+02  0.51100000000E-03 0.  1.
    9900012    2    1    2    0    0  0.11698022788E+02  0.13695747258E+02 -0.26311680106E+02  0.59301925608E+02  0.49999966407E+02 0.  0.
         12    1    1    2    0    0 -0.11698022788E+02 -0.13695747258E+02  0.26311680106E+02  0.31886074392E+02  0.00000000000E+00 0. -1.
         11    1    3    3    0    0  0.68640044837E-01 -0.61523408900E+01  0.33476275260E+01  0.70044714430E+01  0.51100000000E-03 0. -1.
        -11    1    3    3    0    0 -0.39047792754E+01 -0.92102418257E+01 -0.53005558032E+01  0.11321296205E+02  0.51100000000E-03 0.  1.
        -12    1    3    3    0    0  0.15534162019E+02  0.29058329974E+02 -0.24358751829E+02  0.40976157960E+02  0.00000000000E+00 0.  1.
</event>
<event>
 7    1  0.6246445E-012  0.5930194E+02  0.7816164E-02  0.1266605E+00
        -11   -1    0    0    0    0  0.00000000000E+00  0.00000000000E+00  0.45593999997E+02  0.45594000000E+02  0.51100000000E-03 0.  1.
         11   -1    0    0    0    0 -0.00000000000E+00 -0.00000000000E+00 -0.45593999997E+02  0.45594000000E+02  0.51100000000E-03 0. -1.
    9900012    2    1    2    0    0 -0.27815030388E+02  0.59285684163E+01  0.14418632314E+02  0.59301940401E+02  0.49999993386E+02 0.  0.
         12    1    1    2    0    0  0.27815030388E+02 -0.59285684163E+01 -0.14418632314E+02  0.31886059599E+02  0.00000000000E+00 0. -1.
         11    1    3    3    0    0  0.28690489141E+01  0.42317046079E+00 -0.40869899805E+01  0.50113872602E+01  0.51100000000E-03 0. -1.
        -11    1    3    3    0    0 -0.38392519267E+02  0.12302189470E+02  0.11752888861E+02  0.41993568535E+02  0.51100000000E-03 0.  1.
         12    1    3    3    0    0  0.77084399655E+01 -0.67967915142E+01  0.67527334333E+01  0.12296984606E+02  0.00000000000E+00 0. -1.
</event>
<event>
 7    1  0.6246445E-012  0.5930186E+02  0.7816164E-02  0.1266605E+00
        -11   -1    0    0    0    0  0.00000000000E+00  0.00000000000E+00  0.45593999997E+02  0.45594000000E+02  0.51100000000E-03 0. -1.
         11   -1    0    0    0    0 -0.00000000000E+00 -0.00000000000E+00 -0.45593999997E+02  0.45594000000E+02  0.51100000000E-03 0.  1.
    9900012    2    1    2    0    0 -0.20338121023E+02  0.22301582068E+02 -0.10282330931E+02  0.59301857887E+02  0.49999842900E+02 0.  0.
         12    1    1    2    0    0  0.20338121023E+02 -0.22301582068E+02  0.10282330931E+02  0.31886142113E+02  0.00000000000E+00 0. -1.
         11    1    3    3    0    0 -0.95790891715E+01  0.10651047498E+02  0.94508674041E+01  0.17161662423E+02  0.51100000000E-03 0. -1.
        -11    1    3    3    0    0 -0.15454314279E+02  0.13389354155E+02  0.13291499531E+01  0.20490907115E+02  0.51100000000E-03 0.  1.
        -12    1    3    3    0    0  0.46952824275E+01 -0.17388195849E+01 -0.21062348288E+02  0.21649288350E+02  0.00000000000E+00 0.  1.
</event>
<event>
 7    1  0.6246445E-012  0.5930194E+02  0.7816164E-02  0.1266605E+00
        -11   -1    0    0    0    0  0.00000000000E+00  0.00000000000E+00  0.45593999997E+02  0.45594000000E+02  0.51100000000E-03 0. -1.
         11   -1    0    0    0    0 -0.00000000000E+00 -0.00000000000E+00 -0.45593999997E+02  0.45594000000E+02  0.51100000000E-03 0.  1.
    9900012    2    1    2    0    0  0.28286390196E+02  0.10589246826E+02 -0.10221002824E+02  0.59301938509E+02  0.49999989936E+02 0.  0.
         12    1    1    2    0    0 -0.28286390196E+02 -0.10589246826E+02  0.10221002824E+02  0.31886061491E+02  0.00000000000E+00 0. -1.
         11    1    3    3    0    0 -0.14452673168E+01 -0.77375345005E+00  0.27700085627E+01  0.32187636938E+01  0.51100000000E-03 0. -1.
        -11    1    3    3    0    0 -0.56922661189E+01 -0.10817613311E+02  0.29414899015E+00  0.12227394457E+02  0.51100000000E-03 0.  1.
        -12    1    3    3    0    0  0.35423923632E+02  0.22180613588E+02 -0.13285160376E+02  0.43855780358E+02  0.00000000000E+00 0.  1.
</event>
<event>
 7    1  0.6246445E-012  0.5930191E+02  0.7816164E-02  0.1266605E+00
        -11   -1    0    0    0    0  0.00000000000E+00  0.00000000000E+00  0.45593999997E+02  0.45594000000E+02  0.51100000000E-03 0.  1.
         11   -1    0    0    0    0 -0.00000000000E+00 -0.00000000000E+00 -0.45593999997E+02  0.45594000000E+02  0.51100000000E-03 0. -1.
    9900012    2    1    2    0    0 -0.95517594711E+01 -0.29905367836E+02  0.55817146701E+01  0.59301910979E+02  0.49999939726E+02 0.  0.
         12    1    1    2    0    0  0.95517594711E+01  0.29905367836E+02 -0.55817146701E+01  0.31886089021E+02  0.00000000000E+00 0. -1.
         11    1    3    3    0    0  0.51475287735E+01  0.49163396318E+01 -0.33228969137E+01  0.78555134784E+01  0.51100000000E-03 0. -1.
        -11    1    3    3    0    0 -0.25155803079E+02 -0.29695972514E+02  0.54425147838E+01  0.39297406779E+02  0.51100000000E-03 0.  1.
         12    1    3    3    0    0  0.10456514834E+02 -0.51257349537E+01  0.34620968000E+01  0.12148990721E+02  0.00000000000E+00 0. -1.
</event>
<event>
 7    1  0.6246445E-012  0.5930194E+02  0.7816164E-02  0.1266605E+00
        -11   -1    0    0    0    0  0.00000000000E+00  0.00000000000E+00  0.45593999997E+02  0.45594000000E+02  0.51100000000E-03 0.  1.
         11   -1    0    0    0    0 -0.00000000000E+00 -0.00000000000E+00 -0.45593999997E+02  0.45594000000E+02  0.51100000000E-03 0. -1.
    9900012    2    1    2    0    0  0.27009021409E+02  0.11852673198E+02  0.12113951378E+02  0.59301938509E+02  0.49999989936E+02 0.  0.
         12    1    1    2    0    0 -0.27009021409E+02 -0.11852673198E+02 -0.12113951378E+02  0.31886061491E+02  0.00000000000E+00 0. -1.
         11    1    3    3    0    0 -0.87400217227E+01  0.10867908558E+01  0.77391668823E+01  0.11724495655E+02  0.51100000000E-03 0. -1.
        -11    1    3    3    0    0  0.16425341236E+01 -0.19929114148E+01 -0.85541690313E+01  0.89355146652E+01  0.51100000000E-03 0.  1.
        -12    1    3    3    0    0  0.34106509008E+02  0.12758793757E+02  0.12928953527E+02  0.38641928189E+02  0.00000000000E+00 0.  1.
</event>
<event>
 7    1  0.6246445E-012  0.5930197E+02  0.7816164E-02  0.1266605E+00
        -11   -1    0    0    0    0  0.00000000000E+00  0.00000000000E+00  0.45593999997E+02  0.45594000000E+02  0.51100000000E-03 0.  1.
         11   -1    0    0    0    0 -0.00000000000E+00 -0.00000000000E+00 -0.45593999997E+02  0.45594000000E+02  0.51100000000E-03 0. -1.
    9900012    2    1    2    0    0  0.22082340135E+02 -0.45376965787E+01  0.22549912609E+02  0.59301968657E+02  0.50000044919E+02 0.  0.
         12    1    1    2    0    0 -0.22082340135E+02  0.45376965787E+01 -0.22549912609E+02  0.31886031343E+02  0.00000000000E+00 0. -1.
         11    1    3    3    0    0 -0.57847284486E+01  0.71408221858E+01  0.15039448668E+02  0.17624966417E+02  0.51100000000E-03 0. -1.
        -11    1    3    3    0    0  0.47548760847E+01 -0.10483061403E+02  0.13529753894E+02  0.17763942796E+02  0.51100000000E-03 0.  1.
        -12    1    3    3    0    0  0.23112192499E+02 -0.11954573614E+01 -0.60192899531E+01  0.23913059444E+02  0.00000000000E+00 0.  1.
</event>
<event>
 7    1  0.6246445E-012  0.5930195E+02  0.7816164E-02  0.1266605E+00
        -11   -1    0    0    0    0  0.00000000000E+00  0.00000000000E+00  0.45593999997E+02  0.45594000000E+02  0.51100000000E-03 0.  1.
         11   -1    0    0    0    0 -0.00000000000E+00 -0.00000000000E+00 -0.45593999997E+02  0.45594000000E+02  0.51100000000E-03 0. -1.
    9900012    2    1    2    0    0  0.26502332586E+02 -0.14743097946E+02 -0.98482165179E+01  0.59301953865E+02  0.50000017940E+02 0.  0.
         12    1    1    2    0    0 -0.26502332586E+02  0.14743097946E+02  0.98482165179E+01  0.31886046135E+02  0.00000000000E+00 0. -1.
         11    1    3    3    0    0  0.79021640697E+01  0.26054991911E+01 -0.83926354052E+01  0.11818170431E+02  0.51100000000E-03 0. -1.
        -11    1    3    3    0    0  0.14201291245E+02 -0.22883251364E+01 -0.19075337467E+02  0.23891036074E+02  0.51100000000E-03 0.  1.
        -12    1    3    3    0    0  0.43988772722E+01 -0.15060272001E+02  0.17619756355E+02  0.23592747360E+02  0.00000000000E+00 0.  1.
</event>
<event>
 7    1  0.6246445E-012  0.5930193E+02  0.7816164E-02  0.1266605E+00
        -11   -1    0    0    0    0  0.00000000000E+00  0.00000000000E+00  0.45593999997E+02  0.45594000000E+02  0.51100000000E-03 0.  1.
         11   -1    0    0    0    0 -0.00000000000E+00 -0.00000000000E+00 -0.45593999997E+02  0.45594000000E+02  0.51100000000E-03 0. -1.
    9900012    2    1    2    0    0  0.30827423462E+02 -0.70376315066E+01 -0.41064498093E+01  0.59301933693E+02  0.49999981151E+02 0.  0.
         12    1    1    2    0    0 -0.30827423462E+02  0.70376315066E+01  0.41064498093E+01  0.31886066307E+02  0.00000000000E+00 0. -1.
         11    1    3    3    0    0  0.16546843838E+02 -0.66080827230E+01 -0.12480815046E+02  0.21753977630E+02  0.51100000000E-03 0. -1.
        -11    1    3    3    0    0  0.14860479305E+02 -0.15525004444E+02  0.46223701669E+01  0.21982400105E+02  0.51100000000E-03 0.  1.
        -12    1    3    3    0    0 -0.57989968082E+00  0.15095455661E+02  0.37519950702E+01  0.15565555957E+02  0.00000000000E+00 0.  1.
</event>
<event>
 7    1  0.6246445E-012  0.5930195E+02  0.7816164E-02  0.1266605E+00
        -11   -1    0    0    0    0  0.00000000000E+00  0.00000000000E+00  0.45593999997E+02  0.45594000000E+02  0.51100000000E-03 0.  1.
         11   -1    0    0    0    0 -0.00000000000E+00 -0.00000000000E+00 -0.45593999997E+02  0.45594000000E+02  0.51100000000E-03 0. -1.
    9900012    2    1    2    0    0  0.27832170098E+01 -0.24661634602E+02  0.20019437638E+02  0.59301946598E+02  0.50000004688E+02 0.  0.
         12    1    1    2    0    0 -0.27832170098E+01  0.24661634602E+02 -0.20019437638E+02  0.31886053402E+02  0.00000000000E+00 0. -1.
         11    1    3    3    0    0 -0.48890133192E+01 -0.11805228379E+02  0.27849478215E+02  0.30640811109E+02  0.51100000000E-03 0. -1.
        -11    1    3    3    0    0  0.20828347355E+01 -0.39394752873E+01  0.82889212838E+01  0.94108385591E+01  0.51100000000E-03 0.  1.
         12    1    3    3    0    0  0.55893955936E+01 -0.89169309362E+01 -0.16118961861E+02  0.19250296930E+02  0.00000000000E+00 0. -1.
</event>
<event>
 7    1  0.6246445E-012  0.5930195E+02  0.7816164E-02  0.1266605E+00
        -11   -1    0    0    0    0  0.00000000000E+00  0.00000000000E+00  0.45593999997E+02  0.45594000000E+02  0.51100000000E-03 0. -1.
         11   -1    0    0    0    0 -0.00000000000E+00 -0.00000000000E+00 -0.45593999997E+02  0.45594000000E+02  0.51100000000E-03 0.  1.
    9900012    2    1    2    0    0  0.24289113052E+01  0.15950114108E+02 -0.27502986988E+02  0.59301952214E+02  0.50000014929E+02 0.  0.
         12    1    1    2    0    0 -0.24289113052E+01 -0.15950114108E+02  0.27502986988E+02  0.31886047786E+02  0.00000000000E+00 0. -1.
         11    1    3    3    0    0  0.16551842392E+02  0.24639576468E+02 -0.20470531173E+02  0.36057105567E+02  0.51100000000E-03 0.  1.
        -11    1    3    3    0    0 -0.34111576368E+01  0.41251658164E+01 -0.77270993377E+00  0.54083334160E+01  0.51100000000E-03 0. -1.
        -12    1    3    3    0    0 -0.10711773450E+02 -0.12814628176E+02 -0.62597458803E+01  0.17836513231E+02  0.00000000000E+00 0.  1.
</event>
<event>
 7    1  0.6246445E-012  0.5930195E+02  0.7816164E-02  0.1266605E+00
        -11   -1    0    0    0    0  0.00000000000E+00  0.00000000000E+00  0.45593999997E+02  0.45594000000E+02  0.51100000000E-03 0.  1.
         11   -1    0    0    0    0 -0.00000000000E+00 -0.00000000000E+00 -0.45593999997E+02  0.45594000000E+02  0.51100000000E-03 0. -1.
    9900012    2    1    2    0    0  0.67152405851E+01  0.28542667116E+02  0.12527633658E+02  0.59301954348E+02  0.50000018823E+02 0.  0.
         12    1    1    2    0    0 -0.67152405851E+01 -0.28542667116E+02 -0.12527633658E+02  0.31886045652E+02  0.00000000000E+00 0. -1.
         11    1    3    3    0    0  0.59401909633E+01  0.37606181171E+01  0.88509262217E+01  0.11303407121E+02  0.51100000000E-03 0.  1.
        -11    1    3    3    0    0 -0.54534897887E+01  0.26761614919E+02 -0.12881668989E+02  0.30197052508E+02  0.51100000000E-03 0. -1.
         12    1    3    3    0    0  0.62285394105E+01 -0.19795659201E+01  0.16558376425E+02  0.17801494719E+02  0.00000000000E+00 0. -1.
</event>
<event>
 7    1  0.6246445E-012  0.5930194E+02  0.7816164E-02  0.1266605E+00
        -11   -1    0    0    0    0  0.00000000000E+00  0.00000000000E+00  0.45593999997E+02  0.45594000000E+02  0.51100000000E-03 0.  1.
         11   -1    0    0    0    0 -0.00000000000E+00 -0.00000000000E+00 -0.45593999997E+02  0.45594000000E+02  0.51100000000E-03 0. -1.
    9900012    2    1    2    0    0  0.18729019940E+02 -0.23687435731E+02  0.10239621171E+02  0.59301942840E+02  0.49999997835E+02 0.  0.
         12    1    1    2    0    0 -0.18729019940E+02  0.23687435731E+02 -0.10239621171E+02  0.31886057160E+02  0.00000000000E+00 0. -1.
         11    1    3    3    0    0  0.12011939012E+02 -0.20600034187E+02  0.55570685943E+00  0.23852817395E+02  0.51100000000E-03 0.  1.
        -11    1    3    3    0    0  0.15548680671E+02 -0.10791700768E+02 -0.18359557784E+01  0.19015599122E+02  0.51100000000E-03 0. -1.
         12    1    3    3    0    0 -0.88315997426E+01  0.77042992235E+01  0.11519870090E+02  0.16433526323E+02  0.00000000000E+00 0. -1.
</event>
<event>
 7    1  0.6246445E-012  0.5930193E+02  0.7816164E-02  0.1266605E+00
        -11   -1    0    0    0    0  0.00000000000E+00  0.00000000000E+00  0.45593999997E+02  0.45594000000E+02  0.51100000000E-03 0. -1.
         11   -1    0    0    0    0 -0.00000000000E+00 -0.00000000000E+00 -0.45593999997E+02  0.45594000000E+02  0.51100000000E-03 0.  1.
    9900012    2    1    2    0    0  0.21197361257E+02 -0.50015542379E+01 -0.23289011804E+02  0.59301925612E+02  0.49999966415E+02 0.  0.
         12    1    1    2    0    0 -0.21197361257E+02  0.50015542379E+01  0.23289011804E+02  0.31886074388E+02  0.00000000000E+00 0. -1.
         11    1    3    3    0    0  0.42332880993E+01 -0.10552775004E+02  0.20106716286E+01  0.11546626741E+02  0.51100000000E-03 0. -1.
        -11    1    3    3    0    0  0.24860325035E+02 -0.64031551565E+00 -0.53694662774E+01  0.25441637785E+02  0.51100000000E-03 0.  1.
         12    1    3    3    0    0 -0.78962518774E+01  0.61915362822E+01 -0.19930217155E+02  0.22313661087E+02  0.00000000000E+00 0. -1.
</event>
<event>
 7    1  0.6246445E-012  0.5930169E+02  0.7816164E-02  0.1266606E+00
        -11   -1    0    0    0    0  0.00000000000E+00  0.00000000000E+00  0.45593999997E+02  0.45594000000E+02  0.51100000000E-03 0.  1.
         11   -1    0    0    0    0 -0.00000000000E+00 -0.00000000000E+00 -0.45593999997E+02  0.45594000000E+02  0.51100000000E-03 0. -1.
    9900012    2    1    2    0    0 -0.69540343678E+01 -0.24045994721E+02  0.19752684333E+02  0.59301686408E+02  0.49999530161E+02 0.  0.
         12    1    1    2    0    0  0.69540343678E+01  0.24045994721E+02 -0.19752684333E+02  0.31886313592E+02  0.00000000000E+00 0. -1.
         11    1    3    3    0    0  0.13028465224E+02 -0.18492244010E+02  0.25543269273E+02  0.34119827081E+02  0.51100000000E-03 0.  1.
        -11    1    3    3    0    0 -0.15566853476E+02 -0.21695259506E+01  0.17463471791E+01  0.15814028542E+02  0.51100000000E-03 0. -1.
        -12    1    3    3    0    0 -0.44156461160E+01 -0.33842247607E+01 -0.75369321191E+01  0.93678307853E+01  0.00000000000E+00 0.  1.
</event>
<event>
 7    1  0.6246445E-012  0.5930193E+02  0.7816164E-02  0.1266605E+00
        -11   -1    0    0    0    0  0.00000000000E+00  0.00000000000E+00  0.45593999997E+02  0.45594000000E+02  0.51100000000E-03 0.  1.
         11   -1    0    0    0    0 -0.00000000000E+00 -0.00000000000E+00 -0.45593999997E+02  0.45594000000E+02  0.51100000000E-03 0. -1.
    9900012    2    1    2    0    0 -0.15967648992E+02 -0.14363010679E+02  0.23568192336E+02  0.59301928118E+02  0.49999970984E+02 0.  0.
         12    1    1    2    0    0  0.15967648992E+02  0.14363010679E+02 -0.23568192336E+02  0.31886071882E+02  0.00000000000E+00 0. -1.
         11    1    3    3    0    0 -0.15217368174E+02  0.75173785934E+01  0.19168066584E+01  0.17080791056E+02  0.51100000000E-03 0. -1.
        -11    1    3    3    0    0 -0.72652530732E+01 -0.40651523306E+00 -0.38662270832E+01  0.82399556414E+01  0.51100000000E-03 0.  1.
        -12    1    3    3    0    0  0.65149722555E+01 -0.21473874039E+02  0.25517612761E+02  0.33981181421E+02  0.00000000000E+00 0.  1.
</event>
<event>
 7    1  0.6246445E-012  0.5930195E+02  0.7816164E-02  0.1266605E+00
        -11   -1    0    0    0    0  0.00000000000E+00  0.00000000000E+00  0.45593999997E+02  0.45594000000E+02  0.51100000000E-03 0.  1.
         11   -1    0    0    0    0 -0.00000000000E+00 -0.00000000000E+00 -0.45593999997E+02  0.45594000000E+02  0.51100000000E-03 0. -1.
    9900012    2    1    2    0    0  0.19263539256E+02  0.19501307053E+02  0.16289121286E+02  0.59301946721E+02  0.50000004912E+02 0.  0.
         12    1    1    2    0    0 -0.19263539256E+02 -0.19501307053E+02 -0.16289121286E+02  0.31886053279E+02  0.00000000000E+00 0. -1.
         11    1    3    3    0    0 -0.13426402731E+02  0.13434421674E+02  0.35286689682E+01  0.19318475120E+02  0.51100000000E-03 0. -1.
        -11    1    3    3    0    0  0.18229870829E+02  0.90705927799E+01 -0.15733832715E+00  0.20362431079E+02  0.51100000000E-03 0.  1.
        -12    1    3    3    0    0  0.14460071158E+02 -0.30037074009E+01  0.12917790645E+02  0.19621040523E+02  0.00000000000E+00 0.  1.
</event>
<event>
 7    1  0.6246445E-012  0.5930193E+02  0.7816164E-02  0.1266605E+00
        -11   -1    0    0    0    0  0.00000000000E+00  0.00000000000E+00  0.45593999997E+02  0.45594000000E+02  0.51100000000E-03 0. -1.
         11   -1    0    0    0    0 -0.00000000000E+00 -0.00000000000E+00 -0.45593999997E+02  0.45594000000E+02  0.51100000000E-03 0.  1.
    9900012    2    1    2    0    0 -0.82723434770E+01  0.86437613035E+01 -0.29556300349E+02  0.59301934605E+02  0.49999982815E+02 0.  0.
         12    1    1    2    0    0  0.82723434770E+01 -0.86437613035E+01  0.29556300349E+02  0.31886065395E+02  0.00000000000E+00 0. -1.
         11    1    3    3    0    0 -0.11530571819E+02  0.16889697903E+02 -0.13258480331E+02  0.24372182559E+02  0.51100000000E-03 0. -1.
        -11    1    3    3    0    0 -0.58748521788E+01  0.70964741814E+01 -0.14234788782E+02  0.16955914775E+02  0.51100000000E-03 0.  1.
         12    1    3    3    0    0  0.91330805209E+01 -0.15342410781E+02 -0.20630312352E+01  0.17973837271E+02  0.00000000000E+00 0. -1.
</event>
<event>
 7    1  0.6246445E-012  0.5930195E+02  0.7816164E-02  0.1266605E+00
        -11   -1    0    0    0    0  0.00000000000E+00  0.00000000000E+00  0.45593999997E+02  0.45594000000E+02  0.51100000000E-03 0. -1.
         11   -1    0    0    0    0 -0.00000000000E+00 -0.00000000000E+00 -0.45593999997E+02  0.45594000000E+02  0.51100000000E-03 0.  1.
    9900012    2    1    2    0    0 -0.15161746015E+02  0.26636654820E+02 -0.87937608284E+01  0.59301950515E+02  0.50000011832E+02 0.  0.
         12    1    1    2    0    0  0.15161746015E+02 -0.26636654820E+02  0.87937608284E+01  0.31886049485E+02  0.00000000000E+00 0. -1.
         11    1    3    3    0    0 -0.12690004368E+02 -0.33428331563E+01 -0.92565127455E+01  0.16059071357E+02  0.51100000000E-03 0. -1.
        -11    1    3    3    0    0 -0.10354979520E+02  0.10531175867E+01  0.70178869087E+01  0.12553302133E+02  0.51100000000E-03 0.  1.
        -12    1    3    3    0    0  0.78832378725E+01  0.28926370390E+02 -0.65551349916E+01  0.30689577026E+02  0.00000000000E+00 0.  1.
</event>
<event>
 7    1  0.6246445E-012  0.5930194E+02  0.7816164E-02  0.1266605E+00
        -11   -1    0    0    0    0  0.00000000000E+00  0.00000000000E+00  0.45593999997E+02  0.45594000000E+02  0.51100000000E-03 0. -1.
         11   -1    0    0    0    0 -0.00000000000E+00 -0.00000000000E+00 -0.45593999997E+02  0.45594000000E+02  0.51100000000E-03 0.  1.
    9900012    2    1    2    0    0  0.20565088587E+01  0.89855568667E+01 -0.30524602344E+02  0.59301940206E+02  0.49999993031E+02 0.  0.
         12    1    1    2    0    0 -0.20565088587E+01 -0.89855568667E+01  0.30524602344E+02  0.31886059794E+02  0.00000000000E+00 0. -1.
         11    1    3    3    0    0  0.17017158177E+02  0.53198334937E+01 -0.14792295967E+02  0.23166707169E+02  0.51100000000E-03 0. -1.
        -11    1    3    3    0    0  0.15532002930E+01 -0.72440917978E+01 -0.14526056903E+02  0.16306306343E+02  0.51100000000E-03 0.  1.
        -12    1    3    3    0    0 -0.16513849611E+02  0.10909815171E+02 -0.12062494734E+01  0.19828926694E+02  0.00000000000E+00 0.  1.
</event>
<event>
 7    1  0.6246445E-012  0.5930191E+02  0.7816164E-02  0.1266605E+00
        -11   -1    0    0    0    0  0.00000000000E+00  0.00000000000E+00  0.45593999997E+02  0.45594000000E+02  0.51100000000E-03 0.  1.
         11   -1    0    0    0    0 -0.00000000000E+00 -0.00000000000E+00 -0.45593999997E+02  0.45594000000E+02  0.51100000000E-03 0. -1.
    9900012    2    1    2    0    0  0.25137411893E+02 -0.17240669730E+02  0.93590829503E+01  0.59301912076E+02  0.49999941727E+02 0.  0.
         12    1    1    2    0    0 -0.25137411893E+02  0.17240669730E+02 -0.93590829503E+01  0.31886087924E+02  0.00000000000E+00 0. -1.
         11    1    3    3    0    0  0.20515829396E+02  0.51841571656E+01 -0.70659738746E+00  0.21172482648E+02  0.51100000000E-03 0. -1.
        -11    1    3    3    0    0 -0.64354280587E+00  0.67329986244E+01  0.40878620352E+01  0.79030395481E+01  0.51100000000E-03 0.  1.
        -12    1    3    3    0    0  0.52651253029E+01 -0.29157825520E+02  0.59778183025E+01  0.30226389880E+02  0.00000000000E+00 0.  1.
</event>
<event>
 7    1  0.6246445E-012  0.5930192E+02  0.7816164E-02  0.1266605E+00
        -11   -1    0    0    0    0  0.00000000000E+00  0.00000000000E+00  0.45593999997E+02  0.45594000000E+02  0.51100000000E-03 0. -1.
         11   -1    0    0    0    0 -0.00000000000E+00 -0.00000000000E+00 -0.45593999997E+02  0.45594000000E+02  0.51100000000E-03 0.  1.
    9900012    2    1    2    0    0  0.24525291526E+02  0.85279097462E+01  0.18506949797E+02  0.59301915891E+02  0.49999948685E+02 0.  0.
         12    1    1    2    0    0 -0.24525291526E+02 -0.85279097462E+01 -0.18506949797E+02  0.31886084109E+02  0.00000000000E+00 0. -1.
         11    1    3    3    0    0 -0.42943164007E+01 -0.10390965254E+01  0.96997935850E+01  0.10658652391E+02  0.51100000000E-03 0. -1.
        -11    1    3    3    0    0 -0.33492381856E+01 -0.27803895064E+01  0.13207482204E+02  0.13906313266E+02  0.51100000000E-03 0.  1.
        -12    1    3    3    0    0  0.32168846112E+02  0.12347395778E+02 -0.44003259926E+01  0.34736950233E+02  0.00000000000E+00 0.  1.
</event>
<event>
 7    1  0.6246445E-012  0.5930197E+02  0.7816164E-02  0.1266605E+00
        -11   -1    0    0    0    0  0.00000000000E+00  0.00000000000E+00  0.45593999997E+02  0.45594000000E+02  0.51100000000E-03 0.  1.
         11   -1    0    0    0    0 -0.00000000000E+00 -0.00000000000E+00 -0.45593999997E+02  0.45594000000E+02  0.51100000000E-03 0. -1.
    9900012    2    1    2    0    0 -0.33412912871E+01 -0.21254340354E+02  0.23533122739E+02  0.59301967365E+02  0.50000042562E+02 0.  0.
         12    1    1    2    0    0  0.33412912871E+01  0.21254340354E+02 -0.23533122739E+02  0.31886032635E+02  0.00000000000E+00 0. -1.
         11    1    3    3    0    0  0.18303955058E+01 -0.11367125453E+02 -0.72694497573E+01  0.13616416152E+02  0.51100000000E-03 0. -1.
        -11    1    3    3    0    0 -0.11684514194E+02 -0.58590947107E+01 -0.87021080547E+00  0.13100157628E+02  0.51100000000E-03 0.  1.
         12    1    3    3    0    0  0.65128274012E+01 -0.40281201903E+01  0.31672783302E+02  0.32585393585E+02  0.00000000000E+00 0. -1.
</event>
<event>
 7    1  0.6246445E-012  0.5930193E+02  0.7816164E-02  0.1266605E+00
        -11   -1    0    0    0    0  0.00000000000E+00  0.00000000000E+00  0.45593999997E+02  0.45594000000E+02  0.51100000000E-03 0. -1.
         11   -1    0    0    0    0 -0.00000000000E+00 -0.00000000000E+00 -0.45593999997E+02  0.45594000000E+02  0.51100000000E-03 0.  1.
    9900012    2    1    2    0    0  0.29931169907E+02  0.66154476242E+01 -0.87796493740E+01  0.59301932158E+02  0.49999978353E+02 0.  0.
         12    1    1    2    0    0 -0.29931169907E+02 -0.66154476242E+01  0.87796493740E+01  0.31886067842E+02  0.00000000000E+00 0. -1.
         11    1    3    3    0    0  0.26895881035E+01  0.84034627392E+01  0.37615360819E+01  0.95917268587E+01  0.51100000000E-03 0. -1.
        -11    1    3    3    0    0 -0.48360854418E+01  0.10802260922E+02  0.25231381061E+01  0.12101354866E+02  0.51100000000E-03 0.  1.
        -12    1    3    3    0    0  0.32077667245E+02 -0.12590276037E+02 -0.15064323562E+02  0.37608850434E+02  0.00000000000E+00 0.  1.
</event>
<event>
 7    1  0.6246445E-012  0.5930192E+02  0.7816164E-02  0.1266605E+00
        -11   -1    0    0    0    0  0.00000000000E+00  0.00000000000E+00  0.45593999997E+02  0.45594000000E+02  0.51100000000E-03 0. -1.
         11   -1    0    0    0    0 -0.00000000000E+00 -0.00000000000E+00 -0.45593999997E+02  0.45594000000E+02  0.51100000000E-03 0.  1.
    9900012    2    1    2    0    0  0.12701569239E+02  0.28901348661E+01 -0.29103935190E+02  0.59301924917E+02  0.49999965147E+02 0.  0.
         12    1    1    2    0    0 -0.12701569239E+02 -0.28901348661E+01  0.29103935190E+02  0.31886075083E+02  0.00000000000E+00 0. -1.
         11    1    3    3    0    0 -0.45105537901E+01 -0.55058622456E-01  0.45554874571E+01  0.64109744328E+01  0.51100000000E-03 0. -1.
        -11    1    3    3    0    0 -0.85915236472E+01 -0.59146600863E+01 -0.12162487409E+01  0.10501273436E+02  0.51100000000E-03 0.  1.
         12    1    3    3    0    0  0.25803646676E+02  0.88598535748E+01 -0.32443173906E+02  0.42389677048E+02  0.00000000000E+00 0. -1.
</event>
<event>
 7    1  0.6246445E-012  0.5930195E+02  0.7816164E-02  0.1266605E+00
        -11   -1    0    0    0    0  0.00000000000E+00  0.00000000000E+00  0.45593999997E+02  0.45594000000E+02  0.51100000000E-03 0. -1.
         11   -1    0    0    0    0 -0.00000000000E+00 -0.00000000000E+00 -0.45593999997E+02  0.45594000000E+02  0.51100000000E-03 0.  1.
    9900012    2    1    2    0    0 -0.11890534933E+02 -0.21113172224E+02 -0.20726058476E+02  0.59301947214E+02  0.50000005810E+02 0.  0.
         12    1    1    2    0    0  0.11890534933E+02  0.21113172224E+02  0.20726058476E+02  0.31886052786E+02  0.00000000000E+00 0. -1.
         11    1    3    3    0    0  0.80543320807E+01  0.46793110577E+01 -0.11565926855E+02  0.14850551556E+02  0.51100000000E-03 0. -1.
        -11    1    3    3    0    0 -0.11273865870E+01  0.24480088922E+01 -0.10149663705E+02  0.10501400937E+02  0.51100000000E-03 0.  1.
         12    1    3    3    0    0 -0.18817480427E+02 -0.28240492174E+02  0.98953208318E+00  0.33949994721E+02  0.00000000000E+00 0. -1.
</event>
<event>
 7    1  0.6246445E-012  0.5930163E+02  0.7816164E-02  0.1266606E+00
        -11   -1    0    0    0    0  0.00000000000E+00  0.00000000000E+00  0.45593999997E+02  0.45594000000E+02  0.51100000000E-03 0. -1.
         11   -1    0    0    0    0 -0.00000000000E+00 -0.00000000000E+00 -0.45593999997E+02  0.45594000000E+02  0.51100000000E-03 0.  1.
    9900012    2    1    2    0    0  0.20151362782E+02  0.10463096922E+02 -0.22387203764E+02  0.59301628122E+02  0.49999423860E+02 0.  0.
         12    1    1    2    0    0 -0.20151362782E+02 -0.10463096922E+02  0.22387203764E+02  0.31886371878E+02  0.00000000000E+00 0. -1.
         11    1    3    3    0    0  0.20904724488E+02  0.19018918708E+02  0.11427139227E+01  0.28284847005E+02  0.51100000000E-03 0. -1.
        -11    1    3    3    0    0  0.80557550699E+01 -0.32434589452E+01 -0.55625425949E+01  0.10312957677E+02  0.51100000000E-03 0.  1.
        -12    1    3    3    0    0 -0.88091167754E+01 -0.53123628407E+01 -0.17967375092E+02  0.20703823439E+02  0.00000000000E+00 0.  1.
</event>
<event>
 7    1  0.6246445E-012  0.5930193E+02  0.7816164E-02  0.1266605E+00
        -11   -1    0    0    0    0  0.00000000000E+00  0.00000000000E+00  0.45593999997E+02  0.45594000000E+02  0.51100000000E-03 0.  1.
         11   -1    0    0    0    0 -0.00000000000E+00 -0.00000000000E+00 -0.45593999997E+02  0.45594000000E+02  0.51100000000E-03 0. -1.
    9900012    2    1    2    0    0 -0.79839312223E+01 -0.18982704815E+02  0.24344103811E+02  0.59301927332E+02  0.49999969550E+02 0.  0.
         12    1    1    2    0    0  0.79839312223E+01  0.18982704815E+02 -0.24344103811E+02  0.31886072668E+02  0.00000000000E+00 0. -1.
         11    1    3    3    0    0  0.72506343993E+01 -0.13531441039E+01 -0.43216439029E+00  0.73884683446E+01  0.51100000000E-03 0. -1.
        -11    1    3    3    0    0  0.11417591838E+02  0.14480529708E+01  0.12689954843E+01  0.11578800049E+02  0.51100000000E-03 0.  1.
        -12    1    3    3    0    0 -0.26652157459E+02 -0.19077613682E+02  0.23507272717E+02  0.40334658938E+02  0.00000000000E+00 0.  1.
</event>
<event>
 7    1  0.6246445E-012  0.5930196E+02  0.7816164E-02  0.1266605E+00
        -11   -1    0    0    0    0  0.00000000000E+00  0.00000000000E+00  0.45593999997E+02  0.45594000000E+02  0.51100000000E-03 0.  1.
         11   -1    0    0    0    0 -0.00000000000E+00 -0.00000000000E+00 -0.45593999997E+02  0.45594000000E+02  0.51100000000E-03 0. -1.
    9900012    2    1    2    0    0 -0.57147616364E+01  0.31274047187E+02  0.24484289856E+01  0.59301963362E+02  0.50000035260E+02 0.  0.
         12    1    1    2    0    0  0.57147616364E+01 -0.31274047187E+02 -0.24484289856E+01  0.31886036638E+02  0.00000000000E+00 0. -1.
         11    1    3    3    0    0 -0.13328184142E+02  0.97112788394E+01  0.51539148320E+01  0.17277507563E+02  0.51100000000E-03 0. -1.
        -11    1    3    3    0    0 -0.10738519749E+02  0.16317642579E+02  0.68230458822E+01  0.20691428687E+02  0.51100000000E-03 0.  1.
        -12    1    3    3    0    0  0.18351942255E+02  0.52451257688E+01 -0.95285317287E+01  0.21333027112E+02  0.00000000000E+00 0.  1.
</event>
<event>
 7    1  0.6246445E-012  0.5930195E+02  0.7816164E-02  0.1266605E+00
        -11   -1    0    0    0    0  0.00000000000E+00  0.00000000000E+00  0.45593999997E+02  0.45594000000E+02  0.51100000000E-03 0.  1.
         11   -1    0    0    0    0 -0.00000000000E+00 -0.00000000000E+00 -0.45593999997E+02  0.45594000000E+02  0.51100000000E-03 0. -1.
    9900012    2    1    2    0    0 -0.13774758153E+02 -0.11080720255E+02  0.26536649896E+02  0.59301951150E+02  0.50000012990E+02 0.  0.
         12    1    1    2    0    0  0.13774758153E+02  0.11080720255E+02 -0.26536649896E+02  0.31886048850E+02  0.00000000000E+00 0. -1.
         11    1    3    3    0    0 -0.21037709268E+01 -0.21776403457E+01  0.27792441371E+01  0.41100082509E+01  0.51100000000E-03 0. -1.
        -11    1    3    3    0    0 -0.17103017166E+02 -0.19051417780E+00  0.35613649753E+02  0.39507993379E+02  0.51100000000E-03 0.  1.
         12    1    3    3    0    0  0.54320299397E+01 -0.87125657316E+01 -0.11856243995E+02  0.15683949520E+02  0.00000000000E+00 0. -1.
</event>
<event>
 7    1  0.6246445E-012  0.5930194E+02  0.7816164E-02  0.1266605E+00
        -11   -1    0    0    0    0  0.00000000000E+00  0.00000000000E+00  0.45593999997E+02  0.45594000000E+02  0.51100000000E-03 0.  1.
         11   -1    0    0    0    0 -0.00000000000E+00 -0.00000000000E+00 -0.45593999997E+02  0.45594000000E+02  0.51100000000E-03 0. -1.
    9900012    2    1    2    0    0  0.13716917314E+02  0.25765643923E+02  0.12833500766E+02  0.59301937696E+02  0.49999988452E+02 0.  0.
         12    1    1    2    0    0 -0.13716917314E+02 -0.25765643923E+02 -0.12833500766E+02  0.31886062304E+02  0.00000000000E+00 0. -1.
         11    1    3    3    0    0 -0.11708922677E+02  0.17681316579E+02  0.48444833049E+01  0.21753088171E+02  0.51100000000E-03 0. -1.
        -11    1    3    3    0    0  0.65594097804E-01 -0.25644608105E+01  0.96581234014E+01  0.99930030388E+01  0.51100000000E-03 0.  1.
        -12    1    3    3    0    0  0.25360245894E+02  0.10648788155E+02 -0.16691059405E+01  0.27555846486E+02  0.00000000000E+00 0.  1.
</event>
<event>
 7    1  0.6246445E-012  0.5930194E+02  0.7816164E-02  0.1266605E+00
        -11   -1    0    0    0    0  0.00000000000E+00  0.00000000000E+00  0.45593999997E+02  0.45594000000E+02  0.51100000000E-03 0.  1.
         11   -1    0    0    0    0 -0.00000000000E+00 -0.00000000000E+00 -0.45593999997E+02  0.45594000000E+02  0.51100000000E-03 0. -1.
    9900012    2    1    2    0    0  0.25204833915E+02 -0.19529968430E+02  0.13238561249E+00  0.59301939636E+02  0.49999991991E+02 0.  0.
         12    1    1    2    0    0 -0.25204833915E+02  0.19529968430E+02 -0.13238561249E+00  0.31886060364E+02  0.00000000000E+00 0. -1.
         11    1    3    3    0    0 -0.79382659403E+01 -0.45352478265E+01 -0.44190774633E+01  0.10154446557E+02  0.51100000000E-03 0. -1.
        -11    1    3    3    0    0  0.45905149718E+00  0.34227364474E+01  0.10598812640E+02  0.11147227580E+02  0.51100000000E-03 0.  1.
        -12    1    3    3    0    0  0.32684048358E+02 -0.18417457051E+02 -0.60473495646E+01  0.38000265500E+02  0.00000000000E+00 0.  1.
</event>
<event>
 7    1  0.6246445E-012  0.5930197E+02  0.7816164E-02  0.1266605E+00
        -11   -1    0    0    0    0  0.00000000000E+00  0.00000000000E+00  0.45593999997E+02  0.45594000000E+02  0.51100000000E-03 0. -1.
         11   -1    0    0    0    0 -0.00000000000E+00 -0.00000000000E+00 -0.45593999997E+02  0.45594000000E+02  0.51100000000E-03 0.  1.
    9900012    2    1    2    0    0  0.25231519325E+02 -0.18667953021E+02  0.56211032218E+01  0.59301971102E+02  0.50000049377E+02 0.  0.
         12    1    1    2    0    0 -0.25231519325E+02  0.18667953021E+02 -0.56211032218E+01  0.31886028898E+02  0.00000000000E+00 0. -1.
         11    1    3    3    0    0  0.99209031112E+01 -0.63838954174E+01 -0.12896493564E+02  0.17478500673E+02  0.51100000000E-03 0.  1.
        -11    1    3    3    0    0  0.11361115374E+02 -0.19080246878E+02  0.55185241452E+00  0.22213403719E+02  0.51100000000E-03 0. -1.
         12    1    3    3    0    0  0.39495008402E+01  0.67961892739E+01  0.17965744372E+02  0.19610066710E+02  0.00000000000E+00 0. -1.
</event>
<event>
 7    1  0.6246445E-012  0.5930198E+02  0.7816164E-02  0.1266605E+00
        -11   -1    0    0    0    0  0.00000000000E+00  0.00000000000E+00  0.45593999997E+02  0.45594000000E+02  0.51100000000E-03 0.  1.
         11   -1    0    0    0    0 -0.00000000000E+00 -0.00000000000E+00 -0.45593999997E+02  0.45594000000E+02  0.51100000000E-03 0. -1.
    9900012    2    1    2    0    0  0.15817745350E+02  0.12215607588E+02  0.24845440257E+02  0.59301983657E+02  0.50000072273E+02 0.  0.
         12    1    1    2    0    0 -0.15817745350E+02 -0.12215607588E+02 -0.24845440257E+02  0.31886016343E+02  0.00000000000E+00 0. -1.
         11    1    3    3    0    0 -0.11819634346E+02 -0.11171297893E+02  0.11905472855E+02  0.20155444348E+02  0.51100000000E-03 0.  1.
        -11    1    3    3    0    0  0.10523060536E+01  0.36831919701E+01  0.91300249539E+00  0.39378706095E+01  0.51100000000E-03 0. -1.
        -12    1    3    3    0    0  0.26585073643E+02  0.19703713511E+02  0.12026964906E+02  0.35208668699E+02  0.00000000000E+00 0.  1.
</event>
<event>
 7    1  0.6246445E-012  0.5930195E+02  0.7816164E-02  0.1266605E+00
        -11   -1    0    0    0    0  0.00000000000E+00  0.00000000000E+00  0.45593999997E+02  0.45594000000E+02  0.51100000000E-03 0. -1.
         11   -1    0    0    0    0 -0.00000000000E+00 -0.00000000000E+00 -0.45593999997E+02  0.45594000000E+02  0.51100000000E-03 0.  1.
    9900012    2    1    2    0    0  0.28881568197E+02  0.13028486708E+02 -0.35824454989E+01  0.59301947200E+02  0.50000005785E+02 0.  0.
         12    1    1    2    0    0 -0.28881568197E+02 -0.13028486708E+02  0.35824454989E+01  0.31886052800E+02  0.00000000000E+00 0. -1.
         11    1    3    3    0    0  0.15302719454E+01 -0.42800400741E+01 -0.99854342976E+01  0.10971297719E+02  0.51100000000E-03 0.  1.
        -11    1    3    3    0    0  0.23917106703E-01  0.65049359216E+01 -0.12006073053E+02  0.13655055979E+02  0.51100000000E-03 0. -1.
         12    1    3    3    0    0  0.27327379145E+02  0.10803590860E+02  0.18409061852E+02  0.34675593502E+02  0.00000000000E+00 0. -1.
</event>
<event>
 7    1  0.6246445E-012  0.5930167E+02  0.7816164E-02  0.1266606E+00
        -11   -1    0    0    0    0  0.00000000000E+00  0.00000000000E+00  0.45593999997E+02  0.45594000000E+02  0.51100000000E-03 0. -1.
         11   -1    0    0    0    0 -0.00000000000E+00 -0.00000000000E+00 -0.45593999997E+02  0.45594000000E+02  0.51100000000E-03 0.  1.
    9900012    2    1    2    0    0 -0.31097468265E+02 -0.44789270975E+01 -0.54428797742E+01  0.59301666553E+02  0.49999493950E+02 0.  0.
         12    1    1    2    0    0  0.31097468265E+02  0.44789270975E+01  0.54428797742E+01  0.31886333447E+02  0.00000000000E+00 0. -1.
         11    1    3    3    0    0 -0.12520840039E+02  0.67924425810E+01 -0.85271250415E+01  0.16601824394E+02  0.51100000000E-03 0. -1.
        -11    1    3    3    0    0  0.98726931512E+01  0.41864880116E+00  0.63863297055E+01  0.11765651034E+02  0.51100000000E-03 0.  1.
        -12    1    3    3    0    0 -0.28449321378E+02 -0.11690018480E+02 -0.33020844382E+01  0.30934191125E+02  0.00000000000E+00 0.  1.
</event>
<event>
 7    1  0.6246445E-012  0.5930194E+02  0.7816164E-02  0.1266605E+00
        -11   -1    0    0    0    0  0.00000000000E+00  0.00000000000E+00  0.45593999997E+02  0.45594000000E+02  0.51100000000E-03 0. -1.
         11   -1    0    0    0    0 -0.00000000000E+00 -0.00000000000E+00 -0.45593999997E+02  0.45594000000E+02  0.51100000000E-03 0.  1.
    9900012    2    1    2    0    0 -0.31334959491E+02 -0.44630942850E+01 -0.38628886015E+01  0.59301940267E+02  0.49999993142E+02 0.  0.
         12    1    1    2    0    0  0.31334959491E+02  0.44630942850E+01  0.38628886015E+01  0.31886059733E+02  0.00000000000E+00 0. -1.
         11    1    3    3    0    0 -0.21352279188E+02  0.14175304296E+02  0.28725966130E+00  0.25630871947E+02  0.51100000000E-03 0. -1.
        -11    1    3    3    0    0 -0.97093287207E+01  0.41967274337E+01 -0.12842948517E+01  0.10655186478E+02  0.51100000000E-03 0.  1.
         12    1    3    3    0    0 -0.27335158273E+00 -0.22835126014E+02 -0.28658534111E+01  0.23015881842E+02  0.00000000000E+00 0. -1.
</event>
<event>
 7    1  0.6246445E-012  0.5930194E+02  0.7816164E-02  0.1266605E+00
        -11   -1    0    0    0    0  0.00000000000E+00  0.00000000000E+00  0.45593999997E+02  0.45594000000E+02  0.51100000000E-03 0.  1.
         11   -1    0    0    0    0 -0.00000000000E+00 -0.00000000000E+00 -0.45593999997E+02  0.45594000000E+02  0.51100000000E-03 0. -1.
    9900012    2    1    2    0    0 -0.13322706193E+02 -0.55452574604E+01  0.28433723370E+02  0.59301937131E+02  0.49999987421E+02 0.  0.
         12    1    1    2    0    0  0.13322706193E+02  0.55452574604E+01 -0.28433723370E+02  0.31886062869E+02  0.00000000000E+00 0. -1.
         11    1    3    3    0    0 -0.11255023833E+02 -0.33539479220E+01  0.49163547966E+01  0.12731656329E+02  0.51100000000E-03 0. -1.
        -11    1    3    3    0    0 -0.20969416067E+02  0.80645521711E+00  0.10895037415E+02  0.23644631965E+02  0.51100000000E-03 0.  1.
         12    1    3    3    0    0  0.18901733707E+02 -0.29977647555E+01  0.12622331159E+02  0.22925648836E+02  0.00000000000E+00 0. -1.
</event>
<event>
 7    1  0.6246445E-012  0.5930195E+02  0.7816164E-02  0.1266605E+00
        -11   -1    0    0    0    0  0.00000000000E+00  0.00000000000E+00  0.45593999997E+02  0.45594000000E+02  0.51100000000E-03 0. -1.
         11   -1    0    0    0    0 -0.00000000000E+00 -0.00000000000E+00 -0.45593999997E+02  0.45594000000E+02  0.51100000000E-03 0.  1.
    9900012    2    1    2    0    0  0.13937479281E+02  0.49200275738E+01 -0.28253502255E+02  0.59301946783E+02  0.50000005026E+02 0.  0.
         12    1    1    2    0    0 -0.13937479281E+02 -0.49200275738E+01  0.28253502255E+02  0.31886053217E+02  0.00000000000E+00 0. -1.
         11    1    3    3    0    0  0.12142941883E+02 -0.12367940757E+02  0.58008999086E+01  0.18277511761E+02  0.51100000000E-03 0. -1.
        -11    1    3    3    0    0  0.58561452389E+01  0.11265667244E+01 -0.64849480380E+01  0.88101158313E+01  0.51100000000E-03 0.  1.
        -12    1    3    3    0    0 -0.40616078410E+01  0.16161401607E+02 -0.27569454126E+02  0.32214319191E+02  0.00000000000E+00 0.  1.
</event>
<event>
 7    1  0.6246445E-012  0.5930194E+02  0.7816164E-02  0.1266605E+00
        -11   -1    0    0    0    0  0.00000000000E+00  0.00000000000E+00  0.45593999997E+02  0.45594000000E+02  0.51100000000E-03 0. -1.
         11   -1    0    0    0    0 -0.00000000000E+00 -0.00000000000E+00 -0.45593999997E+02  0.45594000000E+02  0.51100000000E-03 0.  1.
    9900012    2    1    2    0    0 -0.28919946780E+02 -0.11501165506E+02 -0.69340046454E+01  0.59301944267E+02  0.50000000437E+02 0.  0.
         12    1    1    2    0    0  0.28919946780E+02  0.11501165506E+02  0.69340046454E+01  0.31886055733E+02  0.00000000000E+00 0. -1.
         11    1    3    3    0    0 -0.10435510065E+02  0.12961331581E+02  0.56881821307E+00  0.16649911144E+02  0.51100000000E-03 0. -1.
        -11    1    3    3    0    0 -0.80412428062E+01  0.53925629168E+01 -0.50715492184E+01  0.10929864245E+02  0.51100000000E-03 0.  1.
         12    1    3    3    0    0 -0.10443193909E+02 -0.29855060004E+02 -0.24312736401E+01  0.31722168879E+02  0.00000000000E+00 0. -1.
</event>
<event>
 7    1  0.6246445E-012  0.5930194E+02  0.7816164E-02  0.1266605E+00
        -11   -1    0    0    0    0  0.00000000000E+00  0.00000000000E+00  0.45593999997E+02  0.45594000000E+02  0.51100000000E-03 0.  1.
         11   -1    0    0    0    0 -0.00000000000E+00 -0.00000000000E+00 -0.45593999997E+02  0.45594000000E+02  0.51100000000E-03 0. -1.
    9900012    2    1    2    0    0 -0.13741991137E+02 -0.25251004397E+02  0.13793671541E+02  0.59301938499E+02  0.49999989916E+02 0.  0.
         12    1    1    2    0    0  0.13741991137E+02  0.25251004397E+02 -0.13793671541E+02  0.31886061501E+02  0.00000000000E+00 0. -1.
         11    1    3    3    0    0 -0.14534375754E+02  0.29745799945E+01 -0.61442851496E+01  0.16057660009E+02  0.51100000000E-03 0. -1.
        -11    1    3    3    0    0 -0.56983343808E+01 -0.14164939835E+02 -0.30076546917E+01  0.15561571972E+02  0.51100000000E-03 0.  1.
        -12    1    3    3    0    0  0.64907189974E+01 -0.14060644557E+02  0.22945611382E+02  0.27682706518E+02  0.00000000000E+00 0.  1.
</event>
<event>
 7    1  0.6246445E-012  0.5930193E+02  0.7816164E-02  0.1266605E+00
        -11   -1    0    0    0    0  0.00000000000E+00  0.00000000000E+00  0.45593999997E+02  0.45594000000E+02  0.51100000000E-03 0. -1.
         11   -1    0    0    0    0 -0.00000000000E+00 -0.00000000000E+00 -0.45593999997E+02  0.45594000000E+02  0.51100000000E-03 0.  1.
    9900012    2    1    2    0    0  0.29286561397E+02  0.10189686472E+02 -0.74289193174E+01  0.59301933590E+02  0.49999980965E+02 0.  0.
         12    1    1    2    0    0 -0.29286561397E+02 -0.10189686472E+02  0.74289193174E+01  0.31886066410E+02  0.00000000000E+00 0. -1.
         11    1    3    3    0    0  0.17801414569E+02 -0.40204323907E+01  0.11882478859E+02  0.21777225291E+02  0.51100000000E-03 0. -1.
        -11    1    3    3    0    0 -0.32450633313E+01  0.13020318493E+02 -0.26990815553E+00  0.13421325581E+02  0.51100000000E-03 0.  1.
        -12    1    3    3    0    0  0.14730210159E+02  0.11898003703E+01 -0.19041490021E+02  0.24103382718E+02  0.00000000000E+00 0.  1.
</event>
<event>
 7    1  0.7745904E-012  0.5930220E+02  0.7816164E-02  0.1266604E+00
        -11   -1    0    0    0    0  0.00000000000E+00  0.00000000000E+00  0.45593999997E+02  0.45594000000E+02  0.51100000000E-03 0. -1.
         11   -1    0    0    0    0 -0.00000000000E+00 -0.00000000000E+00 -0.45593999997E+02  0.45594000000E+02  0.51100000000E-03 0.  1.
    9900012    2    1    2    0    0  0.11858934966E+02  0.15867155417E+02 -0.24986067920E+02  0.59302195170E+02  0.50000458020E+02 0.  0.
         12    1    1    2    0    0 -0.11858934966E+02 -0.15867155417E+02  0.24986067920E+02  0.31885804830E+02  0.00000000000E+00 0. -1.
         11    1    3    3    0    0  0.18867708543E+02  0.87670461295E+01  0.18499462352E+01  0.20887168904E+02  0.51100000000E-03 0. -1.
        -11    1    3    3    0    0  0.28468134779E+00  0.15771596252E+02 -0.18706294448E+02  0.24469363376E+02  0.51100000000E-03 0.  1.
         12    1    3    3    0    0 -0.72934549241E+01 -0.86714869644E+01 -0.81297197073E+01  0.13945662889E+02  0.00000000000E+00 0. -1.
</event>
<event>
 7    1  0.6246445E-012  0.5930200E+02  0.7816164E-02  0.1266605E+00
        -11   -1    0    0    0    0  0.00000000000E+00  0.00000000000E+00  0.45593999997E+02  0.45594000000E+02  0.51100000000E-03 0. -1.
         11   -1    0    0    0    0 -0.00000000000E+00 -0.00000000000E+00 -0.45593999997E+02  0.45594000000E+02  0.51100000000E-03 0.  1.
    9900012    2    1    2    0    0 -0.19361878560E+02 -0.48305863313E+00 -0.25329845118E+02  0.59302004003E+02  0.50000109381E+02 0.  0.
         12    1    1    2    0    0  0.19361878560E+02  0.48305863313E+00  0.25329845118E+02  0.31885995997E+02  0.00000000000E+00 0. -1.
         11    1    3    3    0    0 -0.25449513580E+02 -0.18522099637E+01 -0.13976372885E+02  0.29093769479E+02  0.51100000000E-03 0. -1.
        -11    1    3    3    0    0 -0.40043696259E+01  0.12406815540E+02 -0.51900475097E+01  0.14032128896E+02  0.51100000000E-03 0.  1.
         12    1    3    3    0    0  0.10092004646E+02 -0.11037664209E+02 -0.61634247228E+01  0.16176105628E+02  0.00000000000E+00 0. -1.
</event>
<event>
 7    1  0.6246445E-012  0.5930191E+02  0.7816164E-02  0.1266605E+00
        -11   -1    0    0    0    0  0.00000000000E+00  0.00000000000E+00  0.45593999997E+02  0.45594000000E+02  0.51100000000E-03 0. -1.
         11   -1    0    0    0    0 -0.00000000000E+00 -0.00000000000E+00 -0.45593999997E+02  0.45594000000E+02  0.51100000000E-03 0.  1.
    9900012    2    1    2    0    0  0.23763147032E+02  0.20899127982E+02 -0.39066240370E+01  0.59301914968E+02  0.49999947002E+02 0.  0.
         12    1    1    2    0    0 -0.23763147032E+02 -0.20899127982E+02  0.39066240370E+01  0.31886085032E+02  0.00000000000E+00 0. -1.
         11    1    3    3    0    0 -0.14292276021E+01 -0.31320329461E+01 -0.13867055712E+02  0.14288021427E+02  0.51100000000E-03 0. -1.
        -11    1    3    3    0    0  0.22940567685E+02  0.12730328284E+02 -0.43994086818E+01  0.26602362695E+02  0.51100000000E-03 0.  1.
         12    1    3    3    0    0  0.22518069493E+01  0.11300832645E+02  0.14359840357E+02  0.18411530846E+02  0.00000000000E+00 0. -1.
</event>
<event>
 7    1  0.6246445E-012  0.5930194E+02  0.7816164E-02  0.1266605E+00
        -11   -1    0    0    0    0  0.00000000000E+00  0.00000000000E+00  0.45593999997E+02  0.45594000000E+02  0.51100000000E-03 0. -1.
         11   -1    0    0    0    0 -0.00000000000E+00 -0.00000000000E+00 -0.45593999997E+02  0.45594000000E+02  0.51100000000E-03 0.  1.
    9900012    2    1    2    0    0  0.10438764093E+02  0.16939809680E+02 -0.24915771448E+02  0.59301943256E+02  0.49999998593E+02 0.  0.
         12    1    1    2    0    0 -0.10438764093E+02 -0.16939809680E+02  0.24915771448E+02  0.31886056744E+02  0.00000000000E+00 0. -1.
         11    1    3    3    0    0  0.13102402053E+02 -0.79910880703E+01 -0.73678305909E+01  0.17023964168E+02  0.51100000000E-03 0.  1.
        -11    1    3    3    0    0  0.13070614419E+02  0.14607046980E+02 -0.99651779151E+01  0.21988896151E+02  0.51100000000E-03 0. -1.
        -12    1    3    3    0    0 -0.15734252378E+02  0.10323850770E+02 -0.75827629421E+01  0.20289082938E+02  0.00000000000E+00 0.  1.
</event>
<event>
 7    1  0.6246445E-012  0.5930195E+02  0.7816164E-02  0.1266605E+00
        -11   -1    0    0    0    0  0.00000000000E+00  0.00000000000E+00  0.45593999997E+02  0.45594000000E+02  0.51100000000E-03 0. -1.
         11   -1    0    0    0    0 -0.00000000000E+00 -0.00000000000E+00 -0.45593999997E+02  0.45594000000E+02  0.51100000000E-03 0.  1.
    9900012    2    1    2    0    0  0.92882571307E+01 -0.30028475301E+02 -0.53609047139E+01  0.59301947426E+02  0.50000006198E+02 0.  0.
         12    1    1    2    0    0 -0.92882571307E+01  0.30028475301E+02  0.53609047139E+01  0.31886052574E+02  0.00000000000E+00 0. -1.
         11    1    3    3    0    0 -0.45460263816E+01 -0.20781408649E+02 -0.91409029646E+00  0.21292460229E+02  0.51100000000E-03 0. -1.
        -11    1    3    3    0    0  0.15519657566E+02 -0.17441271505E+02 -0.12427109135E+02  0.26447887711E+02  0.51100000000E-03 0.  1.
        -12    1    3    3    0    0 -0.16853740535E+01  0.81942048534E+01  0.79802947175E+01  0.11561599485E+02  0.00000000000E+00 0.  1.
</event>
<event>
 7    1  0.6246445E-012  0.5930198E+02  0.7816164E-02  0.1266605E+00
        -11   -1    0    0    0    0  0.00000000000E+00  0.00000000000E+00  0.45593999997E+02  0.45594000000E+02  0.51100000000E-03 0. -1.
         11   -1    0    0    0    0 -0.00000000000E+00 -0.00000000000E+00 -0.45593999997E+02  0.45594000000E+02  0.51100000000E-03 0.  1.
    9900012    2    1    2    0    0 -0.20941959349E+01  0.72181305967E+01 -0.30987598414E+02  0.59301979217E+02  0.50000064176E+02 0.  0.
         12    1    1    2    0    0  0.20941959349E+01 -0.72181305967E+01  0.30987598414E+02  0.31886020783E+02  0.00000000000E+00 0. -1.
         11    1    3    3    0    0 -0.87638906783E+01  0.10865833610E+02  0.45036486973E+01  0.14668161838E+02  0.51100000000E-03 0. -1.
        -11    1    3    3    0    0 -0.71655384549E+01 -0.39064476719E+00 -0.89516097269E+00  0.72317949439E+01  0.51100000000E-03 0.  1.
         12    1    3    3    0    0  0.13835233198E+02 -0.32570582465E+01 -0.34596086139E+02  0.37402022434E+02  0.00000000000E+00 0. -1.
</event>
<event>
 7    1  0.6246445E-012  0.5930193E+02  0.7816164E-02  0.1266605E+00
        -11   -1    0    0    0    0  0.00000000000E+00  0.00000000000E+00  0.45593999997E+02  0.45594000000E+02  0.51100000000E-03 0.  1.
         11   -1    0    0    0    0 -0.00000000000E+00 -0.00000000000E+00 -0.45593999997E+02  0.45594000000E+02  0.51100000000E-03 0. -1.
    9900012    2    1    2    0    0 -0.22766181593E+01 -0.28026805156E+02  0.15034520290E+02  0.59301927839E+02  0.49999970476E+02 0.  0.
         12    1    1    2    0    0  0.22766181593E+01  0.28026805156E+02 -0.15034520290E+02  0.31886072161E+02  0.00000000000E+00 0. -1.
         11    1    3    3    0    0  0.11963769997E+02 -0.18636566358E+02  0.24993152794E+02  0.33393279039E+02  0.51100000000E-03 0.  1.
        -11    1    3    3    0    0 -0.35593889630E+01  0.39760279521E+01 -0.65741648574E+01  0.84674489605E+01  0.51100000000E-03 0. -1.
        -12    1    3    3    0    0 -0.10680999193E+02 -0.13366266750E+02 -0.33844676464E+01  0.17441199839E+02  0.00000000000E+00 0.  1.
</event>
<event>
 7    1  0.6246445E-012  0.5930194E+02  0.7816164E-02  0.1266605E+00
        -11   -1    0    0    0    0  0.00000000000E+00  0.00000000000E+00  0.45593999997E+02  0.45594000000E+02  0.51100000000E-03 0.  1.
         11   -1    0    0    0    0 -0.00000000000E+00 -0.00000000000E+00 -0.45593999997E+02  0.45594000000E+02  0.51100000000E-03 0. -1.
    9900012    2    1    2    0    0 -0.22894762086E+02 -0.21588205948E+02  0.51477952736E+01  0.59301944063E+02  0.50000000065E+02 0.  0.
         12    1    1    2    0    0  0.22894762086E+02  0.21588205948E+02 -0.51477952736E+01  0.31886055937E+02  0.00000000000E+00 0. -1.
         11    1    3    3    0    0 -0.95031557165E+00 -0.73698053993E+00  0.77788130197E+01  0.78712243176E+01  0.51100000000E-03 0. -1.
        -11    1    3    3    0    0  0.43880298149E+01 -0.98327211109E+01  0.14560096623E+02  0.18108937684E+02  0.51100000000E-03 0.  1.
         12    1    3    3    0    0 -0.26332476329E+02 -0.11018504297E+02 -0.17191114369E+02  0.33321782062E+02  0.00000000000E+00 0. -1.
</event>
<event>
 7    1  0.6246445E-012  0.5930184E+02  0.7816164E-02  0.1266605E+00
        -11   -1    0    0    0    0  0.00000000000E+00  0.00000000000E+00  0.45593999997E+02  0.45594000000E+02  0.51100000000E-03 0. -1.
         11   -1    0    0    0    0 -0.00000000000E+00 -0.00000000000E+00 -0.45593999997E+02  0.45594000000E+02  0.51100000000E-03 0.  1.
    9900012    2    1    2    0    0 -0.25203662828E+02 -0.13188019755E+02 -0.14407599310E+02  0.59301836812E+02  0.49999804464E+02 0.  0.
         12    1    1    2    0    0  0.25203662828E+02  0.13188019755E+02  0.14407599310E+02  0.31886163188E+02  0.00000000000E+00 0. -1.
         11    1    3    3    0    0 -0.62341003403E+01 -0.69274997384E+01  0.26735060696E+01  0.96954574231E+01  0.51100000000E-03 0. -1.
        -11    1    3    3    0    0  0.38639576882E+01  0.42826647404E+01  0.10685463671E+02  0.12142920589E+02  0.51100000000E-03 0.  1.
         12    1    3    3    0    0 -0.22833520175E+02 -0.10543184757E+02 -0.27766569051E+02  0.37463458800E+02  0.00000000000E+00 0. -1.
</event>
<event>
 7    1  0.6246445E-012  0.5930194E+02  0.7816164E-02  0.1266605E+00
        -11   -1    0    0    0    0  0.00000000000E+00  0.00000000000E+00  0.45593999997E+02  0.45594000000E+02  0.51100000000E-03 0.  1.
         11   -1    0    0    0    0 -0.00000000000E+00 -0.00000000000E+00 -0.45593999997E+02  0.45594000000E+02  0.51100000000E-03 0. -1.
    9900012    2    1    2    0    0 -0.24971508845E+02  0.37649717625E+01  0.19467142486E+02  0.59301938737E+02  0.49999990350E+02 0.  0.
         12    1    1    2    0    0  0.24971508845E+02 -0.37649717625E+01 -0.19467142486E+02  0.31886061263E+02  0.00000000000E+00 0. -1.
         11    1    3    3    0    0 -0.60381973611E+01  0.73886288045E+01  0.11538205787E+02  0.14972703698E+02  0.51100000000E-03 0. -1.
        -11    1    3    3    0    0 -0.28413119380E+02  0.44854903817E+01 -0.13268388853E+01  0.28795580886E+02  0.51100000000E-03 0.  1.
        -12    1    3    3    0    0  0.94798078963E+01 -0.81091474238E+01  0.92557755842E+01  0.15533654153E+02  0.00000000000E+00 0.  1.
</event>
<event>
 7    1  0.6246445E-012  0.5930194E+02  0.7816164E-02  0.1266605E+00
        -11   -1    0    0    0    0  0.00000000000E+00  0.00000000000E+00  0.45593999997E+02  0.45594000000E+02  0.51100000000E-03 0. -1.
         11   -1    0    0    0    0 -0.00000000000E+00 -0.00000000000E+00 -0.45593999997E+02  0.45594000000E+02  0.51100000000E-03 0.  1.
    9900012    2    1    2    0    0  0.43573950082E+01  0.19780154859E+01 -0.31524934881E+02  0.59301937908E+02  0.49999988839E+02 0.  0.
         12    1    1    2    0    0 -0.43573950082E+01 -0.19780154859E+01  0.31524934881E+02  0.31886062092E+02  0.00000000000E+00 0. -1.
         11    1    3    3    0    0  0.32218485020E+01 -0.20188695204E+02 -0.98610952917E+01  0.22698125967E+02  0.51100000000E-03 0. -1.
        -11    1    3    3    0    0 -0.29750598109E+01 -0.26433222895E+00  0.21129732220E+01  0.36586211205E+01  0.51100000000E-03 0.  1.
        -12    1    3    3    0    0  0.41106063171E+01  0.22431042919E+02 -0.23776812811E+02  0.32945190820E+02  0.00000000000E+00 0.  1.
</event>
<event>
 7    1  0.6246445E-012  0.5930194E+02  0.7816164E-02  0.1266605E+00
        -11   -1    0    0    0    0  0.00000000000E+00  0.00000000000E+00  0.45593999997E+02  0.45594000000E+02  0.51100000000E-03 0.  1.
         11   -1    0    0    0    0 -0.00000000000E+00 -0.00000000000E+00 -0.45593999997E+02  0.45594000000E+02  0.51100000000E-03 0. -1.
    9900012    2    1    2    0    0 -0.87607918002E+00 -0.29197345518E+02  0.12785466864E+02  0.59301942499E+02  0.49999997211E+02 0.  0.
         12    1    1    2    0    0  0.87607918002E+00  0.29197345518E+02 -0.12785466864E+02  0.31886057501E+02  0.00000000000E+00 0. -1.
         11    1    3    3    0    0 -0.41243917294E+00 -0.10722462026E+02  0.36263291027E+01  0.11326586467E+02  0.51100000000E-03 0.  1.
        -11    1    3    3    0    0 -0.43250346770E+01 -0.32160532040E+02  0.92939589163E+01  0.33754754015E+02  0.51100000000E-03 0. -1.
         12    1    3    3    0    0  0.38613946699E+01  0.13685648548E+02 -0.13482115486E+00  0.14220602016E+02  0.00000000000E+00 0. -1.
</event>
<event>
 7    1  0.6246445E-012  0.5930195E+02  0.7816164E-02  0.1266605E+00
        -11   -1    0    0    0    0  0.00000000000E+00  0.00000000000E+00  0.45593999997E+02  0.45594000000E+02  0.51100000000E-03 0.  1.
         11   -1    0    0    0    0 -0.00000000000E+00 -0.00000000000E+00 -0.45593999997E+02  0.45594000000E+02  0.51100000000E-03 0. -1.
    9900012    2    1    2    0    0  0.25926541660E+02  0.11031913692E+02  0.14927536392E+02  0.59301952504E+02  0.50000015459E+02 0.  0.
         12    1    1    2    0    0 -0.25926541660E+02 -0.11031913692E+02 -0.14927536392E+02  0.31886047496E+02  0.00000000000E+00 0. -1.
         11    1    3    3    0    0 -0.32233475909E+01  0.14977347884E+02  0.69873628383E+01  0.16838472585E+02  0.51100000000E-03 0. -1.
        -11    1    3    3    0    0 -0.57532365969E+01  0.23207713116E+01  0.19272319097E+01  0.64961476211E+01  0.51100000000E-03 0.  1.
         12    1    3    3    0    0  0.34903125848E+02 -0.62662055036E+01  0.60129416444E+01  0.35967332298E+02  0.00000000000E+00 0. -1.
</event>
<event>
 7    1  0.6246445E-012  0.5930194E+02  0.7816164E-02  0.1266605E+00
        -11   -1    0    0    0    0  0.00000000000E+00  0.00000000000E+00  0.45593999997E+02  0.45594000000E+02  0.51100000000E-03 0.  1.
         11   -1    0    0    0    0 -0.00000000000E+00 -0.00000000000E+00 -0.45593999997E+02  0.45594000000E+02  0.51100000000E-03 0. -1.
    9900012    2    1    2    0    0  0.34308031755E+01 -0.14467487674E+02  0.28207134511E+02  0.59301936472E+02  0.49999986220E+02 0.  0.
         12    1    1    2    0    0 -0.34308031755E+01  0.14467487674E+02 -0.28207134511E+02  0.31886063528E+02  0.00000000000E+00 0. -1.
         11    1    3    3    0    0 -0.20384289608E+01 -0.16626627207E+02  0.43235646339E+01  0.17300090645E+02  0.51100000000E-03 0. -1.
        -11    1    3    3    0    0 -0.14262241389E+02 -0.15331726963E+01  0.11777761435E+02  0.18560113487E+02  0.51100000000E-03 0.  1.
         12    1    3    3    0    0  0.19731473526E+02  0.36923122289E+01  0.12105808442E+02  0.23441732340E+02  0.00000000000E+00 0. -1.
</event>
<event>
 7    1  0.6246445E-012  0.5930197E+02  0.7816164E-02  0.1266605E+00
        -11   -1    0    0    0    0  0.00000000000E+00  0.00000000000E+00  0.45593999997E+02  0.45594000000E+02  0.51100000000E-03 0. -1.
         11   -1    0    0    0    0 -0.00000000000E+00 -0.00000000000E+00 -0.45593999997E+02  0.45594000000E+02  0.51100000000E-03 0.  1.
    9900012    2    1    2    0    0 -0.18556866423E+02 -0.18721620709E+02 -0.17940528994E+02  0.59301969297E+02  0.50000046085E+02 0.  0.
         12    1    1    2    0    0  0.18556866423E+02  0.18721620709E+02  0.17940528994E+02  0.31886030703E+02  0.00000000000E+00 0. -1.
         11    1    3    3    0    0 -0.58791346640E+00  0.49743515334E+01 -0.13191893926E+02  0.14110842677E+02  0.51100000000E-03 0. -1.
        -11    1    3    3    0    0  0.82243820738E+00  0.78415297892E+01 -0.30066871296E+01  0.84383743575E+01  0.51100000000E-03 0.  1.
         12    1    3    3    0    0 -0.18791391164E+02 -0.31537502032E+02 -0.17419479376E+01  0.36752752263E+02  0.00000000000E+00 0. -1.
</event>
<event>
 7    1  0.6246445E-012  0.5930194E+02  0.7816164E-02  0.1266605E+00
        -11   -1    0    0    0    0  0.00000000000E+00  0.00000000000E+00  0.45593999997E+02  0.45594000000E+02  0.51100000000E-03 0.  1.
         11   -1    0    0    0    0 -0.00000000000E+00 -0.00000000000E+00 -0.45593999997E+02  0.45594000000E+02  0.51100000000E-03 0. -1.
    9900012    2    1    2    0    0 -0.54779295555E+01 -0.27129445262E+02  0.15833711170E+02  0.59301938439E+02  0.49999989808E+02 0.  0.
         12    1    1    2    0    0  0.54779295555E+01  0.27129445262E+02 -0.15833711170E+02  0.31886061561E+02  0.00000000000E+00 0. -1.
         11    1    3    3    0    0  0.10957514067E+02 -0.12006347140E+01 -0.26396234693E+01  0.11334736458E+02  0.51100000000E-03 0. -1.
        -11    1    3    3    0    0 -0.73874537179E+01 -0.28287627709E+01 -0.83005341879E+01  0.11466265273E+02  0.51100000000E-03 0.  1.
        -12    1    3    3    0    0 -0.90479899046E+01 -0.23100047777E+02  0.26773868827E+02  0.36500936708E+02  0.00000000000E+00 0.  1.
</event>
<event>
 7    1  0.6246445E-012  0.5930193E+02  0.7816164E-02  0.1266605E+00
        -11   -1    0    0    0    0  0.00000000000E+00  0.00000000000E+00  0.45593999997E+02  0.45594000000E+02  0.51100000000E-03 0.  1.
         11   -1    0    0    0    0 -0.00000000000E+00 -0.00000000000E+00 -0.45593999997E+02  0.45594000000E+02  0.51100000000E-03 0. -1.
    9900012    2    1    2    0    0 -0.52786181747E+01 -0.25991063156E+02  0.17700911721E+02  0.59301930164E+02  0.49999974717E+02 0.  0.
         12    1    1    2    0    0  0.52786181747E+01  0.25991063156E+02 -0.17700911721E+02  0.31886069836E+02  0.00000000000E+00 0. -1.
         11    1    3    3    0    0  0.29338246846E+01 -0.36679496237E+02  0.18435735948E+02  0.41156641404E+02  0.51100000000E-03 0. -1.
        -11    1    3    3    0    0 -0.36649106272E+00  0.49722533552E+01  0.48419894362E+01  0.69499986395E+01  0.51100000000E-03 0.  1.
        -12    1    3    3    0    0 -0.78459517966E+01  0.57161797258E+01 -0.55768136632E+01  0.11195290121E+02  0.00000000000E+00 0.  1.
</event>
<event>
 7    1  0.6246445E-012  0.5930184E+02  0.7816164E-02  0.1266605E+00
        -11   -1    0    0    0    0  0.00000000000E+00  0.00000000000E+00  0.45593999997E+02  0.45594000000E+02  0.51100000000E-03 0. -1.
         11   -1    0    0    0    0 -0.00000000000E+00 -0.00000000000E+00 -0.45593999997E+02  0.45594000000E+02  0.51100000000E-03 0.  1.
    9900012    2    1    2    0    0  0.21058916773E+02 -0.14294366555E+02  0.19207291483E+02  0.59301844118E+02  0.49999817788E+02 0.  0.
         12    1    1    2    0    0 -0.21058916773E+02  0.14294366555E+02 -0.19207291483E+02  0.31886155882E+02  0.00000000000E+00 0. -1.
         11    1    3    3    0    0  0.24126471458E+02 -0.10253982527E+02  0.30256783773E+02  0.40033782574E+02  0.51100000000E-03 0. -1.
        -11    1    3    3    0    0 -0.34764476552E+01  0.46655676703E+01 -0.89598138536E+00  0.58869340823E+01  0.51100000000E-03 0.  1.
        -12    1    3    3    0    0  0.40889296969E+00 -0.87059516987E+01 -0.10153510905E+02  0.13381127461E+02  0.00000000000E+00 0.  1.
</event>
<event>
 7    1  0.6246445E-012  0.5930194E+02  0.7816164E-02  0.1266605E+00
        -11   -1    0    0    0    0  0.00000000000E+00  0.00000000000E+00  0.45593999997E+02  0.45594000000E+02  0.51100000000E-03 0.  1.
         11   -1    0    0    0    0 -0.00000000000E+00 -0.00000000000E+00 -0.45593999997E+02  0.45594000000E+02  0.51100000000E-03 0. -1.
    9900012    2    1    2    0    0  0.22712809679E+02  0.12404576727E+02 -0.18627279219E+02  0.59301940688E+02  0.49999993910E+02 0.  0.
         12    1    1    2    0    0 -0.22712809679E+02 -0.12404576727E+02  0.18627279219E+02  0.31886059312E+02  0.00000000000E+00 0. -1.
         11    1    3    3    0    0  0.22748195474E+02  0.30294969435E+01 -0.55039725695E+01  0.23599829732E+02  0.51100000000E-03 0. -1.
        -11    1    3    3    0    0  0.94196139615E+01  0.11844848329E+02 -0.19006484902E+02  0.24295596879E+02  0.51100000000E-03 0.  1.
        -12    1    3    3    0    0 -0.94549997566E+01 -0.24697685452E+01  0.58831782519E+01  0.11406514078E+02  0.00000000000E+00 0.  1.
</event>
<event>
 7    1  0.6246445E-012  0.5930211E+02  0.7816164E-02  0.1266604E+00
        -11   -1    0    0    0    0  0.00000000000E+00  0.00000000000E+00  0.45593999997E+02  0.45594000000E+02  0.51100000000E-03 0.  1.
         11   -1    0    0    0    0 -0.00000000000E+00 -0.00000000000E+00 -0.45593999997E+02  0.45594000000E+02  0.51100000000E-03 0. -1.
    9900012    2    1    2    0    0 -0.10327374984E+02 -0.15293147386E+02  0.26003364531E+02  0.59302109736E+02  0.50000302210E+02 0.  0.
         12    1    1    2    0    0  0.10327374984E+02  0.15293147386E+02 -0.26003364531E+02  0.31885890264E+02  0.00000000000E+00 0. -1.
         11    1    3    3    0    0 -0.17775021208E+01 -0.54770393599E+01  0.19786599408E+02  0.20607449875E+02  0.51100000000E-03 0. -1.
        -11    1    3    3    0    0 -0.26549836505E+00 -0.16037641748E+02  0.17253121303E+02  0.23557305389E+02  0.51100000000E-03 0.  1.
         12    1    3    3    0    0 -0.82843744978E+01  0.62215337216E+01 -0.11036356180E+02  0.15137354472E+02  0.00000000000E+00 0. -1.
</event>
<event>
 7    1  0.6246445E-012  0.5930194E+02  0.7816164E-02  0.1266605E+00
        -11   -1    0    0    0    0  0.00000000000E+00  0.00000000000E+00  0.45593999997E+02  0.45594000000E+02  0.51100000000E-03 0.  1.
         11   -1    0    0    0    0 -0.00000000000E+00 -0.00000000000E+00 -0.45593999997E+02  0.45594000000E+02  0.51100000000E-03 0. -1.
    9900012    2    1    2    0    0 -0.31098161270E+02  0.77781770971E+00  0.70014469454E+01  0.59301938875E+02  0.49999990602E+02 0.  0.
         12    1    1    2    0    0  0.31098161270E+02 -0.77781770971E+00 -0.70014469454E+01  0.31886061125E+02  0.00000000000E+00 0. -1.
         11    1    3    3    0    0 -0.13394646642E+02 -0.12725226445E+01 -0.37108803645E+01  0.13957310124E+02  0.51100000000E-03 0. -1.
        -11    1    3    3    0    0 -0.30179361287E+01 -0.14319672013E+01  0.24605314870E+02  0.24831028747E+02  0.51100000000E-03 0.  1.
         12    1    3    3    0    0 -0.14685578499E+02  0.34823075555E+01 -0.13892987560E+02  0.20513600003E+02  0.00000000000E+00 0. -1.
</event>
<event>
 7    1  0.6246445E-012  0.5930194E+02  0.7816164E-02  0.1266605E+00
        -11   -1    0    0    0    0  0.00000000000E+00  0.00000000000E+00  0.45593999997E+02  0.45594000000E+02  0.51100000000E-03 0.  1.
         11   -1    0    0    0    0 -0.00000000000E+00 -0.00000000000E+00 -0.45593999997E+02  0.45594000000E+02  0.51100000000E-03 0. -1.
    9900012    2    1    2    0    0  0.17108945683E+02 -0.30056597946E+01  0.26738938436E+02  0.59301939693E+02  0.49999992095E+02 0.  0.
         12    1    1    2    0    0 -0.17108945683E+02  0.30056597946E+01 -0.26738938436E+02  0.31886060307E+02  0.00000000000E+00 0. -1.
         11    1    3    3    0    0  0.71015515549E+01  0.37543273806E+01 -0.71997780496E+01  0.10787205977E+02  0.51100000000E-03 0. -1.
        -11    1    3    3    0    0  0.18611897248E+02 -0.13095847692E+02  0.16679388980E+02  0.28215349775E+02  0.51100000000E-03 0.  1.
         12    1    3    3    0    0 -0.86045031195E+01  0.63358605169E+01  0.17259327506E+02  0.20299383941E+02  0.00000000000E+00 0. -1.
</event>
<event>
 7    1  0.6246445E-012  0.5930194E+02  0.7816164E-02  0.1266605E+00
        -11   -1    0    0    0    0  0.00000000000E+00  0.00000000000E+00  0.45593999997E+02  0.45594000000E+02  0.51100000000E-03 0.  1.
         11   -1    0    0    0    0 -0.00000000000E+00 -0.00000000000E+00 -0.45593999997E+02  0.45594000000E+02  0.51100000000E-03 0. -1.
    9900012    2    1    2    0    0  0.44467221258E+01 -0.87334365103E+01  0.30342618436E+02  0.59301941221E+02  0.49999994881E+02 0.  0.
         12    1    1    2    0    0 -0.44467221258E+01  0.87334365103E+01 -0.30342618436E+02  0.31886058779E+02  0.00000000000E+00 0. -1.
         11    1    3    3    0    0  0.10883158544E+02 -0.15980769634E+02  0.37971608053E+00  0.19338364009E+02  0.51100000000E-03 0. -1.
        -11    1    3    3    0    0  0.16126133576E+01 -0.80671725089E+01  0.51197542547E+01  0.96897718250E+01  0.51100000000E-03 0.  1.
        -12    1    3    3    0    0 -0.80490497759E+01  0.15314505632E+02  0.24843148100E+02  0.30273805387E+02  0.00000000000E+00 0.  1.
</event>
<event>
 7    1  0.6246445E-012  0.5930194E+02  0.7816164E-02  0.1266605E+00
        -11   -1    0    0    0    0  0.00000000000E+00  0.00000000000E+00  0.45593999997E+02  0.45594000000E+02  0.51100000000E-03 0. -1.
         11   -1    0    0    0    0 -0.00000000000E+00 -0.00000000000E+00 -0.45593999997E+02  0.45594000000E+02  0.51100000000E-03 0.  1.
    9900012    2    1    2    0    0  0.22695082496E+01  0.30175680118E+02  0.10049815452E+02  0.59301935193E+02  0.49999983888E+02 0.  0.
         12    1    1    2    0    0 -0.22695082496E+01 -0.30175680118E+02 -0.10049815452E+02  0.31886064807E+02  0.00000000000E+00 0. -1.
         11    1    3    3    0    0 -0.15870577937E+01  0.10288943487E+02  0.84750011430E+01  0.13424110963E+02  0.51100000000E-03 0. -1.
        -11    1    3    3    0    0 -0.12562888095E+02  0.17764832723E+02 -0.11656898178E+02  0.24683976875E+02  0.51100000000E-03 0.  1.
        -12    1    3    3    0    0  0.16419454138E+02  0.21219039071E+01  0.13231712487E+02  0.21193847355E+02  0.00000000000E+00 0.  1.
</event>
<event>
 7    1  0.6246445E-012  0.5930201E+02  0.7816164E-02  0.1266605E+00
        -11   -1    0    0    0    0  0.00000000000E+00  0.00000000000E+00  0.45593999997E+02  0.45594000000E+02  0.51100000000E-03 0. -1.
         11   -1    0    0    0    0 -0.00000000000E+00 -0.00000000000E+00 -0.45593999997E+02  0.45594000000E+02  0.51100000000E-03 0.  1.
    9900012    2    1    2    0    0  0.27278537441E+02 -0.16439713366E+02  0.15275847580E+01  0.59302010982E+02  0.50000122108E+02 0.  0.
         12    1    1    2    0    0 -0.27278537441E+02  0.16439713366E+02 -0.15275847580E+01  0.31885989018E+02  0.00000000000E+00 0. -1.
         11    1    3    3    0    0  0.22456157061E+02  0.82618133315E+01  0.28260397093E+01  0.24094045949E+02  0.51100000000E-03 0. -1.
        -11    1    3    3    0    0  0.10492414457E+02 -0.32148948416E+01 -0.59808093448E+01  0.12497855442E+02  0.51100000000E-03 0.  1.
        -12    1    3    3    0    0 -0.56700340774E+01 -0.21486631856E+02  0.46823543936E+01  0.22710109591E+02  0.00000000000E+00 0.  1.
</event>
<event>
 7    1  0.6246445E-012  0.5930192E+02  0.7816164E-02  0.1266605E+00
        -11   -1    0    0    0    0  0.00000000000E+00  0.00000000000E+00  0.45593999997E+02  0.45594000000E+02  0.51100000000E-03 0. -1.
         11   -1    0    0    0    0 -0.00000000000E+00 -0.00000000000E+00 -0.45593999997E+02  0.45594000000E+02  0.51100000000E-03 0.  1.
    9900012    2    1    2    0    0  0.13006118208E+02 -0.12521647043E+02 -0.26282525144E+02  0.59301923361E+02  0.49999962309E+02 0.  0.
         12    1    1    2    0    0 -0.13006118208E+02  0.12521647043E+02  0.26282525144E+02  0.31886076639E+02  0.00000000000E+00 0. -1.
         11    1    3    3    0    0  0.87102720526E+01 -0.50628785234E+01 -0.76753218637E+00  0.10103993472E+02  0.51100000000E-03 0. -1.
        -11    1    3    3    0    0  0.19766880757E+02 -0.14970139500E+02 -0.16458716954E+02  0.29761115831E+02  0.51100000000E-03 0.  1.
        -12    1    3    3    0    0 -0.15471034602E+02  0.75113709802E+01 -0.90562760034E+01  0.19436814057E+02  0.00000000000E+00 0.  1.
</event>
<event>
 7    1  0.6246445E-012  0.5930193E+02  0.7816164E-02  0.1266605E+00
        -11   -1    0    0    0    0  0.00000000000E+00  0.00000000000E+00  0.45593999997E+02  0.45594000000E+02  0.51100000000E-03 0.  1.
         11   -1    0    0    0    0 -0.00000000000E+00 -0.00000000000E+00 -0.45593999997E+02  0.45594000000E+02  0.51100000000E-03 0. -1.
    9900012    2    1    2    0    0  0.25948485953E+02 -0.12756322969E+02  0.13441500176E+02  0.59301927399E+02  0.49999969672E+02 0.  0.
         12    1    1    2    0    0 -0.25948485953E+02  0.12756322969E+02 -0.13441500176E+02  0.31886072601E+02  0.00000000000E+00 0. -1.
         11    1    3    3    0    0 -0.24244391010E+01 -0.74601305203E+01 -0.14812761882E+02  0.16761544295E+02  0.51100000000E-03 0. -1.
        -11    1    3    3    0    0  0.10987351944E+01  0.29980781527E+01  0.39466124614E+01  0.50765580681E+01  0.51100000000E-03 0.  1.
        -12    1    3    3    0    0  0.27274189860E+02 -0.82942706013E+01  0.24307649597E+02  0.37463825035E+02  0.00000000000E+00 0.  1.
</event>
<event>
 7    1  0.6246445E-012  0.5930196E+02  0.7816164E-02  0.1266605E+00
        -11   -1    0    0    0    0  0.00000000000E+00  0.00000000000E+00  0.45593999997E+02  0.45594000000E+02  0.51100000000E-03 0.  1.
         11   -1    0    0    0    0 -0.00000000000E+00 -0.00000000000E+00 -0.45593999997E+02  0.45594000000E+02  0.51100000000E-03 0. -1.
    9900012    2    1    2    0    0 -0.16505593749E+02 -0.10653372683E+02  0.25115542747E+02  0.59301961331E+02  0.50000031556E+02 0.  0.
         12    1    1    2    0    0  0.16505593749E+02  0.10653372683E+02 -0.25115542747E+02  0.31886038669E+02  0.00000000000E+00 0. -1.
         11    1    3    3    0    0 -0.17301866213E+02 -0.24176663653E+02  0.90003649895E+00  0.29743498546E+02  0.51100000000E-03 0. -1.
        -11    1    3    3    0    0 -0.25893507285E+01  0.30898755996E+01  0.14001506946E+02  0.14570321391E+02  0.51100000000E-03 0.  1.
        -12    1    3    3    0    0  0.33856231917E+01  0.10433415370E+02  0.10213999302E+02  0.14988141393E+02  0.00000000000E+00 0.  1.
</event>
<event>
 7    1  0.6246445E-012  0.5930199E+02  0.7816164E-02  0.1266605E+00
        -11   -1    0    0    0    0  0.00000000000E+00  0.00000000000E+00  0.45593999997E+02  0.45594000000E+02  0.51100000000E-03 0.  1.
         11   -1    0    0    0    0 -0.00000000000E+00 -0.00000000000E+00 -0.45593999997E+02  0.45594000000E+02  0.51100000000E-03 0. -1.
    9900012    2    1    2    0    0  0.34252488391E+01  0.19750747716E+02  0.24797045259E+02  0.59301987102E+02  0.50000078558E+02 0.  0.
         12    1    1    2    0    0 -0.34252488391E+01 -0.19750747716E+02 -0.24797045259E+02  0.31886012898E+02  0.00000000000E+00 0. -1.
         11    1    3    3    0    0 -0.89591376179E+01  0.14842293515E+02  0.54180414993E+01  0.18163562359E+02  0.51100000000E-03 0. -1.
        -11    1    3    3    0    0 -0.15170082083E+01  0.17456325456E+02  0.10321319674E+02  0.20336033350E+02  0.51100000000E-03 0.  1.
         12    1    3    3    0    0  0.13901394665E+02 -0.12547871255E+02  0.90576840852E+01  0.20802391393E+02  0.00000000000E+00 0. -1.
</event>
<event>
 7    1  0.6246445E-012  0.5930195E+02  0.7816164E-02  0.1266605E+00
        -11   -1    0    0    0    0  0.00000000000E+00  0.00000000000E+00  0.45593999997E+02  0.45594000000E+02  0.51100000000E-03 0. -1.
         11   -1    0    0    0    0 -0.00000000000E+00 -0.00000000000E+00 -0.45593999997E+02  0.45594000000E+02  0.51100000000E-03 0.  1.
    9900012    2    1    2    0    0  0.22718528469E+02 -0.17274906259E+02  0.14218512622E+02  0.59301952530E+02  0.50000015506E+02 0.  0.
         12    1    1    2    0    0 -0.22718528469E+02  0.17274906259E+02 -0.14218512622E+02  0.31886047470E+02  0.00000000000E+00 0. -1.
         11    1    3    3    0    0  0.15282484259E+02 -0.12399702608E+02  0.18760285222E+01  0.19769330620E+02  0.51100000000E-03 0. -1.
        -11    1    3    3    0    0  0.35022630320E+01 -0.79018579701E+01 -0.11944482650E+02  0.14743672262E+02  0.51100000000E-03 0.  1.
        -12    1    3    3    0    0  0.39337811786E+01  0.30266543190E+01  0.24286966750E+02  0.24788949648E+02  0.00000000000E+00 0.  1.
</event>
<event>
 7    1  0.6246445E-012  0.5930193E+02  0.7816164E-02  0.1266605E+00
        -11   -1    0    0    0    0  0.00000000000E+00  0.00000000000E+00  0.45593999997E+02  0.45594000000E+02  0.51100000000E-03 0. -1.
         11   -1    0    0    0    0 -0.00000000000E+00 -0.00000000000E+00 -0.45593999997E+02  0.45594000000E+02  0.51100000000E-03 0.  1.
    9900012    2    1    2    0    0 -0.22008750692E+02  0.78334955067E+01 -0.21701903004E+02  0.59301931680E+02  0.49999977481E+02 0.  0.
         12    1    1    2    0    0  0.22008750692E+02 -0.78334955067E+01  0.21701903004E+02  0.31886068320E+02  0.00000000000E+00 0. -1.
         11    1    3    3    0    0 -0.12960593674E+02  0.37666184088E+01 -0.41280657101E+01  0.14114011810E+02  0.51100000000E-03 0. -1.
        -11    1    3    3    0    0 -0.78839170722E+01  0.25922518130E+01 -0.30764435569E+02  0.31864187013E+02  0.51100000000E-03 0.  1.
        -12    1    3    3    0    0 -0.11642399461E+01  0.14746252850E+01  0.13190598275E+02  0.13323732857E+02  0.00000000000E+00 0.  1.
</event>
<event>
 7    1  0.6246445E-012  0.5930193E+02  0.7816164E-02  0.1266605E+00
        -11   -1    0    0    0    0  0.00000000000E+00  0.00000000000E+00  0.45593999997E+02  0.45594000000E+02  0.51100000000E-03 0.  1.
         11   -1    0    0    0    0 -0.00000000000E+00 -0.00000000000E+00 -0.45593999997E+02  0.45594000000E+02  0.51100000000E-03 0. -1.
    9900012    2    1    2    0    0  0.81086990935E+01  0.12072856917E+02  0.28376341998E+02  0.59301926860E+02  0.49999968690E+02 0.  0.
         12    1    1    2    0    0 -0.81086990935E+01 -0.12072856917E+02 -0.28376341998E+02  0.31886073140E+02  0.00000000000E+00 0. -1.
         11    1    3    3    0    0 -0.52073556432E+01  0.29942601307E+01  0.40578768688E+01  0.72490352095E+01  0.51100000000E-03 0. -1.
        -11    1    3    3    0    0 -0.12916581558E+02 -0.72848561096E+01  0.52682584004E+01  0.15737272779E+02  0.51100000000E-03 0.  1.
        -12    1    3    3    0    0  0.26232636294E+02  0.16363452896E+02  0.19050206728E+02  0.36315618872E+02  0.00000000000E+00 0.  1.
</event>
<event>
 7    1  0.6246445E-012  0.5930196E+02  0.7816164E-02  0.1266605E+00
        -11   -1    0    0    0    0  0.00000000000E+00  0.00000000000E+00  0.45593999997E+02  0.45594000000E+02  0.51100000000E-03 0.  1.
         11   -1    0    0    0    0 -0.00000000000E+00 -0.00000000000E+00 -0.45593999997E+02  0.45594000000E+02  0.51100000000E-03 0. -1.
    9900012    2    1    2    0    0 -0.59394572233E+01  0.30351405152E+02 -0.77611084741E+01  0.59301956791E+02  0.50000023277E+02 0.  0.
         12    1    1    2    0    0  0.59394572233E+01 -0.30351405152E+02  0.77611084741E+01  0.31886043209E+02  0.00000000000E+00 0. -1.
         11    1    3    3    0    0  0.81672049308E+01  0.72926401279E+01  0.48064617347E+01  0.11957755270E+02  0.51100000000E-03 0.  1.
        -11    1    3    3    0    0 -0.23820397448E+02  0.50719494615E+01 -0.22842730991E+01  0.24461273674E+02  0.51100000000E-03 0. -1.
         12    1    3    3    0    0  0.97137352936E+01  0.17986815562E+02 -0.10283297110E+02  0.22882927847E+02  0.00000000000E+00 0. -1.
</event>
<event>
 7    1  0.6246445E-012  0.5930197E+02  0.7816164E-02  0.1266605E+00
        -11   -1    0    0    0    0  0.00000000000E+00  0.00000000000E+00  0.45593999997E+02  0.45594000000E+02  0.51100000000E-03 0.  1.
         11   -1    0    0    0    0 -0.00000000000E+00 -0.00000000000E+00 -0.45593999997E+02  0.45594000000E+02  0.51100000000E-03 0. -1.
    9900012    2    1    2    0    0 -0.23983458747E+02  0.61856415271E+01  0.20081097777E+02  0.59301969477E+02  0.50000046414E+02 0.  0.
         12    1    1    2    0    0  0.23983458747E+02 -0.61856415271E+01 -0.20081097777E+02  0.31886030523E+02  0.00000000000E+00 0. -1.
         11    1    3    3    0    0  0.17521363306E+01  0.72962656581E+01 -0.11793501780E+01  0.75958107782E+01  0.51100000000E-03 0.  1.
        -11    1    3    3    0    0  0.26864562837E+01  0.12218311929E+02 -0.19552708520E+01  0.12662040835E+02  0.51100000000E-03 0. -1.
        -12    1    3    3    0    0 -0.28422051361E+02 -0.13328936060E+02  0.23215718807E+02  0.39044117864E+02  0.00000000000E+00 0.  1.
</event>
<event>
 7    1  0.6246445E-012  0.5930197E+02  0.7816164E-02  0.1266605E+00
        -11   -1    0    0    0    0  0.00000000000E+00  0.00000000000E+00  0.45593999997E+02  0.45594000000E+02  0.51100000000E-03 0. -1.
         11   -1    0    0    0    0 -0.00000000000E+00 -0.00000000000E+00 -0.45593999997E+02  0.45594000000E+02  0.51100000000E-03 0.  1.
    9900012    2    1    2    0    0 -0.20164498402E+02 -0.52191716103E+01 -0.24142747448E+02  0.59301968538E+02  0.50000044700E+02 0.  0.
         12    1    1    2    0    0  0.20164498402E+02  0.52191716103E+01  0.24142747448E+02  0.31886031462E+02  0.00000000000E+00 0. -1.
         11    1    3    3    0    0 -0.21829112960E+01 -0.89663854389E+01  0.69936622205E+01  0.11578967185E+02  0.51100000000E-03 0. -1.
        -11    1    3    3    0    0  0.54666370765E+01  0.10040171416E+02 -0.65755275695E+01  0.13188128224E+02  0.51100000000E-03 0.  1.
        -12    1    3    3    0    0 -0.23448224182E+02 -0.62929575872E+01 -0.24560882099E+02  0.34534873128E+02  0.00000000000E+00 0.  1.
</event>
<event>
 7    1  0.6246445E-012  0.5930196E+02  0.7816164E-02  0.1266605E+00
        -11   -1    0    0    0    0  0.00000000000E+00  0.00000000000E+00  0.45593999997E+02  0.45594000000E+02  0.51100000000E-03 0.  1.
         11   -1    0    0    0    0 -0.00000000000E+00 -0.00000000000E+00 -0.45593999997E+02  0.45594000000E+02  0.51100000000E-03 0. -1.
    9900012    2    1    2    0    0  0.35873046385E+00  0.19931604916E+02  0.24886176473E+02  0.59301963220E+02  0.50000035003E+02 0.  0.
         12    1    1    2    0    0 -0.35873046385E+00 -0.19931604916E+02 -0.24886176473E+02  0.31886036780E+02  0.00000000000E+00 0. -1.
         11    1    3    3    0    0 -0.19234067945E+02  0.18799450459E+02  0.21714434852E+02  0.34567114263E+02  0.51100000000E-03 0.  1.
        -11    1    3    3    0    0  0.68896614292E+01 -0.55989872697E+01 -0.25884679341E+01  0.92475001791E+01  0.51100000000E-03 0. -1.
        -12    1    3    3    0    0  0.12703136980E+02  0.67311417259E+01  0.57602095550E+01  0.15487348778E+02  0.00000000000E+00 0.  1.
</event>
<event>
 7    1  0.8702603E-012  0.5930193E+02  0.7816164E-02  0.1266605E+00
        -11   -1    0    0    0    0  0.00000000000E+00  0.00000000000E+00  0.45593999997E+02  0.45594000000E+02  0.51100000000E-03 0. -1.
         11   -1    0    0    0    0 -0.00000000000E+00 -0.00000000000E+00 -0.45593999997E+02  0.45594000000E+02  0.51100000000E-03 0.  1.
    9900012    2    1    2    0    0  0.10291488209E+02 -0.19506454741E+02 -0.23028348021E+02  0.59301932217E+02  0.49999978460E+02 0.  0.
         12    1    1    2    0    0 -0.10291488209E+02  0.19506454741E+02  0.23028348021E+02  0.31886067783E+02  0.00000000000E+00 0. -1.
         11    1    3    3    0    0 -0.87778195462E+01 -0.12094471053E+02 -0.65731537682E+01  0.16325829129E+02  0.51100000000E-03 0. -1.
        -11    1    3    3    0    0  0.14837584915E+02 -0.12621106872E+02 -0.25264164144E+02  0.31901790780E+02  0.51100000000E-03 0.  1.
         12    1    3    3    0    0  0.42317228399E+01  0.52091231839E+01  0.88089698919E+01  0.11074312308E+02  0.00000000000E+00 0. -1.
</event>
<event>
 7    1  0.6246445E-012  0.5930193E+02  0.7816164E-02  0.1266605E+00
        -11   -1    0    0    0    0  0.00000000000E+00  0.00000000000E+00  0.45593999997E+02  0.45594000000E+02  0.51100000000E-03 0.  1.
         11   -1    0    0    0    0 -0.00000000000E+00 -0.00000000000E+00 -0.45593999997E+02  0.45594000000E+02  0.51100000000E-03 0. -1.
    9900012    2    1    2    0    0 -0.23763842395E+01 -0.13542291101E+02  0.28769437927E+02  0.59301930801E+02  0.49999975877E+02 0.  0.
         12    1    1    2    0    0  0.23763842395E+01  0.13542291101E+02 -0.28769437927E+02  0.31886069199E+02  0.00000000000E+00 0. -1.
         11    1    3    3    0    0  0.33529133688E+01  0.54955364388E+00  0.10814343443E+02  0.11335522116E+02  0.51100000000E-03 0. -1.
        -11    1    3    3    0    0  0.16056203826E+02 -0.90641825721E+01  0.17770321886E+02  0.25607526768E+02  0.51100000000E-03 0.  1.
         12    1    3    3    0    0 -0.21785501434E+02 -0.50276621730E+01  0.18477259818E+00  0.22358881917E+02  0.00000000000E+00 0. -1.
</event>
<event>
 7    1  0.6246445E-012  0.5930195E+02  0.7816164E-02  0.1266605E+00
        -11   -1    0    0    0    0  0.00000000000E+00  0.00000000000E+00  0.45593999997E+02  0.45594000000E+02  0.51100000000E-03 0. -1.
         11   -1    0    0    0    0 -0.00000000000E+00 -0.00000000000E+00 -0.45593999997E+02  0.45594000000E+02  0.51100000000E-03 0.  1.
    9900012    2    1    2    0    0  0.28020080056E+01 -0.10108870451E+02 -0.30111123096E+02  0.59301949057E+02  0.50000009172E+02 0.  0.
         12    1    1    2    0    0 -0.28020080056E+01  0.10108870451E+02  0.30111123096E+02  0.31886050943E+02  0.00000000000E+00 0. -1.
         11    1    3    3    0    0  0.21774004616E+01 -0.25289504094E+01  0.69288216610E+01  0.76905937882E+01  0.51100000000E-03 0. -1.
        -11    1    3    3    0    0 -0.33998384910E+01 -0.76750888541E+01  0.47384676094E+01  0.96394484401E+01  0.51100000000E-03 0.  1.
        -12    1    3    3    0    0  0.40244460350E+01  0.95168812764E-01 -0.41778412366E+02  0.41971906829E+02  0.00000000000E+00 0.  1.
</event>
<event>
 7    1  0.6246445E-012  0.5930156E+02  0.7816164E-02  0.1266606E+00
        -11   -1    0    0    0    0  0.00000000000E+00  0.00000000000E+00  0.45593999997E+02  0.45594000000E+02  0.51100000000E-03 0. -1.
         11   -1    0    0    0    0 -0.00000000000E+00 -0.00000000000E+00 -0.45593999997E+02  0.45594000000E+02  0.51100000000E-03 0.  1.
    9900012    2    1    2    0    0  0.30986121858E+02  0.53352682782E+00  0.75046900394E+01  0.59301564463E+02  0.49999307761E+02 0.  0.
         12    1    1    2    0    0 -0.30986121858E+02 -0.53352682782E+00 -0.75046900394E+01  0.31886435537E+02  0.00000000000E+00 0. -1.
         11    1    3    3    0    0  0.66851097808E+01  0.55846860081E+01  0.53109359485E+01  0.10202227771E+02  0.51100000000E-03 0.  1.
        -11    1    3    3    0    0 -0.10013926299E+02 -0.28228791296E+01  0.93352914794E+01  0.13978377366E+02  0.51100000000E-03 0. -1.
         12    1    3    3    0    0  0.34314938376E+02 -0.22282800507E+01 -0.71415373885E+01  0.35120959326E+02  0.00000000000E+00 0. -1.
</event>
<event>
 7    1  0.6246445E-012  0.5930195E+02  0.7816164E-02  0.1266605E+00
        -11   -1    0    0    0    0  0.00000000000E+00  0.00000000000E+00  0.45593999997E+02  0.45594000000E+02  0.51100000000E-03 0. -1.
         11   -1    0    0    0    0 -0.00000000000E+00 -0.00000000000E+00 -0.45593999997E+02  0.45594000000E+02  0.51100000000E-03 0.  1.
    9900012    2    1    2    0    0 -0.25364447512E+02  0.19261203689E+02 -0.15399137723E+01  0.59301945061E+02  0.50000001885E+02 0.  0.
         12    1    1    2    0    0  0.25364447512E+02 -0.19261203689E+02  0.15399137723E+01  0.31886054939E+02  0.00000000000E+00 0. -1.
         11    1    3    3    0    0  0.89947357181E+01 -0.19224572450E+01 -0.80805609041E+01  0.12243225771E+02  0.51100000000E-03 0. -1.
        -11    1    3    3    0    0 -0.15697387259E+02  0.12077308034E+01 -0.61722520292E+01  0.16910448717E+02  0.51100000000E-03 0.  1.
         12    1    3    3    0    0 -0.18661795971E+02  0.19975930131E+02  0.12712899161E+02  0.30148270573E+02  0.00000000000E+00 0. -1.
</event>
<event>
 7    1  0.6246445E-012  0.5930183E+02  0.7816164E-02  0.1266605E+00
        -11   -1    0    0    0    0  0.00000000000E+00  0.00000000000E+00  0.45593999997E+02  0.45594000000E+02  0.51100000000E-03 0.  1.
         11   -1    0    0    0    0 -0.00000000000E+00 -0.00000000000E+00 -0.45593999997E+02  0.45594000000E+02  0.51100000000E-03 0. -1.
    9900012    2    1    2    0    0  0.28251599766E+02  0.14473698639E+02 -0.30144957036E+01  0.59301827041E+02  0.49999786644E+02 0.  0.
         12    1    1    2    0    0 -0.28251599766E+02 -0.14473698639E+02  0.30144957036E+01  0.31886172959E+02  0.00000000000E+00 0. -1.
         11    1    3    3    0    0  0.95047626722E+01  0.48562174633E+01 -0.71449160163E+01  0.12844188828E+02  0.51100000000E-03 0. -1.
        -11    1    3    3    0    0  0.17529896947E+02 -0.26693843503E+01 -0.15310544848E+02  0.23427242339E+02  0.51100000000E-03 0.  1.
         12    1    3    3    0    0  0.12169401465E+01  0.12286865526E+02  0.19440965161E+02  0.23030395875E+02  0.00000000000E+00 0. -1.
</event>
<event>
 7    1  0.6246445E-012  0.5930195E+02  0.7816164E-02  0.1266605E+00
        -11   -1    0    0    0    0  0.00000000000E+00  0.00000000000E+00  0.45593999997E+02  0.45594000000E+02  0.51100000000E-03 0.  1.
         11   -1    0    0    0    0 -0.00000000000E+00 -0.00000000000E+00 -0.45593999997E+02  0.45594000000E+02  0.51100000000E-03 0. -1.
    9900012    2    1    2    0    0 -0.19324506569E+02 -0.23178311594E+02 -0.10298021689E+02  0.59301953942E+02  0.50000018081E+02 0.  0.
         12    1    1    2    0    0  0.19324506569E+02  0.23178311594E+02  0.10298021689E+02  0.31886046058E+02  0.00000000000E+00 0. -1.
         11    1    3    3    0    0  0.17000859210E+01 -0.78699988379E+01  0.15780509405E+02  0.17715858748E+02  0.51100000000E-03 0. -1.
        -11    1    3    3    0    0  0.29279394683E+01 -0.55266247026E+01 -0.30912250262E+01  0.69765380066E+01  0.51100000000E-03 0.  1.
        -12    1    3    3    0    0 -0.23952531959E+02 -0.97816880538E+01 -0.22987306068E+02  0.34609557187E+02  0.00000000000E+00 0.  1.
</event>
<event>
 7    1  0.6246445E-012  0.5930188E+02  0.7816164E-02  0.1266605E+00
        -11   -1    0    0    0    0  0.00000000000E+00  0.00000000000E+00  0.45593999997E+02  0.45594000000E+02  0.51100000000E-03 0.  1.
         11   -1    0    0    0    0 -0.00000000000E+00 -0.00000000000E+00 -0.45593999997E+02  0.45594000000E+02  0.51100000000E-03 0. -1.
    9900012    2    1    2    0    0  0.22054414766E+02 -0.21752591792E+02  0.75598855768E+01  0.59301884992E+02  0.49999892333E+02 0.  0.
         12    1    1    2    0    0 -0.22054414766E+02  0.21752591792E+02 -0.75598855768E+01  0.31886115008E+02  0.00000000000E+00 0. -1.
         11    1    3    3    0    0 -0.31083758522E+01  0.21722813277E+01 -0.10342271887E+02  0.11015597789E+02  0.51100000000E-03 0. -1.
        -11    1    3    3    0    0  0.43298451305E-01 -0.84644410557E+01  0.16750594193E+02  0.18767819352E+02  0.51100000000E-03 0.  1.
        -12    1    3    3    0    0  0.25119492167E+02 -0.15460432064E+02  0.11515632707E+01  0.29518467852E+02  0.00000000000E+00 0.  1.
</event>
<event>
 7    1  0.6246445E-012  0.5930196E+02  0.7816164E-02  0.1266605E+00
        -11   -1    0    0    0    0  0.00000000000E+00  0.00000000000E+00  0.45593999997E+02  0.45594000000E+02  0.51100000000E-03 0. -1.
         11   -1    0    0    0    0 -0.00000000000E+00 -0.00000000000E+00 -0.45593999997E+02  0.45594000000E+02  0.51100000000E-03 0.  1.
    9900012    2    1    2    0    0  0.75219292860E+01  0.25884192124E+01 -0.30877829868E+02  0.59301957418E+02  0.50000024421E+02 0.  0.
         12    1    1    2    0    0 -0.75219292860E+01 -0.25884192124E+01  0.30877829868E+02  0.31886042582E+02  0.00000000000E+00 0. -1.
         11    1    3    3    0    0  0.60562299960E+01  0.15823842356E+01 -0.23297054509E+02  0.24123320888E+02  0.51100000000E-03 0. -1.
        -11    1    3    3    0    0  0.92401255222E+01  0.39991761480E+01 -0.18727706215E+02  0.21262650585E+02  0.51100000000E-03 0.  1.
         12    1    3    3    0    0 -0.77744262322E+01 -0.29931411713E+01  0.11146930856E+02  0.13915985945E+02  0.00000000000E+00 0. -1.
</event>
<event>
 7    1  0.6246445E-012  0.5930195E+02  0.7816164E-02  0.1266605E+00
        -11   -1    0    0    0    0  0.00000000000E+00  0.00000000000E+00  0.45593999997E+02  0.45594000000E+02  0.51100000000E-03 0.  1.
         11   -1    0    0    0    0 -0.00000000000E+00 -0.00000000000E+00 -0.45593999997E+02  0.45594000000E+02  0.51100000000E-03 0. -1.
    9900012    2    1    2    0    0 -0.33973481039E+01 -0.25134571834E+02  0.19324377019E+02  0.59301949404E+02  0.50000009805E+02 0.  0.
         12    1    1    2    0    0  0.33973481039E+01  0.25134571834E+02 -0.19324377019E+02  0.31886050596E+02  0.00000000000E+00 0. -1.
         11    1    3    3    0    0  0.34033735963E+01  0.72565839283E+01 -0.58394248347E+01  0.99166448361E+01  0.51100000000E-03 0. -1.
        -11    1    3    3    0    0  0.76528706734E+01 -0.85220710582E+01  0.16653754839E+02  0.20212364413E+02  0.51100000000E-03 0.  1.
        -12    1    3    3    0    0 -0.14453592374E+02 -0.23869084704E+02  0.85100470149E+01  0.29172940156E+02  0.00000000000E+00 0.  1.
</event>
<event>
 7    1  0.6246445E-012  0.5930194E+02  0.7816164E-02  0.1266605E+00
        -11   -1    0    0    0    0  0.00000000000E+00  0.00000000000E+00  0.45593999997E+02  0.45594000000E+02  0.51100000000E-03 0. -1.
         11   -1    0    0    0    0 -0.00000000000E+00 -0.00000000000E+00 -0.45593999997E+02  0.45594000000E+02  0.51100000000E-03 0.  1.
    9900012    2    1    2    0    0 -0.73112008241E+00  0.25866557092E+02 -0.18630824147E+02  0.59301938457E+02  0.49999989840E+02 0.  0.
         12    1    1    2    0    0  0.73112008241E+00 -0.25866557092E+02  0.18630824147E+02  0.31886061543E+02  0.00000000000E+00 0. -1.
         11    1    3    3    0    0 -0.11007488878E+02  0.85427296334E+01 -0.14446867830E+02  0.20071248874E+02  0.51100000000E-03 0. -1.
        -11    1    3    3    0    0  0.14834507871E+02  0.38938025197E+01 -0.14955285234E+02  0.21421598413E+02  0.51100000000E-03 0.  1.
         12    1    3    3    0    0 -0.45581390756E+01  0.13430024938E+02  0.10771328917E+02  0.17809091171E+02  0.00000000000E+00 0. -1.
</event>
<event>
 7    1  0.6246445E-012  0.5930178E+02  0.7816164E-02  0.1266605E+00
        -11   -1    0    0    0    0  0.00000000000E+00  0.00000000000E+00  0.45593999997E+02  0.45594000000E+02  0.51100000000E-03 0. -1.
         11   -1    0    0    0    0 -0.00000000000E+00 -0.00000000000E+00 -0.45593999997E+02  0.45594000000E+02  0.51100000000E-03 0.  1.
    9900012    2    1    2    0    0  0.17459598939E+02  0.12635688872E+01 -0.26651392246E+02  0.59301781816E+02  0.49999704163E+02 0.  0.
         12    1    1    2    0    0 -0.17459598939E+02 -0.12635688872E+01  0.26651392246E+02  0.31886218184E+02  0.00000000000E+00 0. -1.
         11    1    3    3    0    0  0.61659235450E+01 -0.15800817639E+02  0.46632129909E+01  0.17590622698E+02  0.51100000000E-03 0. -1.
        -11    1    3    3    0    0  0.28739722273E+01 -0.25748688065E+01 -0.70940877986E-01  0.38593650518E+01  0.51100000000E-03 0.  1.
        -12    1    3    3    0    0  0.84197031670E+01  0.19639255333E+02 -0.31243664359E+02  0.37851794066E+02  0.00000000000E+00 0.  1.
</event>
<event>
 7    1  0.6246445E-012  0.5930196E+02  0.7816164E-02  0.1266605E+00
        -11   -1    0    0    0    0  0.00000000000E+00  0.00000000000E+00  0.45593999997E+02  0.45594000000E+02  0.51100000000E-03 0.  1.
         11   -1    0    0    0    0 -0.00000000000E+00 -0.00000000000E+00 -0.45593999997E+02  0.45594000000E+02  0.51100000000E-03 0. -1.
    9900012    2    1    2    0    0  0.31455442971E+01  0.30159897938E+02  0.98593023090E+01  0.59301957057E+02  0.50000023762E+02 0.  0.
         12    1    1    2    0    0 -0.31455442971E+01 -0.30159897938E+02 -0.98593023090E+01  0.31886042943E+02  0.00000000000E+00 0. -1.
         11    1    3    3    0    0  0.66739250263E+00  0.11283310554E+02 -0.56353090474E+01  0.12629933418E+02  0.51100000000E-03 0.  1.
        -11    1    3    3    0    0  0.83593231669E+01  0.26747184026E+02 -0.35364791404E+00  0.28025260110E+02  0.51100000000E-03 0. -1.
        -12    1    3    3    0    0 -0.58811713725E+01 -0.78705966422E+01  0.15848259271E+02  0.18646763529E+02  0.00000000000E+00 0.  1.
</event>
<event>
 7    1  0.6246445E-012  0.5930194E+02  0.7816164E-02  0.1266605E+00
        -11   -1    0    0    0    0  0.00000000000E+00  0.00000000000E+00  0.45593999997E+02  0.45594000000E+02  0.51100000000E-03 0. -1.
         11   -1    0    0    0    0 -0.00000000000E+00 -0.00000000000E+00 -0.45593999997E+02  0.45594000000E+02  0.51100000000E-03 0.  1.
    9900012    2    1    2    0    0 -0.76150592859E+01  0.17912731275E+02 -0.25256001843E+02  0.59301941938E+02  0.49999996188E+02 0.  0.
         12    1    1    2    0    0  0.76150592859E+01 -0.17912731275E+02  0.25256001843E+02  0.31886058062E+02  0.00000000000E+00 0. -1.
         11    1    3    3    0    0 -0.17615454113E+02  0.27655406702E+02 -0.13600040118E+02  0.35497701826E+02  0.51100000000E-03 0. -1.
        -11    1    3    3    0    0 -0.67229962757E+00 -0.47598835453E+01 -0.11003372517E+02  0.12007609469E+02  0.51100000000E-03 0.  1.
        -12    1    3    3    0    0  0.10672694455E+02 -0.49827918811E+01 -0.65258920797E+00  0.11796630643E+02  0.00000000000E+00 0.  1.
</event>
<event>
 7    1  0.6246445E-012  0.5930194E+02  0.7816164E-02  0.1266605E+00
        -11   -1    0    0    0    0  0.00000000000E+00  0.00000000000E+00  0.45593999997E+02  0.45594000000E+02  0.51100000000E-03 0.  1.
         11   -1    0    0    0    0 -0.00000000000E+00 -0.00000000000E+00 -0.45593999997E+02  0.45594000000E+02  0.51100000000E-03 0. -1.
    9900012    2    1    2    0    0  0.23917236304E+02 -0.15389563570E+02 -0.14416941246E+02  0.59301936364E+02  0.49999986023E+02 0.  0.
         12    1    1    2    0    0 -0.23917236304E+02  0.15389563570E+02  0.14416941246E+02  0.31886063636E+02  0.00000000000E+00 0. -1.
         11    1    3    3    0    0  0.20973386233E+02 -0.18366580660E+02 -0.10275514815E+02  0.29711957529E+02  0.51100000000E-03 0. -1.
        -11    1    3    3    0    0 -0.10610112728E+01 -0.79811044503E+01 -0.12757949525E+02  0.15086054803E+02  0.51100000000E-03 0.  1.
        -12    1    3    3    0    0  0.40048613438E+01  0.10958121540E+02  0.86165230946E+01  0.14503924032E+02  0.00000000000E+00 0.  1.
</event>
<event>
 7    1  0.6246445E-012  0.5930193E+02  0.7816164E-02  0.1266605E+00
        -11   -1    0    0    0    0  0.00000000000E+00  0.00000000000E+00  0.45593999997E+02  0.45594000000E+02  0.51100000000E-03 0. -1.
         11   -1    0    0    0    0 -0.00000000000E+00 -0.00000000000E+00 -0.45593999997E+02  0.45594000000E+02  0.51100000000E-03 0.  1.
    9900012    2    1    2    0    0 -0.31355460504E+02  0.31975230042E+01  0.48303821376E+01  0.59301927047E+02  0.49999969031E+02 0.  0.
         12    1    1    2    0    0  0.31355460504E+02 -0.31975230042E+01 -0.48303821376E+01  0.31886072953E+02  0.00000000000E+00 0. -1.
         11    1    3    3    0    0 -0.12425443177E+01  0.83444585208E+01 -0.10297345961E+02  0.13311996037E+02  0.51100000000E-03 0. -1.
        -11    1    3    3    0    0 -0.80660349656E+00 -0.10037796610E+02 -0.37980597653E+01  0.10762584644E+02  0.51100000000E-03 0.  1.
         12    1    3    3    0    0 -0.29306312690E+02  0.48908610929E+01  0.18925787864E+02  0.35227346366E+02  0.00000000000E+00 0. -1.
</event>
<event>
 7    1  0.6246445E-012  0.5930190E+02  0.7816164E-02  0.1266605E+00
        -11   -1    0    0    0    0  0.00000000000E+00  0.00000000000E+00  0.45593999997E+02  0.45594000000E+02  0.51100000000E-03 0. -1.
         11   -1    0    0    0    0 -0.00000000000E+00 -0.00000000000E+00 -0.45593999997E+02  0.45594000000E+02  0.51100000000E-03 0.  1.
    9900012    2    1    2    0    0 -0.16870166908E+02 -0.13776821498E+02 -0.23287761411E+02  0.59301903130E+02  0.49999925411E+02 0.  0.
         12    1    1    2    0    0  0.16870166908E+02  0.13776821498E+02  0.23287761411E+02  0.31886096870E+02  0.00000000000E+00 0. -1.
         11    1    3    3    0    0 -0.17801010291E+02  0.12131711549E+02 -0.26225743786E+01  0.21700974382E+02  0.51100000000E-03 0. -1.
        -11    1    3    3    0    0 -0.52689111779E+01 -0.65490269196E+00 -0.46756211521E+01  0.70747265640E+01  0.51100000000E-03 0.  1.
         12    1    3    3    0    0  0.61997545607E+01 -0.25253630355E+02 -0.15989565880E+02  0.30526202184E+02  0.00000000000E+00 0. -1.
</event>
<event>
 7    1  0.6246445E-012  0.5930195E+02  0.7816164E-02  0.1266605E+00
        -11   -1    0    0    0    0  0.00000000000E+00  0.00000000000E+00  0.45593999997E+02  0.45594000000E+02  0.51100000000E-03 0.  1.
         11   -1    0    0    0    0 -0.00000000000E+00 -0.00000000000E+00 -0.45593999997E+02  0.45594000000E+02  0.51100000000E-03 0. -1.
    9900012    2    1    2    0    0  0.29884258499E+02 -0.15361360204E+01 -0.11013257400E+02  0.59301945706E+02  0.50000003060E+02 0.  0.
         12    1    1    2    0    0 -0.29884258499E+02  0.15361360204E+01  0.11013257400E+02  0.31886054294E+02  0.00000000000E+00 0. -1.
         11    1    3    3    0    0  0.15003085114E+01  0.82768105469E+01  0.36523883597E+01  0.91704121745E+01  0.51100000000E-03 0. -1.
        -11    1    3    3    0    0 -0.40837133653E+01 -0.78861974521E+01 -0.15197878625E+02  0.17602395861E+02  0.51100000000E-03 0.  1.
         12    1    3    3    0    0  0.32467663353E+02 -0.19267491151E+01  0.53223286444E+00  0.32529137670E+02  0.00000000000E+00 0. -1.
</event>
<event>
 7    1  0.6246445E-012  0.5930195E+02  0.7816164E-02  0.1266605E+00
        -11   -1    0    0    0    0  0.00000000000E+00  0.00000000000E+00  0.45593999997E+02  0.45594000000E+02  0.51100000000E-03 0. -1.
         11   -1    0    0    0    0 -0.00000000000E+00 -0.00000000000E+00 -0.45593999997E+02  0.45594000000E+02  0.51100000000E-03 0.  1.
    9900012    2    1    2    0    0 -0.30285406956E+02  0.74405176139E+00 -0.99478944366E+01  0.59301951464E+02  0.50000013563E+02 0.  0.
         12    1    1    2    0    0  0.30285406956E+02 -0.74405176139E+00  0.99478944366E+01  0.31886048536E+02  0.00000000000E+00 0. -1.
         11    1    3    3    0    0 -0.18046872515E+02 -0.19929395480E+01 -0.88705116795E+01  0.20207607314E+02  0.51100000000E-03 0. -1.
        -11    1    3    3    0    0 -0.97387197923E+01  0.19248171426E+02  0.33202939233E+01  0.21825652761E+02  0.51100000000E-03 0.  1.
         12    1    3    3    0    0 -0.24998146481E+01 -0.16511180117E+02 -0.43976766804E+01  0.17268691390E+02  0.00000000000E+00 0. -1.
</event>
<event>
 7    1  0.6246445E-012  0.5930193E+02  0.7816164E-02  0.1266605E+00
        -11   -1    0    0    0    0  0.00000000000E+00  0.00000000000E+00  0.45593999997E+02  0.45594000000E+02  0.51100000000E-03 0.  1.
         11   -1    0    0    0    0 -0.00000000000E+00 -0.00000000000E+00 -0.45593999997E+02  0.45594000000E+02  0.51100000000E-03 0. -1.
    9900012    2    1    2    0    0  0.81908427157E+01 -0.26416390000E+02  0.15868387353E+02  0.59301932788E+02  0.49999979502E+02 0.  0.
         12    1    1    2    0    0 -0.81908427157E+01  0.26416390000E+02 -0.15868387353E+02  0.31886067212E+02  0.00000000000E+00 0. -1.
         11    1    3    3    0    0 -0.96452718402E+01  0.18054504557E+01 -0.10722911773E+02  0.14535190311E+02  0.51100000000E-03 0. -1.
        -11    1    3    3    0    0  0.46515811311E+01 -0.14054957406E+01  0.86240867880E+01  0.98988634946E+01  0.51100000000E-03 0.  1.
        -12    1    3    3    0    0  0.13184533425E+02 -0.26816344716E+02  0.17967212338E+02  0.34867878983E+02  0.00000000000E+00 0.  1.
</event>
<event>
 7    1  0.6246445E-012  0.5930194E+02  0.7816164E-02  0.1266605E+00
        -11   -1    0    0    0    0  0.00000000000E+00  0.00000000000E+00  0.45593999997E+02  0.45594000000E+02  0.51100000000E-03 0.  1.
         11   -1    0    0    0    0 -0.00000000000E+00 -0.00000000000E+00 -0.45593999997E+02  0.45594000000E+02  0.51100000000E-03 0. -1.
    9900012    2    1    2    0    0  0.32865083037E+01 -0.21125712210E+02  0.23656368343E+02  0.59301943229E+02  0.49999998543E+02 0.  0.
         12    1    1    2    0    0 -0.32865083037E+01  0.21125712210E+02 -0.23656368343E+02  0.31886056771E+02  0.00000000000E+00 0. -1.
         11    1    3    3    0    0  0.81583677253E+01  0.83510634647E+01  0.55032263142E+01  0.12906770512E+02  0.51100000000E-03 0. -1.
        -11    1    3    3    0    0  0.12091564592E+01 -0.21883428514E+02 -0.39280276857E+01  0.22266025794E+02  0.51100000000E-03 0.  1.
        -12    1    3    3    0    0 -0.60810158807E+01 -0.75933471606E+01  0.22081169715E+02  0.24129146923E+02  0.00000000000E+00 0.  1.
</event>
<event>
 7    1  0.6246445E-012  0.5930195E+02  0.7816164E-02  0.1266605E+00
        -11   -1    0    0    0    0  0.00000000000E+00  0.00000000000E+00  0.45593999997E+02  0.45594000000E+02  0.51100000000E-03 0.  1.
         11   -1    0    0    0    0 -0.00000000000E+00 -0.00000000000E+00 -0.45593999997E+02  0.45594000000E+02  0.51100000000E-03 0. -1.
    9900012    2    1    2    0    0 -0.30720852608E+02 -0.84574706160E+01 -0.11917972057E+01  0.59301953290E+02  0.50000016892E+02 0.  0.
         12    1    1    2    0    0  0.30720852608E+02  0.84574706160E+01  0.11917972057E+01  0.31886046710E+02  0.00000000000E+00 0. -1.
         11    1    3    3    0    0  0.20371468100E+01 -0.62990378680E+01  0.11887809420E+02  0.13606904800E+02  0.51100000000E-03 0. -1.
        -11    1    3    3    0    0 -0.45753167109E+01  0.13614764127E+01  0.86867729734E+01  0.99119708423E+01  0.51100000000E-03 0.  1.
         12    1    3    3    0    0 -0.28182682707E+02 -0.35199091607E+01 -0.21766379599E+02  0.35783077647E+02  0.00000000000E+00 0. -1.
</event>
<event>
 7    1  0.6246445E-012  0.5930194E+02  0.7816164E-02  0.1266605E+00
        -11   -1    0    0    0    0  0.00000000000E+00  0.00000000000E+00  0.45593999997E+02  0.45594000000E+02  0.51100000000E-03 0. -1.
         11   -1    0    0    0    0 -0.00000000000E+00 -0.00000000000E+00 -0.45593999997E+02  0.45594000000E+02  0.51100000000E-03 0.  1.
    9900012    2    1    2    0    0 -0.18603525763E+02 -0.81229402556E+01 -0.24589587035E+02  0.59301935336E+02  0.49999984148E+02 0.  0.
         12    1    1    2    0    0  0.18603525763E+02  0.81229402556E+01  0.24589587035E+02  0.31886064664E+02  0.00000000000E+00 0. -1.
         11    1    3    3    0    0 -0.13591497144E+02 -0.58701630966E+01  0.87675852142E+01  0.17206340696E+02  0.51100000000E-03 0. -1.
        -11    1    3    3    0    0 -0.14215663286E+01 -0.35197640478E+01  0.34274845454E+01  0.51144149567E+01  0.51100000000E-03 0.  1.
        -12    1    3    3    0    0 -0.35904622899E+01  0.12669868888E+01 -0.36784656795E+02  0.36981179683E+02  0.00000000000E+00 0.  1.
</event>
<event>
 7    1  0.6246445E-012  0.5930196E+02  0.7816164E-02  0.1266605E+00
        -11   -1    0    0    0    0  0.00000000000E+00  0.00000000000E+00  0.45593999997E+02  0.45594000000E+02  0.51100000000E-03 0. -1.
         11   -1    0    0    0    0 -0.00000000000E+00 -0.00000000000E+00 -0.45593999997E+02  0.45594000000E+02  0.51100000000E-03 0.  1.
    9900012    2    1    2    0    0  0.10344398889E+00  0.18644828279E+02 -0.25866571342E+02  0.59301955479E+02  0.50000020884E+02 0.  0.
         12    1    1    2    0    0 -0.10344398889E+00 -0.18644828279E+02  0.25866571342E+02  0.31886044521E+02  0.00000000000E+00 0. -1.
         11    1    3    3    0    0  0.53753878339E+01 -0.67507112588E+01 -0.38748487782E+01  0.94594582392E+01  0.51100000000E-03 0. -1.
        -11    1    3    3    0    0 -0.12535701195E+01 -0.91803599758E+01 -0.82948007586E+01  0.12436002863E+02  0.51100000000E-03 0.  1.
         12    1    3    3    0    0 -0.40183737255E+01  0.34575899514E+02 -0.13696921806E+02  0.37406494376E+02  0.00000000000E+00 0. -1.
</event>
<event>
 7    1  0.6246445E-012  0.5930193E+02  0.7816164E-02  0.1266605E+00
        -11   -1    0    0    0    0  0.00000000000E+00  0.00000000000E+00  0.45593999997E+02  0.45594000000E+02  0.51100000000E-03 0. -1.
         11   -1    0    0    0    0 -0.00000000000E+00 -0.00000000000E+00 -0.45593999997E+02  0.45594000000E+02  0.51100000000E-03 0.  1.
    9900012    2    1    2    0    0  0.16950232266E+01  0.30546410160E+02 -0.89869415922E+01  0.59301930995E+02  0.49999976232E+02 0.  0.
         12    1    1    2    0    0 -0.16950232266E+01 -0.30546410160E+02  0.89869415922E+01  0.31886069005E+02  0.00000000000E+00 0. -1.
         11    1    3    3    0    0 -0.12791078315E+02  0.20702081157E+02  0.14398237383E+02  0.28275379550E+02  0.51100000000E-03 0. -1.
        -11    1    3    3    0    0  0.14208315158E+01 -0.81830986682E+00  0.56551913924E+00  0.17344178829E+01  0.51100000000E-03 0.  1.
        -12    1    3    3    0    0  0.13065270025E+02  0.10662638870E+02 -0.23950698114E+02  0.29292133563E+02  0.00000000000E+00 0.  1.
</event>
<event>
 7    1  0.6246445E-012  0.5930192E+02  0.7816164E-02  0.1266605E+00
        -11   -1    0    0    0    0  0.00000000000E+00  0.00000000000E+00  0.45593999997E+02  0.45594000000E+02  0.51100000000E-03 0. -1.
         11   -1    0    0    0    0 -0.00000000000E+00 -0.00000000000E+00 -0.45593999997E+02  0.45594000000E+02  0.51100000000E-03 0.  1.
    9900012    2    1    2    0    0  0.22980388061E+02 -0.15130937965E+02 -0.16114547596E+02  0.59301918972E+02  0.49999954304E+02 0.  0.
         12    1    1    2    0    0 -0.22980388061E+02  0.15130937965E+02  0.16114547596E+02  0.31886081028E+02  0.00000000000E+00 0. -1.
         11    1    3    3    0    0  0.96516774508E+01  0.70043346237E+01  0.35937810487E+01  0.12455153296E+02  0.51100000000E-03 0. -1.
        -11    1    3    3    0    0  0.22006859465E+02 -0.23301866089E+02 -0.95674675455E+01  0.33448695972E+02  0.51100000000E-03 0.  1.
        -12    1    3    3    0    0 -0.86781488557E+01  0.11665935002E+01 -0.10140861099E+02  0.13398069704E+02  0.00000000000E+00 0.  1.
</event>
<event>
 7    1  0.6246445E-012  0.5930195E+02  0.7816164E-02  0.1266605E+00
        -11   -1    0    0    0    0  0.00000000000E+00  0.00000000000E+00  0.45593999997E+02  0.45594000000E+02  0.51100000000E-03 0.  1.
         11   -1    0    0    0    0 -0.00000000000E+00 -0.00000000000E+00 -0.45593999997E+02  0.45594000000E+02  0.51100000000E-03 0. -1.
    9900012    2    1    2    0    0 -0.20558142138E+02 -0.16900417004E+02  0.17563002421E+02  0.59301947294E+02  0.50000005957E+02 0.  0.
         12    1    1    2    0    0  0.20558142138E+02  0.16900417004E+02 -0.17563002421E+02  0.31886052706E+02  0.00000000000E+00 0. -1.
         11    1    3    3    0    0 -0.10823486427E+02  0.57048478219E+01 -0.76114601300E+01  0.14409284253E+02  0.51100000000E-03 0. -1.
        -11    1    3    3    0    0 -0.10015838508E+02  0.32128615732E+01  0.11824618691E+02  0.15825963097E+02  0.51100000000E-03 0.  1.
        -12    1    3    3    0    0  0.28118279681E+00 -0.25818126399E+02  0.13349843860E+02  0.29066699944E+02  0.00000000000E+00 0.  1.
</event>
<event>
 7    1  0.6246445E-012  0.5930198E+02  0.7816164E-02  0.1266605E+00
        -11   -1    0    0    0    0  0.00000000000E+00  0.00000000000E+00  0.45593999997E+02  0.45594000000E+02  0.51100000000E-03 0. -1.
         11   -1    0    0    0    0 -0.00000000000E+00 -0.00000000000E+00 -0.45593999997E+02  0.45594000000E+02  0.51100000000E-03 0.  1.
    9900012    2    1    2    0    0 -0.84819098659E+01  0.22575636799E+02  0.20859433902E+02  0.59301981833E+02  0.50000068947E+02 0.  0.
         12    1    1    2    0    0  0.84819098659E+01 -0.22575636799E+02 -0.20859433902E+02  0.31886018167E+02  0.00000000000E+00 0. -1.
         11    1    3    3    0    0 -0.19861208964E+02 -0.16306068714E+01  0.69233383307E+00  0.19940055834E+02  0.51100000000E-03 0. -1.
        -11    1    3    3    0    0 -0.41527922577E+01 -0.57874846644E+00  0.76455669159E+00  0.42620629417E+01  0.51100000000E-03 0.  1.
        -12    1    3    3    0    0  0.15532091355E+02  0.24784992137E+02  0.19402543378E+02  0.35099863057E+02  0.00000000000E+00 0.  1.
</event>
<event>
 7    1  0.6246445E-012  0.5930193E+02  0.7816164E-02  0.1266605E+00
        -11   -1    0    0    0    0  0.00000000000E+00  0.00000000000E+00  0.45593999997E+02  0.45594000000E+02  0.51100000000E-03 0. -1.
         11   -1    0    0    0    0 -0.00000000000E+00 -0.00000000000E+00 -0.45593999997E+02  0.45594000000E+02  0.51100000000E-03 0.  1.
    9900012    2    1    2    0    0 -0.29457896022E+02 -0.10957397723E+02  0.53748932522E+01  0.59301926545E+02  0.49999968116E+02 0.  0.
         12    1    1    2    0    0  0.29457896022E+02  0.10957397723E+02 -0.53748932522E+01  0.31886073455E+02  0.00000000000E+00 0. -1.
         11    1    3    3    0    0  0.10168483414E+02  0.39372360735E+01 -0.64537454685E+00  0.10923204264E+02  0.51100000000E-03 0. -1.
        -11    1    3    3    0    0  0.57367573165E-01  0.10779945782E+01 -0.42504554076E+01  0.43854001850E+01  0.51100000000E-03 0.  1.
         12    1    3    3    0    0 -0.39683747009E+02 -0.15972628374E+02  0.10270723207E+02  0.43993322096E+02  0.00000000000E+00 0. -1.
</event>
<event>
 7    1  0.6246445E-012  0.5930197E+02  0.7816164E-02  0.1266605E+00
        -11   -1    0    0    0    0  0.00000000000E+00  0.00000000000E+00  0.45593999997E+02  0.45594000000E+02  0.51100000000E-03 0.  1.
         11   -1    0    0    0    0 -0.00000000000E+00 -0.00000000000E+00 -0.45593999997E+02  0.45594000000E+02  0.51100000000E-03 0. -1.
    9900012    2    1    2    0    0  0.13188387858E+02 -0.12166528771E+02  0.26358323200E+02  0.59301965462E+02  0.50000039092E+02 0.  0.
         12    1    1    2    0    0 -0.13188387858E+02  0.12166528771E+02 -0.26358323200E+02  0.31886034538E+02  0.00000000000E+00 0. -1.
         11    1    3    3    0    0  0.12688520478E+02  0.12708087137E+02  0.56590857800E+01  0.18828682448E+02  0.51100000000E-03 0.  1.
        -11    1    3    3    0    0 -0.10063497416E+02 -0.16664313093E+02  0.55098310724E+01  0.20231943798E+02  0.51100000000E-03 0. -1.
        -12    1    3    3    0    0  0.10563364797E+02 -0.82103028138E+01  0.15189406347E+02  0.20241339217E+02  0.00000000000E+00 0.  1.
</event>
<event>
 7    1  0.6246445E-012  0.5930198E+02  0.7816164E-02  0.1266605E+00
        -11   -1    0    0    0    0  0.00000000000E+00  0.00000000000E+00  0.45593999997E+02  0.45594000000E+02  0.51100000000E-03 0.  1.
         11   -1    0    0    0    0 -0.00000000000E+00 -0.00000000000E+00 -0.45593999997E+02  0.45594000000E+02  0.51100000000E-03 0. -1.
    9900012    2    1    2    0    0 -0.19881898478E+02 -0.41408656882E+01  0.24582143959E+02  0.59301977085E+02  0.50000060289E+02 0.  0.
         12    1    1    2    0    0  0.19881898478E+02  0.41408656882E+01 -0.24582143959E+02  0.31886022915E+02  0.00000000000E+00 0. -1.
         11    1    3    3    0    0  0.95409391367E+01 -0.91038477009E+01  0.10560540958E+02  0.16894809504E+02  0.51100000000E-03 0. -1.
        -11    1    3    3    0    0 -0.12974102032E+02 -0.78274304232E+01  0.15297690858E+02  0.21531728598E+02  0.51100000000E-03 0.  1.
        -12    1    3    3    0    0 -0.16448735582E+02  0.12790412436E+02 -0.12760878575E+01  0.20875438984E+02  0.00000000000E+00 0.  1.
</event>
<event>
 7    1  0.6246445E-012  0.5930193E+02  0.7816164E-02  0.1266605E+00
        -11   -1    0    0    0    0  0.00000000000E+00  0.00000000000E+00  0.45593999997E+02  0.45594000000E+02  0.51100000000E-03 0.  1.
         11   -1    0    0    0    0 -0.00000000000E+00 -0.00000000000E+00 -0.45593999997E+02  0.45594000000E+02  0.51100000000E-03 0. -1.
    9900012    2    1    2    0    0  0.13278526155E+02 -0.17446339979E+02  0.23152264922E+02  0.59301930839E+02  0.49999975946E+02 0.  0.
         12    1    1    2    0    0 -0.13278526155E+02  0.17446339979E+02 -0.23152264922E+02  0.31886069161E+02  0.00000000000E+00 0. -1.
         11    1    3    3    0    0  0.20354432682E+01 -0.11379927967E+02  0.41674719975E+00  0.11568036494E+02  0.51100000000E-03 0. -1.
        -11    1    3    3    0    0  0.92326351456E+00 -0.21090240356E+02  0.37968599122E+01  0.21449167798E+02  0.51100000000E-03 0.  1.
         12    1    3    3    0    0  0.10319819373E+02  0.15023828343E+02  0.18938657810E+02  0.26284726547E+02  0.00000000000E+00 0. -1.
</event>
<event>
 7    1  0.6246445E-012  0.5930192E+02  0.7816164E-02  0.1266605E+00
        -11   -1    0    0    0    0  0.00000000000E+00  0.00000000000E+00  0.45593999997E+02  0.45594000000E+02  0.51100000000E-03 0.  1.
         11   -1    0    0    0    0 -0.00000000000E+00 -0.00000000000E+00 -0.45593999997E+02  0.45594000000E+02  0.51100000000E-03 0. -1.
    9900012    2    1    2    0    0 -0.14658939317E+02 -0.25075103794E+02  0.13155855308E+02  0.59301923711E+02  0.49999962948E+02 0.  0.
         12    1    1    2    0    0  0.14658939317E+02  0.25075103794E+02 -0.13155855308E+02  0.31886076289E+02  0.00000000000E+00 0. -1.
         11    1    3    3    0    0 -0.31803740958E+01 -0.90151713415E+01 -0.91164343646E+01  0.13209749032E+02  0.51100000000E-03 0. -1.
        -11    1    3    3    0    0 -0.11418427633E+02 -0.12648197698E+02 -0.56576500965E+01  0.17954564865E+02  0.51100000000E-03 0.  1.
        -12    1    3    3    0    0 -0.60137588681E-01 -0.34117347545E+01  0.27929939769E+02  0.28137609814E+02  0.00000000000E+00 0.  1.
</event>
<event>
 7    1  0.6246445E-012  0.5930193E+02  0.7816164E-02  0.1266605E+00
        -11   -1    0    0    0    0  0.00000000000E+00  0.00000000000E+00  0.45593999997E+02  0.45594000000E+02  0.51100000000E-03 0. -1.
         11   -1    0    0    0    0 -0.00000000000E+00 -0.00000000000E+00 -0.45593999997E+02  0.45594000000E+02  0.51100000000E-03 0.  1.
    9900012    2    1    2    0    0  0.23098425728E+02  0.18754420876E+01 -0.21901292350E+02  0.59301934694E+02  0.49999982977E+02 0.  0.
         12    1    1    2    0    0 -0.23098425728E+02 -0.18754420876E+01  0.21901292350E+02  0.31886065306E+02  0.00000000000E+00 0. -1.
         11    1    3    3    0    0  0.64742300113E+01 -0.11838671196E+02 -0.24526195320E+02  0.27992928519E+02  0.51100000000E-03 0.  1.
        -11    1    3    3    0    0  0.47104382768E+01 -0.27623619989E+01 -0.69468284525E+01  0.88361359418E+01  0.51100000000E-03 0. -1.
         12    1    3    3    0    0  0.11913757440E+02  0.16476475283E+02  0.95717314229E+01  0.22472870233E+02  0.00000000000E+00 0. -1.
</event>
<event>
 7    1  0.6246445E-012  0.5930194E+02  0.7816164E-02  0.1266605E+00
        -11   -1    0    0    0    0  0.00000000000E+00  0.00000000000E+00  0.45593999997E+02  0.45594000000E+02  0.51100000000E-03 0.  1.
         11   -1    0    0    0    0 -0.00000000000E+00 -0.00000000000E+00 -0.45593999997E+02  0.45594000000E+02  0.51100000000E-03 0. -1.
    9900012    2    1    2    0    0 -0.16016440025E-02 -0.24733071734E+02 -0.20124510741E+02  0.59301940781E+02  0.49999994079E+02 0.  0.
         12    1    1    2    0    0  0.16016440025E-02  0.24733071734E+02  0.20124510741E+02  0.31886059219E+02  0.00000000000E+00 0. -1.
         11    1    3    3    0    0  0.51406653332E+01 -0.69984624076E+00  0.42182447512E+01  0.66865397532E+01  0.51100000000E-03 0. -1.
        -11    1    3    3    0    0  0.11111242873E+02  0.30187814677E+01  0.17755586206E+01  0.11650123107E+02  0.51100000000E-03 0.  1.
        -12    1    3    3    0    0 -0.16253509850E+02 -0.27052006961E+02 -0.26118314113E+02  0.40965277921E+02  0.00000000000E+00 0.  1.
</event>
<event>
 7    1  0.6246445E-012  0.5930195E+02  0.7816164E-02  0.1266605E+00
        -11   -1    0    0    0    0  0.00000000000E+00  0.00000000000E+00  0.45593999997E+02  0.45594000000E+02  0.51100000000E-03 0.  1.
         11   -1    0    0    0    0 -0.00000000000E+00 -0.00000000000E+00 -0.45593999997E+02  0.45594000000E+02  0.51100000000E-03 0. -1.
    9900012    2    1    2    0    0 -0.24771820842E+02  0.39958746441E+01  0.19675114939E+02  0.59301948663E+02  0.50000008454E+02 0.  0.
         12    1    1    2    0    0  0.24771820842E+02 -0.39958746441E+01 -0.19675114939E+02  0.31886051337E+02  0.00000000000E+00 0. -1.
         11    1    3    3    0    0 -0.37629671464E+01  0.14966772730E+01  0.10812318188E+02  0.11545829960E+02  0.51100000000E-03 0. -1.
        -11    1    3    3    0    0 -0.43311543457E+01  0.55305027088E+01  0.24014298570E+02  0.25020629374E+02  0.51100000000E-03 0.  1.
         12    1    3    3    0    0 -0.16677699350E+02 -0.30313053377E+01 -0.15151501820E+02  0.22735489329E+02  0.00000000000E+00 0. -1.
</event>
<event>
 7    1  0.6246445E-012  0.5930194E+02  0.7816164E-02  0.1266605E+00
        -11   -1    0    0    0    0  0.00000000000E+00  0.00000000000E+00  0.45593999997E+02  0.45594000000E+02  0.51100000000E-03 0. -1.
         11   -1    0    0    0    0 -0.00000000000E+00 -0.00000000000E+00 -0.45593999997E+02  0.45594000000E+02  0.51100000000E-03 0.  1.
    9900012    2    1    2    0    0  0.57732760207E+00  0.25181183236E+02 -0.19552380622E+02  0.59301939028E+02  0.49999990882E+02 0.  0.
         12    1    1    2    0    0 -0.57732760207E+00 -0.25181183236E+02  0.19552380622E+02  0.31886060972E+02  0.00000000000E+00 0. -1.
         11    1    3    3    0    0  0.56744802938E+00 -0.11259493343E+02 -0.16471267530E+02  0.19959981010E+02  0.51100000000E-03 0. -1.
        -11    1    3    3    0    0  0.35214905657E+00  0.10207280504E+02 -0.75859401208E+01  0.12722384683E+02  0.51100000000E-03 0.  1.
         12    1    3    3    0    0 -0.34226948388E+00  0.26233396074E+02  0.45048270294E+01  0.26619573335E+02  0.00000000000E+00 0. -1.
</event>
<event>
 7    1  0.6246445E-012  0.5930195E+02  0.7816164E-02  0.1266605E+00
        -11   -1    0    0    0    0  0.00000000000E+00  0.00000000000E+00  0.45593999997E+02  0.45594000000E+02  0.51100000000E-03 0. -1.
         11   -1    0    0    0    0 -0.00000000000E+00 -0.00000000000E+00 -0.45593999997E+02  0.45594000000E+02  0.51100000000E-03 0.  1.
    9900012    2    1    2    0    0  0.60346346778E+00 -0.29238109292E+02 -0.12707832444E+02  0.59301949625E+02  0.50000010207E+02 0.  0.
         12    1    1    2    0    0 -0.60346346778E+00  0.29238109292E+02  0.12707832444E+02  0.31886050375E+02  0.00000000000E+00 0. -1.
         11    1    3    3    0    0  0.76446950785E+01 -0.14928657581E+02 -0.22060984125E+02  0.27712690249E+02  0.51100000000E-03 0. -1.
        -11    1    3    3    0    0 -0.12852874586E+02 -0.12566283363E+02 -0.26213236638E+01  0.18165329633E+02  0.51100000000E-03 0.  1.
         12    1    3    3    0    0  0.58116429754E+01 -0.17431683477E+01  0.11974475344E+02  0.13423929742E+02  0.00000000000E+00 0. -1.
</event>
<event>
 7    1  0.6246445E-012  0.5930193E+02  0.7816164E-02  0.1266605E+00
        -11   -1    0    0    0    0  0.00000000000E+00  0.00000000000E+00  0.45593999997E+02  0.45594000000E+02  0.51100000000E-03 0.  1.
         11   -1    0    0    0    0 -0.00000000000E+00 -0.00000000000E+00 -0.45593999997E+02  0.45594000000E+02  0.51100000000E-03 0. -1.
    9900012    2    1    2    0    0  0.16626713252E+02  0.20794327292E+02  0.17546215550E+02  0.59301932177E+02  0.49999978386E+02 0.  0.
         12    1    1    2    0    0 -0.16626713252E+02 -0.20794327292E+02 -0.17546215550E+02  0.31886067823E+02  0.00000000000E+00 0. -1.
         11    1    3    3    0    0  0.10040326687E+02 -0.60422960405E+01  0.82437936797E+01  0.14327513250E+02  0.51100000000E-03 0. -1.
        -11    1    3    3    0    0 -0.11537849991E+02  0.17507872799E+01  0.77070264161E+01  0.13985188413E+02  0.51100000000E-03 0.  1.
        -12    1    3    3    0    0  0.18124236555E+02  0.25085836053E+02  0.15953954543E+01  0.30989230514E+02  0.00000000000E+00 0.  1.
</event>
<event>
 7    1  0.6246445E-012  0.5930195E+02  0.7816164E-02  0.1266605E+00
        -11   -1    0    0    0    0  0.00000000000E+00  0.00000000000E+00  0.45593999997E+02  0.45594000000E+02  0.51100000000E-03 0. -1.
         11   -1    0    0    0    0 -0.00000000000E+00 -0.00000000000E+00 -0.45593999997E+02  0.45594000000E+02  0.51100000000E-03 0.  1.
    9900012    2    1    2    0    0 -0.35401300881E+01 -0.20808261828E+02 -0.23899870919E+02  0.59301951150E+02  0.50000012989E+02 0.  0.
         12    1    1    2    0    0  0.35401300881E+01  0.20808261828E+02  0.23899870919E+02  0.31886048850E+02  0.00000000000E+00 0. -1.
         11    1    3    3    0    0 -0.20785271715E+02 -0.10157426522E+02 -0.42806720161E+01  0.23527111743E+02  0.51100000000E-03 0. -1.
        -11    1    3    3    0    0 -0.48988094915E+01 -0.47140589251E+01 -0.28562601617E+01  0.73742056084E+01  0.51100000000E-03 0.  1.
        -12    1    3    3    0    0  0.22143951118E+02 -0.59367763814E+01 -0.16762938741E+02  0.28400633798E+02  0.00000000000E+00 0.  1.
</event>
<event>
 7    1  0.6246445E-012  0.5930189E+02  0.7816164E-02  0.1266605E+00
        -11   -1    0    0    0    0  0.00000000000E+00  0.00000000000E+00  0.45593999997E+02  0.45594000000E+02  0.51100000000E-03 0.  1.
         11   -1    0    0    0    0 -0.00000000000E+00 -0.00000000000E+00 -0.45593999997E+02  0.45594000000E+02  0.51100000000E-03 0. -1.
    9900012    2    1    2    0    0 -0.43268166612E+01  0.31009138430E+02 -0.60362386842E+01  0.59301887254E+02  0.49999896458E+02 0.  0.
         12    1    1    2    0    0  0.43268166612E+01 -0.31009138430E+02  0.60362386842E+01  0.31886112746E+02  0.00000000000E+00 0. -1.
         11    1    3    3    0    0  0.16534573324E+01 -0.37414619888E+01 -0.72511757775E+01  0.83253834375E+01  0.51100000000E-03 0. -1.
        -11    1    3    3    0    0 -0.53495082829E+01  0.48190239021E+01  0.16030312735E+02  0.17573023555E+02  0.51100000000E-03 0.  1.
        -12    1    3    3    0    0 -0.63076571059E+00  0.29931576517E+02 -0.14815375641E+02  0.33403480261E+02  0.00000000000E+00 0.  1.
</event>
<event>
 7    1  0.6246445E-012  0.5930194E+02  0.7816164E-02  0.1266605E+00
        -11   -1    0    0    0    0  0.00000000000E+00  0.00000000000E+00  0.45593999997E+02  0.45594000000E+02  0.51100000000E-03 0.  1.
         11   -1    0    0    0    0 -0.00000000000E+00 -0.00000000000E+00 -0.45593999997E+02  0.45594000000E+02  0.51100000000E-03 0. -1.
    9900012    2    1    2    0    0  0.11025352810E+02 -0.26032680138E+02  0.14746587136E+02  0.59301942358E+02  0.49999996956E+02 0.  0.
         12    1    1    2    0    0 -0.11025352810E+02  0.26032680138E+02 -0.14746587136E+02  0.31886057642E+02  0.00000000000E+00 0. -1.
         11    1    3    3    0    0  0.52029583290E+01 -0.86491922392E+01 -0.31321899134E+01  0.10568344983E+02  0.51100000000E-03 0. -1.
        -11    1    3    3    0    0  0.20786387612E+02 -0.19621856549E+02  0.53322579319E+01  0.29077897780E+02  0.51100000000E-03 0.  1.
        -12    1    3    3    0    0 -0.14963993131E+02  0.22383686499E+01  0.12546519117E+02  0.19655699596E+02  0.00000000000E+00 0.  1.
</event>
<event>
 7    1  0.6246445E-012  0.5930174E+02  0.7816164E-02  0.1266605E+00
        -11   -1    0    0    0    0  0.00000000000E+00  0.00000000000E+00  0.45593999997E+02  0.45594000000E+02  0.51100000000E-03 0.  1.
         11   -1    0    0    0    0 -0.00000000000E+00 -0.00000000000E+00 -0.45593999997E+02  0.45594000000E+02  0.51100000000E-03 0. -1.
    9900012    2    1    2    0    0  0.31296071890E+02  0.39502500365E+01  0.46567009260E+01  0.59301741916E+02  0.49999631394E+02 0.  0.
         12    1    1    2    0    0 -0.31296071890E+02 -0.39502500365E+01 -0.46567009260E+01  0.31886258084E+02  0.00000000000E+00 0. -1.
         11    1    3    3    0    0  0.25166783730E+02  0.52754410140E+01  0.11606611465E+02  0.28211889536E+02  0.51100000000E-03 0. -1.
        -11    1    3    3    0    0  0.96650349746E+01  0.11188790908E+02  0.25263227108E+01  0.14999474982E+02  0.51100000000E-03 0.  1.
        -12    1    3    3    0    0 -0.35357468147E+01 -0.12513981886E+02 -0.94762332500E+01  0.16090377397E+02  0.00000000000E+00 0.  1.
</event>
<event>
 7    1  0.6246445E-012  0.5930192E+02  0.7816164E-02  0.1266605E+00
        -11   -1    0    0    0    0  0.00000000000E+00  0.00000000000E+00  0.45593999997E+02  0.45594000000E+02  0.51100000000E-03 0.  1.
         11   -1    0    0    0    0 -0.00000000000E+00 -0.00000000000E+00 -0.45593999997E+02  0.45594000000E+02  0.51100000000E-03 0. -1.
    9900012    2    1    2    0    0  0.81123182530E-01 -0.22789149643E+02  0.22301799441E+02  0.59301918699E+02  0.49999953807E+02 0.  0.
         12    1    1    2    0    0 -0.81123182530E-01  0.22789149643E+02 -0.22301799441E+02  0.31886081301E+02  0.00000000000E+00 0. -1.
         11    1    3    3    0    0 -0.32417208276E+01 -0.72390258674E+01 -0.84550552180E+01  0.11593110387E+02  0.51100000000E-03 0. -1.
        -11    1    3    3    0    0 -0.12617302886E+02 -0.11576369918E+02  0.24998724503E+02  0.30300905922E+02  0.51100000000E-03 0.  1.
         12    1    3    3    0    0  0.15940146896E+02 -0.39737538570E+01  0.57581301552E+01  0.17407902391E+02  0.00000000000E+00 0. -1.
</event>
<event>
 7    1  0.6246445E-012  0.5930195E+02  0.7816164E-02  0.1266605E+00
        -11   -1    0    0    0    0  0.00000000000E+00  0.00000000000E+00  0.45593999997E+02  0.45594000000E+02  0.51100000000E-03 0. -1.
         11   -1    0    0    0    0 -0.00000000000E+00 -0.00000000000E+00 -0.45593999997E+02  0.45594000000E+02  0.51100000000E-03 0.  1.
    9900012    2    1    2    0    0 -0.66922737669E+01 -0.24563421147E+02  0.19198230810E+02  0.59301948930E+02  0.50000008940E+02 0.  0.
         12    1    1    2    0    0  0.66922737669E+01  0.24563421147E+02 -0.19198230810E+02  0.31886051070E+02  0.00000000000E+00 0. -1.
         11    1    3    3    0    0 -0.11501393730E+02 -0.20273782729E+02  0.26113736050E+01  0.23454799003E+02  0.51100000000E-03 0. -1.
        -11    1    3    3    0    0 -0.10371507847E+01 -0.15477461128E+02  0.66233371024E+00  0.15526305772E+02  0.51100000000E-03 0.  1.
        -12    1    3    3    0    0  0.58462707481E+01  0.11187822710E+02  0.15924523494E+02  0.20320844155E+02  0.00000000000E+00 0.  1.
</event>
<event>
 7    1  0.6246445E-012  0.5930194E+02  0.7816164E-02  0.1266605E+00
        -11   -1    0    0    0    0  0.00000000000E+00  0.00000000000E+00  0.45593999997E+02  0.45594000000E+02  0.51100000000E-03 0.  1.
         11   -1    0    0    0    0 -0.00000000000E+00 -0.00000000000E+00 -0.45593999997E+02  0.45594000000E+02  0.51100000000E-03 0. -1.
    9900012    2    1    2    0    0  0.11769290021E+02  0.21477263030E+02  0.20418905595E+02  0.59301941596E+02  0.49999995565E+02 0.  0.
         12    1    1    2    0    0 -0.11769290021E+02 -0.21477263030E+02 -0.20418905595E+02  0.31886058404E+02  0.00000000000E+00 0. -1.
         11    1    3    3    0    0 -0.93567247679E+01 -0.30278718271E+00  0.56458057373E+01  0.10932296243E+02  0.51100000000E-03 0. -1.
        -11    1    3    3    0    0 -0.19465727750E+01 -0.38573608605E+01  0.13148843061E+02  0.13840536567E+02  0.51100000000E-03 0.  1.
         12    1    3    3    0    0  0.23072587564E+02  0.25637411073E+02  0.16242567971E+01  0.34529108786E+02  0.00000000000E+00 0. -1.
</event>
<event>
 7    1  0.6246445E-012  0.5930192E+02  0.7816164E-02  0.1266605E+00
        -11   -1    0    0    0    0  0.00000000000E+00  0.00000000000E+00  0.45593999997E+02  0.45594000000E+02  0.51100000000E-03 0.  1.
         11   -1    0    0    0    0 -0.00000000000E+00 -0.00000000000E+00 -0.45593999997E+02  0.45594000000E+02  0.51100000000E-03 0. -1.
    9900012    2    1    2    0    0 -0.13981012380E+01  0.20790451157E+02  0.24135549430E+02  0.59301916944E+02  0.49999950606E+02 0.  0.
         12    1    1    2    0    0  0.13981012380E+01 -0.20790451157E+02 -0.24135549430E+02  0.31886083056E+02  0.00000000000E+00 0. -1.
         11    1    3    3    0    0  0.76575986336E+01 -0.66045330301E+01  0.94546689248E+01  0.13843750869E+02  0.51100000000E-03 0. -1.
        -11    1    3    3    0    0  0.48710951024E+01 -0.48719449938E+00  0.13398671734E+02  0.14264968646E+02  0.51100000000E-03 0.  1.
        -12    1    3    3    0    0 -0.13926794974E+02  0.27882178686E+02  0.12822087709E+01  0.31193197429E+02  0.00000000000E+00 0.  1.
</event>
<event>
 7    1  0.6246445E-012  0.5930199E+02  0.7816164E-02  0.1266605E+00
        -11   -1    0    0    0    0  0.00000000000E+00  0.00000000000E+00  0.45593999997E+02  0.45594000000E+02  0.51100000000E-03 0.  1.
         11   -1    0    0    0    0 -0.00000000000E+00 -0.00000000000E+00 -0.45593999997E+02  0.45594000000E+02  0.51100000000E-03 0. -1.
    9900012    2    1    2    0    0  0.26754856687E+02 -0.88361004907E+01  0.14927116195E+02  0.59301986983E+02  0.50000078340E+02 0.  0.
         12    1    1    2    0    0 -0.26754856687E+02  0.88361004907E+01 -0.14927116195E+02  0.31886013017E+02  0.00000000000E+00 0. -1.
         11    1    3    3    0    0  0.15696131793E+02 -0.52949327248E+01 -0.75367531981E+00  0.16582306612E+02  0.51100000000E-03 0.  1.
        -11    1    3    3    0    0  0.11723445569E+02  0.16005570291E+02  0.10683031022E+02  0.22533189043E+02  0.51100000000E-03 0. -1.
        -12    1    3    3    0    0 -0.66472067469E+00 -0.19546738057E+02  0.49977604922E+01  0.20186491329E+02  0.00000000000E+00 0.  1.
</event>
<event>
 7    1  0.6246445E-012  0.5930195E+02  0.7816164E-02  0.1266605E+00
        -11   -1    0    0    0    0  0.00000000000E+00  0.00000000000E+00  0.45593999997E+02  0.45594000000E+02  0.51100000000E-03 0. -1.
         11   -1    0    0    0    0 -0.00000000000E+00 -0.00000000000E+00 -0.45593999997E+02  0.45594000000E+02  0.51100000000E-03 0.  1.
    9900012    2    1    2    0    0  0.58255037745E+01  0.24650206523E+02 -0.19368821558E+02  0.59301946240E+02  0.50000004035E+02 0.  0.
         12    1    1    2    0    0 -0.58255037745E+01 -0.24650206523E+02  0.19368821558E+02  0.31886053760E+02  0.00000000000E+00 0. -1.
         11    1    3    3    0    0  0.18488033979E+02  0.94621857196E+00 -0.12056440628E+02  0.22092091138E+02  0.51100000000E-03 0. -1.
        -11    1    3    3    0    0  0.67280773629E+01  0.67905171822E+01 -0.63212828576E+01  0.11460225383E+02  0.51100000000E-03 0.  1.
        -12    1    3    3    0    0 -0.19390607567E+02  0.16913470769E+02 -0.99109807257E+00  0.25749629719E+02  0.00000000000E+00 0.  1.
</event>
<event>
 7    1  0.6246445E-012  0.5930193E+02  0.7816164E-02  0.1266605E+00
        -11   -1    0    0    0    0  0.00000000000E+00  0.00000000000E+00  0.45593999997E+02  0.45594000000E+02  0.51100000000E-03 0.  1.
         11   -1    0    0    0    0 -0.00000000000E+00 -0.00000000000E+00 -0.45593999997E+02  0.45594000000E+02  0.51100000000E-03 0. -1.
    9900012    2    1    2    0    0  0.12418155065E+02  0.26030308232E+02  0.13599036952E+02  0.59301932072E+02  0.49999978196E+02 0.  0.
         12    1    1    2    0    0 -0.12418155065E+02 -0.26030308232E+02 -0.13599036952E+02  0.31886067928E+02  0.00000000000E+00 0. -1.
         11    1    3    3    0    0  0.23639831731E+02  0.72604707571E+01 -0.60988694571E+01  0.25470616184E+02  0.51100000000E-03 0. -1.
        -11    1    3    3    0    0 -0.53694350169E+01 -0.20537534337E+01  0.55105575963E+01  0.79633523625E+01  0.51100000000E-03 0.  1.
        -12    1    3    3    0    0 -0.58522416487E+01  0.20823590909E+02  0.14187348813E+02  0.25867963526E+02  0.00000000000E+00 0.  1.
</event>
<event>
 7    1  0.6246445E-012  0.5930194E+02  0.7816164E-02  0.1266605E+00
        -11   -1    0    0    0    0  0.00000000000E+00  0.00000000000E+00  0.45593999997E+02  0.45594000000E+02  0.51100000000E-03 0.  1.
         11   -1    0    0    0    0 -0.00000000000E+00 -0.00000000000E+00 -0.45593999997E+02  0.45594000000E+02  0.51100000000E-03 0. -1.
    9900012    2    1    2    0    0  0.29172278063E+02  0.11949937139E+02 -0.47851848426E+01  0.59301940366E+02  0.49999993322E+02 0.  0.
         12    1    1    2    0    0 -0.29172278063E+02 -0.11949937139E+02  0.47851848426E+01  0.31886059634E+02  0.00000000000E+00 0. -1.
         11    1    3    3    0    0  0.91940658529E+01  0.65613420285E+01 -0.29792689266E+01  0.11681528141E+02  0.51100000000E-03 0. -1.
        -11    1    3    3    0    0  0.32612139955E+02  0.99634579683E+01 -0.31901490596E+00  0.34101670603E+02  0.51100000000E-03 0.  1.
        -12    1    3    3    0    0 -0.12633927745E+02 -0.45748628576E+01 -0.14869010101E+01  0.13518741622E+02  0.00000000000E+00 0.  1.
</event>
<event>
 7    1  0.6246445E-012  0.5930210E+02  0.7816164E-02  0.1266604E+00
        -11   -1    0    0    0    0  0.00000000000E+00  0.00000000000E+00  0.45593999997E+02  0.45594000000E+02  0.51100000000E-03 0.  1.
         11   -1    0    0    0    0 -0.00000000000E+00 -0.00000000000E+00 -0.45593999997E+02  0.45594000000E+02  0.51100000000E-03 0. -1.
    9900012    2    1    2    0    0 -0.57486467526E+01  0.30812595535E+02  0.58521297240E+01  0.59302103347E+02  0.50000290559E+02 0.  0.
         12    1    1    2    0    0  0.57486467526E+01 -0.30812595535E+02 -0.58521297240E+01  0.31885896653E+02  0.00000000000E+00 0. -1.
         11    1    3    3    0    0 -0.24148382491E+01 -0.32385798170E+01  0.14902782323E+01  0.43058997284E+01  0.51100000000E-03 0. -1.
        -11    1    3    3    0    0 -0.86352764046E+01 -0.39582059664E+00  0.16055122254E+02  0.18234352837E+02  0.51100000000E-03 0.  1.
         12    1    3    3    0    0  0.53014679011E+01  0.34446995948E+02 -0.11693270762E+02  0.36761850782E+02  0.00000000000E+00 0. -1.
</event>
<event>
 7    1  0.6246445E-012  0.5930195E+02  0.7816164E-02  0.1266605E+00
        -11   -1    0    0    0    0  0.00000000000E+00  0.00000000000E+00  0.45593999997E+02  0.45594000000E+02  0.51100000000E-03 0. -1.
         11   -1    0    0    0    0 -0.00000000000E+00 -0.00000000000E+00 -0.45593999997E+02  0.45594000000E+02  0.51100000000E-03 0.  1.
    9900012    2    1    2    0    0  0.12806785042E+02  0.15757168351E+02 -0.24584916155E+02  0.59301949760E+02  0.50000010455E+02 0.  0.
         12    1    1    2    0    0 -0.12806785042E+02 -0.15757168351E+02  0.24584916155E+02  0.31886050240E+02  0.00000000000E+00 0. -1.
         11    1    3    3    0    0 -0.46499136692E+00  0.16713013813E+02 -0.17453248403E+02  0.24169338588E+02  0.51100000000E-03 0. -1.
        -11    1    3    3    0    0 -0.25561022954E+01  0.53567044747E+01 -0.15171320540E+02  0.16291006997E+02  0.51100000000E-03 0.  1.
         12    1    3    3    0    0  0.15827878704E+02 -0.63125499373E+01  0.80396527879E+01  0.18841604176E+02  0.00000000000E+00 0. -1.
</event>
<event>
 7    1  0.6246445E-012  0.5930195E+02  0.7816164E-02  0.1266605E+00
        -11   -1    0    0    0    0  0.00000000000E+00  0.00000000000E+00  0.45593999997E+02  0.45594000000E+02  0.51100000000E-03 0.  1.
         11   -1    0    0    0    0 -0.00000000000E+00 -0.00000000000E+00 -0.45593999997E+02  0.45594000000E+02  0.51100000000E-03 0. -1.
    9900012    2    1    2    0    0 -0.86936690436E+01  0.17150698501E+02  0.25436075789E+02  0.59301948315E+02  0.50000007818E+02 0.  0.
         12    1    1    2    0    0  0.86936690436E+01 -0.17150698501E+02 -0.25436075789E+02  0.31886051685E+02  0.00000000000E+00 0. -1.
         11    1    3    3    0    0 -0.47995033384E+01 -0.16119018408E+01  0.27281479455E+02  0.27747298632E+02  0.51100000000E-03 0. -1.
        -11    1    3    3    0    0  0.40306619799E+01  0.18114546871E+02  0.68412052000E+01  0.19778400673E+02  0.51100000000E-03 0.  1.
        -12    1    3    3    0    0 -0.79248276852E+01  0.64805347151E+00 -0.86866088662E+01  0.11776249010E+02  0.00000000000E+00 0.  1.
</event>
<event>
 7    1  0.6246445E-012  0.5930197E+02  0.7816164E-02  0.1266605E+00
        -11   -1    0    0    0    0  0.00000000000E+00  0.00000000000E+00  0.45593999997E+02  0.45594000000E+02  0.51100000000E-03 0.  1.
         11   -1    0    0    0    0 -0.00000000000E+00 -0.00000000000E+00 -0.45593999997E+02  0.45594000000E+02  0.51100000000E-03 0. -1.
    9900012    2    1    2    0    0  0.10579780713E+02 -0.14592302053E+02  0.26303081703E+02  0.59301966282E+02  0.50000040587E+02 0.  0.
         12    1    1    2    0    0 -0.10579780713E+02  0.14592302053E+02 -0.26303081703E+02  0.31886033718E+02  0.00000000000E+00 0. -1.
         11    1    3    3    0    0  0.33291142137E+01 -0.16937373540E+02  0.21183708011E+02  0.27325942056E+02  0.51100000000E-03 0. -1.
        -11    1    3    3    0    0  0.37805111868E+01  0.71184683296E+01  0.16942425490E+02  0.18761946539E+02  0.51100000000E-03 0.  1.
         12    1    3    3    0    0  0.34701553123E+01 -0.47733968427E+01 -0.11823051798E+02  0.13214077687E+02  0.00000000000E+00 0. -1.
</event>
<event>
 7    1  0.6246445E-012  0.5930193E+02  0.7816164E-02  0.1266605E+00
        -11   -1    0    0    0    0  0.00000000000E+00  0.00000000000E+00  0.45593999997E+02  0.45594000000E+02  0.51100000000E-03 0. -1.
         11   -1    0    0    0    0 -0.00000000000E+00 -0.00000000000E+00 -0.45593999997E+02  0.45594000000E+02  0.51100000000E-03 0.  1.
    9900012    2    1    2    0    0 -0.48040337458E+01  0.12647631300E+02 -0.28873521972E+02  0.59301927981E+02  0.49999970734E+02 0.  0.
         12    1    1    2    0    0  0.48040337458E+01 -0.12647631300E+02  0.28873521972E+02  0.31886072019E+02  0.00000000000E+00 0. -1.
         11    1    3    3    0    0  0.10423354254E+02  0.99210708053E+01 -0.19195735983E+02  0.23990628170E+02  0.51100000000E-03 0. -1.
        -11    1    3    3    0    0  0.40346052250E+01  0.14827746723E+01 -0.14742018668E+02  0.15355903579E+02  0.51100000000E-03 0.  1.
        -12    1    3    3    0    0 -0.19261993225E+02  0.12437858219E+01  0.50642326782E+01  0.19955396232E+02  0.00000000000E+00 0.  1.
</event>
<event>
 7    1  0.6246445E-012  0.5930196E+02  0.7816164E-02  0.1266605E+00
        -11   -1    0    0    0    0  0.00000000000E+00  0.00000000000E+00  0.45593999997E+02  0.45594000000E+02  0.51100000000E-03 0.  1.
         11   -1    0    0    0    0 -0.00000000000E+00 -0.00000000000E+00 -0.45593999997E+02  0.45594000000E+02  0.51100000000E-03 0. -1.
    9900012    2    1    2    0    0  0.36641065049E+01  0.24066487938E+02  0.20593643334E+02  0.59301958165E+02  0.50000025783E+02 0.  0.
         12    1    1    2    0    0 -0.36641065049E+01 -0.24066487938E+02 -0.20593643334E+02  0.31886041835E+02  0.00000000000E+00 0. -1.
         11    1    3    3    0    0 -0.61368823722E+01  0.11747550591E+01  0.13975037519E+02  0.15308267329E+02  0.51100000000E-03 0. -1.
        -11    1    3    3    0    0  0.96955742383E+01  0.16656404068E+01  0.17549043246E+02  0.20118335838E+02  0.51100000000E-03 0.  1.
         12    1    3    3    0    0  0.10541463873E+00  0.21226092472E+02 -0.10930437430E+02  0.23875354998E+02  0.00000000000E+00 0. -1.
</event>
<event>
 7    1  0.6246445E-012  0.5930191E+02  0.7816164E-02  0.1266605E+00
        -11   -1    0    0    0    0  0.00000000000E+00  0.00000000000E+00  0.45593999997E+02  0.45594000000E+02  0.51100000000E-03 0. -1.
         11   -1    0    0    0    0 -0.00000000000E+00 -0.00000000000E+00 -0.45593999997E+02  0.45594000000E+02  0.51100000000E-03 0.  1.
    9900012    2    1    2    0    0 -0.21247439000E+02 -0.21268273723E+02 -0.10626839418E+02  0.59301908248E+02  0.49999934746E+02 0.  0.
         12    1    1    2    0    0  0.21247439000E+02  0.21268273723E+02  0.10626839418E+02  0.31886091752E+02  0.00000000000E+00 0. -1.
         11    1    3    3    0    0  0.47297333541E+00  0.71463083986E+01  0.60986102498E+01  0.94067249744E+01  0.51100000000E-03 0. -1.
        -11    1    3    3    0    0  0.28889576753E+01  0.11493903807E+01 -0.10472185622E+02  0.10924003234E+02  0.51100000000E-03 0.  1.
        -12    1    3    3    0    0 -0.24609370010E+02 -0.29563972503E+02 -0.62532640459E+01  0.38971180039E+02  0.00000000000E+00 0.  1.
</event>
<event>
 7    1  0.6246445E-012  0.5930193E+02  0.7816164E-02  0.1266605E+00
        -11   -1    0    0    0    0  0.00000000000E+00  0.00000000000E+00  0.45593999997E+02  0.45594000000E+02  0.51100000000E-03 0.  1.
         11   -1    0    0    0    0 -0.00000000000E+00 -0.00000000000E+00 -0.45593999997E+02  0.45594000000E+02  0.51100000000E-03 0. -1.
    9900012    2    1    2    0    0  0.11341943977E+02 -0.28987883972E+02  0.69126412952E+01  0.59301925923E+02  0.49999966982E+02 0.  0.
         12    1    1    2    0    0 -0.11341943977E+02  0.28987883972E+02 -0.69126412952E+01  0.31886074077E+02  0.00000000000E+00 0. -1.
         11    1    3    3    0    0  0.18740717386E+02 -0.71817231485E+00  0.26759747782E+01  0.18944421366E+02  0.51100000000E-03 0.  1.
        -11    1    3    3    0    0  0.18199415866E+01  0.24594652261E+01  0.75094407850E+01  0.81088135841E+01  0.51100000000E-03 0. -1.
        -12    1    3    3    0    0 -0.92187149957E+01 -0.30729176883E+02 -0.32727742680E+01  0.32248690973E+02  0.00000000000E+00 0.  1.
</event>
<event>
 7    1  0.6246445E-012  0.5930206E+02  0.7816164E-02  0.1266604E+00
        -11   -1    0    0    0    0  0.00000000000E+00  0.00000000000E+00  0.45593999997E+02  0.45594000000E+02  0.51100000000E-03 0.  1.
         11   -1    0    0    0    0 -0.00000000000E+00 -0.00000000000E+00 -0.45593999997E+02  0.45594000000E+02  0.51100000000E-03 0. -1.
    9900012    2    1    2    0    0  0.10473062075E+02  0.11971937905E+02  0.27635133118E+02  0.59302064089E+02  0.50000218963E+02 0.  0.
         12    1    1    2    0    0 -0.10473062075E+02 -0.11971937905E+02 -0.27635133118E+02  0.31885935911E+02  0.00000000000E+00 0. -1.
         11    1    3    3    0    0  0.56274896685E+00 -0.26102945617E+01 -0.97937994258E+01  0.10151297038E+02  0.51100000000E-03 0. -1.
        -11    1    3    3    0    0  0.13230673082E+02  0.59314685711E+01  0.48644967621E+01  0.15293670541E+02  0.51100000000E-03 0.  1.
        -12    1    3    3    0    0 -0.33203599734E+01  0.86507638955E+01  0.32564435782E+02  0.33857096511E+02  0.00000000000E+00 0.  1.
</event>
<event>
 7    1  0.6246445E-012  0.5930189E+02  0.7816164E-02  0.1266605E+00
        -11   -1    0    0    0    0  0.00000000000E+00  0.00000000000E+00  0.45593999997E+02  0.45594000000E+02  0.51100000000E-03 0.  1.
         11   -1    0    0    0    0 -0.00000000000E+00 -0.00000000000E+00 -0.45593999997E+02  0.45594000000E+02  0.51100000000E-03 0. -1.
    9900012    2    1    2    0    0 -0.10389772426E+02  0.80484411041E+01  0.29051666913E+02  0.59301888201E+02  0.49999898185E+02 0.  0.
         12    1    1    2    0    0  0.10389772426E+02 -0.80484411041E+01 -0.29051666913E+02  0.31886111799E+02  0.00000000000E+00 0. -1.
         11    1    3    3    0    0 -0.13187513714E+02  0.66989464637E+00  0.31397743153E+02  0.34061379187E+02  0.51100000000E-03 0.  1.
        -11    1    3    3    0    0 -0.90871542264E+01  0.93533952914E+01 -0.19531560674E+01  0.13186250198E+02  0.51100000000E-03 0. -1.
         12    1    3    3    0    0  0.11884895515E+02 -0.19748488337E+01 -0.39292017258E+00  0.12054258815E+02  0.00000000000E+00 0. -1.
</event>
<event>
 7    1  0.8315542E-012  0.5930191E+02  0.7816164E-02  0.1266605E+00
        -11   -1    0    0    0    0  0.00000000000E+00  0.00000000000E+00  0.45593999997E+02  0.45594000000E+02  0.51100000000E-03 0. -1.
         11   -1    0    0    0    0 -0.00000000000E+00 -0.00000000000E+00 -0.45593999997E+02  0.45594000000E+02  0.51100000000E-03 0.  1.
    9900012    2    1    2    0    0 -0.15232335913E+02 -0.48102090413E+01 -0.27596388212E+02  0.59301908821E+02  0.49999935791E+02 0.  0.
         12    1    1    2    0    0  0.15232335913E+02  0.48102090413E+01  0.27596388212E+02  0.31886091179E+02  0.00000000000E+00 0. -1.
         11    1    3    3    0    0 -0.91269870401E+01 -0.46372966333E+01 -0.53717819512E+01  0.11561247947E+02  0.51100000000E-03 0. -1.
        -11    1    3    3    0    0 -0.79981744917E+01 -0.80339834620E+01 -0.32641401304E+02  0.34553968873E+02  0.51100000000E-03 0.  1.
         12    1    3    3    0    0  0.18928256189E+01  0.78610710541E+01  0.10416795044E+02  0.13186692001E+02  0.00000000000E+00 0. -1.
</event>
<event>
 7    1  0.6246445E-012  0.5930193E+02  0.7816164E-02  0.1266605E+00
        -11   -1    0    0    0    0  0.00000000000E+00  0.00000000000E+00  0.45593999997E+02  0.45594000000E+02  0.51100000000E-03 0.  1.
         11   -1    0    0    0    0 -0.00000000000E+00 -0.00000000000E+00 -0.45593999997E+02  0.45594000000E+02  0.51100000000E-03 0. -1.
    9900012    2    1    2    0    0 -0.87261889223E+01 -0.19778509632E+02 -0.23438975413E+02  0.59301931180E+02  0.49999976569E+02 0.  0.
         12    1    1    2    0    0  0.87261889223E+01  0.19778509632E+02  0.23438975413E+02  0.31886068820E+02  0.00000000000E+00 0. -1.
         11    1    3    3    0    0 -0.13829068843E+02  0.38151343403E+01 -0.27597137388E+01  0.14608710254E+02  0.51100000000E-03 0. -1.
        -11    1    3    3    0    0  0.11908256987E+02 -0.19624288619E+02 -0.42280319681E+00  0.22958616053E+02  0.51100000000E-03 0.  1.
         12    1    3    3    0    0 -0.68053770664E+01 -0.39693553532E+01 -0.20256458478E+02  0.21734604873E+02  0.00000000000E+00 0. -1.
</event>
<event>
 7    1  0.6246445E-012  0.5930200E+02  0.7816164E-02  0.1266605E+00
        -11   -1    0    0    0    0  0.00000000000E+00  0.00000000000E+00  0.45593999997E+02  0.45594000000E+02  0.51100000000E-03 0.  1.
         11   -1    0    0    0    0 -0.00000000000E+00 -0.00000000000E+00 -0.45593999997E+02  0.45594000000E+02  0.51100000000E-03 0. -1.
    9900012    2    1    2    0    0 -0.19747449384E+02 -0.23841044032E+02  0.76393427291E+01  0.59302004719E+02  0.50000110686E+02 0.  0.
         12    1    1    2    0    0  0.19747449384E+02  0.23841044032E+02 -0.76393427291E+01  0.31885995281E+02  0.00000000000E+00 0. -1.
         11    1    3    3    0    0  0.22460462246E+01  0.59641934303E+00  0.13754418408E+02  0.13949353593E+02  0.51100000000E-03 0. -1.
        -11    1    3    3    0    0 -0.11989247756E+02 -0.27172854575E+02  0.50357048907E+01  0.30124149971E+02  0.51100000000E-03 0.  1.
        -12    1    3    3    0    0 -0.10004247853E+02  0.27353911993E+01 -0.11150780569E+02  0.15228501155E+02  0.00000000000E+00 0.  1.
</event>
<event>
 7    1  0.6246445E-012  0.5930187E+02  0.7816164E-02  0.1266605E+00
        -11   -1    0    0    0    0  0.00000000000E+00  0.00000000000E+00  0.45593999997E+02  0.45594000000E+02  0.51100000000E-03 0. -1.
         11   -1    0    0    0    0 -0.00000000000E+00 -0.00000000000E+00 -0.45593999997E+02  0.45594000000E+02  0.51100000000E-03 0.  1.
    9900012    2    1    2    0    0 -0.74109216214E+00  0.31406353186E+02 -0.54604799982E+01  0.59301873239E+02  0.49999870897E+02 0.  0.
         12    1    1    2    0    0  0.74109216214E+00 -0.31406353186E+02  0.54604799982E+01  0.31886126761E+02  0.00000000000E+00 0. -1.
         11    1    3    3    0    0 -0.12407322688E+02  0.19712702014E+02  0.39741395804E+01  0.23628924280E+02  0.51100000000E-03 0. -1.
        -11    1    3    3    0    0 -0.61518717923E+01  0.14682328643E+02 -0.16641927632E+01  0.16005806407E+02  0.51100000000E-03 0.  1.
         12    1    3    3    0    0  0.17818102318E+02 -0.29886774712E+01 -0.77704268154E+01  0.19667142551E+02  0.00000000000E+00 0. -1.
</event>
<event>
 7    1  0.6246445E-012  0.5930195E+02  0.7816164E-02  0.1266605E+00
        -11   -1    0    0    0    0  0.00000000000E+00  0.00000000000E+00  0.45593999997E+02  0.45594000000E+02  0.51100000000E-03 0.  1.
         11   -1    0    0    0    0 -0.00000000000E+00 -0.00000000000E+00 -0.45593999997E+02  0.45594000000E+02  0.51100000000E-03 0. -1.
    9900012    2    1    2    0    0 -0.12347896822E+02 -0.29327850981E+02 -0.20314882884E+01  0.59301947505E+02  0.50000006341E+02 0.  0.
         12    1    1    2    0    0  0.12347896822E+02  0.29327850981E+02  0.20314882884E+01  0.31886052495E+02  0.00000000000E+00 0. -1.
         11    1    3    3    0    0 -0.13989550747E+02  0.18689635459E+01 -0.82957455006E+01  0.16371314807E+02  0.51100000000E-03 0. -1.
        -11    1    3    3    0    0 -0.33764338345E+00 -0.17609258350E+02 -0.11080947791E+02  0.20808348971E+02  0.51100000000E-03 0.  1.
        -12    1    3    3    0    0  0.19792973079E+01 -0.13587556177E+02  0.17345205003E+02  0.22122283727E+02  0.00000000000E+00 0.  1.
</event>
<event>
 7    1  0.6246445E-012  0.5930195E+02  0.7816164E-02  0.1266605E+00
        -11   -1    0    0    0    0  0.00000000000E+00  0.00000000000E+00  0.45593999997E+02  0.45594000000E+02  0.51100000000E-03 0.  1.
         11   -1    0    0    0    0 -0.00000000000E+00 -0.00000000000E+00 -0.45593999997E+02  0.45594000000E+02  0.51100000000E-03 0. -1.
    9900012    2    1    2    0    0 -0.29863477325E+02  0.77204368988E+01  0.80800806269E+01  0.59301950906E+02  0.50000012545E+02 0.  0.
         12    1    1    2    0    0  0.29863477325E+02 -0.77204368988E+01 -0.80800806269E+01  0.31886049094E+02  0.00000000000E+00 0. -1.
         11    1    3    3    0    0 -0.82712401977E+01 -0.68577066911E+01 -0.74999028157E+01  0.13103056818E+02  0.51100000000E-03 0. -1.
        -11    1    3    3    0    0  0.92208987641E+01  0.30070693797E+01 -0.19263300632E+00  0.97007498683E+01  0.51100000000E-03 0.  1.
        -12    1    3    3    0    0 -0.30813135892E+02  0.11571074210E+02  0.15772616449E+02  0.36498144220E+02  0.00000000000E+00 0.  1.
</event>
<event>
 7    1  0.6246445E-012  0.5930193E+02  0.7816164E-02  0.1266605E+00
        -11   -1    0    0    0    0  0.00000000000E+00  0.00000000000E+00  0.45593999997E+02  0.45594000000E+02  0.51100000000E-03 0.  1.
         11   -1    0    0    0    0 -0.00000000000E+00 -0.00000000000E+00 -0.45593999997E+02  0.45594000000E+02  0.51100000000E-03 0. -1.
    9900012    2    1    2    0    0 -0.27552319837E+02  0.14109996662E+02  0.76484755396E+01  0.59301929180E+02  0.49999972922E+02 0.  0.
         12    1    1    2    0    0  0.27552319837E+02 -0.14109996662E+02 -0.76484755396E+01  0.31886070820E+02  0.00000000000E+00 0. -1.
         11    1    3    3    0    0  0.78338219086E+01 -0.58710500420E+00 -0.30402672695E+00  0.78616722453E+01  0.51100000000E-03 0. -1.
        -11    1    3    3    0    0  0.62589411900E+01  0.19701153616E+01 -0.18227947582E+01  0.68101600826E+01  0.51100000000E-03 0.  1.
        -12    1    3    3    0    0 -0.41645082936E+02  0.12726986305E+02  0.97752970247E+01  0.44630096853E+02  0.00000000000E+00 0.  1.
</event>
<event>
 7    1  0.7880271E-012  0.5930193E+02  0.7816164E-02  0.1266605E+00
        -11   -1    0    0    0    0  0.00000000000E+00  0.00000000000E+00  0.45593999997E+02  0.45594000000E+02  0.51100000000E-03 0. -1.
         11   -1    0    0    0    0 -0.00000000000E+00 -0.00000000000E+00 -0.45593999997E+02  0.45594000000E+02  0.51100000000E-03 0.  1.
    9900012    2    1    2    0    0 -0.26890770705E+02  0.23186779249E+01 -0.16977385700E+02  0.59301930289E+02  0.49999974944E+02 0.  0.
         12    1    1    2    0    0  0.26890770705E+02 -0.23186779249E+01  0.16977385700E+02  0.31886069711E+02  0.00000000000E+00 0. -1.
         11    1    3    3    0    0  0.75681032769E+01  0.42061449844E+01 -0.11166214952E+02  0.14129833667E+02  0.51100000000E-03 0. -1.
        -11    1    3    3    0    0 -0.11323806805E+02 -0.79424062396E+01 -0.14205871543E+02  0.19827183461E+02  0.51100000000E-03 0.  1.
         12    1    3    3    0    0 -0.23135067176E+02  0.60549391801E+01  0.83947007949E+01  0.25344913161E+02  0.00000000000E+00 0. -1.
</event>
<event>
 7    1  0.6246445E-012  0.5930192E+02  0.7816164E-02  0.1266605E+00
        -11   -1    0    0    0    0  0.00000000000E+00  0.00000000000E+00  0.45593999997E+02  0.45594000000E+02  0.51100000000E-03 0. -1.
         11   -1    0    0    0    0 -0.00000000000E+00 -0.00000000000E+00 -0.45593999997E+02  0.45594000000E+02  0.51100000000E-03 0.  1.
    9900012    2    1    2    0    0 -0.24465933389E+02 -0.17353062124E+02 -0.10817168701E+02  0.59301924663E+02  0.49999964683E+02 0.  0.
         12    1    1    2    0    0  0.24465933389E+02  0.17353062124E+02  0.10817168701E+02  0.31886075337E+02  0.00000000000E+00 0. -1.
         11    1    3    3    0    0 -0.17326207603E+02 -0.13548023965E+02  0.44513559291E+01  0.22440164730E+02  0.51100000000E-03 0. -1.
        -11    1    3    3    0    0 -0.11049498794E+02 -0.15999746022E+02 -0.41051305099E+01  0.19872981486E+02  0.51100000000E-03 0.  1.
        -12    1    3    3    0    0  0.39097730077E+01  0.12194707863E+02 -0.11163394121E+02  0.16988778447E+02  0.00000000000E+00 0.  1.
</event>
<event>
 7    1  0.6246445E-012  0.5930195E+02  0.7816164E-02  0.1266605E+00
        -11   -1    0    0    0    0  0.00000000000E+00  0.00000000000E+00  0.45593999997E+02  0.45594000000E+02  0.51100000000E-03 0.  1.
         11   -1    0    0    0    0 -0.00000000000E+00 -0.00000000000E+00 -0.45593999997E+02  0.45594000000E+02  0.51100000000E-03 0. -1.
    9900012    2    1    2    0    0 -0.47561543395E+01 -0.13287344408E+02  0.28592755518E+02  0.59301949858E+02  0.50000010634E+02 0.  0.
         12    1    1    2    0    0  0.47561543395E+01  0.13287344408E+02 -0.28592755518E+02  0.31886050142E+02  0.00000000000E+00 0. -1.
         11    1    3    3    0    0 -0.83566437064E+01 -0.78208885358E+01  0.65388090732E+01  0.13181646934E+02  0.51100000000E-03 0. -1.
        -11    1    3    3    0    0 -0.77124518364E+01  0.11402404117E+02  0.21830121276E+02  0.25807962495E+02  0.51100000000E-03 0.  1.
        -12    1    3    3    0    0  0.11312941203E+02 -0.16868859989E+02  0.22382516920E+00  0.20312340429E+02  0.00000000000E+00 0.  1.
</event>
<event>
 7    1  0.6246445E-012  0.5930200E+02  0.7816164E-02  0.1266605E+00
        -11   -1    0    0    0    0  0.00000000000E+00  0.00000000000E+00  0.45593999997E+02  0.45594000000E+02  0.51100000000E-03 0.  1.
         11   -1    0    0    0    0 -0.00000000000E+00 -0.00000000000E+00 -0.45593999997E+02  0.45594000000E+02  0.51100000000E-03 0. -1.
    9900012    2    1    2    0    0  0.67560384687E+01  0.63525060640E+01  0.30507680727E+02  0.59302000370E+02  0.50000102754E+02 0.  0.
         12    1    1    2    0    0 -0.67560384687E+01 -0.63525060640E+01 -0.30507680727E+02  0.31885999630E+02  0.00000000000E+00 0. -1.
         11    1    3    3    0    0  0.67713484173E+01  0.27380115341E+01  0.87160235508E+00  0.73557839471E+01  0.51100000000E-03 0. -1.
        -11    1    3    3    0    0 -0.20965984283E+02  0.20500669374E+01  0.10540938427E+02  0.23556032234E+02  0.51100000000E-03 0.  1.
         12    1    3    3    0    0  0.20950674334E+02  0.15644275925E+01  0.19095139945E+02  0.28390184189E+02  0.00000000000E+00 0. -1.
</event>
<event>
 7    1  0.6246445E-012  0.5930195E+02  0.7816164E-02  0.1266605E+00
        -11   -1    0    0    0    0  0.00000000000E+00  0.00000000000E+00  0.45593999997E+02  0.45594000000E+02  0.51100000000E-03 0.  1.
         11   -1    0    0    0    0 -0.00000000000E+00 -0.00000000000E+00 -0.45593999997E+02  0.45594000000E+02  0.51100000000E-03 0. -1.
    9900012    2    1    2    0    0  0.59330212429E+01 -0.14949869403E+02  0.27532179015E+02  0.59301949483E+02  0.50000009950E+02 0.  0.
         12    1    1    2    0    0 -0.59330212429E+01  0.14949869403E+02 -0.27532179015E+02  0.31886050517E+02  0.00000000000E+00 0. -1.
         11    1    3    3    0    0 -0.75998217355E+01  0.21085117959E+01  0.22310183233E+01  0.81963745293E+01  0.51100000000E-03 0. -1.
        -11    1    3    3    0    0  0.20787663336E+01 -0.55291052652E+01 -0.10354444373E+02  0.11920855382E+02  0.51100000000E-03 0.  1.
        -12    1    3    3    0    0  0.11454076645E+02 -0.11529275933E+02  0.35655605065E+02  0.39184719572E+02  0.00000000000E+00 0.  1.
</event>
<event>
 7    1  0.6246445E-012  0.5930194E+02  0.7816164E-02  0.1266605E+00
        -11   -1    0    0    0    0  0.00000000000E+00  0.00000000000E+00  0.45593999997E+02  0.45594000000E+02  0.51100000000E-03 0.  1.
         11   -1    0    0    0    0 -0.00000000000E+00 -0.00000000000E+00 -0.45593999997E+02  0.45594000000E+02  0.51100000000E-03 0. -1.
    9900012    2    1    2    0    0  0.16907687457E+02 -0.24351326936E+02  0.11741542934E+02  0.59301939579E+02  0.49999991887E+02 0.  0.
         12    1    1    2    0    0 -0.16907687457E+02  0.24351326936E+02 -0.11741542934E+02  0.31886060421E+02  0.00000000000E+00 0. -1.
         11    1    3    3    0    0  0.45323443083E+00 -0.44993241113E+01  0.13555369660E+02  0.14289765071E+02  0.51100000000E-03 0. -1.
        -11    1    3    3    0    0  0.20234815762E+02 -0.10374457299E+02  0.13623027728E+02  0.26507810508E+02  0.51100000000E-03 0.  1.
         12    1    3    3    0    0 -0.37803627357E+01 -0.94775455256E+01 -0.15436854455E+02  0.18504364000E+02  0.00000000000E+00 0. -1.
</event>
<event>
 7    1  0.6246445E-012  0.5930197E+02  0.7816164E-02  0.1266605E+00
        -11   -1    0    0    0    0  0.00000000000E+00  0.00000000000E+00  0.45593999997E+02  0.45594000000E+02  0.51100000000E-03 0.  1.
         11   -1    0    0    0    0 -0.00000000000E+00 -0.00000000000E+00 -0.45593999997E+02  0.45594000000E+02  0.51100000000E-03 0. -1.
    9900012    2    1    2    0    0  0.26555810232E+02 -0.46766109913E+01  0.17018734099E+02  0.59301967669E+02  0.50000043116E+02 0.  0.
         12    1    1    2    0    0 -0.26555810232E+02  0.46766109913E+01 -0.17018734099E+02  0.31886032331E+02  0.00000000000E+00 0. -1.
         11    1    3    3    0    0 -0.47881670005E+01 -0.19053955243E+02  0.24946934695E+01  0.19804122030E+02  0.51100000000E-03 0.  1.
        -11    1    3    3    0    0  0.16228359484E+02  0.49138399510E+01  0.76472220836E+00  0.16973222290E+02  0.51100000000E-03 0. -1.
        -12    1    3    3    0    0  0.15115617749E+02  0.94635043006E+01  0.13759318422E+02  0.22524623349E+02  0.00000000000E+00 0.  1.
</event>
<event>
 7    1  0.6246445E-012  0.5930193E+02  0.7816164E-02  0.1266605E+00
        -11   -1    0    0    0    0  0.00000000000E+00  0.00000000000E+00  0.45593999997E+02  0.45594000000E+02  0.51100000000E-03 0.  1.
         11   -1    0    0    0    0 -0.00000000000E+00 -0.00000000000E+00 -0.45593999997E+02  0.45594000000E+02  0.51100000000E-03 0. -1.
    9900012    2    1    2    0    0  0.78159833277E+01  0.30210732812E+02 -0.65531192554E+01  0.59301931813E+02  0.49999977724E+02 0.  0.
         12    1    1    2    0    0 -0.78159833277E+01 -0.30210732812E+02  0.65531192554E+01  0.31886068187E+02  0.00000000000E+00 0. -1.
         11    1    3    3    0    0  0.26223056463E+01  0.37111295930E+01  0.76720375233E+01  0.89167892079E+01  0.51100000000E-03 0. -1.
        -11    1    3    3    0    0 -0.37135361356E+00  0.36568746750E+02 -0.85497091480E+01  0.37556739331E+02  0.51100000000E-03 0.  1.
         12    1    3    3    0    0  0.55650312950E+01 -0.10069143531E+02 -0.56754476307E+01  0.12828403274E+02  0.00000000000E+00 0. -1.
</event>
<event>
 7    1  0.6246445E-012  0.5930196E+02  0.7816164E-02  0.1266605E+00
        -11   -1    0    0    0    0  0.00000000000E+00  0.00000000000E+00  0.45593999997E+02  0.45594000000E+02  0.51100000000E-03 0.  1.
         11   -1    0    0    0    0 -0.00000000000E+00 -0.00000000000E+00 -0.45593999997E+02  0.45594000000E+02  0.51100000000E-03 0. -1.
    9900012    2    1    2    0    0  0.55939461299E+01 -0.28823990457E+02  0.12434026224E+02  0.59301958112E+02  0.50000025686E+02 0.  0.
         12    1    1    2    0    0 -0.55939461299E+01  0.28823990457E+02 -0.12434026224E+02  0.31886041888E+02  0.00000000000E+00 0. -1.
         11    1    3    3    0    0 -0.25993215014E+01 -0.28118231840E+01 -0.21176339271E+01  0.43757508608E+01  0.51100000000E-03 0. -1.
        -11    1    3    3    0    0  0.26633255983E+01 -0.16600647305E+02 -0.15553056342E+02  0.22903544617E+02  0.51100000000E-03 0.  1.
        -12    1    3    3    0    0  0.55299420330E+01 -0.94115199683E+01  0.30104716493E+02  0.32022662634E+02  0.00000000000E+00 0.  1.
</event>
<event>
 7    1  0.6246445E-012  0.5930196E+02  0.7816164E-02  0.1266605E+00
        -11   -1    0    0    0    0  0.00000000000E+00  0.00000000000E+00  0.45593999997E+02  0.45594000000E+02  0.51100000000E-03 0. -1.
         11   -1    0    0    0    0 -0.00000000000E+00 -0.00000000000E+00 -0.45593999997E+02  0.45594000000E+02  0.51100000000E-03 0.  1.
    9900012    2    1    2    0    0  0.19580345714E+02  0.14567941161E+02 -0.20520840109E+02  0.59301957180E+02  0.50000023986E+02 0.  0.
         12    1    1    2    0    0 -0.19580345714E+02 -0.14567941161E+02  0.20520840109E+02  0.31886042820E+02  0.00000000000E+00 0. -1.
         11    1    3    3    0    0  0.19828354080E+02  0.90071224425E+01  0.73833664442E+00  0.21790755414E+02  0.51100000000E-03 0. -1.
        -11    1    3    3    0    0 -0.66522668874E+01  0.18559177712E+01  0.60721853272E+01  0.91961144199E+01  0.51100000000E-03 0.  1.
        -12    1    3    3    0    0  0.64042585215E+01  0.37049009468E+01 -0.27331362081E+02  0.28315087346E+02  0.00000000000E+00 0.  1.
</event>
<event>
 7    1  0.6793640E-012  0.5930191E+02  0.7816164E-02  0.1266605E+00
        -11   -1    0    0    0    0  0.00000000000E+00  0.00000000000E+00  0.45593999997E+02  0.45594000000E+02  0.51100000000E-03 0. -1.
         11   -1    0    0    0    0 -0.00000000000E+00 -0.00000000000E+00 -0.45593999997E+02  0.45594000000E+02  0.51100000000E-03 0.  1.
    9900012    2    1    2    0    0 -0.14609097424E+02  0.24068785823E+02 -0.14966312777E+02  0.59301910609E+02  0.49999939052E+02 0.  0.
         12    1    1    2    0    0  0.14609097424E+02 -0.24068785823E+02  0.14966312777E+02  0.31886089391E+02  0.00000000000E+00 0. -1.
         11    1    3    3    0    0  0.55525041053E+01  0.16333979717E+02  0.60486462829E+01  0.18281556754E+02  0.51100000000E-03 0. -1.
        -11    1    3    3    0    0 -0.11785599194E+02  0.18063839530E+02 -0.10100094175E+02  0.23816266490E+02  0.51100000000E-03 0.  1.
         12    1    3    3    0    0 -0.83760023346E+01 -0.10329033424E+02 -0.10914864885E+02  0.17204087364E+02  0.00000000000E+00 0. -1.
</event>
<event>
 7    1  0.6246445E-012  0.5930190E+02  0.7816164E-02  0.1266605E+00
        -11   -1    0    0    0    0  0.00000000000E+00  0.00000000000E+00  0.45593999997E+02  0.45594000000E+02  0.51100000000E-03 0.  1.
         11   -1    0    0    0    0 -0.00000000000E+00 -0.00000000000E+00 -0.45593999997E+02  0.45594000000E+02  0.51100000000E-03 0. -1.
    9900012    2    1    2    0    0 -0.23971354785E+02  0.17372723420E+02  0.11844240480E+02  0.59301899551E+02  0.49999918886E+02 0.  0.
         12    1    1    2    0    0  0.23971354785E+02 -0.17372723420E+02 -0.11844240480E+02  0.31886100449E+02  0.00000000000E+00 0. -1.
         11    1    3    3    0    0 -0.18325900154E+02  0.53651123998E+01  0.16449145429E+01  0.19165823531E+02  0.51100000000E-03 0. -1.
        -11    1    3    3    0    0 -0.20060036639E+02  0.12935365442E+02  0.94520277365E+01  0.25672350451E+02  0.51100000000E-03 0.  1.
         12    1    3    3    0    0  0.14414582008E+02 -0.92775442160E+00  0.74729820092E+00  0.14463725569E+02  0.00000000000E+00 0. -1.
</event>
<event>
 7    1  0.6246445E-012  0.5930214E+02  0.7816164E-02  0.1266604E+00
        -11   -1    0    0    0    0  0.00000000000E+00  0.00000000000E+00  0.45593999997E+02  0.45594000000E+02  0.51100000000E-03 0.  1.
         11   -1    0    0    0    0 -0.00000000000E+00 -0.00000000000E+00 -0.45593999997E+02  0.45594000000E+02  0.51100000000E-03 0. -1.
    9900012    2    1    2    0    0  0.54460593966E+00 -0.16031131262E+02  0.27557467821E+02  0.59302144234E+02  0.50000365127E+02 0.  0.
         12    1    1    2    0    0 -0.54460593966E+00  0.16031131262E+02 -0.27557467821E+02  0.31885855766E+02  0.00000000000E+00 0. -1.
         11    1    3    3    0    0  0.53059600848E+01 -0.22900631745E+02  0.33218190460E+01  0.23740821991E+02  0.51100000000E-03 0. -1.
        -11    1    3    3    0    0  0.94359080534E+01 -0.14079980926E+01  0.99697103469E+01  0.13799055913E+02  0.51100000000E-03 0.  1.
        -12    1    3    3    0    0 -0.14197262199E+02  0.82774985757E+01  0.14265938429E+02  0.21762266331E+02  0.00000000000E+00 0.  1.
</event>
<event>
 7    1  0.6246445E-012  0.5930194E+02  0.7816164E-02  0.1266605E+00
        -11   -1    0    0    0    0  0.00000000000E+00  0.00000000000E+00  0.45593999997E+02  0.45594000000E+02  0.51100000000E-03 0.  1.
         11   -1    0    0    0    0 -0.00000000000E+00 -0.00000000000E+00 -0.45593999997E+02  0.45594000000E+02  0.51100000000E-03 0. -1.
    9900012    2    1    2    0    0  0.30690425204E+02 -0.85597575899E+01 -0.12445537293E+01  0.59301944063E+02  0.50000000065E+02 0.  0.
         12    1    1    2    0    0 -0.30690425204E+02  0.85597575899E+01  0.12445537293E+01  0.31886055937E+02  0.00000000000E+00 0. -1.
         11    1    3    3    0    0  0.25606832612E+02 -0.19416475723E+02 -0.82740296979E+01  0.33183866165E+02  0.51100000000E-03 0. -1.
        -11    1    3    3    0    0  0.60283811219E+01 -0.41615507160E+01 -0.31254529597E+01  0.79641910937E+01  0.51100000000E-03 0.  1.
        -12    1    3    3    0    0 -0.94478852976E+00  0.15018268849E+02  0.10154928928E+02  0.18153886805E+02  0.00000000000E+00 0.  1.
</event>
<event>
 7    1  0.6246445E-012  0.5930195E+02  0.7816164E-02  0.1266605E+00
        -11   -1    0    0    0    0  0.00000000000E+00  0.00000000000E+00  0.45593999997E+02  0.45594000000E+02  0.51100000000E-03 0.  1.
         11   -1    0    0    0    0 -0.00000000000E+00 -0.00000000000E+00 -0.45593999997E+02  0.45594000000E+02  0.51100000000E-03 0. -1.
    9900012    2    1    2    0    0  0.99316751748E+01  0.11627971089E+02  0.27979857891E+02  0.59301947704E+02  0.50000006704E+02 0.  0.
         12    1    1    2    0    0 -0.99316751748E+01 -0.11627971089E+02 -0.27979857891E+02  0.31886052296E+02  0.00000000000E+00 0. -1.
         11    1    3    3    0    0  0.61042811466E+01  0.18376522154E+02  0.20431543112E+02  0.28149720584E+02  0.51100000000E-03 0. -1.
        -11    1    3    3    0    0 -0.52033085287E+01  0.92293565758E+01 -0.14808609614E+01  0.10698055519E+02  0.51100000000E-03 0.  1.
         12    1    3    3    0    0  0.90307025569E+01 -0.15977907641E+02  0.90291757413E+01  0.20454171600E+02  0.00000000000E+00 0. -1.
</event>
<event>
 7    1  0.6246445E-012  0.5930195E+02  0.7816164E-02  0.1266605E+00
        -11   -1    0    0    0    0  0.00000000000E+00  0.00000000000E+00  0.45593999997E+02  0.45594000000E+02  0.51100000000E-03 0.  1.
         11   -1    0    0    0    0 -0.00000000000E+00 -0.00000000000E+00 -0.45593999997E+02  0.45594000000E+02  0.51100000000E-03 0. -1.
    9900012    2    1    2    0    0 -0.19480484823E+01  0.13428594795E+02  0.28854773998E+02  0.59301952369E+02  0.50000015213E+02 0.  0.
         12    1    1    2    0    0  0.19480484823E+01 -0.13428594795E+02 -0.28854773998E+02  0.31886047631E+02  0.00000000000E+00 0. -1.
         11    1    3    3    0    0 -0.13119965472E+02  0.73355502292E+01 -0.24635798675E+01  0.15231973516E+02  0.51100000000E-03 0. -1.
        -11    1    3    3    0    0 -0.20933004982E+01 -0.98064457291E+01  0.13043648520E+02  0.16452508981E+02  0.51100000000E-03 0.  1.
         12    1    3    3    0    0  0.13265217488E+02  0.15899490295E+02  0.18274705346E+02  0.27617469872E+02  0.00000000000E+00 0. -1.
</event>
<event>
 7    1  0.6246445E-012  0.5930194E+02  0.7816164E-02  0.1266605E+00
        -11   -1    0    0    0    0  0.00000000000E+00  0.00000000000E+00  0.45593999997E+02  0.45594000000E+02  0.51100000000E-03 0.  1.
         11   -1    0    0    0    0 -0.00000000000E+00 -0.00000000000E+00 -0.45593999997E+02  0.45594000000E+02  0.51100000000E-03 0. -1.
    9900012    2    1    2    0    0 -0.28246911536E+02  0.13148377467E+02  0.67788824569E+01  0.59301935823E+02  0.49999985036E+02 0.  0.
         12    1    1    2    0    0  0.28246911536E+02 -0.13148377467E+02 -0.67788824569E+01  0.31886064177E+02  0.00000000000E+00 0. -1.
         11    1    3    3    0    0 -0.14968145083E+02 -0.27075333251E+01 -0.33204601781E+01  0.15569250463E+02  0.51100000000E-03 0. -1.
        -11    1    3    3    0    0 -0.19681704525E+02 -0.53516533529E+01  0.50044251918E+01  0.21001284684E+02  0.51100000000E-03 0.  1.
        -12    1    3    3    0    0  0.64029380719E+01  0.21207564145E+02  0.50949174432E+01  0.22731400675E+02  0.00000000000E+00 0.  1.
</event>
<event>
 7    1  0.6246445E-012  0.5930188E+02  0.7816164E-02  0.1266605E+00
        -11   -1    0    0    0    0  0.00000000000E+00  0.00000000000E+00  0.45593999997E+02  0.45594000000E+02  0.51100000000E-03 0.  1.
         11   -1    0    0    0    0 -0.00000000000E+00 -0.00000000000E+00 -0.45593999997E+02  0.45594000000E+02  0.51100000000E-03 0. -1.
    9900012    2    1    2    0    0  0.24627530174E+02 -0.19778694562E+02 -0.43603371279E+01  0.59301881689E+02  0.49999886309E+02 0.  0.
         12    1    1    2    0    0 -0.24627530174E+02  0.19778694562E+02  0.43603371279E+01  0.31886118311E+02  0.00000000000E+00 0. -1.
         11    1    3    3    0    0 -0.27346424194E-01  0.10369779721E+02  0.10740839674E+02  0.14929792914E+02  0.51100000000E-03 0. -1.
        -11    1    3    3    0    0  0.24437072554E+01 -0.12292835832E+01 -0.62887015288E+01  0.68578867341E+01  0.51100000000E-03 0.  1.
        -12    1    3    3    0    0  0.22211169343E+02 -0.28919190700E+02 -0.88124752729E+01  0.37514202041E+02  0.00000000000E+00 0.  1.
</event>
<event>
 7    1  0.6246445E-012  0.5930194E+02  0.7816164E-02  0.1266605E+00
        -11   -1    0    0    0    0  0.00000000000E+00  0.00000000000E+00  0.45593999997E+02  0.45594000000E+02  0.51100000000E-03 0.  1.
         11   -1    0    0    0    0 -0.00000000000E+00 -0.00000000000E+00 -0.45593999997E+02  0.45594000000E+02  0.51100000000E-03 0. -1.
    9900012    2    1    2    0    0 -0.11308702823E+02 -0.22414804203E+01  0.29728938856E+02  0.59301940358E+02  0.49999993307E+02 0.  0.
         12    1    1    2    0    0  0.11308702823E+02  0.22414804203E+01 -0.29728938856E+02  0.31886059642E+02  0.00000000000E+00 0. -1.
         11    1    3    3    0    0  0.58741154535E+01  0.85510983545E+01 -0.35041083880E+01  0.10950127455E+02  0.51100000000E-03 0. -1.
        -11    1    3    3    0    0  0.23127372906E+01  0.21884569523E+01 -0.35348995804E+01  0.47574796807E+01  0.51100000000E-03 0.  1.
        -12    1    3    3    0    0 -0.19495555567E+02 -0.12981035727E+02  0.36767946824E+02  0.43594333222E+02  0.00000000000E+00 0.  1.
</event>
<event>
 7    1  0.6246445E-012  0.5930191E+02  0.7816164E-02  0.1266605E+00
        -11   -1    0    0    0    0  0.00000000000E+00  0.00000000000E+00  0.45593999997E+02  0.45594000000E+02  0.51100000000E-03 0.  1.
         11   -1    0    0    0    0 -0.00000000000E+00 -0.00000000000E+00 -0.45593999997E+02  0.45594000000E+02  0.51100000000E-03 0. -1.
    9900012    2    1    2    0    0  0.11503535576E+02  0.75043177558E+01  0.28776318575E+02  0.59301911709E+02  0.49999941059E+02 0.  0.
         12    1    1    2    0    0 -0.11503535576E+02 -0.75043177558E+01 -0.28776318575E+02  0.31886088291E+02  0.00000000000E+00 0. -1.
         11    1    3    3    0    0  0.44481361394E+01 -0.18380482732E+02  0.58342250322E+01  0.19790559431E+02  0.51100000000E-03 0. -1.
        -11    1    3    3    0    0  0.85205392186E+01  0.47992226311E+01  0.12686957977E+02  0.16018459021E+02  0.51100000000E-03 0.  1.
        -12    1    3    3    0    0 -0.14651397823E+01  0.21085577857E+02  0.10255135566E+02  0.23492893258E+02  0.00000000000E+00 0.  1.
</event>
<event>
 7    1  0.6246445E-012  0.5930195E+02  0.7816164E-02  0.1266605E+00
        -11   -1    0    0    0    0  0.00000000000E+00  0.00000000000E+00  0.45593999997E+02  0.45594000000E+02  0.51100000000E-03 0.  1.
         11   -1    0    0    0    0 -0.00000000000E+00 -0.00000000000E+00 -0.45593999997E+02  0.45594000000E+02  0.51100000000E-03 0. -1.
    9900012    2    1    2    0    0 -0.11000343137E+02 -0.26022101216E+02 -0.14783883025E+02  0.59301945084E+02  0.50000001927E+02 0.  0.
         12    1    1    2    0    0  0.11000343137E+02  0.26022101216E+02  0.14783883025E+02  0.31886054916E+02  0.00000000000E+00 0. -1.
         11    1    3    3    0    0  0.37387525055E+00 -0.11172371882E+02 -0.13609524582E+02  0.17611951504E+02  0.51100000000E-03 0. -1.
        -11    1    3    3    0    0 -0.27065682798E+01 -0.24988841871E+02 -0.84228804679E+01  0.26508727724E+02  0.51100000000E-03 0.  1.
        -12    1    3    3    0    0 -0.86676501078E+01  0.10139112538E+02  0.72485220244E+01  0.15181265856E+02  0.00000000000E+00 0.  1.
</event>
<event>
 7    1  0.6246445E-012  0.5930191E+02  0.7816164E-02  0.1266605E+00
        -11   -1    0    0    0    0  0.00000000000E+00  0.00000000000E+00  0.45593999997E+02  0.45594000000E+02  0.51100000000E-03 0.  1.
         11   -1    0    0    0    0 -0.00000000000E+00 -0.00000000000E+00 -0.45593999997E+02  0.45594000000E+02  0.51100000000E-03 0. -1.
    9900012    2    1    2    0    0  0.30849089410E+02 -0.43164704576E+01 -0.68135573290E+01  0.59301909018E+02  0.49999936150E+02 0.  0.
         12    1    1    2    0    0 -0.30849089410E+02  0.43164704576E+01  0.68135573290E+01  0.31886090982E+02  0.00000000000E+00 0. -1.
         11    1    3    3    0    0  0.64228759756E+01 -0.44654793648E+01 -0.19946633401E+02  0.21425732801E+02  0.51100000000E-03 0. -1.
        -11    1    3    3    0    0 -0.31465386545E+01  0.56620664806E-02  0.95697338637E+01  0.10073755211E+02  0.51100000000E-03 0.  1.
         12    1    3    3    0    0  0.27572752089E+02  0.14334684077E+00  0.35633422084E+01  0.27802421006E+02  0.00000000000E+00 0. -1.
</event>
<event>
 7    1  0.6246445E-012  0.5930195E+02  0.7816164E-02  0.1266605E+00
        -11   -1    0    0    0    0  0.00000000000E+00  0.00000000000E+00  0.45593999997E+02  0.45594000000E+02  0.51100000000E-03 0.  1.
         11   -1    0    0    0    0 -0.00000000000E+00 -0.00000000000E+00 -0.45593999997E+02  0.45594000000E+02  0.51100000000E-03 0. -1.
    9900012    2    1    2    0    0 -0.26263849111E+02 -0.10290530783E+02 -0.14867257399E+02  0.59301950754E+02  0.50000012267E+02 0.  0.
         12    1    1    2    0    0  0.26263849111E+02  0.10290530783E+02  0.14867257399E+02  0.31886049246E+02  0.00000000000E+00 0. -1.
         11    1    3    3    0    0  0.70057982520E+00 -0.82817620506E+01  0.86582656521E+00  0.83563180083E+01  0.51100000000E-03 0. -1.
        -11    1    3    3    0    0  0.55840971163E+01  0.67488788386E+01  0.61999647966E+01  0.10731685325E+02  0.51100000000E-03 0.  1.
         12    1    3    3    0    0 -0.32548526053E+02 -0.87576475714E+01 -0.21933048761E+02  0.40213947420E+02  0.00000000000E+00 0. -1.
</event>
<event>
 7    1  0.6246445E-012  0.5930184E+02  0.7816164E-02  0.1266605E+00
        -11   -1    0    0    0    0  0.00000000000E+00  0.00000000000E+00  0.45593999997E+02  0.45594000000E+02  0.51100000000E-03 0. -1.
         11   -1    0    0    0    0 -0.00000000000E+00 -0.00000000000E+00 -0.45593999997E+02  0.45594000000E+02  0.51100000000E-03 0.  1.
    9900012    2    1    2    0    0 -0.35246978018E+01  0.29977610318E+02 -0.10278456527E+02  0.59301838683E+02  0.49999807875E+02 0.  0.
         12    1    1    2    0    0  0.35246978018E+01 -0.29977610318E+02  0.10278456527E+02  0.31886161317E+02  0.00000000000E+00 0. -1.
         11    1    3    3    0    0 -0.67062657174E+01 -0.34600149518E+01 -0.30658025046E+01  0.81452347172E+01  0.51100000000E-03 0. -1.
        -11    1    3    3    0    0 -0.17153336060E+02  0.19117516869E+02 -0.51839520174E+01  0.26202857630E+02  0.51100000000E-03 0.  1.
         12    1    3    3    0    0  0.20334903976E+02  0.14320108401E+02 -0.20287020047E+01  0.24953746335E+02  0.00000000000E+00 0. -1.
</event>
<event>
 7    1  0.6246445E-012  0.5930197E+02  0.7816164E-02  0.1266605E+00
        -11   -1    0    0    0    0  0.00000000000E+00  0.00000000000E+00  0.45593999997E+02  0.45594000000E+02  0.51100000000E-03 0.  1.
         11   -1    0    0    0    0 -0.00000000000E+00 -0.00000000000E+00 -0.45593999997E+02  0.45594000000E+02  0.51100000000E-03 0. -1.
    9900012    2    1    2    0    0  0.15525682761E+02 -0.18761519008E+02  0.20583431105E+02  0.59301967686E+02  0.50000043146E+02 0.  0.
         12    1    1    2    0    0 -0.15525682761E+02  0.18761519008E+02 -0.20583431105E+02  0.31886032314E+02  0.00000000000E+00 0. -1.
         11    1    3    3    0    0 -0.42870149588E+01 -0.56207438316E+01 -0.36107331432E+01  0.79377989752E+01  0.51100000000E-03 0. -1.
        -11    1    3    3    0    0  0.24770221170E+02  0.60295726724E+01  0.12968570916E+02  0.28602507500E+02  0.51100000000E-03 0.  1.
         12    1    3    3    0    0 -0.49575234496E+01 -0.19170347849E+02  0.11225593332E+02  0.22761661211E+02  0.00000000000E+00 0. -1.
</event>
<event>
 7    1  0.6246445E-012  0.5930195E+02  0.7816164E-02  0.1266605E+00
        -11   -1    0    0    0    0  0.00000000000E+00  0.00000000000E+00  0.45593999997E+02  0.45594000000E+02  0.51100000000E-03 0.  1.
         11   -1    0    0    0    0 -0.00000000000E+00 -0.00000000000E+00 -0.45593999997E+02  0.45594000000E+02  0.51100000000E-03 0. -1.
    9900012    2    1    2    0    0 -0.21833899491E+02  0.22808821918E+02 -0.44451049557E+01  0.59301945332E+02  0.50000002378E+02 0.  0.
         12    1    1    2    0    0  0.21833899491E+02 -0.22808821918E+02  0.44451049557E+01  0.31886054668E+02  0.00000000000E+00 0. -1.
         11    1    3    3    0    0  0.24311927002E+01 -0.32841311662E+01  0.45905155478E+01  0.61456528309E+01  0.51100000000E-03 0. -1.
        -11    1    3    3    0    0 -0.63901410163E+01 -0.10026929296E+02 -0.16735998490E+00  0.11891224619E+02  0.51100000000E-03 0.  1.
        -12    1    3    3    0    0 -0.17874951175E+02  0.36119882380E+02 -0.88682605186E+01  0.41265067882E+02  0.00000000000E+00 0.  1.
</event>
<event>
 7    1  0.6246445E-012  0.5930195E+02  0.7816164E-02  0.1266605E+00
        -11   -1    0    0    0    0  0.00000000000E+00  0.00000000000E+00  0.45593999997E+02  0.45594000000E+02  0.51100000000E-03 0.  1.
         11   -1    0    0    0    0 -0.00000000000E+00 -0.00000000000E+00 -0.45593999997E+02  0.45594000000E+02  0.51100000000E-03 0. -1.
    9900012    2    1    2    0    0  0.94878478191E+01  0.30291050483E+02  0.30253905769E+01  0.59301953150E+02  0.50000016636E+02 0.  0.
         12    1    1    2    0    0 -0.94878478191E+01 -0.30291050483E+02 -0.30253905769E+01  0.31886046850E+02  0.00000000000E+00 0. -1.
         11    1    3    3    0    0  0.10412634912E+02  0.48766947958E+01  0.63555184575E+01  0.13137645644E+02  0.51100000000E-03 0. -1.
        -11    1    3    3    0    0  0.12355054636E+02  0.66708473488E+01  0.12064109204E+02  0.18511896461E+02  0.51100000000E-03 0.  1.
         12    1    3    3    0    0 -0.13279841729E+02  0.18743508338E+02 -0.15394237085E+02  0.27652411045E+02  0.00000000000E+00 0. -1.
</event>
<event>
 7    1  0.6246445E-012  0.5930195E+02  0.7816164E-02  0.1266605E+00
        -11   -1    0    0    0    0  0.00000000000E+00  0.00000000000E+00  0.45593999997E+02  0.45594000000E+02  0.51100000000E-03 0.  1.
         11   -1    0    0    0    0 -0.00000000000E+00 -0.00000000000E+00 -0.45593999997E+02  0.45594000000E+02  0.51100000000E-03 0. -1.
    9900012    2    1    2    0    0  0.14819277867E+01  0.12783296695E+02  0.29173811156E+02  0.59301952241E+02  0.50000014978E+02 0.  0.
         12    1    1    2    0    0 -0.14819277867E+01 -0.12783296695E+02 -0.29173811156E+02  0.31886047759E+02  0.00000000000E+00 0. -1.
         11    1    3    3    0    0  0.18464189647E+01  0.95409991133E+00 -0.54806554066E+00  0.21494059021E+01  0.51100000000E-03 0. -1.
        -11    1    3    3    0    0  0.22604915433E+02  0.48049440415E+01  0.22039478607E+02  0.31934437626E+02  0.51100000000E-03 0.  1.
         12    1    3    3    0    0 -0.22969406611E+02  0.70242527418E+01  0.76823980901E+01  0.25218108713E+02  0.00000000000E+00 0. -1.
</event>
<event>
 7    1  0.6246445E-012  0.5930193E+02  0.7816164E-02  0.1266605E+00
        -11   -1    0    0    0    0  0.00000000000E+00  0.00000000000E+00  0.45593999997E+02  0.45594000000E+02  0.51100000000E-03 0.  1.
         11   -1    0    0    0    0 -0.00000000000E+00 -0.00000000000E+00 -0.45593999997E+02  0.45594000000E+02  0.51100000000E-03 0. -1.
    9900012    2    1    2    0    0 -0.18277355561E+02 -0.24967926870E+02  0.76981931722E+01  0.59301932877E+02  0.49999979663E+02 0.  0.
         12    1    1    2    0    0  0.18277355561E+02  0.24967926870E+02 -0.76981931722E+01  0.31886067123E+02  0.00000000000E+00 0. -1.
         11    1    3    3    0    0  0.92420403215E+01 -0.21138827813E+02  0.15205142529E+02  0.27630810886E+02  0.51100000000E-03 0. -1.
        -11    1    3    3    0    0  0.14829380166E+01 -0.51575263627E+00 -0.23044001829E+00  0.15868865133E+01  0.51100000000E-03 0.  1.
        -12    1    3    3    0    0 -0.29002333899E+02 -0.33133464203E+01 -0.72765093387E+01  0.30084235477E+02  0.00000000000E+00 0.  1.
</event>
<event>
 7    1  0.6246445E-012  0.5930193E+02  0.7816164E-02  0.1266605E+00
        -11   -1    0    0    0    0  0.00000000000E+00  0.00000000000E+00  0.45593999997E+02  0.45594000000E+02  0.51100000000E-03 0.  1.
         11   -1    0    0    0    0 -0.00000000000E+00 -0.00000000000E+00 -0.45593999997E+02  0.45594000000E+02  0.51100000000E-03 0. -1.
    9900012    2    1    2    0    0 -0.20438052547E+02  0.23316367589E+01  0.24363311805E+02  0.59301929624E+02  0.49999973732E+02 0.  0.
         12    1    1    2    0    0  0.20438052547E+02 -0.23316367589E+01 -0.24363311805E+02  0.31886070376E+02  0.00000000000E+00 0. -1.
         11    1    3    3    0    0 -0.16864779169E+01 -0.88177483112E+01  0.10582276815E+02  0.13877372802E+02  0.51100000000E-03 0.  1.
        -11    1    3    3    0    0 -0.21698215967E+02 -0.19094283152E+01 -0.50116610408E+01  0.22351179819E+02  0.51100000000E-03 0. -1.
        -12    1    3    3    0    0  0.29466413373E+01  0.13058813385E+02  0.18792696031E+02  0.23073377003E+02  0.00000000000E+00 0.  1.
</event>
<event>
 7    1  0.6246445E-012  0.5930195E+02  0.7816164E-02  0.1266605E+00
        -11   -1    0    0    0    0  0.00000000000E+00  0.00000000000E+00  0.45593999997E+02  0.45594000000E+02  0.51100000000E-03 0. -1.
         11   -1    0    0    0    0 -0.00000000000E+00 -0.00000000000E+00 -0.45593999997E+02  0.45594000000E+02  0.51100000000E-03 0.  1.
    9900012    2    1    2    0    0  0.10538546428E+02 -0.15633262976E+02 -0.25714985424E+02  0.59301947446E+02  0.50000006235E+02 0.  0.
         12    1    1    2    0    0 -0.10538546428E+02  0.15633262976E+02  0.25714985424E+02  0.31886052554E+02  0.00000000000E+00 0. -1.
         11    1    3    3    0    0  0.66803226631E+01  0.72119754681E+01  0.32289215914E+01  0.10347233250E+02  0.51100000000E-03 0. -1.
        -11    1    3    3    0    0 -0.35925934834E+01  0.45621963945E+01  0.27256714917E+01  0.64147992346E+01  0.51100000000E-03 0.  1.
        -12    1    3    3    0    0  0.74508172481E+01 -0.27407434838E+02 -0.31669578507E+02  0.42539914961E+02  0.00000000000E+00 0.  1.
</event>
<event>
 7    1  0.6246445E-012  0.5930193E+02  0.7816164E-02  0.1266605E+00
        -11   -1    0    0    0    0  0.00000000000E+00  0.00000000000E+00  0.45593999997E+02  0.45594000000E+02  0.51100000000E-03 0.  1.
         11   -1    0    0    0    0 -0.00000000000E+00 -0.00000000000E+00 -0.45593999997E+02  0.45594000000E+02  0.51100000000E-03 0. -1.
    9900012    2    1    2    0    0  0.15430277001E+01 -0.30546797016E+02  0.90129574656E+01  0.59301934945E+02  0.49999983435E+02 0.  0.
         12    1    1    2    0    0 -0.15430277001E+01  0.30546797016E+02 -0.90129574656E+01  0.31886065055E+02  0.00000000000E+00 0. -1.
         11    1    3    3    0    0 -0.58291943461E+01 -0.97599850841E+01 -0.27978434132E-01  0.11368271576E+02  0.51100000000E-03 0.  1.
        -11    1    3    3    0    0 -0.15074960637E+02 -0.18696636536E+02  0.81838274136E+01  0.25373089827E+02  0.51100000000E-03 0. -1.
         12    1    3    3    0    0  0.22447182683E+02 -0.20901753962E+01  0.85710848617E+00  0.22560573543E+02  0.00000000000E+00 0. -1.
</event>
<event>
 7    1  0.6246445E-012  0.5930194E+02  0.7816164E-02  0.1266605E+00
        -11   -1    0    0    0    0  0.00000000000E+00  0.00000000000E+00  0.45593999997E+02  0.45594000000E+02  0.51100000000E-03 0.  1.
         11   -1    0    0    0    0 -0.00000000000E+00 -0.00000000000E+00 -0.45593999997E+02  0.45594000000E+02  0.51100000000E-03 0. -1.
    9900012    2    1    2    0    0  0.31626467389E+02  0.14689797552E+01 -0.37854120809E+01  0.59301942143E+02  0.49999996562E+02 0.  0.
         12    1    1    2    0    0 -0.31626467389E+02 -0.14689797552E+01  0.37854120809E+01  0.31886057857E+02  0.00000000000E+00 0. -1.
         11    1    3    3    0    0  0.18347228247E+02  0.42213329851E+01 -0.84482235996E+01  0.20635234885E+02  0.51100000000E-03 0. -1.
        -11    1    3    3    0    0  0.21489772668E+02 -0.10933919076E+01 -0.84413266258E+01  0.23114104583E+02  0.51100000000E-03 0.  1.
         12    1    3    3    0    0 -0.82105335259E+01 -0.16589613223E+01  0.13104138144E+02  0.15552602675E+02  0.00000000000E+00 0. -1.
</event>
<event>
 7    1  0.6246445E-012  0.5930193E+02  0.7816164E-02  0.1266605E+00
        -11   -1    0    0    0    0  0.00000000000E+00  0.00000000000E+00  0.45593999997E+02  0.45594000000E+02  0.51100000000E-03 0.  1.
         11   -1    0    0    0    0 -0.00000000000E+00 -0.00000000000E+00 -0.45593999997E+02  0.45594000000E+02  0.51100000000E-03 0. -1.
    9900012    2    1    2    0    0 -0.20545220158E+02 -0.11686802333E+02  0.21401730933E+02  0.59301929263E+02  0.49999973073E+02 0.  0.
         12    1    1    2    0    0  0.20545220158E+02  0.11686802333E+02 -0.21401730933E+02  0.31886070737E+02  0.00000000000E+00 0. -1.
         11    1    3    3    0    0 -0.20626408865E+02  0.10210985455E+02  0.80572824766E+01  0.24385093147E+02  0.51100000000E-03 0. -1.
        -11    1    3    3    0    0 -0.11251095354E+02 -0.11434004326E+02  0.10660785433E+02  0.19260735913E+02  0.51100000000E-03 0.  1.
         12    1    3    3    0    0  0.11332284060E+02 -0.10463783462E+02  0.26836630227E+01  0.15656100203E+02  0.00000000000E+00 0. -1.
</event>
<event>
 7    1  0.6246445E-012  0.5930193E+02  0.7816164E-02  0.1266605E+00
        -11   -1    0    0    0    0  0.00000000000E+00  0.00000000000E+00  0.45593999997E+02  0.45594000000E+02  0.51100000000E-03 0.  1.
         11   -1    0    0    0    0 -0.00000000000E+00 -0.00000000000E+00 -0.45593999997E+02  0.45594000000E+02  0.51100000000E-03 0. -1.
    9900012    2    1    2    0    0 -0.24007633812E+02  0.18090100400E+02  0.10634987196E+02  0.59301934605E+02  0.49999982815E+02 0.  0.
         12    1    1    2    0    0  0.24007633812E+02 -0.18090100400E+02 -0.10634987196E+02  0.31886065395E+02  0.00000000000E+00 0. -1.
         11    1    3    3    0    0 -0.32412765180E+01  0.16108945869E+01 -0.54045556798E+01  0.65046196809E+01  0.51100000000E-03 0. -1.
        -11    1    3    3    0    0 -0.13155946680E+02  0.20519090270E+01 -0.13557865051E+02  0.19002762134E+02  0.51100000000E-03 0.  1.
        -12    1    3    3    0    0 -0.76104106143E+01  0.14427296786E+02  0.29597407927E+02  0.33794552790E+02  0.00000000000E+00 0.  1.
</event>
<event>
 7    1  0.6246445E-012  0.5930193E+02  0.7816164E-02  0.1266605E+00
        -11   -1    0    0    0    0  0.00000000000E+00  0.00000000000E+00  0.45593999997E+02  0.45594000000E+02  0.51100000000E-03 0.  1.
         11   -1    0    0    0    0 -0.00000000000E+00 -0.00000000000E+00 -0.45593999997E+02  0.45594000000E+02  0.51100000000E-03 0. -1.
    9900012    2    1    2    0    0 -0.24209167796E+02  0.50839069396E+01  0.20119426342E+02  0.59301933584E+02  0.49999980952E+02 0.  0.
         12    1    1    2    0    0  0.24209167796E+02 -0.50839069396E+01 -0.20119426342E+02  0.31886066416E+02  0.00000000000E+00 0. -1.
         11    1    3    3    0    0 -0.62372471570E+01  0.96424516876E+01 -0.51335004586E+01  0.12579068084E+02  0.51100000000E-03 0. -1.
        -11    1    3    3    0    0 -0.51926450629E+00  0.85294999576E+01 -0.46342597606E+01  0.97210271548E+01  0.51100000000E-03 0.  1.
        -12    1    3    3    0    0 -0.17452656133E+02 -0.13088044706E+02  0.29887186562E+02  0.37001838345E+02  0.00000000000E+00 0.  1.
</event>
<event>
 7    1  0.6246445E-012  0.5930191E+02  0.7816164E-02  0.1266605E+00
        -11   -1    0    0    0    0  0.00000000000E+00  0.00000000000E+00  0.45593999997E+02  0.45594000000E+02  0.51100000000E-03 0.  1.
         11   -1    0    0    0    0 -0.00000000000E+00 -0.00000000000E+00 -0.45593999997E+02  0.45594000000E+02  0.51100000000E-03 0. -1.
    9900012    2    1    2    0    0 -0.14577593280E+02 -0.13619305438E+02  0.24874298857E+02  0.59301914476E+02  0.49999946104E+02 0.  0.
         12    1    1    2    0    0  0.14577593280E+02  0.13619305438E+02 -0.24874298857E+02  0.31886085524E+02  0.00000000000E+00 0. -1.
         11    1    3    3    0    0 -0.10922536515E+02  0.30313579262E+01 -0.43162060074E+01  0.12129326831E+02  0.51100000000E-03 0. -1.
        -11    1    3    3    0    0 -0.12669236073E+02 -0.18806548196E+02  0.80032585511E+01  0.24046786592E+02  0.51100000000E-03 0.  1.
        -12    1    3    3    0    0  0.90141793082E+01  0.21558848317E+01  0.21187246313E+02  0.23125801053E+02  0.00000000000E+00 0.  1.
</event>
<event>
 7    1  0.6246445E-012  0.5930185E+02  0.7816164E-02  0.1266605E+00
        -11   -1    0    0    0    0  0.00000000000E+00  0.00000000000E+00  0.45593999997E+02  0.45594000000E+02  0.51100000000E-03 0. -1.
         11   -1    0    0    0    0 -0.00000000000E+00 -0.00000000000E+00 -0.45593999997E+02  0.45594000000E+02  0.51100000000E-03 0.  1.
    9900012    2    1    2    0    0 -0.17843496167E+02  0.94698401460E+01 -0.24671004358E+02  0.59301848086E+02  0.49999825024E+02 0.  0.
         12    1    1    2    0    0  0.17843496167E+02 -0.94698401460E+01  0.24671004358E+02  0.31886151914E+02  0.00000000000E+00 0. -1.
         11    1    3    3    0    0 -0.16714392715E+02  0.71502665332E+01 -0.18277802730E+01  0.18271234669E+02  0.51100000000E-03 0. -1.
        -11    1    3    3    0    0 -0.14341661923E+02  0.80770765987E+01 -0.20720754415E+02  0.26462654759E+02  0.51100000000E-03 0.  1.
        -12    1    3    3    0    0  0.13212558470E+02 -0.57575029859E+01 -0.21224696701E+01  0.14567958658E+02  0.00000000000E+00 0.  1.
</event>
<event>
 7    1  0.6246445E-012  0.5930197E+02  0.7816164E-02  0.1266605E+00
        -11   -1    0    0    0    0  0.00000000000E+00  0.00000000000E+00  0.45593999997E+02  0.45594000000E+02  0.51100000000E-03 0.  1.
         11   -1    0    0    0    0 -0.00000000000E+00 -0.00000000000E+00 -0.45593999997E+02  0.45594000000E+02  0.51100000000E-03 0. -1.
    9900012    2    1    2    0    0 -0.23243257957E+02  0.18151736681E+02  0.12123721609E+02  0.59301965272E+02  0.50000038744E+02 0.  0.
         12    1    1    2    0    0  0.23243257957E+02 -0.18151736681E+02 -0.12123721609E+02  0.31886034728E+02  0.00000000000E+00 0. -1.
         11    1    3    3    0    0 -0.24712941131E+01  0.46051713307E+01 -0.16662626978E+02  0.17463047720E+02  0.51100000000E-03 0. -1.
        -11    1    3    3    0    0 -0.62788571191E+01  0.84645947947E+01  0.16634987519E+01  0.10669612932E+02  0.51100000000E-03 0.  1.
        -12    1    3    3    0    0 -0.14493106725E+02  0.50819705562E+01  0.27122849836E+02  0.31169304620E+02  0.00000000000E+00 0.  1.
</event>
<event>
 7    1  0.6246445E-012  0.5930184E+02  0.7816164E-02  0.1266605E+00
        -11   -1    0    0    0    0  0.00000000000E+00  0.00000000000E+00  0.45593999997E+02  0.45594000000E+02  0.51100000000E-03 0.  1.
         11   -1    0    0    0    0 -0.00000000000E+00 -0.00000000000E+00 -0.45593999997E+02  0.45594000000E+02  0.51100000000E-03 0. -1.
    9900012    2    1    2    0    0  0.68084969358E+00 -0.10636125922E+02  0.30052225806E+02  0.59301843022E+02  0.49999815789E+02 0.  0.
         12    1    1    2    0    0 -0.68084969358E+00  0.10636125922E+02 -0.30052225806E+02  0.31886156978E+02  0.00000000000E+00 0. -1.
         11    1    3    3    0    0 -0.13810316586E+01  0.15019392254E+02  0.12521092956E+02  0.19602733514E+02  0.51100000000E-03 0. -1.
        -11    1    3    3    0    0  0.12416708295E+02 -0.11998373656E+02  0.13932086698E+02  0.22186452066E+02  0.51100000000E-03 0.  1.
        -12    1    3    3    0    0 -0.10354826943E+02 -0.13657144520E+02  0.35990461527E+01  0.17512657442E+02  0.00000000000E+00 0.  1.
</event>
<event>
 7    1  0.6246445E-012  0.5930193E+02  0.7816164E-02  0.1266605E+00
        -11   -1    0    0    0    0  0.00000000000E+00  0.00000000000E+00  0.45593999997E+02  0.45594000000E+02  0.51100000000E-03 0. -1.
         11   -1    0    0    0    0 -0.00000000000E+00 -0.00000000000E+00 -0.45593999997E+02  0.45594000000E+02  0.51100000000E-03 0.  1.
    9900012    2    1    2    0    0 -0.59909585968E+01  0.10358514327E+02 -0.29555556211E+02  0.59301932401E+02  0.49999978796E+02 0.  0.
         12    1    1    2    0    0  0.59909585968E+01 -0.10358514327E+02  0.29555556211E+02  0.31886067599E+02  0.00000000000E+00 0. -1.
         11    1    3    3    0    0  0.11934358351E+02  0.13562546630E+02 -0.61124124945E+01  0.19071789825E+02  0.51100000000E-03 0. -1.
        -11    1    3    3    0    0 -0.79013053308E+01  0.10476452266E+02 -0.26316777097E+01  0.13383288304E+02  0.51100000000E-03 0.  1.
         12    1    3    3    0    0 -0.10024011618E+02 -0.13680484569E+02 -0.20811466007E+02  0.26846854272E+02  0.00000000000E+00 0. -1.
</event>
<event>
 7    1  0.6246445E-012  0.5930198E+02  0.7816164E-02  0.1266605E+00
        -11   -1    0    0    0    0  0.00000000000E+00  0.00000000000E+00  0.45593999997E+02  0.45594000000E+02  0.51100000000E-03 0. -1.
         11   -1    0    0    0    0 -0.00000000000E+00 -0.00000000000E+00 -0.45593999997E+02  0.45594000000E+02  0.51100000000E-03 0.  1.
    9900012    2    1    2    0    0 -0.19605524842E+02  0.24642241975E+02 -0.50101724544E+01  0.59301976073E+02  0.50000058442E+02 0.  0.
         12    1    1    2    0    0  0.19605524842E+02 -0.24642241975E+02  0.50101724544E+01  0.31886023927E+02  0.00000000000E+00 0. -1.
         11    1    3    3    0    0 -0.11423275025E+02 -0.10056143376E+02 -0.40040198897E+01  0.15736880486E+02  0.51100000000E-03 0. -1.
        -11    1    3    3    0    0 -0.71394972098E+01 -0.10484149135E+01 -0.28430743002E+01  0.77559439127E+01  0.51100000000E-03 0.  1.
        -12    1    3    3    0    0 -0.10427526071E+01  0.35746800264E+02  0.18369217355E+01  0.35809151673E+02  0.00000000000E+00 0.  1.
</event>
<event>
 7    1  0.6246445E-012  0.5930194E+02  0.7816164E-02  0.1266605E+00
        -11   -1    0    0    0    0  0.00000000000E+00  0.00000000000E+00  0.45593999997E+02  0.45594000000E+02  0.51100000000E-03 0.  1.
         11   -1    0    0    0    0 -0.00000000000E+00 -0.00000000000E+00 -0.45593999997E+02  0.45594000000E+02  0.51100000000E-03 0. -1.
    9900012    2    1    2    0    0 -0.16360126789E+01  0.11115731139E+02  0.29840990572E+02  0.59301941376E+02  0.49999995165E+02 0.  0.
         12    1    1    2    0    0  0.16360126789E+01 -0.11115731139E+02 -0.29840990572E+02  0.31886058624E+02  0.00000000000E+00 0. -1.
         11    1    3    3    0    0  0.53169830239E+01 -0.11046604237E+02  0.18061224536E+02  0.21829008352E+02  0.51100000000E-03 0. -1.
        -11    1    3    3    0    0 -0.14235164837E+02  0.30217642741E+01  0.81358459904E+01  0.16672221433E+02  0.51100000000E-03 0.  1.
        -12    1    3    3    0    0  0.72821691343E+01  0.19140571102E+02  0.36439200453E+01  0.20800711591E+02  0.00000000000E+00 0.  1.
</event>
<event>
 7    1  0.6246445E-012  0.5930196E+02  0.7816164E-02  0.1266605E+00
        -11   -1    0    0    0    0  0.00000000000E+00  0.00000000000E+00  0.45593999997E+02  0.45594000000E+02  0.51100000000E-03 0.  1.
         11   -1    0    0    0    0 -0.00000000000E+00 -0.00000000000E+00 -0.45593999997E+02  0.45594000000E+02  0.51100000000E-03 0. -1.
    9900012    2    1    2    0    0 -0.19992008441E+02  0.23414905427E+02  0.82934623402E+01  0.59301957360E+02  0.50000024315E+02 0.  0.
         12    1    1    2    0    0  0.19992008441E+02 -0.23414905427E+02 -0.82934623402E+01  0.31886042640E+02  0.00000000000E+00 0. -1.
         11    1    3    3    0    0 -0.28577580634E+02  0.23119549968E+02  0.14158010427E+01  0.36785815180E+02  0.51100000000E-03 0. -1.
        -11    1    3    3    0    0 -0.10709763859E+01  0.85535205736E+01  0.16509683504E+01  0.87769813363E+01  0.51100000000E-03 0.  1.
         12    1    3    3    0    0  0.96565485797E+01 -0.82581651142E+01  0.52266929471E+01  0.13739160844E+02  0.00000000000E+00 0. -1.
</event>
<event>
 7    1  0.6246445E-012  0.5930192E+02  0.7816164E-02  0.1266605E+00
        -11   -1    0    0    0    0  0.00000000000E+00  0.00000000000E+00  0.45593999997E+02  0.45594000000E+02  0.51100000000E-03 0.  1.
         11   -1    0    0    0    0 -0.00000000000E+00 -0.00000000000E+00 -0.45593999997E+02  0.45594000000E+02  0.51100000000E-03 0. -1.
    9900012    2    1    2    0    0  0.71995751190E+01 -0.80472537953E+01  0.30002162506E+02  0.59301922622E+02  0.49999960961E+02 0.  0.
         12    1    1    2    0    0 -0.71995751190E+01  0.80472537953E+01 -0.30002162506E+02  0.31886077378E+02  0.00000000000E+00 0. -1.
         11    1    3    3    0    0  0.11093104434E+02  0.54127078135E+01  0.16809176688E+01  0.12457120708E+02  0.51100000000E-03 0. -1.
        -11    1    3    3    0    0 -0.13245900957E+01 -0.18237428680E+01 -0.81605567455E+01  0.84661244751E+01  0.51100000000E-03 0.  1.
        -12    1    3    3    0    0 -0.25689392192E+01 -0.11636218741E+02  0.36481801582E+02  0.38378677439E+02  0.00000000000E+00 0.  1.
</event>
<event>
 7    1  0.6246445E-012  0.5930193E+02  0.7816164E-02  0.1266605E+00
        -11   -1    0    0    0    0  0.00000000000E+00  0.00000000000E+00  0.45593999997E+02  0.45594000000E+02  0.51100000000E-03 0.  1.
         11   -1    0    0    0    0 -0.00000000000E+00 -0.00000000000E+00 -0.45593999997E+02  0.45594000000E+02  0.51100000000E-03 0. -1.
    9900012    2    1    2    0    0  0.88734397319E+01  0.15883863553E+02  0.26185611723E+02  0.59301932269E+02  0.49999978555E+02 0.  0.
         12    1    1    2    0    0 -0.88734397319E+01 -0.15883863553E+02 -0.26185611723E+02  0.31886067731E+02  0.00000000000E+00 0. -1.
         11    1    3    3    0    0  0.51544795941E+01  0.10711551210E+02  0.35565338775E+01  0.12407857297E+02  0.51100000000E-03 0. -1.
        -11    1    3    3    0    0  0.17057699399E+02  0.15246481966E+02  0.19115676573E+02  0.29813242230E+02  0.51100000000E-03 0.  1.
         12    1    3    3    0    0 -0.13338739261E+02 -0.10074169623E+02  0.35134012723E+01  0.17080832743E+02  0.00000000000E+00 0. -1.
</event>
<event>
 7    1  0.6246445E-012  0.5930195E+02  0.7816164E-02  0.1266605E+00
        -11   -1    0    0    0    0  0.00000000000E+00  0.00000000000E+00  0.45593999997E+02  0.45594000000E+02  0.51100000000E-03 0. -1.
         11   -1    0    0    0    0 -0.00000000000E+00 -0.00000000000E+00 -0.45593999997E+02  0.45594000000E+02  0.51100000000E-03 0.  1.
    9900012    2    1    2    0    0 -0.23279854926E+02 -0.21130955461E+02  0.53151732871E+01  0.59301953033E+02  0.50000016424E+02 0.  0.
         12    1    1    2    0    0  0.23279854926E+02  0.21130955461E+02 -0.53151732871E+01  0.31886046967E+02  0.00000000000E+00 0. -1.
         11    1    3    3    0    0 -0.34285831300E+01 -0.62378042343E+01  0.65626448130E+01  0.96816161434E+01  0.51100000000E-03 0. -1.
        -11    1    3    3    0    0 -0.17677427675E+02 -0.16083396624E+02  0.18184658928E+02  0.30030799469E+02  0.51100000000E-03 0.  1.
        -12    1    3    3    0    0 -0.21738441212E+01  0.11902453974E+01 -0.19432130454E+02  0.19589537420E+02  0.00000000000E+00 0.  1.
</event>
<event>
 7    1  0.6246445E-012  0.5930196E+02  0.7816164E-02  0.1266605E+00
        -11   -1    0    0    0    0  0.00000000000E+00  0.00000000000E+00  0.45593999997E+02  0.45594000000E+02  0.51100000000E-03 0.  1.
         11   -1    0    0    0    0 -0.00000000000E+00 -0.00000000000E+00 -0.45593999997E+02  0.45594000000E+02  0.51100000000E-03 0. -1.
    9900012    2    1    2    0    0  0.50630229631E+01  0.31432640793E+02 -0.17534746233E+01  0.59301956313E+02  0.50000022405E+02 0.  0.
         12    1    1    2    0    0 -0.50630229631E+01 -0.31432640793E+02  0.17534746233E+01  0.31886043687E+02  0.00000000000E+00 0. -1.
         11    1    3    3    0    0  0.85757944849E+01  0.11152220273E+02 -0.13572911692E+02  0.19548406588E+02  0.51100000000E-03 0. -1.
        -11    1    3    3    0    0  0.54189317932E+01  0.20810672891E+02 -0.37183292552E+01  0.21823723345E+02  0.51100000000E-03 0.  1.
         12    1    3    3    0    0 -0.89317033151E+01 -0.53025237034E+00  0.15537766324E+02  0.17929826380E+02  0.00000000000E+00 0. -1.
</event>
<event>
 7    1  0.6246445E-012  0.5930193E+02  0.7816164E-02  0.1266605E+00
        -11   -1    0    0    0    0  0.00000000000E+00  0.00000000000E+00  0.45593999997E+02  0.45594000000E+02  0.51100000000E-03 0. -1.
         11   -1    0    0    0    0 -0.00000000000E+00 -0.00000000000E+00 -0.45593999997E+02  0.45594000000E+02  0.51100000000E-03 0.  1.
    9900012    2    1    2    0    0 -0.30650495052E+02 -0.17034689140E+01 -0.86236019209E+01  0.59301934652E+02  0.49999982901E+02 0.  0.
         12    1    1    2    0    0  0.30650495052E+02  0.17034689140E+01  0.86236019209E+01  0.31886065348E+02  0.00000000000E+00 0. -1.
         11    1    3    3    0    0 -0.16763525954E+02 -0.66374588718E+01  0.13563298123E+01  0.18080688413E+02  0.51100000000E-03 0. -1.
        -11    1    3    3    0    0 -0.22860883190E+02 -0.79660534937E+01 -0.48445128328E+01  0.24689011591E+02  0.51100000000E-03 0.  1.
        -12    1    3    3    0    0  0.89739140916E+01  0.12900043452E+02 -0.51354189004E+01  0.16532234648E+02  0.00000000000E+00 0.  1.
</event>
<event>
 7    1  0.6246445E-012  0.5930194E+02  0.7816164E-02  0.1266605E+00
        -11   -1    0    0    0    0  0.00000000000E+00  0.00000000000E+00  0.45593999997E+02  0.45594000000E+02  0.51100000000E-03 0. -1.
         11   -1    0    0    0    0 -0.00000000000E+00 -0.00000000000E+00 -0.45593999997E+02  0.45594000000E+02  0.51100000000E-03 0.  1.
    9900012    2    1    2    0    0  0.11495528503E+02 -0.37332964256E+01 -0.29506544368E+02  0.59301939750E+02  0.49999992198E+02 0.  0.
         12    1    1    2    0    0 -0.11495528503E+02  0.37332964256E+01  0.29506544368E+02  0.31886060250E+02  0.00000000000E+00 0. -1.
         11    1    3    3    0    0  0.91980094300E+01 -0.50745983468E+01 -0.73869872685E+01  0.12842215814E+02  0.51100000000E-03 0. -1.
        -11    1    3    3    0    0 -0.87018065154E+00 -0.14860310180E+02 -0.25576795431E+02  0.29593217091E+02  0.51100000000E-03 0.  1.
        -12    1    3    3    0    0  0.31676997248E+01  0.16201612101E+02  0.34572383322E+01  0.16866506844E+02  0.00000000000E+00 0.  1.
</event>
<event>
 7    1  0.6246445E-012  0.5930194E+02  0.7816164E-02  0.1266605E+00
        -11   -1    0    0    0    0  0.00000000000E+00  0.00000000000E+00  0.45593999997E+02  0.45594000000E+02  0.51100000000E-03 0. -1.
         11   -1    0    0    0    0 -0.00000000000E+00 -0.00000000000E+00 -0.45593999997E+02  0.45594000000E+02  0.51100000000E-03 0.  1.
    9900012    2    1    2    0    0  0.25694153970E+02 -0.92100736143E+01 -0.16483502553E+02  0.59301939399E+02  0.49999991559E+02 0.  0.
         12    1    1    2    0    0 -0.25694153970E+02  0.92100736143E+01  0.16483502553E+02  0.31886060601E+02  0.00000000000E+00 0. -1.
         11    1    3    3    0    0  0.17061489280E+02  0.13141396168E+02 -0.58224568122E+01  0.22309005206E+02  0.51100000000E-03 0. -1.
        -11    1    3    3    0    0 -0.31735196734E+01  0.26606963224E+01 -0.82480441433E+01  0.92293425816E+01  0.51100000000E-03 0.  1.
        -12    1    3    3    0    0  0.11806184363E+02 -0.25012166105E+02 -0.24130015971E+01  0.27763591612E+02  0.00000000000E+00 0.  1.
</event>
<event>
 7    1  0.6246445E-012  0.5930195E+02  0.7816164E-02  0.1266605E+00
        -11   -1    0    0    0    0  0.00000000000E+00  0.00000000000E+00  0.45593999997E+02  0.45594000000E+02  0.51100000000E-03 0. -1.
         11   -1    0    0    0    0 -0.00000000000E+00 -0.00000000000E+00 -0.45593999997E+02  0.45594000000E+02  0.51100000000E-03 0.  1.
    9900012    2    1    2    0    0  0.40814088728E+00  0.13254996371E+02 -0.28997558662E+02  0.59301954210E+02  0.50000018570E+02 0.  0.
         12    1    1    2    0    0 -0.40814088728E+00 -0.13254996371E+02  0.28997558662E+02  0.31886045790E+02  0.00000000000E+00 0. -1.
         11    1    3    3    0    0 -0.94707590643E+00  0.36509675945E+01  0.71278858012E+00  0.38385654833E+01  0.51100000000E-03 0. -1.
        -11    1    3    3    0    0 -0.21300342505E+01  0.20276525276E+02  0.32480635862E+01  0.20645203813E+02  0.51100000000E-03 0.  1.
        -12    1    3    3    0    0  0.34852510442E+01 -0.10672496499E+02 -0.32958410828E+02  0.34818184913E+02  0.00000000000E+00 0.  1.
</event>
<event>
 7    1  0.6246445E-012  0.5930195E+02  0.7816164E-02  0.1266605E+00
        -11   -1    0    0    0    0  0.00000000000E+00  0.00000000000E+00  0.45593999997E+02  0.45594000000E+02  0.51100000000E-03 0. -1.
         11   -1    0    0    0    0 -0.00000000000E+00 -0.00000000000E+00 -0.45593999997E+02  0.45594000000E+02  0.51100000000E-03 0.  1.
    9900012    2    1    2    0    0 -0.20412519356E+02 -0.20480444739E+02 -0.13438761509E+02  0.59301954870E+02  0.50000019773E+02 0.  0.
         12    1    1    2    0    0  0.20412519356E+02  0.20480444739E+02  0.13438761509E+02  0.31886045130E+02  0.00000000000E+00 0. -1.
         11    1    3    3    0    0  0.21242265991E+01 -0.64614552544E+01 -0.83935137047E+01  0.10803416831E+02  0.51100000000E-03 0. -1.
        -11    1    3    3    0    0 -0.34131424287E+01 -0.20928532748E+02  0.97626770551E+01  0.23344440190E+02  0.51100000000E-03 0.  1.
        -12    1    3    3    0    0 -0.19123603527E+02  0.69095432643E+01 -0.14807924859E+02  0.25154097849E+02  0.00000000000E+00 0.  1.
</event>
<event>
 7    1  0.6246445E-012  0.5930194E+02  0.7816164E-02  0.1266605E+00
        -11   -1    0    0    0    0  0.00000000000E+00  0.00000000000E+00  0.45593999997E+02  0.45594000000E+02  0.51100000000E-03 0. -1.
         11   -1    0    0    0    0 -0.00000000000E+00 -0.00000000000E+00 -0.45593999997E+02  0.45594000000E+02  0.51100000000E-03 0.  1.
    9900012    2    1    2    0    0  0.94215118068E+01 -0.30447165622E+02 -0.96234344198E+00  0.59301939033E+02  0.49999990890E+02 0.  0.
         12    1    1    2    0    0 -0.94215118068E+01  0.30447165622E+02  0.96234344198E+00  0.31886060967E+02  0.00000000000E+00 0. -1.
         11    1    3    3    0    0 -0.20578263395E+01 -0.24872702882E+01 -0.87782428968E+01  0.93530054713E+01  0.51100000000E-03 0. -1.
        -11    1    3    3    0    0  0.70664778453E+01 -0.27407931762E+02 -0.11185320860E+02  0.30434211599E+02  0.51100000000E-03 0.  1.
         12    1    3    3    0    0  0.44128603010E+01 -0.55196357126E+00  0.19001220315E+02  0.19514721963E+02  0.00000000000E+00 0. -1.
</event>
<event>
 7    1  0.6246445E-012  0.5930189E+02  0.7816164E-02  0.1266605E+00
        -11   -1    0    0    0    0  0.00000000000E+00  0.00000000000E+00  0.45593999997E+02  0.45594000000E+02  0.51100000000E-03 0.  1.
         11   -1    0    0    0    0 -0.00000000000E+00 -0.00000000000E+00 -0.45593999997E+02  0.45594000000E+02  0.51100000000E-03 0. -1.
    9900012    2    1    2    0    0 -0.29447541643E+02 -0.52100841637E+01  0.11064420703E+02  0.59301888740E+02  0.49999899169E+02 0.  0.
         12    1    1    2    0    0  0.29447541643E+02  0.52100841637E+01 -0.11064420703E+02  0.31886111260E+02  0.00000000000E+00 0. -1.
         11    1    3    3    0    0  0.53053781408E+01  0.32495804684E+01 -0.90545041247E+01  0.10985938997E+02  0.51100000000E-03 0. -1.
        -11    1    3    3    0    0 -0.48379209529E+01  0.44457118111E+01  0.13580399756E+02  0.15086321303E+02  0.51100000000E-03 0.  1.
        -12    1    3    3    0    0 -0.29914998830E+02 -0.12905376443E+02  0.65385250710E+01  0.33229628440E+02  0.00000000000E+00 0.  1.
</event>
<event>
 7    1  0.6246445E-012  0.5930199E+02  0.7816164E-02  0.1266605E+00
        -11   -1    0    0    0    0  0.00000000000E+00  0.00000000000E+00  0.45593999997E+02  0.45594000000E+02  0.51100000000E-03 0.  1.
         11   -1    0    0    0    0 -0.00000000000E+00 -0.00000000000E+00 -0.45593999997E+02  0.45594000000E+02  0.51100000000E-03 0. -1.
    9900012    2    1    2    0    0 -0.16662386140E+02 -0.18470602175E+01  0.27123253589E+02  0.59301990080E+02  0.50000083989E+02 0.  0.
         12    1    1    2    0    0  0.16662386140E+02  0.18470602175E+01 -0.27123253589E+02  0.31886009920E+02  0.00000000000E+00 0. -1.
         11    1    3    3    0    0  0.69348337879E+01 -0.58253550747E+01  0.17602166303E+02  0.19795528289E+02  0.51100000000E-03 0. -1.
        -11    1    3    3    0    0  0.39847058839E+01 -0.74220764905E+01  0.31151073206E+01  0.89815919687E+01  0.51100000000E-03 0.  1.
         12    1    3    3    0    0 -0.27581925812E+02  0.11400371348E+02  0.64059799652E+01  0.30524869823E+02  0.00000000000E+00 0. -1.
</event>
<event>
 7    1  0.6246445E-012  0.5930197E+02  0.7816164E-02  0.1266605E+00
        -11   -1    0    0    0    0  0.00000000000E+00  0.00000000000E+00  0.45593999997E+02  0.45594000000E+02  0.51100000000E-03 0.  1.
         11   -1    0    0    0    0 -0.00000000000E+00 -0.00000000000E+00 -0.45593999997E+02  0.45594000000E+02  0.51100000000E-03 0. -1.
    9900012    2    1    2    0    0 -0.15615718877E+01 -0.15380519471E+02  0.27887636713E+02  0.59301965951E+02  0.50000039982E+02 0.  0.
         12    1    1    2    0    0  0.15615718877E+01  0.15380519471E+02 -0.27887636713E+02  0.31886034049E+02  0.00000000000E+00 0. -1.
         11    1    3    3    0    0 -0.24808964747E+01 -0.17411087621E+02 -0.44000248376E+01  0.18129010957E+02  0.51100000000E-03 0. -1.
        -11    1    3    3    0    0 -0.10967638826E+02  0.30592983152E+01  0.74186381276E+01  0.13589871211E+02  0.51100000000E-03 0.  1.
         12    1    3    3    0    0  0.11886963413E+02 -0.10287301654E+01  0.24869023423E+02  0.27583083782E+02  0.00000000000E+00 0. -1.
</event>
<event>
 7    1  0.6246445E-012  0.5930193E+02  0.7816164E-02  0.1266605E+00
        -11   -1    0    0    0    0  0.00000000000E+00  0.00000000000E+00  0.45593999997E+02  0.45594000000E+02  0.51100000000E-03 0. -1.
         11   -1    0    0    0    0 -0.00000000000E+00 -0.00000000000E+00 -0.45593999997E+02  0.45594000000E+02  0.51100000000E-03 0.  1.
    9900012    2    1    2    0    0 -0.28370950541E+02  0.36393400949E+01 -0.14091332071E+02  0.59301932973E+02  0.49999979839E+02 0.  0.
         12    1    1    2    0    0  0.28370950541E+02 -0.36393400949E+01  0.14091332071E+02  0.31886067027E+02  0.00000000000E+00 0. -1.
         11    1    3    3    0    0 -0.35412822925E+01  0.18356263893E+01 -0.14731346798E+02  0.15261807994E+02  0.51100000000E-03 0. -1.
        -11    1    3    3    0    0 -0.82219591950E+01 -0.44895038886E+01 -0.16745065724E+02  0.19187326143E+02  0.51100000000E-03 0.  1.
         12    1    3    3    0    0 -0.16607709053E+02  0.62932175942E+01  0.17385080451E+02  0.24852798836E+02  0.00000000000E+00 0. -1.
</event>
<event>
 7    1  0.6246445E-012  0.5930191E+02  0.7816164E-02  0.1266605E+00
        -11   -1    0    0    0    0  0.00000000000E+00  0.00000000000E+00  0.45593999997E+02  0.45594000000E+02  0.51100000000E-03 0.  1.
         11   -1    0    0    0    0 -0.00000000000E+00 -0.00000000000E+00 -0.45593999997E+02  0.45594000000E+02  0.51100000000E-03 0. -1.
    9900012    2    1    2    0    0  0.14687969700E+02 -0.28176451774E+02 -0.26596938007E+01  0.59301908054E+02  0.49999934392E+02 0.  0.
         12    1    1    2    0    0 -0.14687969700E+02  0.28176451774E+02  0.26596938007E+01  0.31886091946E+02  0.00000000000E+00 0. -1.
         11    1    3    3    0    0 -0.23146305828E+01  0.63616513032E+01  0.70257114494E+01  0.97564718864E+01  0.51100000000E-03 0. -1.
        -11    1    3    3    0    0  0.16669871718E+02 -0.45639971537E+01 -0.91693039954E+01  0.19565040995E+02  0.51100000000E-03 0.  1.
         12    1    3    3    0    0  0.33272856565E+00 -0.29974105923E+02 -0.51610125463E+00  0.29980395173E+02  0.00000000000E+00 0. -1.
</event>
<event>
 7    1  0.6246445E-012  0.5930197E+02  0.7816164E-02  0.1266605E+00
        -11   -1    0    0    0    0  0.00000000000E+00  0.00000000000E+00  0.45593999997E+02  0.45594000000E+02  0.51100000000E-03 0.  1.
         11   -1    0    0    0    0 -0.00000000000E+00 -0.00000000000E+00 -0.45593999997E+02  0.45594000000E+02  0.51100000000E-03 0. -1.
    9900012    2    1    2    0    0  0.21437183055E+02  0.92618562704E+01  0.21711375052E+02  0.59301974760E+02  0.50000056049E+02 0.  0.
         12    1    1    2    0    0 -0.21437183055E+02 -0.92618562704E+01 -0.21711375052E+02  0.31886025240E+02  0.00000000000E+00 0. -1.
         11    1    3    3    0    0  0.11291827016E+02 -0.56034494696E+01 -0.56697630397E+01  0.13822091611E+02  0.51100000000E-03 0. -1.
        -11    1    3    3    0    0  0.32050796827E+01 -0.31090547165E+01  0.25759930643E+02  0.26144077417E+02  0.51100000000E-03 0.  1.
         12    1    3    3    0    0  0.69402763563E+01  0.17974360456E+02  0.16212074491E+01  0.19335805732E+02  0.00000000000E+00 0. -1.
</event>
<event>
 7    1  0.6246445E-012  0.5930199E+02  0.7816164E-02  0.1266605E+00
        -11   -1    0    0    0    0  0.00000000000E+00  0.00000000000E+00  0.45593999997E+02  0.45594000000E+02  0.51100000000E-03 0. -1.
         11   -1    0    0    0    0 -0.00000000000E+00 -0.00000000000E+00 -0.45593999997E+02  0.45594000000E+02  0.51100000000E-03 0.  1.
    9900012    2    1    2    0    0 -0.38809105448E+01  0.14641522553E+02 -0.28058545276E+02  0.59301990336E+02  0.50000084454E+02 0.  0.
         12    1    1    2    0    0  0.38809105448E+01 -0.14641522553E+02  0.28058545276E+02  0.31886009664E+02  0.00000000000E+00 0. -1.
         11    1    3    3    0    0  0.49378108342E+01 -0.69205038296E+01 -0.61040298332E+00  0.85233761593E+01  0.51100000000E-03 0. -1.
        -11    1    3    3    0    0 -0.18629416884E+02  0.93170423533E+00 -0.18420608246E+02  0.26215301917E+02  0.51100000000E-03 0.  1.
        -12    1    3    3    0    0  0.98106955047E+01  0.20630322147E+02 -0.90275340469E+01  0.24563312259E+02  0.00000000000E+00 0.  1.
</event>
<event>
 7    1  0.6246445E-012  0.5930192E+02  0.7816164E-02  0.1266605E+00
        -11   -1    0    0    0    0  0.00000000000E+00  0.00000000000E+00  0.45593999997E+02  0.45594000000E+02  0.51100000000E-03 0. -1.
         11   -1    0    0    0    0 -0.00000000000E+00 -0.00000000000E+00 -0.45593999997E+02  0.45594000000E+02  0.51100000000E-03 0.  1.
    9900012    2    1    2    0    0  0.13600295624E+02 -0.21679919149E+02 -0.19019336827E+02  0.59301919829E+02  0.49999955867E+02 0.  0.
         12    1    1    2    0    0 -0.13600295624E+02  0.21679919149E+02  0.19019336827E+02  0.31886080171E+02  0.00000000000E+00 0. -1.
         11    1    3    3    0    0  0.20117811355E+02 -0.11131930491E+01  0.78862721115E+01  0.21636978083E+02  0.51100000000E-03 0. -1.
        -11    1    3    3    0    0  0.31339068483E+00  0.14176685388E+01  0.78827451172E+00  0.16520819514E+01  0.51100000000E-03 0.  1.
        -12    1    3    3    0    0 -0.68309064153E+01 -0.21984394638E+02 -0.27693883450E+02  0.36012859795E+02  0.00000000000E+00 0.  1.
</event>
<event>
 7    1  0.6246445E-012  0.5930193E+02  0.7816164E-02  0.1266605E+00
        -11   -1    0    0    0    0  0.00000000000E+00  0.00000000000E+00  0.45593999997E+02  0.45594000000E+02  0.51100000000E-03 0.  1.
         11   -1    0    0    0    0 -0.00000000000E+00 -0.00000000000E+00 -0.45593999997E+02  0.45594000000E+02  0.51100000000E-03 0. -1.
    9900012    2    1    2    0    0  0.26865185747E+02 -0.14427756634E+02  0.93178814154E+01  0.59301932811E+02  0.49999979543E+02 0.  0.
         12    1    1    2    0    0 -0.26865185747E+02  0.14427756634E+02 -0.93178814154E+01  0.31886067189E+02  0.00000000000E+00 0. -1.
         11    1    3    3    0    0 -0.30766964222E+01 -0.73218278140E+01 -0.45667270920E+01  0.91613437883E+01  0.51100000000E-03 0. -1.
        -11    1    3    3    0    0  0.35805494427E+02 -0.67803980382E+01  0.15447355723E+01  0.36474558763E+02  0.51100000000E-03 0.  1.
        -12    1    3    3    0    0 -0.58636122574E+01 -0.32553078164E+00  0.12339872935E+02  0.13666030259E+02  0.00000000000E+00 0.  1.
</event>
<event>
 7    1  0.6246445E-012  0.5930195E+02  0.7816164E-02  0.1266605E+00
        -11   -1    0    0    0    0  0.00000000000E+00  0.00000000000E+00  0.45593999997E+02  0.45594000000E+02  0.51100000000E-03 0.  1.
         11   -1    0    0    0    0 -0.00000000000E+00 -0.00000000000E+00 -0.45593999997E+02  0.45594000000E+02  0.51100000000E-03 0. -1.
    9900012    2    1    2    0    0 -0.93298256479E+01 -0.17852642465E+02  0.24717562512E+02  0.59301946839E+02  0.50000005128E+02 0.  0.
         12    1    1    2    0    0  0.93298256479E+01  0.17852642465E+02 -0.24717562512E+02  0.31886053161E+02  0.00000000000E+00 0. -1.
         11    1    3    3    0    0 -0.23658954327E+01 -0.11845455071E+02 -0.41496999247E+01  0.12772324642E+02  0.51100000000E-03 0. -1.
        -11    1    3    3    0    0 -0.15600296148E+01  0.36592493634E+01 -0.75130119500E+01  0.85011262268E+01  0.51100000000E-03 0.  1.
        -12    1    3    3    0    0 -0.54039006004E+01 -0.96664367573E+01  0.36380274387E+02  0.38028495970E+02  0.00000000000E+00 0.  1.
</event>
<event>
 7    1  0.6246445E-012  0.5930199E+02  0.7816164E-02  0.1266605E+00
        -11   -1    0    0    0    0  0.00000000000E+00  0.00000000000E+00  0.45593999997E+02  0.45594000000E+02  0.51100000000E-03 0.  1.
         11   -1    0    0    0    0 -0.00000000000E+00 -0.00000000000E+00 -0.45593999997E+02  0.45594000000E+02  0.51100000000E-03 0. -1.
    9900012    2    1    2    0    0 -0.82623661075E+01  0.21191250482E+02  0.22346852404E+02  0.59301990481E+02  0.50000084720E+02 0.  0.
         12    1    1    2    0    0  0.82623661075E+01 -0.21191250482E+02 -0.22346852404E+02  0.31886009519E+02  0.00000000000E+00 0. -1.
         11    1    3    3    0    0  0.12296385633E+02  0.95507972558E+01  0.38452695289E+01  0.16037609730E+02  0.51100000000E-03 0. -1.
        -11    1    3    3    0    0 -0.34853414889E+00  0.15811074625E+02  0.15966635271E+02  0.22473206246E+02  0.51100000000E-03 0.  1.
        -12    1    3    3    0    0 -0.20210217591E+02 -0.41706213987E+01  0.25349476044E+01  0.20791174505E+02  0.00000000000E+00 0.  1.
</event>
<event>
 7    1  0.6246445E-012  0.5930195E+02  0.7816164E-02  0.1266605E+00
        -11   -1    0    0    0    0  0.00000000000E+00  0.00000000000E+00  0.45593999997E+02  0.45594000000E+02  0.51100000000E-03 0. -1.
         11   -1    0    0    0    0 -0.00000000000E+00 -0.00000000000E+00 -0.45593999997E+02  0.45594000000E+02  0.51100000000E-03 0.  1.
    9900012    2    1    2    0    0 -0.70588440761E+01 -0.19707722632E+02 -0.24051998295E+02  0.59301949241E+02  0.50000009507E+02 0.  0.
         12    1    1    2    0    0  0.70588440761E+01  0.19707722632E+02  0.24051998295E+02  0.31886050759E+02  0.00000000000E+00 0. -1.
         11    1    3    3    0    0 -0.32933711296E+01  0.83660568808E+01  0.82432949587E+01  0.12197914296E+02  0.51100000000E-03 0. -1.
        -11    1    3    3    0    0  0.77052665580E+01 -0.84883994691E+01 -0.89513204233E+01  0.14544765239E+02  0.51100000000E-03 0.  1.
        -12    1    3    3    0    0 -0.11470739505E+02 -0.19585380044E+02 -0.23343972831E+02  0.32559269706E+02  0.00000000000E+00 0.  1.
</event>
<event>
 7    1  0.6246445E-012  0.5930194E+02  0.7816164E-02  0.1266605E+00
        -11   -1    0    0    0    0  0.00000000000E+00  0.00000000000E+00  0.45593999997E+02  0.45594000000E+02  0.51100000000E-03 0.  1.
         11   -1    0    0    0    0 -0.00000000000E+00 -0.00000000000E+00 -0.45593999997E+02  0.45594000000E+02  0.51100000000E-03 0. -1.
    9900012    2    1    2    0    0  0.23925829878E+02  0.16845735954E+02 -0.12668731781E+02  0.59301938466E+02  0.49999989857E+02 0.  0.
         12    1    1    2    0    0 -0.23925829878E+02 -0.16845735954E+02  0.12668731781E+02  0.31886061534E+02  0.00000000000E+00 0. -1.
         11    1    3    3    0    0  0.25752949336E+02 -0.73226822670E+01  0.43911269433E+01  0.27131495926E+02  0.51100000000E-03 0. -1.
        -11    1    3    3    0    0  0.31893845030E+01  0.12462448702E+01 -0.52280852143E+00  0.34639036932E+01  0.51100000000E-03 0.  1.
         12    1    3    3    0    0 -0.50165039617E+01  0.22922173351E+02 -0.16537050203E+02  0.28706538847E+02  0.00000000000E+00 0. -1.
</event>
<event>
 7    1  0.6246445E-012  0.5930201E+02  0.7816164E-02  0.1266605E+00
        -11   -1    0    0    0    0  0.00000000000E+00  0.00000000000E+00  0.45593999997E+02  0.45594000000E+02  0.51100000000E-03 0. -1.
         11   -1    0    0    0    0 -0.00000000000E+00 -0.00000000000E+00 -0.45593999997E+02  0.45594000000E+02  0.51100000000E-03 0.  1.
    9900012    2    1    2    0    0 -0.29082151673E+02 -0.85052771966E+01  0.99299929372E+01  0.59302014899E+02  0.50000129252E+02 0.  0.
         12    1    1    2    0    0  0.29082151673E+02  0.85052771966E+01 -0.99299929372E+01  0.31885985101E+02  0.00000000000E+00 0. -1.
         11    1    3    3    0    0 -0.24162785796E+01 -0.10218471133E+01  0.12151737961E+02  0.12431705814E+02  0.51100000000E-03 0. -1.
        -11    1    3    3    0    0  0.45166539423E+00 -0.63364283388E+01 -0.15429123600E+02  0.16685687910E+02  0.51100000000E-03 0.  1.
         12    1    3    3    0    0 -0.27117538488E+02 -0.11470017445E+01  0.13207378576E+02  0.30184621175E+02  0.00000000000E+00 0. -1.
</event>
<event>
 7    1  0.6246445E-012  0.5930200E+02  0.7816164E-02  0.1266605E+00
        -11   -1    0    0    0    0  0.00000000000E+00  0.00000000000E+00  0.45593999997E+02  0.45594000000E+02  0.51100000000E-03 0. -1.
         11   -1    0    0    0    0 -0.00000000000E+00 -0.00000000000E+00 -0.45593999997E+02  0.45594000000E+02  0.51100000000E-03 0.  1.
    9900012    2    1    2    0    0  0.27962032839E+02 -0.15317306357E+02  0.47067580903E+00  0.59302004794E+02  0.50000110824E+02 0.  0.
         12    1    1    2    0    0 -0.27962032839E+02  0.15317306357E+02 -0.47067580903E+00  0.31885995206E+02  0.00000000000E+00 0. -1.
         11    1    3    3    0    0 -0.20404183599E+01 -0.48104083596E+01  0.39634339070E+01  0.65583644505E+01  0.51100000000E-03 0. -1.
        -11    1    3    3    0    0  0.11121271836E+02  0.80246721538E+01  0.15107245625E+02  0.20403600689E+02  0.51100000000E-03 0.  1.
        -12    1    3    3    0    0  0.18881179363E+02 -0.18531570151E+02 -0.18600003723E+02  0.32340039655E+02  0.00000000000E+00 0.  1.
</event>
<event>
 7    1  0.6246445E-012  0.5930194E+02  0.7816164E-02  0.1266605E+00
        -11   -1    0    0    0    0  0.00000000000E+00  0.00000000000E+00  0.45593999997E+02  0.45594000000E+02  0.51100000000E-03 0.  1.
         11   -1    0    0    0    0 -0.00000000000E+00 -0.00000000000E+00 -0.45593999997E+02  0.45594000000E+02  0.51100000000E-03 0. -1.
    9900012    2    1    2    0    0 -0.24808500146E+02 -0.19860254015E+02  0.26133734675E+01  0.59301935804E+02  0.49999985001E+02 0.  0.
         12    1    1    2    0    0  0.24808500146E+02  0.19860254015E+02 -0.26133734675E+01  0.31886064196E+02  0.00000000000E+00 0. -1.
         11    1    3    3    0    0  0.24616547538E+01 -0.19063794762E+01  0.38341417061E+01  0.49390960426E+01  0.51100000000E-03 0. -1.
        -11    1    3    3    0    0 -0.93959994367E+01  0.14233681757E+02 -0.37356675175E+01  0.17459602339E+02  0.51100000000E-03 0.  1.
        -12    1    3    3    0    0 -0.17874155463E+02 -0.32187556296E+02  0.25148992789E+01  0.36903237422E+02  0.00000000000E+00 0.  1.
</event>
<event>
 7    1  0.6246445E-012  0.5930190E+02  0.7816164E-02  0.1266605E+00
        -11   -1    0    0    0    0  0.00000000000E+00  0.00000000000E+00  0.45593999997E+02  0.45594000000E+02  0.51100000000E-03 0.  1.
         11   -1    0    0    0    0 -0.00000000000E+00 -0.00000000000E+00 -0.45593999997E+02  0.45594000000E+02  0.51100000000E-03 0. -1.
    9900012    2    1    2    0    0  0.23654505155E+02 -0.19972079028E+02  0.76356946412E+01  0.59301899776E+02  0.49999919295E+02 0.  0.
         12    1    1    2    0    0 -0.23654505155E+02  0.19972079028E+02 -0.76356946412E+01  0.31886100224E+02  0.00000000000E+00 0. -1.
         11    1    3    3    0    0 -0.74119775231E+01 -0.75057169806E+01  0.58332031309E+01  0.12054022450E+02  0.51100000000E-03 0. -1.
        -11    1    3    3    0    0  0.99593648037E+01  0.81890053407E+01  0.10316322569E+02  0.16512881861E+02  0.51100000000E-03 0.  1.
         12    1    3    3    0    0  0.21107117875E+02 -0.20655367388E+02 -0.85138310582E+01  0.30734995465E+02  0.00000000000E+00 0. -1.
</event>
<event>
 7    1  0.6246445E-012  0.5930197E+02  0.7816164E-02  0.1266605E+00
        -11   -1    0    0    0    0  0.00000000000E+00  0.00000000000E+00  0.45593999997E+02  0.45594000000E+02  0.51100000000E-03 0. -1.
         11   -1    0    0    0    0 -0.00000000000E+00 -0.00000000000E+00 -0.45593999997E+02  0.45594000000E+02  0.51100000000E-03 0.  1.
    9900012    2    1    2    0    0 -0.22994430202E+02 -0.15983737376E+02 -0.15247785335E+02  0.59301974245E+02  0.50000055109E+02 0.  0.
         12    1    1    2    0    0  0.22994430202E+02  0.15983737376E+02  0.15247785335E+02  0.31886025755E+02  0.00000000000E+00 0. -1.
         11    1    3    3    0    0 -0.13688423084E+02 -0.31642470316E+01  0.16030082476E+02  0.21315462234E+02  0.51100000000E-03 0. -1.
        -11    1    3    3    0    0 -0.19260189332E+00  0.20014253970E+01  0.19967762692E+00  0.20205619330E+01  0.51100000000E-03 0.  1.
        -12    1    3    3    0    0 -0.91134052243E+01 -0.14820915742E+02 -0.31477545438E+02  0.35965950078E+02  0.00000000000E+00 0.  1.
</event>
<event>
 7    1  0.6246445E-012  0.5930193E+02  0.7816164E-02  0.1266605E+00
        -11   -1    0    0    0    0  0.00000000000E+00  0.00000000000E+00  0.45593999997E+02  0.45594000000E+02  0.51100000000E-03 0.  1.
         11   -1    0    0    0    0 -0.00000000000E+00 -0.00000000000E+00 -0.45593999997E+02  0.45594000000E+02  0.51100000000E-03 0. -1.
    9900012    2    1    2    0    0  0.13542764658E+02  0.23777847195E+02 -0.16368540603E+02  0.59301927597E+02  0.49999970034E+02 0.  0.
         12    1    1    2    0    0 -0.13542764658E+02 -0.23777847195E+02  0.16368540603E+02  0.31886072403E+02  0.00000000000E+00 0. -1.
         11    1    3    3    0    0 -0.25378446912E+01  0.11821487350E+01  0.40737304010E+01  0.49430163816E+01  0.51100000000E-03 0. -1.
        -11    1    3    3    0    0  0.22591134419E+01  0.32951633367E+02 -0.12064272881E+02  0.35163339083E+02  0.51100000000E-03 0.  1.
         12    1    3    3    0    0  0.13821495908E+02 -0.10355934907E+02 -0.83779981233E+01  0.19195572132E+02  0.00000000000E+00 0. -1.
</event>
<event>
 7    1  0.6246445E-012  0.5930192E+02  0.7816164E-02  0.1266605E+00
        -11   -1    0    0    0    0  0.00000000000E+00  0.00000000000E+00  0.45593999997E+02  0.45594000000E+02  0.51100000000E-03 0. -1.
         11   -1    0    0    0    0 -0.00000000000E+00 -0.00000000000E+00 -0.45593999997E+02  0.45594000000E+02  0.51100000000E-03 0.  1.
    9900012    2    1    2    0    0 -0.27659495475E+02 -0.42735054342E+01 -0.15277818815E+02  0.59301917043E+02  0.49999950786E+02 0.  0.
         12    1    1    2    0    0  0.27659495475E+02  0.42735054342E+01  0.15277818815E+02  0.31886082957E+02  0.00000000000E+00 0. -1.
         11    1    3    3    0    0 -0.24435256723E+01 -0.70479148962E+01  0.50102739083E+01  0.89859204866E+01  0.51100000000E-03 0.  1.
        -11    1    3    3    0    0  0.94557590605E+01  0.30564033129E+01  0.39038620936E+00  0.99451185148E+01  0.51100000000E-03 0. -1.
        -12    1    3    3    0    0 -0.34671728863E+02 -0.28199385089E+00 -0.20678478932E+02  0.40370878041E+02  0.00000000000E+00 0.  1.
</event>
<event>
 7    1  0.6246445E-012  0.5930198E+02  0.7816164E-02  0.1266605E+00
        -11   -1    0    0    0    0  0.00000000000E+00  0.00000000000E+00  0.45593999997E+02  0.45594000000E+02  0.51100000000E-03 0.  1.
         11   -1    0    0    0    0 -0.00000000000E+00 -0.00000000000E+00 -0.45593999997E+02  0.45594000000E+02  0.51100000000E-03 0. -1.
    9900012    2    1    2    0    0 -0.15873821401E+01  0.25292251069E+02  0.19352021293E+02  0.59301976819E+02  0.50000059803E+02 0.  0.
         12    1    1    2    0    0  0.15873821401E+01 -0.25292251069E+02 -0.19352021293E+02  0.31886023181E+02  0.00000000000E+00 0. -1.
         11    1    3    3    0    0  0.94061633695E+01  0.41457666602E+01  0.14251696966E+01  0.10377591217E+02  0.51100000000E-03 0. -1.
        -11    1    3    3    0    0  0.77806828147E+01  0.17692867449E+02  0.22125548972E+02  0.29378844450E+02  0.51100000000E-03 0.  1.
         12    1    3    3    0    0 -0.18774228324E+02  0.34536169599E+01 -0.41986973765E+01  0.19545541152E+02  0.00000000000E+00 0. -1.
</event>
<event>
 7    1  0.6246445E-012  0.5930185E+02  0.7816164E-02  0.1266605E+00
        -11   -1    0    0    0    0  0.00000000000E+00  0.00000000000E+00  0.45593999997E+02  0.45594000000E+02  0.51100000000E-03 0.  1.
         11   -1    0    0    0    0 -0.00000000000E+00 -0.00000000000E+00 -0.45593999997E+02  0.45594000000E+02  0.51100000000E-03 0. -1.
    9900012    2    1    2    0    0  0.94915816355E+01  0.91669984163E+01  0.29027612841E+02  0.59301854276E+02  0.49999836314E+02 0.  0.
         12    1    1    2    0    0 -0.94915816355E+01 -0.91669984163E+01 -0.29027612841E+02  0.31886145724E+02  0.00000000000E+00 0. -1.
         11    1    3    3    0    0 -0.90190506565E+01  0.13682368662E+02  0.12255215221E+02  0.20463156827E+02  0.51100000000E-03 0. -1.
        -11    1    3    3    0    0  0.37546120075E+01  0.10647565865E+02 -0.82349404598E+00  0.11320155161E+02  0.51100000000E-03 0.  1.
         12    1    3    3    0    0  0.14756020285E+02 -0.15162936111E+02  0.17595891665E+02  0.27518542288E+02  0.00000000000E+00 0. -1.
</event>
<event>
 7    1  0.6246445E-012  0.5930187E+02  0.7816164E-02  0.1266605E+00
        -11   -1    0    0    0    0  0.00000000000E+00  0.00000000000E+00  0.45593999997E+02  0.45594000000E+02  0.51100000000E-03 0. -1.
         11   -1    0    0    0    0 -0.00000000000E+00 -0.00000000000E+00 -0.45593999997E+02  0.45594000000E+02  0.51100000000E-03 0.  1.
    9900012    2    1    2    0    0  0.31270068295E+02 -0.21337231409E+01  0.58613372824E+01  0.59301871035E+02  0.49999866878E+02 0.  0.
         12    1    1    2    0    0 -0.31270068295E+02  0.21337231409E+01 -0.58613372824E+01  0.31886128965E+02  0.00000000000E+00 0. -1.
         11    1    3    3    0    0  0.27912493435E+02 -0.12271327760E+02 -0.92337270202E+00  0.30504842110E+02  0.51100000000E-03 0.  1.
        -11    1    3    3    0    0  0.11578219993E+01  0.16503205535E+01  0.15971260127E+02  0.16097989316E+02  0.51100000000E-03 0. -1.
        -12    1    3    3    0    0  0.21997528614E+01  0.84872840656E+01 -0.91865501427E+01  0.12699039609E+02  0.00000000000E+00 0.  1.
</event>
<event>
 7    1  0.6246445E-012  0.5930195E+02  0.7816164E-02  0.1266605E+00
        -11   -1    0    0    0    0  0.00000000000E+00  0.00000000000E+00  0.45593999997E+02  0.45594000000E+02  0.51100000000E-03 0.  1.
         11   -1    0    0    0    0 -0.00000000000E+00 -0.00000000000E+00 -0.45593999997E+02  0.45594000000E+02  0.51100000000E-03 0. -1.
    9900012    2    1    2    0    0 -0.79576615623E+01  0.27478459165E+02  0.14082975353E+02  0.59301948341E+02  0.50000007867E+02 0.  0.
         12    1    1    2    0    0  0.79576615623E+01 -0.27478459165E+02 -0.14082975353E+02  0.31886051659E+02  0.00000000000E+00 0. -1.
         11    1    3    3    0    0 -0.36592320018E+01  0.36242902679E+00  0.19940397928E+01  0.41830047333E+01  0.51100000000E-03 0. -1.
        -11    1    3    3    0    0 -0.18801122509E+02 -0.62542588697E+00  0.14458210627E+02  0.23725792293E+02  0.51100000000E-03 0.  1.
         12    1    3    3    0    0  0.14502692948E+02  0.27741456025E+02 -0.23692750676E+01  0.31393151315E+02  0.00000000000E+00 0. -1.
</event>
<event>
 7    1  0.6246445E-012  0.5930195E+02  0.7816164E-02  0.1266605E+00
        -11   -1    0    0    0    0  0.00000000000E+00  0.00000000000E+00  0.45593999997E+02  0.45594000000E+02  0.51100000000E-03 0.  1.
         11   -1    0    0    0    0 -0.00000000000E+00 -0.00000000000E+00 -0.45593999997E+02  0.45594000000E+02  0.51100000000E-03 0. -1.
    9900012    2    1    2    0    0 -0.19396149828E+02 -0.97230729547E+01  0.23366025038E+02  0.59301954433E+02  0.50000018977E+02 0.  0.
         12    1    1    2    0    0  0.19396149828E+02  0.97230729547E+01 -0.23366025038E+02  0.31886045567E+02  0.00000000000E+00 0. -1.
         11    1    3    3    0    0  0.23686627074E+01  0.10371184264E+01  0.33279144065E+01  0.42144029482E+01  0.51100000000E-03 0.  1.
        -11    1    3    3    0    0 -0.14422974188E+02 -0.24597186590E+02  0.25744439835E+02  0.38416402164E+02  0.51100000000E-03 0. -1.
         12    1    3    3    0    0 -0.73418383468E+01  0.13836995209E+02 -0.57063292035E+01  0.16671149321E+02  0.00000000000E+00 0. -1.
</event>
<event>
 7    1  0.6246445E-012  0.5930191E+02  0.7816164E-02  0.1266605E+00
        -11   -1    0    0    0    0  0.00000000000E+00  0.00000000000E+00  0.45593999997E+02  0.45594000000E+02  0.51100000000E-03 0. -1.
         11   -1    0    0    0    0 -0.00000000000E+00 -0.00000000000E+00 -0.45593999997E+02  0.45594000000E+02  0.51100000000E-03 0.  1.
    9900012    2    1    2    0    0 -0.44657022766E+01  0.24770835457E+02 -0.19575140868E+02  0.59301907012E+02  0.49999932491E+02 0.  0.
         12    1    1    2    0    0  0.44657022766E+01 -0.24770835457E+02  0.19575140868E+02  0.31886092988E+02  0.00000000000E+00 0. -1.
         11    1    3    3    0    0  0.40277832261E+01 -0.22348113977E+01 -0.17961917136E+02  0.18543135851E+02  0.51100000000E-03 0. -1.
        -11    1    3    3    0    0 -0.97485401876E+01  0.79546158852E+01 -0.13352073342E+02  0.18346329673E+02  0.51100000000E-03 0.  1.
         12    1    3    3    0    0  0.12550546849E+01  0.19051030970E+02  0.11738849611E+02  0.22412441488E+02  0.00000000000E+00 0. -1.
</event>
<event>
 7    1  0.6246445E-012  0.5930192E+02  0.7816164E-02  0.1266605E+00
        -11   -1    0    0    0    0  0.00000000000E+00  0.00000000000E+00  0.45593999997E+02  0.45594000000E+02  0.51100000000E-03 0.  1.
         11   -1    0    0    0    0 -0.00000000000E+00 -0.00000000000E+00 -0.45593999997E+02  0.45594000000E+02  0.51100000000E-03 0. -1.
    9900012    2    1    2    0    0 -0.18323078711E+02  0.17606726607E+02  0.19261097599E+02  0.59301922851E+02  0.49999961378E+02 0.  0.
         12    1    1    2    0    0  0.18323078711E+02 -0.17606726607E+02 -0.19261097599E+02  0.31886077149E+02  0.00000000000E+00 0. -1.
         11    1    3    3    0    0  0.11293614392E+02  0.97836472003E+01  0.50280726199E+01  0.15765373231E+02  0.51100000000E-03 0.  1.
        -11    1    3    3    0    0 -0.20255186742E+01 -0.80665088569E+01  0.70358160732E+01  0.10893759641E+02  0.51100000000E-03 0. -1.
        -12    1    3    3    0    0 -0.27591174429E+02  0.15889588263E+02  0.71972089056E+01  0.32642789979E+02  0.00000000000E+00 0.  1.
</event>
<event>
 7    1  0.6246445E-012  0.5930194E+02  0.7816164E-02  0.1266605E+00
        -11   -1    0    0    0    0  0.00000000000E+00  0.00000000000E+00  0.45593999997E+02  0.45594000000E+02  0.51100000000E-03 0.  1.
         11   -1    0    0    0    0 -0.00000000000E+00 -0.00000000000E+00 -0.45593999997E+02  0.45594000000E+02  0.51100000000E-03 0. -1.
    9900012    2    1    2    0    0  0.26669023399E+01 -0.29947445269E+02  0.10618792679E+02  0.59301943420E+02  0.49999998892E+02 0.  0.
         12    1    1    2    0    0 -0.26669023399E+01  0.29947445269E+02 -0.10618792679E+02  0.31886056580E+02  0.00000000000E+00 0. -1.
         11    1    3    3    0    0 -0.33959401331E+01  0.64176468486E+00 -0.16387779613E+01  0.38249006217E+01  0.51100000000E-03 0.  1.
        -11    1    3    3    0    0 -0.71595900193E+01  0.94132113235E+00  0.19266474517E+02  0.20575297210E+02  0.51100000000E-03 0. -1.
         12    1    3    3    0    0  0.13222432492E+02 -0.31530531086E+02 -0.70089038764E+01  0.34901745589E+02  0.00000000000E+00 0. -1.
</event>
<event>
 7    1  0.6246445E-012  0.5930196E+02  0.7816164E-02  0.1266605E+00
        -11   -1    0    0    0    0  0.00000000000E+00  0.00000000000E+00  0.45593999997E+02  0.45594000000E+02  0.51100000000E-03 0.  1.
         11   -1    0    0    0    0 -0.00000000000E+00 -0.00000000000E+00 -0.45593999997E+02  0.45594000000E+02  0.51100000000E-03 0. -1.
    9900012    2    1    2    0    0  0.20071657134E+02 -0.16988735188E+02  0.18034164734E+02  0.59301958523E+02  0.50000026436E+02 0.  0.
         12    1    1    2    0    0 -0.20071657134E+02  0.16988735188E+02 -0.18034164734E+02  0.31886041477E+02  0.00000000000E+00 0. -1.
         11    1    3    3    0    0 -0.49434538495E+01 -0.10173768800E+01  0.61348873836E+00  0.50842069560E+01  0.51100000000E-03 0. -1.
        -11    1    3    3    0    0 -0.44545793093E+01  0.97889270266E+01 -0.12938958933E+01  0.10832383671E+02  0.51100000000E-03 0.  1.
        -12    1    3    3    0    0  0.29469690293E+02 -0.25760285335E+02  0.18714571889E+02  0.43385367896E+02  0.00000000000E+00 0.  1.
</event>
<event>
 7    1  0.6246445E-012  0.5930195E+02  0.7816164E-02  0.1266605E+00
        -11   -1    0    0    0    0  0.00000000000E+00  0.00000000000E+00  0.45593999997E+02  0.45594000000E+02  0.51100000000E-03 0.  1.
         11   -1    0    0    0    0 -0.00000000000E+00 -0.00000000000E+00 -0.45593999997E+02  0.45594000000E+02  0.51100000000E-03 0. -1.
    9900012    2    1    2    0    0 -0.18326156464E+02  0.22016148638E+02 -0.14005762444E+02  0.59301949864E+02  0.50000010645E+02 0.  0.
         12    1    1    2    0    0  0.18326156464E+02 -0.22016148638E+02  0.14005762444E+02  0.31886050136E+02  0.00000000000E+00 0. -1.
         11    1    3    3    0    0 -0.35017607987E+01  0.11474551319E+01 -0.77390920380E+01  0.85716117391E+01  0.51100000000E-03 0. -1.
        -11    1    3    3    0    0  0.48696934781E+01 -0.11308444101E+02  0.84055265231E+00  0.12341043375E+02  0.51100000000E-03 0.  1.
         12    1    3    3    0    0 -0.19694089143E+02  0.32177137608E+02 -0.71072230586E+01  0.38389294750E+02  0.00000000000E+00 0. -1.
</event>
<event>
 7    1  0.6246445E-012  0.5930194E+02  0.7816164E-02  0.1266605E+00
        -11   -1    0    0    0    0  0.00000000000E+00  0.00000000000E+00  0.45593999997E+02  0.45594000000E+02  0.51100000000E-03 0.  1.
         11   -1    0    0    0    0 -0.00000000000E+00 -0.00000000000E+00 -0.45593999997E+02  0.45594000000E+02  0.51100000000E-03 0. -1.
    9900012    2    1    2    0    0  0.73425516701E+00  0.31112169944E+02 -0.69436647290E+01  0.59301941461E+02  0.49999995320E+02 0.  0.
         12    1    1    2    0    0 -0.73425516701E+00 -0.31112169944E+02  0.69436647290E+01  0.31886058539E+02  0.00000000000E+00 0. -1.
         11    1    3    3    0    0 -0.25914861993E+00 -0.58178517769E+01 -0.44790512414E+01  0.73468671956E+01  0.51100000000E-03 0. -1.
        -11    1    3    3    0    0 -0.90443694387E+01  0.27150838991E+02  0.12697921392E+02  0.31308239880E+02  0.51100000000E-03 0.  1.
         12    1    3    3    0    0  0.10037773226E+02  0.97791827295E+01 -0.15162534879E+02  0.20646834386E+02  0.00000000000E+00 0. -1.
</event>
<event>
 7    1  0.6246445E-012  0.5930193E+02  0.7816164E-02  0.1266605E+00
        -11   -1    0    0    0    0  0.00000000000E+00  0.00000000000E+00  0.45593999997E+02  0.45594000000E+02  0.51100000000E-03 0.  1.
         11   -1    0    0    0    0 -0.00000000000E+00 -0.00000000000E+00 -0.45593999997E+02  0.45594000000E+02  0.51100000000E-03 0. -1.
    9900012    2    1    2    0    0 -0.30818135048E+02  0.81736231417E+01 -0.39462438514E+00  0.59301932643E+02  0.49999979237E+02 0.  0.
         12    1    1    2    0    0  0.30818135048E+02 -0.81736231417E+01  0.39462438514E+00  0.31886067357E+02  0.00000000000E+00 0. -1.
         11    1    3    3    0    0  0.52409683120E+01  0.10374925491E+02  0.16731949446E+00  0.11624750486E+02  0.51100000000E-03 0.  1.
        -11    1    3    3    0    0 -0.97949257726E+00  0.10362412969E+02 -0.36740770632E+00  0.10415085066E+02  0.51100000000E-03 0. -1.
        -12    1    3    3    0    0 -0.35079610783E+02 -0.12563715318E+02 -0.19453617328E+00  0.37262097091E+02  0.00000000000E+00 0.  1.
</event>
<event>
 7    1  0.6246445E-012  0.5930196E+02  0.7816164E-02  0.1266605E+00
        -11   -1    0    0    0    0  0.00000000000E+00  0.00000000000E+00  0.45593999997E+02  0.45594000000E+02  0.51100000000E-03 0. -1.
         11   -1    0    0    0    0 -0.00000000000E+00 -0.00000000000E+00 -0.45593999997E+02  0.45594000000E+02  0.51100000000E-03 0.  1.
    9900012    2    1    2    0    0 -0.28695917609E+02 -0.31789101627E+01 -0.13533610051E+02  0.59301956685E+02  0.50000023084E+02 0.  0.
         12    1    1    2    0    0  0.28695917609E+02  0.31789101627E+01  0.13533610051E+02  0.31886043315E+02  0.00000000000E+00 0. -1.
         11    1    3    3    0    0 -0.17683390144E+02  0.11744484122E+02 -0.16040341045E+02  0.26606911421E+02  0.51100000000E-03 0. -1.
        -11    1    3    3    0    0 -0.50722658659E+01 -0.11425134650E+01 -0.11214428578E+02  0.12361093262E+02  0.51100000000E-03 0.  1.
         12    1    3    3    0    0 -0.59402615995E+01 -0.13780880820E+02  0.13721159572E+02  0.20333952002E+02  0.00000000000E+00 0. -1.
</event>
<event>
 7    1  0.6246445E-012  0.5930197E+02  0.7816164E-02  0.1266605E+00
        -11   -1    0    0    0    0  0.00000000000E+00  0.00000000000E+00  0.45593999997E+02  0.45594000000E+02  0.51100000000E-03 0.  1.
         11   -1    0    0    0    0 -0.00000000000E+00 -0.00000000000E+00 -0.45593999997E+02  0.45594000000E+02  0.51100000000E-03 0. -1.
    9900012    2    1    2    0    0 -0.11920177060E+02 -0.13880848982E+02  0.26114176680E+02  0.59301971503E+02  0.50000050109E+02 0.  0.
         12    1    1    2    0    0  0.11920177060E+02  0.13880848982E+02 -0.26114176680E+02  0.31886028497E+02  0.00000000000E+00 0. -1.
         11    1    3    3    0    0 -0.23671325112E+01  0.53250828736E+01  0.49551956006E+01  0.76494305434E+01  0.51100000000E-03 0. -1.
        -11    1    3    3    0    0 -0.98121737053E+00  0.13307934439E+02  0.41757717825E+01  0.13982166385E+02  0.51100000000E-03 0.  1.
        -12    1    3    3    0    0 -0.85718271786E+01 -0.32513866294E+02  0.16983209297E+02  0.37670374575E+02  0.00000000000E+00 0.  1.
</event>
<event>
 7    1  0.6246445E-012  0.5930195E+02  0.7816164E-02  0.1266605E+00
        -11   -1    0    0    0    0  0.00000000000E+00  0.00000000000E+00  0.45593999997E+02  0.45594000000E+02  0.51100000000E-03 0. -1.
         11   -1    0    0    0    0 -0.00000000000E+00 -0.00000000000E+00 -0.45593999997E+02  0.45594000000E+02  0.51100000000E-03 0.  1.
    9900012    2    1    2    0    0 -0.28088127941E+02  0.67976268371E+01 -0.13474770870E+02  0.59301951141E+02  0.50000012972E+02 0.  0.
         12    1    1    2    0    0  0.28088127941E+02 -0.67976268371E+01  0.13474770870E+02  0.31886048859E+02  0.00000000000E+00 0. -1.
         11    1    3    3    0    0 -0.29216794685E+02  0.78502988504E+00 -0.17104344620E+01  0.29277345335E+02  0.51100000000E-03 0. -1.
        -11    1    3    3    0    0  0.12229974228E+01  0.15909735852E+02 -0.19317313606E+01  0.16073176534E+02  0.51100000000E-03 0.  1.
         12    1    3    3    0    0 -0.94330679091E-01 -0.98971389000E+01 -0.98326050477E+01  0.13951429271E+02  0.00000000000E+00 0. -1.
</event>
<event>
 7    1  0.6246445E-012  0.5930195E+02  0.7816164E-02  0.1266605E+00
        -11   -1    0    0    0    0  0.00000000000E+00  0.00000000000E+00  0.45593999997E+02  0.45594000000E+02  0.51100000000E-03 0. -1.
         11   -1    0    0    0    0 -0.00000000000E+00 -0.00000000000E+00 -0.45593999997E+02  0.45594000000E+02  0.51100000000E-03 0.  1.
    9900012    2    1    2    0    0  0.23072499184E+02  0.19146702309E+02 -0.10852826659E+02  0.59301948592E+02  0.50000008325E+02 0.  0.
         12    1    1    2    0    0 -0.23072499184E+02 -0.19146702309E+02  0.10852826659E+02  0.31886051408E+02  0.00000000000E+00 0. -1.
         11    1    3    3    0    0  0.96774426364E+00 -0.61115660565E+01 -0.11821584053E+02  0.13343073799E+02  0.51100000000E-03 0. -1.
        -11    1    3    3    0    0  0.17681891590E+02  0.53595294260E+01 -0.11783752179E+02  0.21914165774E+02  0.51100000000E-03 0.  1.
         12    1    3    3    0    0  0.44228633297E+01  0.19898738939E+02  0.12752509573E+02  0.24044709019E+02  0.00000000000E+00 0. -1.
</event>
<event>
 7    1  0.6246445E-012  0.5930195E+02  0.7816164E-02  0.1266605E+00
        -11   -1    0    0    0    0  0.00000000000E+00  0.00000000000E+00  0.45593999997E+02  0.45594000000E+02  0.51100000000E-03 0.  1.
         11   -1    0    0    0    0 -0.00000000000E+00 -0.00000000000E+00 -0.45593999997E+02  0.45594000000E+02  0.51100000000E-03 0. -1.
    9900012    2    1    2    0    0 -0.11150607413E+02  0.61334513211E+01  0.29236357801E+02  0.59301954647E+02  0.50000019367E+02 0.  0.
         12    1    1    2    0    0  0.11150607413E+02 -0.61334513211E+01 -0.29236357801E+02  0.31886045353E+02  0.00000000000E+00 0. -1.
         11    1    3    3    0    0 -0.36838013405E+01  0.19559832549E+02  0.16136746588E+02  0.25623271305E+02  0.51100000000E-03 0. -1.
        -11    1    3    3    0    0 -0.47702200425E+01  0.59609843144E+01 -0.31301173819E+01  0.82514222008E+01  0.51100000000E-03 0.  1.
        -12    1    3    3    0    0 -0.26965860299E+01 -0.19387365542E+02  0.16229728595E+02  0.25427261142E+02  0.00000000000E+00 0.  1.
</event>
<event>
 7    1  0.8875723E-012  0.5930195E+02  0.7816164E-02  0.1266605E+00
        -11   -1    0    0    0    0  0.00000000000E+00  0.00000000000E+00  0.45593999997E+02  0.45594000000E+02  0.51100000000E-03 0. -1.
         11   -1    0    0    0    0 -0.00000000000E+00 -0.00000000000E+00 -0.45593999997E+02  0.45594000000E+02  0.51100000000E-03 0.  1.
    9900012    2    1    2    0    0  0.41734450126E+01 -0.14654770298E+02 -0.28009650257E+02  0.59301945944E+02  0.50000003495E+02 0.  0.
         12    1    1    2    0    0 -0.41734450126E+01  0.14654770298E+02  0.28009650257E+02  0.31886054056E+02  0.00000000000E+00 0. -1.
         11    1    3    3    0    0  0.11540935663E+02 -0.14725469357E+02 -0.10957258049E+02  0.21681654641E+02  0.51100000000E-03 0. -1.
        -11    1    3    3    0    0 -0.12305287310E+02 -0.94099582595E+01 -0.21112293322E+02  0.26185804165E+02  0.51100000000E-03 0.  1.
         12    1    3    3    0    0  0.49377966592E+01  0.94806573181E+01  0.40599011146E+01  0.11434487137E+02  0.00000000000E+00 0. -1.
</event>
<event>
 7    1  0.6246445E-012  0.5930194E+02  0.7816164E-02  0.1266605E+00
        -11   -1    0    0    0    0  0.00000000000E+00  0.00000000000E+00  0.45593999997E+02  0.45594000000E+02  0.51100000000E-03 0.  1.
         11   -1    0    0    0    0 -0.00000000000E+00 -0.00000000000E+00 -0.45593999997E+02  0.45594000000E+02  0.51100000000E-03 0. -1.
    9900012    2    1    2    0    0 -0.67160248913E+01 -0.28006376684E+02  0.13684238353E+02  0.59301944982E+02  0.50000001740E+02 0.  0.
         12    1    1    2    0    0  0.67160248913E+01  0.28006376684E+02 -0.13684238353E+02  0.31886055018E+02  0.00000000000E+00 0. -1.
         11    1    3    3    0    0 -0.11227881710E+02 -0.17762206479E+02  0.51186990676E+01  0.21627815125E+02  0.51100000000E-03 0. -1.
        -11    1    3    3    0    0 -0.48895692529E+01 -0.20251821479E+02  0.11259082670E+02  0.23681450622E+02  0.51100000000E-03 0.  1.
        -12    1    3    3    0    0  0.94014260720E+01  0.10007651274E+02 -0.26935433854E+01  0.13992679235E+02  0.00000000000E+00 0.  1.
</event>
<event>
 7    1  0.6246445E-012  0.5930209E+02  0.7816164E-02  0.1266604E+00
        -11   -1    0    0    0    0  0.00000000000E+00  0.00000000000E+00  0.45593999997E+02  0.45594000000E+02  0.51100000000E-03 0.  1.
         11   -1    0    0    0    0 -0.00000000000E+00 -0.00000000000E+00 -0.45593999997E+02  0.45594000000E+02  0.51100000000E-03 0. -1.
    9900012    2    1    2    0    0  0.24438292212E+02  0.16091245916E+02  0.12670950927E+02  0.59302089025E+02  0.50000264439E+02 0.  0.
         12    1    1    2    0    0 -0.24438292212E+02 -0.16091245916E+02 -0.12670950927E+02  0.31885910975E+02  0.00000000000E+00 0. -1.
         11    1    3    3    0    0 -0.57774549841E+01  0.13627737007E+02  0.44299384863E+01  0.15450519644E+02  0.51100000000E-03 0.  1.
        -11    1    3    3    0    0  0.10010266533E+01  0.11226185811E+02  0.71182027085E+01  0.13330345543E+02  0.51100000000E-03 0. -1.
         12    1    3    3    0    0  0.29214720543E+02 -0.87626769021E+01  0.11228097320E+01  0.30521223838E+02  0.00000000000E+00 0. -1.
</event>
<event>
 7    1  0.6246445E-012  0.5930195E+02  0.7816164E-02  0.1266605E+00
        -11   -1    0    0    0    0  0.00000000000E+00  0.00000000000E+00  0.45593999997E+02  0.45594000000E+02  0.51100000000E-03 0.  1.
         11   -1    0    0    0    0 -0.00000000000E+00 -0.00000000000E+00 -0.45593999997E+02  0.45594000000E+02  0.51100000000E-03 0. -1.
    9900012    2    1    2    0    0  0.24587222818E+01  0.86168864903E+01  0.30601051798E+02  0.59301946321E+02  0.50000004183E+02 0.  0.
         12    1    1    2    0    0 -0.24587222818E+01 -0.86168864903E+01 -0.30601051798E+02  0.31886053679E+02  0.00000000000E+00 0. -1.
         11    1    3    3    0    0  0.80414962127E+01  0.11008757996E+01  0.41195641105E+02  0.41987598588E+02  0.51100000000E-03 0. -1.
        -11    1    3    3    0    0 -0.42560617116E+01  0.18044981290E+01  0.61526355800E+00  0.46635634763E+01  0.51100000000E-03 0.  1.
        -12    1    3    3    0    0 -0.13267122193E+01  0.57115125617E+01 -0.11209852865E+02  0.12650784257E+02  0.00000000000E+00 0.  1.
</event>
<event>
 7    1  0.6246445E-012  0.5930195E+02  0.7816164E-02  0.1266605E+00
        -11   -1    0    0    0    0  0.00000000000E+00  0.00000000000E+00  0.45593999997E+02  0.45594000000E+02  0.51100000000E-03 0.  1.
         11   -1    0    0    0    0 -0.00000000000E+00 -0.00000000000E+00 -0.45593999997E+02  0.45594000000E+02  0.51100000000E-03 0. -1.
    9900012    2    1    2    0    0  0.40860220543E+01  0.73658333088E+01  0.30753361196E+02  0.59301948169E+02  0.50000007552E+02 0.  0.
         12    1    1    2    0    0 -0.40860220543E+01 -0.73658333088E+01 -0.30753361196E+02  0.31886051831E+02  0.00000000000E+00 0. -1.
         11    1    3    3    0    0 -0.59898477779E+01 -0.79632429207E+01  0.89359737507E+01  0.13384436535E+02  0.51100000000E-03 0. -1.
        -11    1    3    3    0    0 -0.12618031562E+02 -0.12710311155E-01  0.99277563959E+01  0.16055380075E+02  0.51100000000E-03 0.  1.
        -12    1    3    3    0    0  0.22693901394E+02  0.15341786541E+02  0.11889631049E+02  0.29862131559E+02  0.00000000000E+00 0.  1.
</event>
<event>
 7    1  0.6246445E-012  0.5930197E+02  0.7816164E-02  0.1266605E+00
        -11   -1    0    0    0    0  0.00000000000E+00  0.00000000000E+00  0.45593999997E+02  0.45594000000E+02  0.51100000000E-03 0.  1.
         11   -1    0    0    0    0 -0.00000000000E+00 -0.00000000000E+00 -0.45593999997E+02  0.45594000000E+02  0.51100000000E-03 0. -1.
    9900012    2    1    2    0    0  0.11593940315E+02  0.28002327765E+02  0.99080324965E+01  0.59301969826E+02  0.50000047050E+02 0.  0.
         12    1    1    2    0    0 -0.11593940315E+02 -0.28002327765E+02 -0.99080324965E+01  0.31886030174E+02  0.00000000000E+00 0. -1.
         11    1    3    3    0    0 -0.59874746262E+01 -0.22096339196E+00  0.80069792721E+00  0.60448155184E+01  0.51100000000E-03 0. -1.
        -11    1    3    3    0    0 -0.12301039968E+02  0.81360879756E+01  0.89480034054E+01  0.17250457299E+02  0.51100000000E-03 0.  1.
        -12    1    3    3    0    0  0.29882454909E+02  0.20087203182E+02  0.15933116388E+00  0.36006697008E+02  0.00000000000E+00 0.  1.
</event>
<event>
 7    1  0.6246445E-012  0.5930195E+02  0.7816164E-02  0.1266605E+00
        -11   -1    0    0    0    0  0.00000000000E+00  0.00000000000E+00  0.45593999997E+02  0.45594000000E+02  0.51100000000E-03 0.  1.
         11   -1    0    0    0    0 -0.00000000000E+00 -0.00000000000E+00 -0.45593999997E+02  0.45594000000E+02  0.51100000000E-03 0. -1.
    9900012    2    1    2    0    0  0.30358375482E+01  0.77412015011E+01  0.30782745274E+02  0.59301954198E+02  0.50000018548E+02 0.  0.
         12    1    1    2    0    0 -0.30358375482E+01 -0.77412015011E+01 -0.30782745274E+02  0.31886045802E+02  0.00000000000E+00 0. -1.
         11    1    3    3    0    0  0.13078674624E+02  0.14618357345E+00 -0.22156273393E+01  0.13265824676E+02  0.51100000000E-03 0. -1.
        -11    1    3    3    0    0  0.70367785593E+01 -0.46607501885E+01  0.21566487225E+01  0.87114854523E+01  0.51100000000E-03 0.  1.
        -12    1    3    3    0    0 -0.17079615635E+02  0.12255768116E+02  0.30841723891E+02  0.37324644070E+02  0.00000000000E+00 0.  1.
</event>
<event>
 7    1  0.6246445E-012  0.5930197E+02  0.7816164E-02  0.1266605E+00
        -11   -1    0    0    0    0  0.00000000000E+00  0.00000000000E+00  0.45593999997E+02  0.45594000000E+02  0.51100000000E-03 0.  1.
         11   -1    0    0    0    0 -0.00000000000E+00 -0.00000000000E+00 -0.45593999997E+02  0.45594000000E+02  0.51100000000E-03 0. -1.
    9900012    2    1    2    0    0  0.17042349372E+02 -0.26629952515E+02 -0.41379493086E+01  0.59301973789E+02  0.50000054277E+02 0.  0.
         12    1    1    2    0    0 -0.17042349372E+02  0.26629952515E+02  0.41379493086E+01  0.31886026211E+02  0.00000000000E+00 0. -1.
         11    1    3    3    0    0  0.29508807774E+02 -0.89801664237E+01 -0.80193426561E+01  0.31870409193E+02  0.51100000000E-03 0. -1.
        -11    1    3    3    0    0  0.21955067302E+00 -0.99800358921E+01 -0.38659528319E+01  0.10704901236E+02  0.51100000000E-03 0.  1.
        -12    1    3    3    0    0 -0.12686009075E+02 -0.76697501987E+01  0.77473461794E+01  0.16726663360E+02  0.00000000000E+00 0.  1.
</event>
<event>
 7    1  0.6246445E-012  0.5930194E+02  0.7816164E-02  0.1266605E+00
        -11   -1    0    0    0    0  0.00000000000E+00  0.00000000000E+00  0.45593999997E+02  0.45594000000E+02  0.51100000000E-03 0.  1.
         11   -1    0    0    0    0 -0.00000000000E+00 -0.00000000000E+00 -0.45593999997E+02  0.45594000000E+02  0.51100000000E-03 0. -1.
    9900012    2    1    2    0    0  0.12871616710E+02  0.27910069181E+02 -0.84894365938E+01  0.59301937024E+02  0.49999987227E+02 0.  0.
         12    1    1    2    0    0 -0.12871616710E+02 -0.27910069181E+02  0.84894365938E+01  0.31886062976E+02  0.00000000000E+00 0. -1.
         11    1    3    3    0    0 -0.10479186436E+01  0.70026602261E+01  0.31164042501E+00  0.70874892410E+01  0.51100000000E-03 0. -1.
        -11    1    3    3    0    0  0.23620185153E+01  0.30075122530E+02 -0.17709069860E+02  0.34981470555E+02  0.51100000000E-03 0.  1.
         12    1    3    3    0    0  0.11557516839E+02 -0.91677135753E+01  0.89079928408E+01  0.17232977228E+02  0.00000000000E+00 0. -1.
</event>
<event>
 7    1  0.6246445E-012  0.5930196E+02  0.7816164E-02  0.1266605E+00
        -11   -1    0    0    0    0  0.00000000000E+00  0.00000000000E+00  0.45593999997E+02  0.45594000000E+02  0.51100000000E-03 0.  1.
         11   -1    0    0    0    0 -0.00000000000E+00 -0.00000000000E+00 -0.45593999997E+02  0.45594000000E+02  0.51100000000E-03 0. -1.
    9900012    2    1    2    0    0 -0.16732232360E+02 -0.26218932289E+01  0.27016245047E+02  0.59301961985E+02  0.50000032750E+02 0.  0.
         12    1    1    2    0    0  0.16732232360E+02  0.26218932289E+01 -0.27016245047E+02  0.31886038015E+02  0.00000000000E+00 0. -1.
         11    1    3    3    0    0  0.24945543636E+00  0.82502131380E+01 -0.20107539262E+00  0.82564324264E+01  0.51100000000E-03 0. -1.
        -11    1    3    3    0    0 -0.26466492873E+02 -0.20795565184E+01  0.77184565848E+01  0.27647321256E+02  0.51100000000E-03 0.  1.
         12    1    3    3    0    0  0.94848050765E+01 -0.87925498484E+01  0.19498863855E+02  0.23398208303E+02  0.00000000000E+00 0. -1.
</event>
<event>
 7    1  0.6246445E-012  0.5930194E+02  0.7816164E-02  0.1266605E+00
        -11   -1    0    0    0    0  0.00000000000E+00  0.00000000000E+00  0.45593999997E+02  0.45594000000E+02  0.51100000000E-03 0. -1.
         11   -1    0    0    0    0 -0.00000000000E+00 -0.00000000000E+00 -0.45593999997E+02  0.45594000000E+02  0.51100000000E-03 0.  1.
    9900012    2    1    2    0    0  0.77534802945E+01 -0.19760884810E+02 -0.23793099008E+02  0.59301943713E+02  0.49999999426E+02 0.  0.
         12    1    1    2    0    0 -0.77534802945E+01  0.19760884810E+02  0.23793099008E+02  0.31886056287E+02  0.00000000000E+00 0. -1.
         11    1    3    3    0    0  0.13094351806E+01 -0.10662790408E+02 -0.10872425379E+02  0.15284611662E+02  0.51100000000E-03 0. -1.
        -11    1    3    3    0    0  0.26986943968E+01 -0.22293983462E+02 -0.18611452710E+02  0.29166604573E+02  0.51100000000E-03 0.  1.
         12    1    3    3    0    0  0.37453507171E+01  0.13195889060E+02  0.56907790820E+01  0.14850727478E+02  0.00000000000E+00 0. -1.
</event>
<event>
 7    1  0.6246445E-012  0.5930196E+02  0.7816164E-02  0.1266605E+00
        -11   -1    0    0    0    0  0.00000000000E+00  0.00000000000E+00  0.45593999997E+02  0.45594000000E+02  0.51100000000E-03 0.  1.
         11   -1    0    0    0    0 -0.00000000000E+00 -0.00000000000E+00 -0.45593999997E+02  0.45594000000E+02  0.51100000000E-03 0. -1.
    9900012    2    1    2    0    0  0.28267854672E+02 -0.98328343507E+01  0.10998334422E+02  0.59301959179E+02  0.50000027633E+02 0.  0.
         12    1    1    2    0    0 -0.28267854672E+02  0.98328343507E+01 -0.10998334422E+02  0.31886040821E+02  0.00000000000E+00 0. -1.
         11    1    3    3    0    0 -0.79277780033E+01  0.29247877058E+01 -0.86350737670E+01  0.12081744345E+02  0.51100000000E-03 0. -1.
        -11    1    3    3    0    0  0.27191762153E+01  0.32272244936E+01 -0.15563736514E+01  0.44979102288E+01  0.51100000000E-03 0.  1.
        -12    1    3    3    0    0  0.33476456460E+02 -0.15984846550E+02  0.21189781841E+02  0.42722304606E+02  0.00000000000E+00 0.  1.
</event>
<event>
 7    1  0.6246445E-012  0.5930198E+02  0.7816164E-02  0.1266605E+00
        -11   -1    0    0    0    0  0.00000000000E+00  0.00000000000E+00  0.45593999997E+02  0.45594000000E+02  0.51100000000E-03 0.  1.
         11   -1    0    0    0    0 -0.00000000000E+00 -0.00000000000E+00 -0.45593999997E+02  0.45594000000E+02  0.51100000000E-03 0. -1.
    9900012    2    1    2    0    0 -0.20254146763E+02 -0.24596126938E+02 -0.12321705466E+01  0.59301981658E+02  0.50000068629E+02 0.  0.
         12    1    1    2    0    0  0.20254146763E+02  0.24596126938E+02  0.12321705466E+01  0.31886018342E+02  0.00000000000E+00 0. -1.
         11    1    3    3    0    0 -0.40852343185E+01  0.24836441263E+01 -0.12061397156E+02  0.12974395138E+02  0.51100000000E-03 0. -1.
        -11    1    3    3    0    0  0.56336809391E+01  0.38105471634E+01 -0.60142098671E+00  0.68279087628E+01  0.51100000000E-03 0.  1.
        -12    1    3    3    0    0 -0.21802593383E+02 -0.30890318228E+02  0.11430647596E+02  0.39499677757E+02  0.00000000000E+00 0.  1.
</event>
<event>
 7    1  0.6246445E-012  0.5930194E+02  0.7816164E-02  0.1266605E+00
        -11   -1    0    0    0    0  0.00000000000E+00  0.00000000000E+00  0.45593999997E+02  0.45594000000E+02  0.51100000000E-03 0.  1.
         11   -1    0    0    0    0 -0.00000000000E+00 -0.00000000000E+00 -0.45593999997E+02  0.45594000000E+02  0.51100000000E-03 0. -1.
    9900012    2    1    2    0    0  0.22814898819E+02  0.10668732409E+01  0.22250006207E+02  0.59301943442E+02  0.49999998931E+02 0.  0.
         12    1    1    2    0    0 -0.22814898819E+02 -0.10668732409E+01 -0.22250006207E+02  0.31886056558E+02  0.00000000000E+00 0. -1.
         11    1    3    3    0    0 -0.10173200813E+02 -0.63666660360E+00  0.95366786914E+01  0.13958782177E+02  0.51100000000E-03 0. -1.
        -11    1    3    3    0    0  0.14435290190E+02 -0.13193081667E+02  0.37174350144E+01  0.19906138000E+02  0.51100000000E-03 0.  1.
         12    1    3    3    0    0  0.18552809442E+02  0.14896621511E+02  0.89958925010E+01  0.25437023264E+02  0.00000000000E+00 0. -1.
</event>
<event>
 7    1  0.6246445E-012  0.5930195E+02  0.7816164E-02  0.1266605E+00
        -11   -1    0    0    0    0  0.00000000000E+00  0.00000000000E+00  0.45593999997E+02  0.45594000000E+02  0.51100000000E-03 0.  1.
         11   -1    0    0    0    0 -0.00000000000E+00 -0.00000000000E+00 -0.45593999997E+02  0.45594000000E+02  0.51100000000E-03 0. -1.
    9900012    2    1    2    0    0  0.12212329261E+02 -0.13771701607E+02  0.26036888899E+02  0.59301947647E+02  0.50000006601E+02 0.  0.
         12    1    1    2    0    0 -0.12212329261E+02  0.13771701607E+02 -0.26036888899E+02  0.31886052353E+02  0.00000000000E+00 0. -1.
         11    1    3    3    0    0  0.15037615337E+01 -0.13662384486E+02  0.71741093687E+01  0.15504512056E+02  0.51100000000E-03 0. -1.
        -11    1    3    3    0    0  0.12521363730E+02 -0.10560300582E+02  0.26200741407E+02  0.30899568745E+02  0.51100000000E-03 0.  1.
        -12    1    3    3    0    0 -0.18127960030E+01  0.10450983462E+02 -0.73379618772E+01  0.12897866846E+02  0.00000000000E+00 0.  1.
</event>
<event>
 7    1  0.6246445E-012  0.5930199E+02  0.7816164E-02  0.1266605E+00
        -11   -1    0    0    0    0  0.00000000000E+00  0.00000000000E+00  0.45593999997E+02  0.45594000000E+02  0.51100000000E-03 0.  1.
         11   -1    0    0    0    0 -0.00000000000E+00 -0.00000000000E+00 -0.45593999997E+02  0.45594000000E+02  0.51100000000E-03 0. -1.
    9900012    2    1    2    0    0 -0.65497391313E+01 -0.95319125063E+01  0.29714665648E+02  0.59301987498E+02  0.50000079279E+02 0.  0.
         12    1    1    2    0    0  0.65497391313E+01  0.95319125063E+01 -0.29714665648E+02  0.31886012502E+02  0.00000000000E+00 0. -1.
         11    1    3    3    0    0 -0.37047986482E+01  0.10223745845E+02  0.96444275439E+01  0.14534974889E+02  0.51100000000E-03 0. -1.
        -11    1    3    3    0    0  0.26010852845E+01  0.34397041842E+01 -0.73002776977E+01  0.84788716381E+01  0.51100000000E-03 0.  1.
        -12    1    3    3    0    0 -0.54460257676E+01 -0.23195362535E+02  0.27370515802E+02  0.36288140970E+02  0.00000000000E+00 0.  1.
</event>
<event>
 7    1  0.6246445E-012  0.5930197E+02  0.7816164E-02  0.1266605E+00
        -11   -1    0    0    0    0  0.00000000000E+00  0.00000000000E+00  0.45593999997E+02  0.45594000000E+02  0.51100000000E-03 0. -1.
         11   -1    0    0    0    0 -0.00000000000E+00 -0.00000000000E+00 -0.45593999997E+02  0.45594000000E+02  0.51100000000E-03 0.  1.
    9900012    2    1    2    0    0 -0.13871503377E+02  0.78266321792E+01 -0.27623251971E+02  0.59301971294E+02  0.50000049727E+02 0.  0.
         12    1    1    2    0    0  0.13871503377E+02 -0.78266321792E+01  0.27623251971E+02  0.31886028706E+02  0.00000000000E+00 0. -1.
         11    1    3    3    0    0  0.34815417145E+01  0.21690303366E+02 -0.62563241983E+01  0.22841453228E+02  0.51100000000E-03 0. -1.
        -11    1    3    3    0    0  0.22529350296E+01 -0.85846986391E+01 -0.92321224241E+01  0.12806437900E+02  0.51100000000E-03 0.  1.
        -12    1    3    3    0    0 -0.19605980121E+02 -0.52789725477E+01 -0.12134805349E+02  0.23654080166E+02  0.00000000000E+00 0.  1.
</event>
<event>
 7    1  0.6246445E-012  0.5930196E+02  0.7816164E-02  0.1266605E+00
        -11   -1    0    0    0    0  0.00000000000E+00  0.00000000000E+00  0.45593999997E+02  0.45594000000E+02  0.51100000000E-03 0.  1.
         11   -1    0    0    0    0 -0.00000000000E+00 -0.00000000000E+00 -0.45593999997E+02  0.45594000000E+02  0.51100000000E-03 0. -1.
    9900012    2    1    2    0    0  0.14880134386E+01 -0.12435731314E+02  0.29323333079E+02  0.59301961360E+02  0.50000031609E+02 0.  0.
         12    1    1    2    0    0 -0.14880134386E+01  0.12435731314E+02 -0.29323333079E+02  0.31886038640E+02  0.00000000000E+00 0. -1.
         11    1    3    3    0    0  0.16051002293E+02 -0.43269660421E+01  0.25656833046E+01  0.16820821645E+02  0.51100000000E-03 0. -1.
        -11    1    3    3    0    0 -0.57487060128E+01 -0.48346765064E+01 -0.52217097285E+01  0.91481129471E+01  0.51100000000E-03 0.  1.
        -12    1    3    3    0    0 -0.88142828415E+01 -0.32740887659E+01  0.31979359503E+02  0.33333026767E+02  0.00000000000E+00 0.  1.
</event>
<event>
 7    1  0.6246445E-012  0.5930195E+02  0.7816164E-02  0.1266605E+00
        -11   -1    0    0    0    0  0.00000000000E+00  0.00000000000E+00  0.45593999997E+02  0.45594000000E+02  0.51100000000E-03 0.  1.
         11   -1    0    0    0    0 -0.00000000000E+00 -0.00000000000E+00 -0.45593999997E+02  0.45594000000E+02  0.51100000000E-03 0. -1.
    9900012    2    1    2    0    0 -0.27843056004E+02  0.52229725979E+01  0.14635745979E+02  0.59301948649E+02  0.50000008429E+02 0.  0.
         12    1    1    2    0    0  0.27843056004E+02 -0.52229725979E+01 -0.14635745979E+02  0.31886051351E+02  0.00000000000E+00 0. -1.
         11    1    3    3    0    0  0.21156014796E+00  0.17954684205E+02  0.19413728684E+00  0.17956980039E+02  0.51100000000E-03 0. -1.
        -11    1    3    3    0    0 -0.65505512536E+01  0.54584810685E+01  0.94713581054E+01  0.12744071638E+02  0.51100000000E-03 0.  1.
         12    1    3    3    0    0 -0.21504064898E+02 -0.18190192675E+02  0.49702505864E+01  0.28600896972E+02  0.00000000000E+00 0. -1.
</event>
<event>
 7    1  0.6246445E-012  0.5930195E+02  0.7816164E-02  0.1266605E+00
        -11   -1    0    0    0    0  0.00000000000E+00  0.00000000000E+00  0.45593999997E+02  0.45594000000E+02  0.51100000000E-03 0.  1.
         11   -1    0    0    0    0 -0.00000000000E+00 -0.00000000000E+00 -0.45593999997E+02  0.45594000000E+02  0.51100000000E-03 0. -1.
    9900012    2    1    2    0    0  0.13738076103E+02 -0.28760696943E+02 -0.89874524901E+00  0.59301950281E+02  0.50000011404E+02 0.  0.
         12    1    1    2    0    0 -0.13738076103E+02  0.28760696943E+02  0.89874524901E+00  0.31886049719E+02  0.00000000000E+00 0. -1.
         11    1    3    3    0    0 -0.27457510944E+01 -0.21179517530E+02  0.75009729098E+01  0.22635717500E+02  0.51100000000E-03 0. -1.
        -11    1    3    3    0    0  0.40779523311E+01 -0.17618337414E+02  0.10602689675E+01  0.18115178139E+02  0.51100000000E-03 0.  1.
         12    1    3    3    0    0  0.12405874866E+02  0.10037158000E+02 -0.94599871263E+01  0.18551054643E+02  0.00000000000E+00 0. -1.
</event>
<event>
 7    1  0.6246445E-012  0.5930197E+02  0.7816164E-02  0.1266605E+00
        -11   -1    0    0    0    0  0.00000000000E+00  0.00000000000E+00  0.45593999997E+02  0.45594000000E+02  0.51100000000E-03 0. -1.
         11   -1    0    0    0    0 -0.00000000000E+00 -0.00000000000E+00 -0.45593999997E+02  0.45594000000E+02  0.51100000000E-03 0.  1.
    9900012    2    1    2    0    0 -0.18988792286E+02  0.23759479693E+02 -0.95724641914E+01  0.59301965777E+02  0.50000039666E+02 0.  0.
         12    1    1    2    0    0  0.18988792286E+02 -0.23759479693E+02  0.95724641914E+01  0.31886034223E+02  0.00000000000E+00 0. -1.
         11    1    3    3    0    0 -0.14260965790E+02 -0.74544634913E+00 -0.50770867684E+00  0.14289457788E+02  0.51100000000E-03 0. -1.
        -11    1    3    3    0    0  0.10377998066E+02  0.87020933750E+01  0.93263911298E+01  0.16444173580E+02  0.51100000000E-03 0.  1.
        -12    1    3    3    0    0 -0.15105824563E+02  0.15802832667E+02 -0.18391146644E+02  0.28568334409E+02  0.00000000000E+00 0.  1.
</event>
<event>
 7    1  0.6246445E-012  0.5930194E+02  0.7816164E-02  0.1266605E+00
        -11   -1    0    0    0    0  0.00000000000E+00  0.00000000000E+00  0.45593999997E+02  0.45594000000E+02  0.51100000000E-03 0.  1.
         11   -1    0    0    0    0 -0.00000000000E+00 -0.00000000000E+00 -0.45593999997E+02  0.45594000000E+02  0.51100000000E-03 0. -1.
    9900012    2    1    2    0    0  0.93203471742E+01  0.22298301148E+02  0.20799948000E+02  0.59301938119E+02  0.49999989223E+02 0.  0.
         12    1    1    2    0    0 -0.93203471742E+01 -0.22298301148E+02 -0.20799948000E+02  0.31886061881E+02  0.00000000000E+00 0. -1.
         11    1    3    3    0    0 -0.81615895276E+01  0.74470918872E+01 -0.82562138059E+01  0.13792599025E+02  0.51100000000E-03 0. -1.
        -11    1    3    3    0    0  0.14597797311E+02  0.14605807084E+02  0.49566403668E+01  0.21236609214E+02  0.51100000000E-03 0.  1.
        -12    1    3    3    0    0  0.28841393908E+01  0.24540217666E+00  0.24099521439E+02  0.24272729880E+02  0.00000000000E+00 0.  1.
</event>
<event>
 7    1  0.6246445E-012  0.5930194E+02  0.7816164E-02  0.1266605E+00
        -11   -1    0    0    0    0  0.00000000000E+00  0.00000000000E+00  0.45593999997E+02  0.45594000000E+02  0.51100000000E-03 0.  1.
         11   -1    0    0    0    0 -0.00000000000E+00 -0.00000000000E+00 -0.45593999997E+02  0.45594000000E+02  0.51100000000E-03 0. -1.
    9900012    2    1    2    0    0  0.37542612291E+01  0.51453992063E+01  0.31243423703E+02  0.59301935096E+02  0.49999983711E+02 0.  0.
         12    1    1    2    0    0 -0.37542612291E+01 -0.51453992063E+01 -0.31243423703E+02  0.31886064904E+02  0.00000000000E+00 0. -1.
         11    1    3    3    0    0  0.11993828680E+02  0.13646353060E+02  0.10648427904E+02  0.21058582463E+02  0.51100000000E-03 0. -1.
        -11    1    3    3    0    0  0.10678411893E+02 -0.31167243962E+01  0.22547957829E+01  0.11350178668E+02  0.51100000000E-03 0.  1.
        -12    1    3    3    0    0 -0.18917979344E+02 -0.53842294578E+01  0.18340200016E+02  0.26893173965E+02  0.00000000000E+00 0.  1.
</event>
<event>
 7    1  0.6246445E-012  0.5930197E+02  0.7816164E-02  0.1266605E+00
        -11   -1    0    0    0    0  0.00000000000E+00  0.00000000000E+00  0.45593999997E+02  0.45594000000E+02  0.51100000000E-03 0.  1.
         11   -1    0    0    0    0 -0.00000000000E+00 -0.00000000000E+00 -0.45593999997E+02  0.45594000000E+02  0.51100000000E-03 0. -1.
    9900012    2    1    2    0    0  0.26859918355E+02  0.10914780653E+02  0.13271434581E+02  0.59301974431E+02  0.50000055448E+02 0.  0.
         12    1    1    2    0    0 -0.26859918355E+02 -0.10914780653E+02 -0.13271434581E+02  0.31886025569E+02  0.00000000000E+00 0. -1.
         11    1    3    3    0    0  0.75128283080E+01 -0.14656582947E+02  0.11065636529E+02  0.19842034294E+02  0.51100000000E-03 0. -1.
        -11    1    3    3    0    0  0.10219885578E+02  0.71468255311E+01  0.11437178615E+02  0.16921354299E+02  0.51100000000E-03 0.  1.
        -12    1    3    3    0    0  0.91272044697E+01  0.18424538069E+02 -0.92313805623E+01  0.22538585838E+02  0.00000000000E+00 0.  1.
</event>
<event>
 7    1  0.6246445E-012  0.5930194E+02  0.7816164E-02  0.1266605E+00
        -11   -1    0    0    0    0  0.00000000000E+00  0.00000000000E+00  0.45593999997E+02  0.45594000000E+02  0.51100000000E-03 0.  1.
         11   -1    0    0    0    0 -0.00000000000E+00 -0.00000000000E+00 -0.45593999997E+02  0.45594000000E+02  0.51100000000E-03 0. -1.
    9900012    2    1    2    0    0 -0.84157021432E+01  0.74600362344E+01  0.29836969614E+02  0.59301938171E+02  0.49999989320E+02 0.  0.
         12    1    1    2    0    0  0.84157021432E+01 -0.74600362344E+01 -0.29836969614E+02  0.31886061829E+02  0.00000000000E+00 0. -1.
         11    1    3    3    0    0  0.71129583687E+01 -0.11164365711E+02  0.94696900534E+00  0.13271548103E+02  0.51100000000E-03 0. -1.
        -11    1    3    3    0    0 -0.66856165436E+01 -0.27879097197E+00 -0.34599277924E+01  0.75330135778E+01  0.51100000000E-03 0.  1.
        -12    1    3    3    0    0 -0.88430439683E+01  0.18903192918E+02  0.32349928401E+02  0.38497376491E+02  0.00000000000E+00 0.  1.
</event>
<event>
 7    1  0.6246445E-012  0.5930196E+02  0.7816164E-02  0.1266605E+00
        -11   -1    0    0    0    0  0.00000000000E+00  0.00000000000E+00  0.45593999997E+02  0.45594000000E+02  0.51100000000E-03 0. -1.
         11   -1    0    0    0    0 -0.00000000000E+00 -0.00000000000E+00 -0.45593999997E+02  0.45594000000E+02  0.51100000000E-03 0.  1.
    9900012    2    1    2    0    0  0.38892754153E+00 -0.15246435132E+02 -0.28002042390E+02  0.59301961882E+02  0.50000032562E+02 0.  0.
         12    1    1    2    0    0 -0.38892754153E+00  0.15246435132E+02  0.28002042390E+02  0.31886038118E+02  0.00000000000E+00 0. -1.
         11    1    3    3    0    0  0.57214418263E+01 -0.75804395310E+01  0.81924326680E+01  0.12542484337E+02  0.51100000000E-03 0. -1.
        -11    1    3    3    0    0 -0.16040589203E+02 -0.48152209511E+01 -0.13526308857E+02  0.21527839797E+02  0.51100000000E-03 0.  1.
        -12    1    3    3    0    0  0.10708074918E+02 -0.28507746500E+01 -0.22668166201E+02  0.25231637748E+02  0.00000000000E+00 0.  1.
</event>
<event>
 7    1  0.6246445E-012  0.5930196E+02  0.7816164E-02  0.1266605E+00
        -11   -1    0    0    0    0  0.00000000000E+00  0.00000000000E+00  0.45593999997E+02  0.45594000000E+02  0.51100000000E-03 0.  1.
         11   -1    0    0    0    0 -0.00000000000E+00 -0.00000000000E+00 -0.45593999997E+02  0.45594000000E+02  0.51100000000E-03 0. -1.
    9900012    2    1    2    0    0  0.11456865166E+02  0.27289401843E+01  0.29631273556E+02  0.59301964710E+02  0.50000037720E+02 0.  0.
         12    1    1    2    0    0 -0.11456865166E+02 -0.27289401843E+01 -0.29631273556E+02  0.31886035290E+02  0.00000000000E+00 0. -1.
         11    1    3    3    0    0  0.21994752266E+02  0.50821992362E+01  0.74793000758E+01  0.23781038796E+02  0.51100000000E-03 0. -1.
        -11    1    3    3    0    0  0.84630007989E+01 -0.50574226113E+00  0.88333760234E+01  0.12243638756E+02  0.51100000000E-03 0.  1.
         12    1    3    3    0    0 -0.19000887899E+02 -0.18475167907E+01  0.13318597456E+02  0.23277287158E+02  0.00000000000E+00 0. -1.
</event>
<event>
 7    1  0.6246445E-012  0.5930190E+02  0.7816164E-02  0.1266605E+00
        -11   -1    0    0    0    0  0.00000000000E+00  0.00000000000E+00  0.45593999997E+02  0.45594000000E+02  0.51100000000E-03 0. -1.
         11   -1    0    0    0    0 -0.00000000000E+00 -0.00000000000E+00 -0.45593999997E+02  0.45594000000E+02  0.51100000000E-03 0.  1.
    9900012    2    1    2    0    0  0.34275516104E+01 -0.40462216268E+01 -0.31442060535E+02  0.59301902870E+02  0.49999924937E+02 0.  0.
         12    1    1    2    0    0 -0.34275516104E+01  0.40462216268E+01  0.31442060535E+02  0.31886097130E+02  0.00000000000E+00 0. -1.
         11    1    3    3    0    0 -0.15335285824E+02  0.38096965940E+00 -0.15055147061E+02  0.21493570725E+02  0.51100000000E-03 0. -1.
        -11    1    3    3    0    0 -0.15887526994E+01 -0.11443737688E+02 -0.15351203348E+01  0.11655035912E+02  0.51100000000E-03 0.  1.
        -12    1    3    3    0    0  0.20351590134E+02  0.70165464018E+01 -0.14851793139E+02  0.26153296233E+02  0.00000000000E+00 0.  1.
</event>
<event>
 7    1  0.6246445E-012  0.5930201E+02  0.7816164E-02  0.1266605E+00
        -11   -1    0    0    0    0  0.00000000000E+00  0.00000000000E+00  0.45593999997E+02  0.45594000000E+02  0.51100000000E-03 0.  1.
         11   -1    0    0    0    0 -0.00000000000E+00 -0.00000000000E+00 -0.45593999997E+02  0.45594000000E+02  0.51100000000E-03 0. -1.
    9900012    2    1    2    0    0  0.18257125416E+02  0.11646348348E+02  0.23404197905E+02  0.59302007184E+02  0.50000115181E+02 0.  0.
         12    1    1    2    0    0 -0.18257125416E+02 -0.11646348348E+02 -0.23404197905E+02  0.31885992816E+02  0.00000000000E+00 0. -1.
         11    1    3    3    0    0  0.23366275818E+02  0.13023999123E+02  0.65044663482E+01  0.27530264828E+02  0.51100000000E-03 0. -1.
        -11    1    3    3    0    0  0.44357776803E+01 -0.10259442575E+02  0.10177876261E+01  0.11223554584E+02  0.51100000000E-03 0.  1.
         12    1    3    3    0    0 -0.95449280827E+01  0.88817918001E+01  0.15881943931E+02  0.20548187772E+02  0.00000000000E+00 0. -1.
</event>
<event>
 7    1  0.6246445E-012  0.5930194E+02  0.7816164E-02  0.1266605E+00
        -11   -1    0    0    0    0  0.00000000000E+00  0.00000000000E+00  0.45593999997E+02  0.45594000000E+02  0.51100000000E-03 0.  1.
         11   -1    0    0    0    0 -0.00000000000E+00 -0.00000000000E+00 -0.45593999997E+02  0.45594000000E+02  0.51100000000E-03 0. -1.
    9900012    2    1    2    0    0  0.22157863484E+01  0.30312074262E+02  0.96430914510E+01  0.59301940853E+02  0.49999994210E+02 0.  0.
         12    1    1    2    0    0 -0.22157863484E+01 -0.30312074262E+02 -0.96430914510E+01  0.31886059147E+02  0.00000000000E+00 0. -1.
         11    1    3    3    0    0 -0.60520227100E+01 -0.12372901553E+02  0.23527558770E+01  0.13973229126E+02  0.51100000000E-03 0. -1.
        -11    1    3    3    0    0  0.49326677044E+01  0.63171547614E+01 -0.33039440175E+00  0.80216466940E+01  0.51100000000E-03 0.  1.
        -12    1    3    3    0    0  0.33351413540E+01  0.36367821053E+02  0.76207299758E+01  0.37307065033E+02  0.00000000000E+00 0.  1.
</event>
<event>
 7    1  0.6246445E-012  0.5930234E+02  0.7816164E-02  0.1266603E+00
        -11   -1    0    0    0    0  0.00000000000E+00  0.00000000000E+00  0.45593999997E+02  0.45594000000E+02  0.51100000000E-03 0.  1.
         11   -1    0    0    0    0 -0.00000000000E+00 -0.00000000000E+00 -0.45593999997E+02  0.45594000000E+02  0.51100000000E-03 0. -1.
    9900012    2    1    2    0    0 -0.24178347686E+02  0.19938522370E+02  0.58786260434E+01  0.59302338406E+02  0.50000719246E+02 0.  0.
         12    1    1    2    0    0  0.24178347686E+02 -0.19938522370E+02 -0.58786260434E+01  0.31885661594E+02  0.00000000000E+00 0. -1.
         11    1    3    3    0    0 -0.13344505827E+02  0.30622530629E+02 -0.61024113714E+00  0.33409394074E+02  0.51100000000E-03 0. -1.
        -11    1    3    3    0    0 -0.78338658724E+01  0.37606529523E+01  0.69585976828E+01  0.11132566959E+02  0.51100000000E-03 0.  1.
        -12    1    3    3    0    0 -0.29999759865E+01 -0.14444661211E+02 -0.46973050229E+00  0.14760377372E+02  0.00000000000E+00 0.  1.
</event>
<event>
 7    1  0.6246445E-012  0.5930195E+02  0.7816164E-02  0.1266605E+00
        -11   -1    0    0    0    0  0.00000000000E+00  0.00000000000E+00  0.45593999997E+02  0.45594000000E+02  0.51100000000E-03 0.  1.
         11   -1    0    0    0    0 -0.00000000000E+00 -0.00000000000E+00 -0.45593999997E+02  0.45594000000E+02  0.51100000000E-03 0. -1.
    9900012    2    1    2    0    0  0.25167768748E+02  0.18755422508E+02 -0.56158709248E+01  0.59301945627E+02  0.50000002917E+02 0.  0.
         12    1    1    2    0    0 -0.25167768748E+02 -0.18755422508E+02  0.56158709248E+01  0.31886054373E+02  0.00000000000E+00 0. -1.
         11    1    3    3    0    0  0.52717651730E+01  0.23221493092E+02 -0.19767061613E+02  0.30947794340E+02  0.51100000000E-03 0. -1.
        -11    1    3    3    0    0  0.59349137237E+01  0.40019813511E+01  0.68817974133E+00  0.71911506214E+01  0.51100000000E-03 0.  1.
        -12    1    3    3    0    0  0.13961089852E+02 -0.84680519345E+01  0.13463010947E+02  0.21163000666E+02  0.00000000000E+00 0.  1.
</event>
<event>
 7    1  0.6246445E-012  0.5930196E+02  0.7816164E-02  0.1266605E+00
        -11   -1    0    0    0    0  0.00000000000E+00  0.00000000000E+00  0.45593999997E+02  0.45594000000E+02  0.51100000000E-03 0. -1.
         11   -1    0    0    0    0 -0.00000000000E+00 -0.00000000000E+00 -0.45593999997E+02  0.45594000000E+02  0.51100000000E-03 0.  1.
    9900012    2    1    2    0    0 -0.18995847057E+02  0.21133093251E+02 -0.14466166035E+02  0.59301956101E+02  0.50000022020E+02 0.  0.
         12    1    1    2    0    0  0.18995847057E+02 -0.21133093251E+02  0.14466166035E+02  0.31886043899E+02  0.00000000000E+00 0. -1.
         11    1    3    3    0    0  0.78732881082E+00  0.56824381403E+01 -0.89517729616E+01  0.10632225980E+02  0.51100000000E-03 0. -1.
        -11    1    3    3    0    0 -0.84954584719E+01  0.12542697015E+02 -0.23068553563E+02  0.27598011284E+02  0.51100000000E-03 0.  1.
         12    1    3    3    0    0 -0.11287717395E+02  0.29079580955E+01  0.17554160490E+02  0.21071718838E+02  0.00000000000E+00 0. -1.
</event>
<event>
 7    1  0.6863412E-012  0.5930195E+02  0.7816164E-02  0.1266605E+00
        -11   -1    0    0    0    0  0.00000000000E+00  0.00000000000E+00  0.45593999997E+02  0.45594000000E+02  0.51100000000E-03 0.  1.
         11   -1    0    0    0    0 -0.00000000000E+00 -0.00000000000E+00 -0.45593999997E+02  0.45594000000E+02  0.51100000000E-03 0. -1.
    9900012    2    1    2    0    0  0.19037999596E+01 -0.31742208736E+02 -0.23511846427E+01  0.59301947580E+02  0.50000006478E+02 0.  0.
         12    1    1    2    0    0 -0.19037999596E+01  0.31742208736E+02  0.23511846427E+01  0.31886052420E+02  0.00000000000E+00 0. -1.
         11    1    3    3    0    0 -0.48415149392E+01 -0.22599843279E+02 -0.10572699201E+02  0.25416041229E+02  0.51100000000E-03 0. -1.
        -11    1    3    3    0    0 -0.35443719478E+01 -0.17633027608E+02 -0.42084065168E+00  0.17990645965E+02  0.51100000000E-03 0.  1.
         12    1    3    3    0    0  0.10289686847E+02  0.84906621507E+01  0.86423552096E+01  0.15895260386E+02  0.00000000000E+00 0. -1.
</event>
<event>
 7    1  0.6246445E-012  0.5930202E+02  0.7816164E-02  0.1266605E+00
        -11   -1    0    0    0    0  0.00000000000E+00  0.00000000000E+00  0.45593999997E+02  0.45594000000E+02  0.51100000000E-03 0.  1.
         11   -1    0    0    0    0 -0.00000000000E+00 -0.00000000000E+00 -0.45593999997E+02  0.45594000000E+02  0.51100000000E-03 0. -1.
    9900012    2    1    2    0    0 -0.23612847148E+02  0.70147011414E+01  0.20247057472E+02  0.59302016891E+02  0.50000132885E+02 0.  0.
         12    1    1    2    0    0  0.23612847148E+02 -0.70147011414E+01 -0.20247057472E+02  0.31885983109E+02  0.00000000000E+00 0. -1.
         11    1    3    3    0    0  0.32675559283E+01  0.14588969134E+01 -0.89841284329E+01  0.96705669900E+01  0.51100000000E-03 0. -1.
        -11    1    3    3    0    0 -0.15228482104E+02  0.17359851620E+02  0.13380079383E+02  0.26688904812E+02  0.51100000000E-03 0.  1.
        -12    1    3    3    0    0 -0.11651920972E+02 -0.11804047393E+02  0.15851106522E+02  0.22942545089E+02  0.00000000000E+00 0.  1.
</event>
<event>
 7    1  0.6246445E-012  0.5930196E+02  0.7816164E-02  0.1266605E+00
        -11   -1    0    0    0    0  0.00000000000E+00  0.00000000000E+00  0.45593999997E+02  0.45594000000E+02  0.51100000000E-03 0. -1.
         11   -1    0    0    0    0 -0.00000000000E+00 -0.00000000000E+00 -0.45593999997E+02  0.45594000000E+02  0.51100000000E-03 0.  1.
    9900012    2    1    2    0    0  0.16706803147E+02  0.24516441442E+01 -0.27047953347E+02  0.59301959000E+02  0.50000027305E+02 0.  0.
         12    1    1    2    0    0 -0.16706803147E+02 -0.24516441442E+01  0.27047953347E+02  0.31886041000E+02  0.00000000000E+00 0. -1.
         11    1    3    3    0    0 -0.16723174983E+01  0.12181866248E+02 -0.11331058912E+01  0.12348216079E+02  0.51100000000E-03 0. -1.
        -11    1    3    3    0    0  0.17989557431E+02  0.86324026135E+01 -0.86549145973E+01  0.21749714904E+02  0.51100000000E-03 0.  1.
        -12    1    3    3    0    0  0.38956321405E+00 -0.18362624717E+02 -0.17259932858E+02  0.25204028017E+02  0.00000000000E+00 0.  1.
</event>
<event>
 7    1  0.6246445E-012  0.5930200E+02  0.7816164E-02  0.1266605E+00
        -11   -1    0    0    0    0  0.00000000000E+00  0.00000000000E+00  0.45593999997E+02  0.45594000000E+02  0.51100000000E-03 0.  1.
         11   -1    0    0    0    0 -0.00000000000E+00 -0.00000000000E+00 -0.45593999997E+02  0.45594000000E+02  0.51100000000E-03 0. -1.
    9900012    2    1    2    0    0 -0.14775901561E+02  0.68659470888E+00  0.28247443135E+02  0.59302004282E+02  0.50000109889E+02 0.  0.
         12    1    1    2    0    0  0.14775901561E+02 -0.68659470888E+00 -0.28247443135E+02  0.31885995718E+02  0.00000000000E+00 0. -1.
         11    1    3    3    0    0  0.11400416886E+02  0.71767358025E+01  0.40403202506E+01  0.14064111417E+02  0.51100000000E-03 0. -1.
        -11    1    3    3    0    0 -0.20279491533E+01 -0.12364609666E+02  0.12734050287E+02  0.17864831008E+02  0.51100000000E-03 0.  1.
        -12    1    3    3    0    0 -0.24148369294E+02  0.58744685728E+01  0.11473072597E+02  0.27373061857E+02  0.00000000000E+00 0.  1.
</event>
<event>
 7    1  0.6246445E-012  0.5930195E+02  0.7816164E-02  0.1266605E+00
        -11   -1    0    0    0    0  0.00000000000E+00  0.00000000000E+00  0.45593999997E+02  0.45594000000E+02  0.51100000000E-03 0. -1.
         11   -1    0    0    0    0 -0.00000000000E+00 -0.00000000000E+00 -0.45593999997E+02  0.45594000000E+02  0.51100000000E-03 0.  1.
    9900012    2    1    2    0    0  0.14263776910E+02 -0.19599803874E+02 -0.20715037710E+02  0.59301946137E+02  0.50000003847E+02 0.  0.
         12    1    1    2    0    0 -0.14263776910E+02  0.19599803874E+02  0.20715037710E+02  0.31886053863E+02  0.00000000000E+00 0. -1.
         11    1    3    3    0    0  0.16179934349E+02 -0.53414029791E+01  0.67325969788E+01  0.18320718426E+02  0.51100000000E-03 0. -1.
        -11    1    3    3    0    0  0.30391256681E+01 -0.21186527959E+02 -0.22823083115E+02  0.31288949726E+02  0.51100000000E-03 0.  1.
        -12    1    3    3    0    0 -0.49552831072E+01  0.69281270644E+01 -0.46245515734E+01  0.96922779855E+01  0.00000000000E+00 0.  1.
</event>
<event>
 7    1  0.6246445E-012  0.5930193E+02  0.7816164E-02  0.1266605E+00
        -11   -1    0    0    0    0  0.00000000000E+00  0.00000000000E+00  0.45593999997E+02  0.45594000000E+02  0.51100000000E-03 0.  1.
         11   -1    0    0    0    0 -0.00000000000E+00 -0.00000000000E+00 -0.45593999997E+02  0.45594000000E+02  0.51100000000E-03 0. -1.
    9900012    2    1    2    0    0 -0.73829685359E+01  0.19593191641E+02  0.24048291224E+02  0.59301926333E+02  0.49999967729E+02 0.  0.
         12    1    1    2    0    0  0.73829685359E+01 -0.19593191641E+02 -0.24048291224E+02  0.31886073667E+02  0.00000000000E+00 0. -1.
         11    1    3    3    0    0 -0.85785425929E+01  0.47999581875E+01 -0.19987670343E+00  0.98321382506E+01  0.51100000000E-03 0. -1.
        -11    1    3    3    0    0 -0.13229065818E+02  0.14631843353E+02 -0.16818956663E+01  0.19797166353E+02  0.51100000000E-03 0.  1.
        -12    1    3    3    0    0  0.14424639875E+02  0.16139010019E+00  0.25930063594E+02  0.29672621729E+02  0.00000000000E+00 0.  1.
</event>
<event>
 7    1  0.6246445E-012  0.5930194E+02  0.7816164E-02  0.1266605E+00
        -11   -1    0    0    0    0  0.00000000000E+00  0.00000000000E+00  0.45593999997E+02  0.45594000000E+02  0.51100000000E-03 0. -1.
         11   -1    0    0    0    0 -0.00000000000E+00 -0.00000000000E+00 -0.45593999997E+02  0.45594000000E+02  0.51100000000E-03 0.  1.
    9900012    2    1    2    0    0 -0.25376063319E+02 -0.19119758860E+02 -0.26852952541E+01  0.59301943815E+02  0.49999999611E+02 0.  0.
         12    1    1    2    0    0  0.25376063319E+02  0.19119758860E+02  0.26852952541E+01  0.31886056185E+02  0.00000000000E+00 0. -1.
         11    1    3    3    0    0 -0.23496528032E+02 -0.17358531615E+02 -0.15307563727E+01  0.29253182130E+02  0.51100000000E-03 0. -1.
        -11    1    3    3    0    0 -0.15612351226E+02 -0.38683022891E+01  0.23294785476E+00  0.16086128757E+02  0.51100000000E-03 0.  1.
         12    1    3    3    0    0  0.13732815939E+02  0.21070750440E+01 -0.13874867362E+01  0.13962632928E+02  0.00000000000E+00 0. -1.
</event>
<event>
 7    1  0.6246445E-012  0.5930192E+02  0.7816164E-02  0.1266605E+00
        -11   -1    0    0    0    0  0.00000000000E+00  0.00000000000E+00  0.45593999997E+02  0.45594000000E+02  0.51100000000E-03 0.  1.
         11   -1    0    0    0    0 -0.00000000000E+00 -0.00000000000E+00 -0.45593999997E+02  0.45594000000E+02  0.51100000000E-03 0. -1.
    9900012    2    1    2    0    0 -0.68468071110E+01 -0.15127095668E+02  0.27221577766E+02  0.59301920168E+02  0.49999956486E+02 0.  0.
         12    1    1    2    0    0  0.68468071110E+01  0.15127095668E+02 -0.27221577766E+02  0.31886079832E+02  0.00000000000E+00 0. -1.
         11    1    3    3    0    0 -0.28430302739E+01  0.55185320176E+00 -0.90716227955E+01  0.95226941304E+01  0.51100000000E-03 0. -1.
        -11    1    3    3    0    0  0.95582779406E+01 -0.11904390299E+02  0.60531849837E+01  0.16423039740E+02  0.51100000000E-03 0.  1.
        -12    1    3    3    0    0 -0.13562054778E+02 -0.37745585712E+01  0.30240015578E+02  0.33356186298E+02  0.00000000000E+00 0.  1.
</event>
<event>
 7    1  0.6468668E-012  0.5930196E+02  0.7816164E-02  0.1266605E+00
        -11   -1    0    0    0    0  0.00000000000E+00  0.00000000000E+00  0.45593999997E+02  0.45594000000E+02  0.51100000000E-03 0.  1.
         11   -1    0    0    0    0 -0.00000000000E+00 -0.00000000000E+00 -0.45593999997E+02  0.45594000000E+02  0.51100000000E-03 0. -1.
    9900012    2    1    2    0    0 -0.19385793837E+02 -0.13736715498E+02 -0.21265308939E+02  0.59301957291E+02  0.50000024188E+02 0.  0.
         12    1    1    2    0    0  0.19385793837E+02  0.13736715498E+02  0.21265308939E+02  0.31886042709E+02  0.00000000000E+00 0. -1.
         11    1    3    3    0    0  0.27798106047E+01 -0.10173778116E+02 -0.48653156177E+01  0.11614835534E+02  0.51100000000E-03 0. -1.
        -11    1    3    3    0    0 -0.98085459970E+01  0.15156441792E+02 -0.17616070369E+02  0.25224021048E+02  0.51100000000E-03 0.  1.
         12    1    3    3    0    0 -0.12357058445E+02 -0.18719379174E+02  0.12160770469E+01  0.22463100709E+02  0.00000000000E+00 0. -1.
</event>
<event>
 7    1  0.6391031E-012  0.5930195E+02  0.7816164E-02  0.1266605E+00
        -11   -1    0    0    0    0  0.00000000000E+00  0.00000000000E+00  0.45593999997E+02  0.45594000000E+02  0.51100000000E-03 0.  1.
         11   -1    0    0    0    0 -0.00000000000E+00 -0.00000000000E+00 -0.45593999997E+02  0.45594000000E+02  0.51100000000E-03 0. -1.
    9900012    2    1    2    0    0 -0.27885850470E+02 -0.56180467793E+01  0.14406139619E+02  0.59301953448E+02  0.50000017180E+02 0.  0.
         12    1    1    2    0    0  0.27885850470E+02  0.56180467793E+01 -0.14406139619E+02  0.31886046552E+02  0.00000000000E+00 0. -1.
         11    1    3    3    0    0 -0.89205170770E+01 -0.69409903391E+01 -0.82869624573E+01  0.14015231673E+02  0.51100000000E-03 0. -1.
        -11    1    3    3    0    0 -0.15522071142E+02 -0.10750567358E+02  0.26159674512E+02  0.32262020425E+02  0.51100000000E-03 0.  1.
         12    1    3    3    0    0 -0.34432622505E+01  0.12073510917E+02 -0.34665724364E+01  0.13024701350E+02  0.00000000000E+00 0. -1.
</event>
<event>
 7    1  0.6246445E-012  0.5930194E+02  0.7816164E-02  0.1266605E+00
        -11   -1    0    0    0    0  0.00000000000E+00  0.00000000000E+00  0.45593999997E+02  0.45594000000E+02  0.51100000000E-03 0. -1.
         11   -1    0    0    0    0 -0.00000000000E+00 -0.00000000000E+00 -0.45593999997E+02  0.45594000000E+02  0.51100000000E-03 0.  1.
    9900012    2    1    2    0    0 -0.44156551255E+01 -0.29676553111E+02 -0.10794670991E+02  0.59301941345E+02  0.49999995108E+02 0.  0.
         12    1    1    2    0    0  0.44156551255E+01  0.29676553111E+02  0.10794670991E+02  0.31886058655E+02  0.00000000000E+00 0. -1.
         11    1    3    3    0    0  0.60439438654E+01 -0.11971676025E+02 -0.12488292764E+02  0.18325057727E+02  0.51100000000E-03 0. -1.
        -11    1    3    3    0    0  0.10389907880E+02  0.11180347694E+01 -0.57374364215E+01  0.11921340715E+02  0.51100000000E-03 0.  1.
         12    1    3    3    0    0 -0.20849506871E+02 -0.18822911855E+02  0.74310581947E+01  0.29055542903E+02  0.00000000000E+00 0. -1.
</event>
<event>
 7    1  0.6246445E-012  0.5930195E+02  0.7816164E-02  0.1266605E+00
        -11   -1    0    0    0    0  0.00000000000E+00  0.00000000000E+00  0.45593999997E+02  0.45594000000E+02  0.51100000000E-03 0. -1.
         11   -1    0    0    0    0 -0.00000000000E+00 -0.00000000000E+00 -0.45593999997E+02  0.45594000000E+02  0.51100000000E-03 0.  1.
    9900012    2    1    2    0    0 -0.25608043856E+01  0.29070289911E+02 -0.12848363608E+02  0.59301954118E+02  0.50000018402E+02 0.  0.
         12    1    1    2    0    0  0.25608043856E+01 -0.29070289911E+02  0.12848363608E+02  0.31886045882E+02  0.00000000000E+00 0. -1.
         11    1    3    3    0    0 -0.31538961836E+01  0.22442804658E+02  0.14660013665E+01  0.22710695769E+02  0.51100000000E-03 0. -1.
        -11    1    3    3    0    0 -0.12032463213E+02  0.12076852748E+02 -0.43539675172E+00  0.17053448738E+02  0.51100000000E-03 0.  1.
         12    1    3    3    0    0  0.12625555011E+02 -0.54493674951E+01 -0.13878968223E+02  0.19537809610E+02  0.00000000000E+00 0. -1.
</event>
<event>
 7    1  0.6246445E-012  0.5930193E+02  0.7816164E-02  0.1266605E+00
        -11   -1    0    0    0    0  0.00000000000E+00  0.00000000000E+00  0.45593999997E+02  0.45594000000E+02  0.51100000000E-03 0. -1.
         11   -1    0    0    0    0 -0.00000000000E+00 -0.00000000000E+00 -0.45593999997E+02  0.45594000000E+02  0.51100000000E-03 0.  1.
    9900012    2    1    2    0    0 -0.26846889753E+02  0.10364922601E+02  0.13730773117E+02  0.59301933446E+02  0.49999980701E+02 0.  0.
         12    1    1    2    0    0  0.26846889753E+02 -0.10364922601E+02 -0.13730773117E+02  0.31886066554E+02  0.00000000000E+00 0. -1.
         11    1    3    3    0    0  0.37622945146E+01  0.42952313372E+01  0.18021475336E+02  0.18904429264E+02  0.51100000000E-03 0. -1.
        -11    1    3    3    0    0  0.42392154989E+01  0.22827150442E+01  0.10813838303E+01  0.49346861367E+01  0.51100000000E-03 0.  1.
         12    1    3    3    0    0 -0.34848399766E+02  0.37869762199E+01 -0.53720860498E+01  0.35462818045E+02  0.00000000000E+00 0. -1.
</event>
<event>
 7    1  0.6246445E-012  0.5930192E+02  0.7816164E-02  0.1266605E+00
        -11   -1    0    0    0    0  0.00000000000E+00  0.00000000000E+00  0.45593999997E+02  0.45594000000E+02  0.51100000000E-03 0.  1.
         11   -1    0    0    0    0 -0.00000000000E+00 -0.00000000000E+00 -0.45593999997E+02  0.45594000000E+02  0.51100000000E-03 0. -1.
    9900012    2    1    2    0    0 -0.17773611385E+02 -0.26428613549E+02  0.15327610651E+01  0.59301917891E+02  0.49999952333E+02 0.  0.
         12    1    1    2    0    0  0.17773611385E+02  0.26428613549E+02 -0.15327610651E+01  0.31886082109E+02  0.00000000000E+00 0. -1.
         11    1    3    3    0    0 -0.15333077552E+01 -0.15464045781E+02  0.35419756797E+01  0.15938423277E+02  0.51100000000E-03 0. -1.
        -11    1    3    3    0    0 -0.20694154969E+02 -0.11531946985E+02 -0.16054624318E+02  0.28617910710E+02  0.51100000000E-03 0.  1.
         12    1    3    3    0    0  0.44538513387E+01  0.56737921743E+00  0.14045409704E+02  0.14745583904E+02  0.00000000000E+00 0. -1.
</event>
<event>
 7    1  0.6246445E-012  0.5930194E+02  0.7816164E-02  0.1266605E+00
        -11   -1    0    0    0    0  0.00000000000E+00  0.00000000000E+00  0.45593999997E+02  0.45594000000E+02  0.51100000000E-03 0. -1.
         11   -1    0    0    0    0 -0.00000000000E+00 -0.00000000000E+00 -0.45593999997E+02  0.45594000000E+02  0.51100000000E-03 0.  1.
    9900012    2    1    2    0    0 -0.14866501753E+02 -0.21245898531E+02 -0.18555848013E+02  0.59301943890E+02  0.49999999749E+02 0.  0.
         12    1    1    2    0    0  0.14866501753E+02  0.21245898531E+02  0.18555848013E+02  0.31886056110E+02  0.00000000000E+00 0. -1.
         11    1    3    3    0    0  0.16349843503E+01  0.68043422078E+01  0.30909500687E+01  0.76502430873E+01  0.51100000000E-03 0. -1.
        -11    1    3    3    0    0  0.45265410358E+01 -0.71047376426E+01 -0.20257580446E+02  0.21939380951E+02  0.51100000000E-03 0.  1.
        -12    1    3    3    0    0 -0.21028027140E+02 -0.20945503096E+02 -0.13892176355E+01  0.29712319852E+02  0.00000000000E+00 0.  1.
</event>
<event>
 7    1  0.6246445E-012  0.5930197E+02  0.7816164E-02  0.1266605E+00
        -11   -1    0    0    0    0  0.00000000000E+00  0.00000000000E+00  0.45593999997E+02  0.45594000000E+02  0.51100000000E-03 0. -1.
         11   -1    0    0    0    0 -0.00000000000E+00 -0.00000000000E+00 -0.45593999997E+02  0.45594000000E+02  0.51100000000E-03 0.  1.
    9900012    2    1    2    0    0  0.88146918539E+01  0.92637414504E+00 -0.30629427962E+02  0.59301971417E+02  0.50000049951E+02 0.  0.
         12    1    1    2    0    0 -0.88146918539E+01 -0.92637414504E+00  0.30629427962E+02  0.31886028583E+02  0.00000000000E+00 0. -1.
         11    1    3    3    0    0  0.40028122841E+01  0.80308257314E+01  0.98831688356E+01  0.13348921103E+02  0.51100000000E-03 0. -1.
        -11    1    3    3    0    0 -0.16289863199E+01 -0.89842908603E+01 -0.63110218385E+01  0.11099552946E+02  0.51100000000E-03 0.  1.
        -12    1    3    3    0    0  0.64408658897E+01  0.18798392739E+01 -0.34201574959E+02  0.34853497368E+02  0.00000000000E+00 0.  1.
</event>
<event>
 7    1  0.6246445E-012  0.5930191E+02  0.7816164E-02  0.1266605E+00
        -11   -1    0    0    0    0  0.00000000000E+00  0.00000000000E+00  0.45593999997E+02  0.45594000000E+02  0.51100000000E-03 0. -1.
         11   -1    0    0    0    0 -0.00000000000E+00 -0.00000000000E+00 -0.45593999997E+02  0.45594000000E+02  0.51100000000E-03 0.  1.
    9900012    2    1    2    0    0 -0.29617685329E+02  0.44861956896E+00 -0.11803133280E+02  0.59301913708E+02  0.49999944704E+02 0.  0.
         12    1    1    2    0    0  0.29617685329E+02 -0.44861956896E+00  0.11803133280E+02  0.31886086292E+02  0.00000000000E+00 0. -1.
         11    1    3    3    0    0  0.84416567142E+01 -0.44905503242E+01 -0.13695422887E+02  0.16703030222E+02  0.51100000000E-03 0. -1.
        -11    1    3    3    0    0 -0.24192686143E+01 -0.17529583687E+01  0.53952058986E+01  0.61671687686E+01  0.51100000000E-03 0.  1.
        -12    1    3    3    0    0 -0.35640073429E+02  0.66921282619E+01 -0.35029162921E+01  0.36431714718E+02  0.00000000000E+00 0.  1.
</event>
<event>
 7    1  0.6836090E-012  0.5930195E+02  0.7816164E-02  0.1266605E+00
        -11   -1    0    0    0    0  0.00000000000E+00  0.00000000000E+00  0.45593999997E+02  0.45594000000E+02  0.51100000000E-03 0. -1.
         11   -1    0    0    0    0 -0.00000000000E+00 -0.00000000000E+00 -0.45593999997E+02  0.45594000000E+02  0.51100000000E-03 0.  1.
    9900012    2    1    2    0    0 -0.20323024594E+02  0.24208734390E+00 -0.24569008530E+02  0.59301951090E+02  0.50000012880E+02 0.  0.
         12    1    1    2    0    0  0.20323024594E+02 -0.24208734390E+00  0.24569008530E+02  0.31886048910E+02  0.00000000000E+00 0. -1.
         11    1    3    3    0    0 -0.11931012957E+02 -0.12354612313E+02 -0.18737510633E+02  0.25418100255E+02  0.51100000000E-03 0. -1.
        -11    1    3    3    0    0 -0.41252000671E+01  0.34762982402E+01 -0.17592671348E+02  0.18401195897E+02  0.51100000000E-03 0.  1.
         12    1    3    3    0    0 -0.42668115701E+01  0.91204014165E+01  0.11761173451E+02  0.15482654938E+02  0.00000000000E+00 0. -1.
</event>
<event>
 7    1  0.6246445E-012  0.5930207E+02  0.7816164E-02  0.1266604E+00
        -11   -1    0    0    0    0  0.00000000000E+00  0.00000000000E+00  0.45593999997E+02  0.45594000000E+02  0.51100000000E-03 0. -1.
         11   -1    0    0    0    0 -0.00000000000E+00 -0.00000000000E+00 -0.45593999997E+02  0.45594000000E+02  0.51100000000E-03 0.  1.
    9900012    2    1    2    0    0  0.30160577046E+02 -0.68797262966E+01 -0.77279679804E+01  0.59302070018E+02  0.50000229776E+02 0.  0.
         12    1    1    2    0    0 -0.30160577046E+02  0.68797262966E+01  0.77279679804E+01  0.31885929982E+02  0.00000000000E+00 0. -1.
         11    1    3    3    0    0  0.33220310591E+00 -0.26837413532E+01  0.57617695716E+01  0.63648107129E+01  0.51100000000E-03 0. -1.
        -11    1    3    3    0    0 -0.42753315562E+01  0.53595655060E+01  0.87503521621E+01  0.11116297295E+02  0.51100000000E-03 0.  1.
        -12    1    3    3    0    0  0.34103705497E+02 -0.95555504495E+01 -0.22240089714E+02  0.41820962011E+02  0.00000000000E+00 0.  1.
</event>
<event>
 7    1  0.6246445E-012  0.5930198E+02  0.7816164E-02  0.1266605E+00
        -11   -1    0    0    0    0  0.00000000000E+00  0.00000000000E+00  0.45593999997E+02  0.45594000000E+02  0.51100000000E-03 0. -1.
         11   -1    0    0    0    0 -0.00000000000E+00 -0.00000000000E+00 -0.45593999997E+02  0.45594000000E+02  0.51100000000E-03 0.  1.
    9900012    2    1    2    0    0  0.18584298828E+02  0.31927204551E+01 -0.25712807243E+02  0.59301982952E+02  0.50000070989E+02 0.  0.
         12    1    1    2    0    0 -0.18584298828E+02 -0.31927204551E+01  0.25712807243E+02  0.31886017048E+02  0.00000000000E+00 0. -1.
         11    1    3    3    0    0 -0.66650029531E+01 -0.14322083109E+01 -0.28072646237E+02  0.28888526304E+02  0.51100000000E-03 0. -1.
        -11    1    3    3    0    0  0.51577135732E+01  0.62562574034E+01 -0.43079655129E+01  0.91815757429E+01  0.51100000000E-03 0.  1.
        -12    1    3    3    0    0  0.20091588208E+02 -0.16313286374E+01  0.66678045066E+01  0.21231880906E+02  0.00000000000E+00 0.  1.
</event>
<event>
 7    1  0.6246445E-012  0.5930195E+02  0.7816164E-02  0.1266605E+00
        -11   -1    0    0    0    0  0.00000000000E+00  0.00000000000E+00  0.45593999997E+02  0.45594000000E+02  0.51100000000E-03 0.  1.
         11   -1    0    0    0    0 -0.00000000000E+00 -0.00000000000E+00 -0.45593999997E+02  0.45594000000E+02  0.51100000000E-03 0. -1.
    9900012    2    1    2    0    0 -0.57337366272E+01  0.16604085816E+02  0.26611069300E+02  0.59301946453E+02  0.50000004423E+02 0.  0.
         12    1    1    2    0    0  0.57337366272E+01 -0.16604085816E+02 -0.26611069300E+02  0.31886053547E+02  0.00000000000E+00 0. -1.
         11    1    3    3    0    0  0.18244833477E+01  0.17353229987E+02  0.93766487388E+00  0.17474053512E+02  0.51100000000E-03 0. -1.
        -11    1    3    3    0    0 -0.68845161004E+01  0.15212473605E+02  0.16143366989E+02  0.23225507812E+02  0.51100000000E-03 0.  1.
         12    1    3    3    0    0 -0.67370387442E+00 -0.15961617776E+02  0.95300374375E+01  0.18602385129E+02  0.00000000000E+00 0. -1.
</event>
<event>
 7    1  0.6246445E-012  0.5930195E+02  0.7816164E-02  0.1266605E+00
        -11   -1    0    0    0    0  0.00000000000E+00  0.00000000000E+00  0.45593999997E+02  0.45594000000E+02  0.51100000000E-03 0. -1.
         11   -1    0    0    0    0 -0.00000000000E+00 -0.00000000000E+00 -0.45593999997E+02  0.45594000000E+02  0.51100000000E-03 0.  1.
    9900012    2    1    2    0    0  0.30847856899E+02  0.91507986380E+00 -0.80182523883E+01  0.59301952616E+02  0.50000015663E+02 0.  0.
         12    1    1    2    0    0 -0.30847856899E+02 -0.91507986380E+00  0.80182523883E+01  0.31886047384E+02  0.00000000000E+00 0. -1.
         11    1    3    3    0    0  0.91272970623E+01  0.11153289277E+02  0.11625888552E+02  0.18516606013E+02  0.51100000000E-03 0. -1.
        -11    1    3    3    0    0  0.38807028285E+01 -0.15290071477E+02 -0.34053457998E+01  0.16138231640E+02  0.51100000000E-03 0.  1.
        -12    1    3    3    0    0  0.17839857008E+02  0.50518620637E+01 -0.16238795141E+02  0.24647114963E+02  0.00000000000E+00 0.  1.
</event>
<event>
 7    1  0.6246445E-012  0.5930198E+02  0.7816164E-02  0.1266605E+00
        -11   -1    0    0    0    0  0.00000000000E+00  0.00000000000E+00  0.45593999997E+02  0.45594000000E+02  0.51100000000E-03 0. -1.
         11   -1    0    0    0    0 -0.00000000000E+00 -0.00000000000E+00 -0.45593999997E+02  0.45594000000E+02  0.51100000000E-03 0.  1.
    9900012    2    1    2    0    0 -0.31809392098E+02 -0.22070809509E+01  0.97967908402E-01  0.59301980655E+02  0.50000066800E+02 0.  0.
         12    1    1    2    0    0  0.31809392098E+02  0.22070809509E+01 -0.97967908402E-01  0.31886019345E+02  0.00000000000E+00 0. -1.
         11    1    3    3    0    0 -0.64596853209E+01  0.85840232169E+01 -0.38220950109E+01  0.11402692646E+02  0.51100000000E-03 0. -1.
        -11    1    3    3    0    0 -0.35789937414E+02 -0.99859125387E+01  0.17031599704E+01  0.37195951708E+02  0.51100000000E-03 0.  1.
         12    1    3    3    0    0  0.10440230637E+02 -0.80519162911E+00  0.22169029489E+01  0.10703336302E+02  0.00000000000E+00 0. -1.
</event>
<event>
 7    1  0.6246445E-012  0.5930193E+02  0.7816164E-02  0.1266605E+00
        -11   -1    0    0    0    0  0.00000000000E+00  0.00000000000E+00  0.45593999997E+02  0.45594000000E+02  0.51100000000E-03 0.  1.
         11   -1    0    0    0    0 -0.00000000000E+00 -0.00000000000E+00 -0.45593999997E+02  0.45594000000E+02  0.51100000000E-03 0. -1.
    9900012    2    1    2    0    0  0.21502674243E+02 -0.15148475848E+01  0.23495988891E+02  0.59301933187E+02  0.49999980230E+02 0.  0.
         12    1    1    2    0    0 -0.21502674243E+02  0.15148475848E+01 -0.23495988891E+02  0.31886066813E+02  0.00000000000E+00 0. -1.
         11    1    3    3    0    0 -0.95353772523E+01  0.56541264626E+01 -0.72755011696E+01  0.13259920170E+02  0.51100000000E-03 0. -1.
        -11    1    3    3    0    0  0.13761166748E+02 -0.95539791269E+01  0.16387388743E+02  0.23434904256E+02  0.51100000000E-03 0.  1.
        -12    1    3    3    0    0  0.17276884747E+02  0.23850050795E+01  0.14384101318E+02  0.22607108761E+02  0.00000000000E+00 0.  1.
</event>
<event>
 7    1  0.6246445E-012  0.5930194E+02  0.7816164E-02  0.1266605E+00
        -11   -1    0    0    0    0  0.00000000000E+00  0.00000000000E+00  0.45593999997E+02  0.45594000000E+02  0.51100000000E-03 0.  1.
         11   -1    0    0    0    0 -0.00000000000E+00 -0.00000000000E+00 -0.45593999997E+02  0.45594000000E+02  0.51100000000E-03 0. -1.
    9900012    2    1    2    0    0 -0.14661195748E+02 -0.10569828425E+02  0.26268782681E+02  0.59301939139E+02  0.49999991084E+02 0.  0.
         12    1    1    2    0    0  0.14661195748E+02  0.10569828425E+02 -0.26268782681E+02  0.31886060861E+02  0.00000000000E+00 0. -1.
         11    1    3    3    0    0 -0.18904728660E+02 -0.43476107319E+00  0.38348010803E+01  0.19294649064E+02  0.51100000000E-03 0. -1.
        -11    1    3    3    0    0  0.57767320021E+01  0.39780104487E+01 -0.53401283114E+01  0.88154506633E+01  0.51100000000E-03 0.  1.
        -12    1    3    3    0    0 -0.15331990896E+01 -0.14113077800E+02  0.27774109912E+02  0.31191839412E+02  0.00000000000E+00 0.  1.
</event>
<event>
 7    1  0.6246445E-012  0.5930189E+02  0.7816164E-02  0.1266605E+00
        -11   -1    0    0    0    0  0.00000000000E+00  0.00000000000E+00  0.45593999997E+02  0.45594000000E+02  0.51100000000E-03 0. -1.
         11   -1    0    0    0    0 -0.00000000000E+00 -0.00000000000E+00 -0.45593999997E+02  0.45594000000E+02  0.51100000000E-03 0.  1.
    9900012    2    1    2    0    0  0.23792416131E+02  0.21184600139E+02  0.13629221752E+01  0.59301891657E+02  0.49999904489E+02 0.  0.
         12    1    1    2    0    0 -0.23792416131E+02 -0.21184600139E+02 -0.13629221752E+01  0.31886108343E+02  0.00000000000E+00 0. -1.
         11    1    3    3    0    0 -0.37716844990E+01  0.63873070068E+01  0.77688305835E-01  0.74181756850E+01  0.51100000000E-03 0. -1.
        -11    1    3    3    0    0  0.23353221926E+02  0.55169192676E+01  0.19560923158E+02  0.30958667406E+02  0.51100000000E-03 0.  1.
         12    1    3    3    0    0  0.42108787038E+01  0.92803738647E+01 -0.18275689288E+02  0.20925048566E+02  0.00000000000E+00 0. -1.
</event>
<event>
 7    1  0.6246445E-012  0.5930195E+02  0.7816164E-02  0.1266605E+00
        -11   -1    0    0    0    0  0.00000000000E+00  0.00000000000E+00  0.45593999997E+02  0.45594000000E+02  0.51100000000E-03 0.  1.
         11   -1    0    0    0    0 -0.00000000000E+00 -0.00000000000E+00 -0.45593999997E+02  0.45594000000E+02  0.51100000000E-03 0. -1.
    9900012    2    1    2    0    0 -0.96285486152E+01  0.21483456738E+02  0.21505169969E+02  0.59301949801E+02  0.50000010530E+02 0.  0.
         12    1    1    2    0    0  0.96285486152E+01 -0.21483456738E+02 -0.21505169969E+02  0.31886050199E+02  0.00000000000E+00 0. -1.
         11    1    3    3    0    0  0.39275379512E+01  0.39694036547E+01  0.16025109182E+02  0.16970145676E+02  0.51100000000E-03 0. -1.
        -11    1    3    3    0    0  0.39533477622E+01  0.15014866207E+02  0.15553898317E+02  0.21977236379E+02  0.51100000000E-03 0.  1.
         12    1    3    3    0    0 -0.17509434329E+02  0.24991868768E+01 -0.10073837530E+02  0.20354567746E+02  0.00000000000E+00 0. -1.
</event>
<event>
 7    1  0.6246445E-012  0.5930198E+02  0.7816164E-02  0.1266605E+00
        -11   -1    0    0    0    0  0.00000000000E+00  0.00000000000E+00  0.45593999997E+02  0.45594000000E+02  0.51100000000E-03 0.  1.
         11   -1    0    0    0    0 -0.00000000000E+00 -0.00000000000E+00 -0.45593999997E+02  0.45594000000E+02  0.51100000000E-03 0. -1.
    9900012    2    1    2    0    0 -0.16863853999E+02 -0.14822512472E+02  0.22641158439E+02  0.59301976367E+02  0.50000058979E+02 0.  0.
         12    1    1    2    0    0  0.16863853999E+02  0.14822512472E+02 -0.22641158439E+02  0.31886023633E+02  0.00000000000E+00 0. -1.
         11    1    3    3    0    0 -0.25223029211E+02 -0.81232295981E+00  0.21253091499E+02  0.32993256428E+02  0.51100000000E-03 0. -1.
        -11    1    3    3    0    0  0.34531755885E+01  0.22135255996E+01  0.72871505487E+01  0.83622174455E+01  0.51100000000E-03 0.  1.
        -12    1    3    3    0    0  0.49059996232E+01 -0.16223715112E+02 -0.58990836090E+01  0.17946502494E+02  0.00000000000E+00 0.  1.
</event>
<event>
 7    1  0.6246445E-012  0.5930194E+02  0.7816164E-02  0.1266605E+00
        -11   -1    0    0    0    0  0.00000000000E+00  0.00000000000E+00  0.45593999997E+02  0.45594000000E+02  0.51100000000E-03 0. -1.
         11   -1    0    0    0    0 -0.00000000000E+00 -0.00000000000E+00 -0.45593999997E+02  0.45594000000E+02  0.51100000000E-03 0.  1.
    9900012    2    1    2    0    0 -0.98500526586E+01 -0.26966831239E+02 -0.13873978129E+02  0.59301940451E+02  0.49999993476E+02 0.  0.
         12    1    1    2    0    0  0.98500526586E+01  0.26966831239E+02  0.13873978129E+02  0.31886059549E+02  0.00000000000E+00 0. -1.
         11    1    3    3    0    0 -0.42335917617E+01 -0.46219349257E+00 -0.11392480178E+02  0.12162463850E+02  0.51100000000E-03 0. -1.
        -11    1    3    3    0    0 -0.51879852127E+01 -0.26521341795E+02 -0.17447754896E+02  0.32167078082E+02  0.51100000000E-03 0.  1.
         12    1    3    3    0    0 -0.42847568428E+00  0.16704048525E-01  0.14966256945E+02  0.14972398518E+02  0.00000000000E+00 0. -1.
</event>
<event>
 7    1  0.6246445E-012  0.5930194E+02  0.7816164E-02  0.1266605E+00
        -11   -1    0    0    0    0  0.00000000000E+00  0.00000000000E+00  0.45593999997E+02  0.45594000000E+02  0.51100000000E-03 0. -1.
         11   -1    0    0    0    0 -0.00000000000E+00 -0.00000000000E+00 -0.45593999997E+02  0.45594000000E+02  0.51100000000E-03 0.  1.
    9900012    2    1    2    0    0  0.16189576832E+02 -0.68826355898E+01 -0.26594126459E+02  0.59301942972E+02  0.49999998075E+02 0.  0.
         12    1    1    2    0    0 -0.16189576832E+02  0.68826355898E+01  0.26594126459E+02  0.31886057028E+02  0.00000000000E+00 0. -1.
         11    1    3    3    0    0  0.28091556662E+01  0.95618497298E+01  0.68183209837E+01  0.12075173999E+02  0.51100000000E-03 0. -1.
        -11    1    3    3    0    0  0.11376009835E+02 -0.15325981577E+02 -0.64207666175E+01  0.20137665090E+02  0.51100000000E-03 0.  1.
         12    1    3    3    0    0  0.20044113310E+01 -0.11185037427E+01 -0.26991680825E+02  0.27089103883E+02  0.00000000000E+00 0. -1.
</event>
<event>
 7    1  0.6246445E-012  0.5930196E+02  0.7816164E-02  0.1266605E+00
        -11   -1    0    0    0    0  0.00000000000E+00  0.00000000000E+00  0.45593999997E+02  0.45594000000E+02  0.51100000000E-03 0.  1.
         11   -1    0    0    0    0 -0.00000000000E+00 -0.00000000000E+00 -0.45593999997E+02  0.45594000000E+02  0.51100000000E-03 0. -1.
    9900012    2    1    2    0    0  0.25288221100E+02  0.18322450642E+02 -0.64430899771E+01  0.59301957091E+02  0.50000023825E+02 0.  0.
         12    1    1    2    0    0 -0.25288221100E+02 -0.18322450642E+02  0.64430899771E+01  0.31886042909E+02  0.00000000000E+00 0. -1.
         11    1    3    3    0    0  0.71730474861E+01 -0.76865772711E+01  0.36791849953E+01  0.11138782827E+02  0.51100000000E-03 0. -1.
        -11    1    3    3    0    0 -0.61406212365E+01 -0.47728026498E+01 -0.41321980492E+00  0.77883005317E+01  0.51100000000E-03 0.  1.
        -12    1    3    3    0    0  0.24255794850E+02  0.30781830563E+02 -0.97090551675E+01  0.40374873732E+02  0.00000000000E+00 0.  1.
</event>
<event>
 7    1  0.6246445E-012  0.5930183E+02  0.7816164E-02  0.1266605E+00
        -11   -1    0    0    0    0  0.00000000000E+00  0.00000000000E+00  0.45593999997E+02  0.45594000000E+02  0.51100000000E-03 0. -1.
         11   -1    0    0    0    0 -0.00000000000E+00 -0.00000000000E+00 -0.45593999997E+02  0.45594000000E+02  0.51100000000E-03 0.  1.
    9900012    2    1    2    0    0  0.13257037795E+02  0.27271941509E+02  0.98600204801E+01  0.59301829822E+02  0.49999791716E+02 0.  0.
         12    1    1    2    0    0 -0.13257037795E+02 -0.27271941509E+02 -0.98600204801E+01  0.31886170178E+02  0.00000000000E+00 0. -1.
         11    1    3    3    0    0  0.30818227806E+01  0.13919254551E+02 -0.15961703775E+02  0.21401384688E+02  0.51100000000E-03 0. -1.
        -11    1    3    3    0    0  0.62475813580E+01 -0.37528236735E+01  0.79244899025E+00  0.73310254407E+01  0.51100000000E-03 0.  1.
         12    1    3    3    0    0  0.39276336565E+01  0.17105510631E+02  0.25029275265E+02  0.30569419693E+02  0.00000000000E+00 0. -1.
</event>
<event>
 7    1  0.6246445E-012  0.5930177E+02  0.7816164E-02  0.1266605E+00
        -11   -1    0    0    0    0  0.00000000000E+00  0.00000000000E+00  0.45593999997E+02  0.45594000000E+02  0.51100000000E-03 0.  1.
         11   -1    0    0    0    0 -0.00000000000E+00 -0.00000000000E+00 -0.45593999997E+02  0.45594000000E+02  0.51100000000E-03 0. -1.
    9900012    2    1    2    0    0  0.31184909332E+02 -0.55790203093E+01  0.36204821381E+01  0.59301765845E+02  0.49999675036E+02 0.  0.
         12    1    1    2    0    0 -0.31184909332E+02  0.55790203093E+01 -0.36204821381E+01  0.31886234155E+02  0.00000000000E+00 0. -1.
         11    1    3    3    0    0  0.60405942270E+01  0.90737485222E+00 -0.19510853258E+02  0.20444693758E+02  0.51100000000E-03 0. -1.
        -11    1    3    3    0    0  0.22769331452E+01  0.28413881422E-02 -0.28465501958E+01  0.36451722730E+01  0.51100000000E-03 0.  1.
        -12    1    3    3    0    0  0.22867381960E+02 -0.64892365497E+01  0.25977885592E+02  0.35211899814E+02  0.00000000000E+00 0.  1.
</event>
<event>
 7    1  0.6246445E-012  0.5930190E+02  0.7816164E-02  0.1266605E+00
        -11   -1    0    0    0    0  0.00000000000E+00  0.00000000000E+00  0.45593999997E+02  0.45594000000E+02  0.51100000000E-03 0.  1.
         11   -1    0    0    0    0 -0.00000000000E+00 -0.00000000000E+00 -0.45593999997E+02  0.45594000000E+02  0.51100000000E-03 0. -1.
    9900012    2    1    2    0    0  0.41657435050E+01  0.36881412686E+01  0.31396937316E+02  0.59301898360E+02  0.49999916713E+02 0.  0.
         12    1    1    2    0    0 -0.41657435050E+01 -0.36881412686E+01 -0.31396937316E+02  0.31886101640E+02  0.00000000000E+00 0. -1.
         11    1    3    3    0    0 -0.19316407969E+01 -0.98355887241E+01  0.80495902678E+00  0.10055744677E+02  0.51100000000E-03 0. -1.
        -11    1    3    3    0    0 -0.10468018356E+02 -0.63529759209E+01  0.63679141876E+01  0.13801813023E+02  0.51100000000E-03 0.  1.
        -12    1    3    3    0    0  0.16565402658E+02  0.19876705914E+02  0.24224064102E+02  0.35444340660E+02  0.00000000000E+00 0.  1.
</event>
<event>
 7    1  0.6246445E-012  0.5930201E+02  0.7816164E-02  0.1266605E+00
        -11   -1    0    0    0    0  0.00000000000E+00  0.00000000000E+00  0.45593999997E+02  0.45594000000E+02  0.51100000000E-03 0. -1.
         11   -1    0    0    0    0 -0.00000000000E+00 -0.00000000000E+00 -0.45593999997E+02  0.45594000000E+02  0.51100000000E-03 0.  1.
    9900012    2    1    2    0    0 -0.13515107069E+01 -0.79122149681E+01 -0.30859146243E+02  0.59302005680E+02  0.50000112439E+02 0.  0.
         12    1    1    2    0    0  0.13515107069E+01  0.79122149681E+01  0.30859146243E+02  0.31885994320E+02  0.00000000000E+00 0. -1.
         11    1    3    3    0    0 -0.42905010682E+01 -0.16011119365E+02 -0.72187424608E+00  0.16591728223E+02  0.51100000000E-03 0. -1.
        -11    1    3    3    0    0  0.15474707684E+02  0.22001233992E+01 -0.11122960055E+02  0.19184039239E+02  0.51100000000E-03 0.  1.
        -12    1    3    3    0    0 -0.12535717323E+02  0.58987809980E+01 -0.19014311942E+02  0.23526238218E+02  0.00000000000E+00 0.  1.
</event>
<event>
 7    1  0.6246445E-012  0.5930196E+02  0.7816164E-02  0.1266605E+00
        -11   -1    0    0    0    0  0.00000000000E+00  0.00000000000E+00  0.45593999997E+02  0.45594000000E+02  0.51100000000E-03 0.  1.
         11   -1    0    0    0    0 -0.00000000000E+00 -0.00000000000E+00 -0.45593999997E+02  0.45594000000E+02  0.51100000000E-03 0. -1.
    9900012    2    1    2    0    0  0.23056479245E+02  0.21351127074E+02  0.54081316475E+01  0.59301956809E+02  0.50000023310E+02 0.  0.
         12    1    1    2    0    0 -0.23056479245E+02 -0.21351127074E+02 -0.54081316475E+01  0.31886043191E+02  0.00000000000E+00 0. -1.
         11    1    3    3    0    0  0.92036470499E+01  0.45851344536E+01 -0.76546169197E+01  0.12818882066E+02  0.51100000000E-03 0. -1.
        -11    1    3    3    0    0  0.22380714271E+02  0.40409267062E+01 -0.44947278268E+01  0.23182494223E+02  0.51100000000E-03 0.  1.
        -12    1    3    3    0    0 -0.85278820760E+01  0.12725065914E+02  0.17557476394E+02  0.23300580519E+02  0.00000000000E+00 0.  1.
</event>
<event>
 7    1  0.6246445E-012  0.5930196E+02  0.7816164E-02  0.1266605E+00
        -11   -1    0    0    0    0  0.00000000000E+00  0.00000000000E+00  0.45593999997E+02  0.45594000000E+02  0.51100000000E-03 0.  1.
         11   -1    0    0    0    0 -0.00000000000E+00 -0.00000000000E+00 -0.45593999997E+02  0.45594000000E+02  0.51100000000E-03 0. -1.
    9900012    2    1    2    0    0 -0.29213208536E+02  0.12399298410E+02 -0.30927919756E+01  0.59301960481E+02  0.50000030006E+02 0.  0.
         12    1    1    2    0    0  0.29213208536E+02 -0.12399298410E+02  0.30927919756E+01  0.31886039519E+02  0.00000000000E+00 0. -1.
         11    1    3    3    0    0 -0.18568150276E+02  0.62754673983E+01  0.52413032058E+01  0.20288641041E+02  0.51100000000E-03 0. -1.
        -11    1    3    3    0    0 -0.13664654935E+02  0.19463017212E+02 -0.17803702459E+01  0.23847464267E+02  0.51100000000E-03 0.  1.
         12    1    3    3    0    0  0.30195966751E+01 -0.13339186201E+02 -0.65537249356E+01  0.15165855172E+02  0.00000000000E+00 0. -1.
</event>
<event>
 7    1  0.6246445E-012  0.5930195E+02  0.7816164E-02  0.1266605E+00
        -11   -1    0    0    0    0  0.00000000000E+00  0.00000000000E+00  0.45593999997E+02  0.45594000000E+02  0.51100000000E-03 0.  1.
         11   -1    0    0    0    0 -0.00000000000E+00 -0.00000000000E+00 -0.45593999997E+02  0.45594000000E+02  0.51100000000E-03 0. -1.
    9900012    2    1    2    0    0 -0.21601519046E+01  0.16138976672E+02  0.27415091322E+02  0.59301952010E+02  0.50000014557E+02 0.  0.
         12    1    1    2    0    0  0.21601519046E+01 -0.16138976672E+02 -0.27415091322E+02  0.31886047990E+02  0.00000000000E+00 0. -1.
         11    1    3    3    0    0 -0.10987080214E+02  0.21447717258E+01  0.11801527061E+01  0.11256497593E+02  0.51100000000E-03 0. -1.
        -11    1    3    3    0    0 -0.13489211949E+02  0.10834360151E+02  0.80364895005E+01  0.19076880317E+02  0.51100000000E-03 0.  1.
         12    1    3    3    0    0  0.22316140258E+02  0.31598447953E+01  0.18198449115E+02  0.28968574100E+02  0.00000000000E+00 0. -1.
</event>
<event>
 7    1  0.6246445E-012  0.5930192E+02  0.7816164E-02  0.1266605E+00
        -11   -1    0    0    0    0  0.00000000000E+00  0.00000000000E+00  0.45593999997E+02  0.45594000000E+02  0.51100000000E-03 0. -1.
         11   -1    0    0    0    0 -0.00000000000E+00 -0.00000000000E+00 -0.45593999997E+02  0.45594000000E+02  0.51100000000E-03 0.  1.
    9900012    2    1    2    0    0 -0.39327016872E+01 -0.26251787636E+02 -0.17666338654E+02  0.59301921249E+02  0.49999958458E+02 0.  0.
         12    1    1    2    0    0  0.39327016872E+01  0.26251787636E+02  0.17666338654E+02  0.31886078751E+02  0.00000000000E+00 0. -1.
         11    1    3    3    0    0  0.82215849006E+01 -0.17302108435E+02  0.32066746189E+01  0.19422671725E+02  0.51100000000E-03 0. -1.
        -11    1    3    3    0    0  0.99342198804E+01 -0.29816440871E+01 -0.10493763864E+02  0.14754592722E+02  0.51100000000E-03 0.  1.
         12    1    3    3    0    0 -0.22088506468E+02 -0.59680351140E+01 -0.10379249409E+02  0.25124656802E+02  0.00000000000E+00 0. -1.
</event>
<event>
 7    1  0.6246445E-012  0.5930193E+02  0.7816164E-02  0.1266605E+00
        -11   -1    0    0    0    0  0.00000000000E+00  0.00000000000E+00  0.45593999997E+02  0.45594000000E+02  0.51100000000E-03 0. -1.
         11   -1    0    0    0    0 -0.00000000000E+00 -0.00000000000E+00 -0.45593999997E+02  0.45594000000E+02  0.51100000000E-03 0.  1.
    9900012    2    1    2    0    0  0.27075367191E+02 -0.11134525281E+02 -0.12635991172E+02  0.59301930398E+02  0.49999975143E+02 0.  0.
         12    1    1    2    0    0 -0.27075367191E+02  0.11134525281E+02  0.12635991172E+02  0.31886069602E+02  0.00000000000E+00 0. -1.
         11    1    3    3    0    0 -0.84400351724E+01 -0.13643627437E+02  0.36491089865E+01  0.16452925576E+02  0.51100000000E-03 0. -1.
        -11    1    3    3    0    0 -0.18577584448E+01  0.82208678928E+00 -0.18558452469E+01  0.27515913523E+01  0.51100000000E-03 0.  1.
        -12    1    3    3    0    0  0.37373160808E+02  0.16870153670E+01 -0.14429254912E+02  0.40097413470E+02  0.00000000000E+00 0.  1.
</event>
<event>
 7    1  0.6246445E-012  0.5930196E+02  0.7816164E-02  0.1266605E+00
        -11   -1    0    0    0    0  0.00000000000E+00  0.00000000000E+00  0.45593999997E+02  0.45594000000E+02  0.51100000000E-03 0.  1.
         11   -1    0    0    0    0 -0.00000000000E+00 -0.00000000000E+00 -0.45593999997E+02  0.45594000000E+02  0.51100000000E-03 0. -1.
    9900012    2    1    2    0    0  0.28560208136E+02  0.22284224711E+01 -0.14002444580E+02  0.59301955878E+02  0.50000021613E+02 0.  0.
         12    1    1    2    0    0 -0.28560208136E+02 -0.22284224711E+01  0.14002444580E+02  0.31886044122E+02  0.00000000000E+00 0. -1.
         11    1    3    3    0    0  0.55643342636E+01 -0.15281941055E+02  0.84052361669E+01  0.18307035082E+02  0.51100000000E-03 0. -1.
        -11    1    3    3    0    0 -0.29600869038E+01  0.39833614426E+01 -0.43801985154E+01  0.66193218804E+01  0.51100000000E-03 0.  1.
        -12    1    3    3    0    0  0.25955960777E+02  0.13527002084E+02 -0.18027482232E+02  0.34375598916E+02  0.00000000000E+00 0.  1.
</event>
<event>
 7    1  0.6246445E-012  0.5930194E+02  0.7816164E-02  0.1266605E+00
        -11   -1    0    0    0    0  0.00000000000E+00  0.00000000000E+00  0.45593999997E+02  0.45594000000E+02  0.51100000000E-03 0. -1.
         11   -1    0    0    0    0 -0.00000000000E+00 -0.00000000000E+00 -0.45593999997E+02  0.45594000000E+02  0.51100000000E-03 0.  1.
    9900012    2    1    2    0    0  0.26436963382E+02 -0.30979475960E+01 -0.17555926592E+02  0.59301939241E+02  0.49999991271E+02 0.  0.
         12    1    1    2    0    0 -0.26436963382E+02  0.30979475960E+01  0.17555926592E+02  0.31886060759E+02  0.00000000000E+00 0. -1.
         11    1    3    3    0    0  0.39538901211E+01 -0.15445676677E+02 -0.51484136886E+01  0.16754352833E+02  0.51100000000E-03 0. -1.
        -11    1    3    3    0    0 -0.33182136340E+01  0.11624070811E+02 -0.11554105460E+02  0.16722048834E+02  0.51100000000E-03 0.  1.
        -12    1    3    3    0    0  0.25801286895E+02  0.72365826954E+00 -0.85340744328E+00  0.25825537574E+02  0.00000000000E+00 0.  1.
</event>
<event>
 7    1  0.6246445E-012  0.5930178E+02  0.7816164E-02  0.1266605E+00
        -11   -1    0    0    0    0  0.00000000000E+00  0.00000000000E+00  0.45593999997E+02  0.45594000000E+02  0.51100000000E-03 0.  1.
         11   -1    0    0    0    0 -0.00000000000E+00 -0.00000000000E+00 -0.45593999997E+02  0.45594000000E+02  0.51100000000E-03 0. -1.
    9900012    2    1    2    0    0 -0.95385535791E+01  0.21815711644E+02  0.21208995201E+02  0.59301784227E+02  0.49999708560E+02 0.  0.
         12    1    1    2    0    0  0.95385535791E+01 -0.21815711644E+02 -0.21208995201E+02  0.31886215773E+02  0.00000000000E+00 0. -1.
         11    1    3    3    0    0 -0.13919046815E+01  0.39973167418E+01  0.15712406089E+02  0.16272542676E+02  0.51100000000E-03 0.  1.
        -11    1    3    3    0    0  0.14788643392E+02  0.25272706238E+01  0.34058470610E+01  0.15384760792E+02  0.51100000000E-03 0. -1.
        -12    1    3    3    0    0 -0.22935292289E+02  0.15291124278E+02  0.20907420511E+01  0.27644480759E+02  0.00000000000E+00 0.  1.
</event>
<event>
 7    1  0.6246445E-012  0.5930199E+02  0.7816164E-02  0.1266605E+00
        -11   -1    0    0    0    0  0.00000000000E+00  0.00000000000E+00  0.45593999997E+02  0.45594000000E+02  0.51100000000E-03 0.  1.
         11   -1    0    0    0    0 -0.00000000000E+00 -0.00000000000E+00 -0.45593999997E+02  0.45594000000E+02  0.51100000000E-03 0. -1.
    9900012    2    1    2    0    0  0.82917173589E+01  0.24103712066E+02  0.19156628875E+02  0.59301985166E+02  0.50000075027E+02 0.  0.
         12    1    1    2    0    0 -0.82917173589E+01 -0.24103712066E+02 -0.19156628875E+02  0.31886014834E+02  0.00000000000E+00 0. -1.
         11    1    3    3    0    0 -0.33836470861E+00 -0.76186786742E+01  0.63340403137E+01  0.99135675906E+01  0.51100000000E-03 0. -1.
        -11    1    3    3    0    0 -0.68673385420E+01  0.14642992038E+02  0.19542367799E+02  0.25366940965E+02  0.51100000000E-03 0.  1.
         12    1    3    3    0    0  0.15497420610E+02  0.17079398702E+02 -0.67197792371E+01  0.24021476611E+02  0.00000000000E+00 0. -1.
</event>
<event>
 7    1  0.6246445E-012  0.5930192E+02  0.7816164E-02  0.1266605E+00
        -11   -1    0    0    0    0  0.00000000000E+00  0.00000000000E+00  0.45593999997E+02  0.45594000000E+02  0.51100000000E-03 0.  1.
         11   -1    0    0    0    0 -0.00000000000E+00 -0.00000000000E+00 -0.45593999997E+02  0.45594000000E+02  0.51100000000E-03 0. -1.
    9900012    2    1    2    0    0  0.20587841629E+01  0.17067234042E+02  0.26855039233E+02  0.59301918361E+02  0.49999953190E+02 0.  0.
         12    1    1    2    0    0 -0.20587841629E+01 -0.17067234042E+02 -0.26855039233E+02  0.31886081639E+02  0.00000000000E+00 0. -1.
         11    1    3    3    0    0  0.41162208978E+01  0.12042663247E+01  0.24482955450E+02  0.24855756671E+02  0.51100000000E-03 0. -1.
        -11    1    3    3    0    0 -0.15502362855E+01  0.70231225912E+01  0.16371486221E+02  0.17881639881E+02  0.51100000000E-03 0.  1.
         12    1    3    3    0    0 -0.50720044937E+00  0.88398451264E+01 -0.13999402438E+02  0.16564521810E+02  0.00000000000E+00 0. -1.
</event>
<event>
 7    1  0.6246445E-012  0.5930196E+02  0.7816164E-02  0.1266605E+00
        -11   -1    0    0    0    0  0.00000000000E+00  0.00000000000E+00  0.45593999997E+02  0.45594000000E+02  0.51100000000E-03 0.  1.
         11   -1    0    0    0    0 -0.00000000000E+00 -0.00000000000E+00 -0.45593999997E+02  0.45594000000E+02  0.51100000000E-03 0. -1.
    9900012    2    1    2    0    0 -0.35020936147E+00  0.18917584973E+02  0.25665582818E+02  0.59301955887E+02  0.50000021628E+02 0.  0.
         12    1    1    2    0    0  0.35020936147E+00 -0.18917584973E+02 -0.25665582818E+02  0.31886044113E+02  0.00000000000E+00 0. -1.
         11    1    3    3    0    0  0.27023112926E+01 -0.54574226039E+00  0.12596355098E+02  0.12894513676E+02  0.51100000000E-03 0. -1.
        -11    1    3    3    0    0  0.27497508398E+00  0.13854234850E+02  0.27376579911E+02  0.30683750788E+02  0.51100000000E-03 0.  1.
         12    1    3    3    0    0 -0.33274957381E+01  0.56090923831E+01 -0.14307352190E+02  0.15723691423E+02  0.00000000000E+00 0. -1.
</event>
<event>
 7    1  0.6246445E-012  0.5930194E+02  0.7816164E-02  0.1266605E+00
        -11   -1    0    0    0    0  0.00000000000E+00  0.00000000000E+00  0.45593999997E+02  0.45594000000E+02  0.51100000000E-03 0.  1.
         11   -1    0    0    0    0 -0.00000000000E+00 -0.00000000000E+00 -0.45593999997E+02  0.45594000000E+02  0.51100000000E-03 0. -1.
    9900012    2    1    2    0    0  0.11221114251E+02  0.26946932560E+02  0.12832385612E+02  0.59301941920E+02  0.49999996155E+02 0.  0.
         12    1    1    2    0    0 -0.11221114251E+02 -0.26946932560E+02 -0.12832385612E+02  0.31886058080E+02  0.00000000000E+00 0. -1.
         11    1    3    3    0    0  0.80521691884E+01  0.11438283077E+02 -0.15272201704E+02  0.20710188158E+02  0.51100000000E-03 0. -1.
        -11    1    3    3    0    0  0.79449783712E+01  0.97207608837E+01  0.37429578068E+01  0.13100595669E+02  0.51100000000E-03 0.  1.
        -12    1    3    3    0    0 -0.47760333088E+01  0.57878885993E+01  0.24361629509E+02  0.25491158093E+02  0.00000000000E+00 0.  1.
</event>
<event>
 7    1  0.6246445E-012  0.5930194E+02  0.7816164E-02  0.1266605E+00
        -11   -1    0    0    0    0  0.00000000000E+00  0.00000000000E+00  0.45593999997E+02  0.45594000000E+02  0.51100000000E-03 0. -1.
         11   -1    0    0    0    0 -0.00000000000E+00 -0.00000000000E+00 -0.45593999997E+02  0.45594000000E+02  0.51100000000E-03 0.  1.
    9900012    2    1    2    0    0  0.95619503856E+01 -0.30413773324E+02 -0.54065458890E+00  0.59301940188E+02  0.49999992997E+02 0.  0.
         12    1    1    2    0    0 -0.95619503856E+01  0.30413773324E+02  0.54065458890E+00  0.31886059812E+02  0.00000000000E+00 0. -1.
         11    1    3    3    0    0  0.27312656295E+01  0.25230198834E+01  0.95295368854E+01  0.10229248007E+02  0.51100000000E-03 0. -1.
        -11    1    3    3    0    0  0.71155143529E+01  0.55745565740E+01 -0.46988769120E+01  0.10187525215E+02  0.51100000000E-03 0.  1.
        -12    1    3    3    0    0 -0.28482959680E+00 -0.38511349781E+02 -0.53713145623E+01  0.38885166966E+02  0.00000000000E+00 0.  1.
</event>
<event>
 7    1  0.6246445E-012  0.5930194E+02  0.7816164E-02  0.1266605E+00
        -11   -1    0    0    0    0  0.00000000000E+00  0.00000000000E+00  0.45593999997E+02  0.45594000000E+02  0.51100000000E-03 0.  1.
         11   -1    0    0    0    0 -0.00000000000E+00 -0.00000000000E+00 -0.45593999997E+02  0.45594000000E+02  0.51100000000E-03 0. -1.
    9900012    2    1    2    0    0 -0.12243537001E+02 -0.10608885930E+00  0.29441562127E+02  0.59301936686E+02  0.49999986611E+02 0.  0.
         12    1    1    2    0    0  0.12243537001E+02  0.10608885930E+00 -0.29441562127E+02  0.31886063314E+02  0.00000000000E+00 0. -1.
         11    1    3    3    0    0 -0.12167102779E+01  0.12346926743E-01  0.12475724108E+02  0.12534920368E+02  0.51100000000E-03 0. -1.
        -11    1    3    3    0    0 -0.14937769306E+02  0.45386502048E+01  0.29196137685E+02  0.33108167474E+02  0.51100000000E-03 0.  1.
         12    1    3    3    0    0  0.39109425827E+01 -0.46570859909E+01 -0.12230299666E+02  0.13658848844E+02  0.00000000000E+00 0. -1.
</event>
<event>
 7    1  0.6246445E-012  0.5930192E+02  0.7816164E-02  0.1266605E+00
        -11   -1    0    0    0    0  0.00000000000E+00  0.00000000000E+00  0.45593999997E+02  0.45594000000E+02  0.51100000000E-03 0. -1.
         11   -1    0    0    0    0 -0.00000000000E+00 -0.00000000000E+00 -0.45593999997E+02  0.45594000000E+02  0.51100000000E-03 0.  1.
    9900012    2    1    2    0    0 -0.46327794620E+01  0.22495747442E+02 -0.22117885558E+02  0.59301919023E+02  0.49999954398E+02 0.  0.
         12    1    1    2    0    0  0.46327794620E+01 -0.22495747442E+02  0.22117885558E+02  0.31886080977E+02  0.00000000000E+00 0. -1.
         11    1    3    3    0    0 -0.59534422624E+01  0.17429342747E+02  0.49938500627E+01  0.19083081566E+02  0.51100000000E-03 0.  1.
        -11    1    3    3    0    0 -0.32301578172E+01 -0.74904114546E+01  0.18157848264E+01  0.83568689160E+01  0.51100000000E-03 0. -1.
         12    1    3    3    0    0  0.45508206175E+01  0.12556816150E+02 -0.28927520447E+02  0.31861968541E+02  0.00000000000E+00 0. -1.
</event>
<event>
 7    1  0.6246445E-012  0.5930193E+02  0.7816164E-02  0.1266605E+00
        -11   -1    0    0    0    0  0.00000000000E+00  0.00000000000E+00  0.45593999997E+02  0.45594000000E+02  0.51100000000E-03 0. -1.
         11   -1    0    0    0    0 -0.00000000000E+00 -0.00000000000E+00 -0.45593999997E+02  0.45594000000E+02  0.51100000000E-03 0.  1.
    9900012    2    1    2    0    0  0.31444457151E+02 -0.32731164889E+01 -0.41538268716E+01  0.59301930083E+02  0.49999974569E+02 0.  0.
         12    1    1    2    0    0 -0.31444457151E+02  0.32731164889E+01  0.41538268716E+01  0.31886069917E+02  0.00000000000E+00 0. -1.
         11    1    3    3    0    0  0.84572554557E+01  0.82735429314E+00 -0.99179998816E+01  0.13060490300E+02  0.51100000000E-03 0.  1.
        -11    1    3    3    0    0  0.61333276858E+01  0.12469959236E+02  0.15376925518E+02  0.20726008552E+02  0.51100000000E-03 0. -1.
         12    1    3    3    0    0  0.16853874009E+02 -0.16570430018E+02 -0.96127525083E+01  0.25515431231E+02  0.00000000000E+00 0. -1.
</event>
<event>
 7    1  0.6246445E-012  0.5930195E+02  0.7816164E-02  0.1266605E+00
        -11   -1    0    0    0    0  0.00000000000E+00  0.00000000000E+00  0.45593999997E+02  0.45594000000E+02  0.51100000000E-03 0.  1.
         11   -1    0    0    0    0 -0.00000000000E+00 -0.00000000000E+00 -0.45593999997E+02  0.45594000000E+02  0.51100000000E-03 0. -1.
    9900012    2    1    2    0    0  0.20602739256E+02  0.14946587456E+02  0.19205392808E+02  0.59301945771E+02  0.50000003178E+02 0.  0.
         12    1    1    2    0    0 -0.20602739256E+02 -0.14946587456E+02 -0.19205392808E+02  0.31886054229E+02  0.00000000000E+00 0. -1.
         11    1    3    3    0    0  0.10480683262E+02 -0.75457949913E+01  0.11841653274E+01  0.12968654189E+02  0.51100000000E-03 0. -1.
        -11    1    3    3    0    0  0.18801757463E+02  0.23487490527E+02  0.47708457284E+01  0.30461931393E+02  0.51100000000E-03 0.  1.
         12    1    3    3    0    0 -0.86797014691E+01 -0.99510807935E+00  0.13250381752E+02  0.15871360189E+02  0.00000000000E+00 0. -1.
</event>
<event>
 7    1  0.6246445E-012  0.5930205E+02  0.7816164E-02  0.1266604E+00
        -11   -1    0    0    0    0  0.00000000000E+00  0.00000000000E+00  0.45593999997E+02  0.45594000000E+02  0.51100000000E-03 0. -1.
         11   -1    0    0    0    0 -0.00000000000E+00 -0.00000000000E+00 -0.45593999997E+02  0.45594000000E+02  0.51100000000E-03 0.  1.
    9900012    2    1    2    0    0  0.36533410735E+01 -0.86438933772E+01 -0.30473756979E+02  0.59302052341E+02  0.50000197537E+02 0.  0.
         12    1    1    2    0    0 -0.36533410735E+01  0.86438933772E+01  0.30473756979E+02  0.31885947659E+02  0.00000000000E+00 0. -1.
         11    1    3    3    0    0  0.31131597863E-01 -0.67191427296E+01  0.40451273462E+01  0.78428887347E+01  0.51100000000E-03 0. -1.
        -11    1    3    3    0    0 -0.99722790462E+00 -0.16197561236E+02 -0.29321772185E+01  0.16491001092E+02  0.51100000000E-03 0.  1.
        -12    1    3    3    0    0  0.46194373803E+01  0.14272810589E+02 -0.31586707107E+02  0.34968162515E+02  0.00000000000E+00 0.  1.
</event>
<event>
 7    1  0.6246445E-012  0.5930199E+02  0.7816164E-02  0.1266605E+00
        -11   -1    0    0    0    0  0.00000000000E+00  0.00000000000E+00  0.45593999997E+02  0.45594000000E+02  0.51100000000E-03 0.  1.
         11   -1    0    0    0    0 -0.00000000000E+00 -0.00000000000E+00 -0.45593999997E+02  0.45594000000E+02  0.51100000000E-03 0. -1.
    9900012    2    1    2    0    0 -0.22043816824E+02  0.24069649387E-01  0.23038814147E+02  0.59301993714E+02  0.50000090616E+02 0.  0.
         12    1    1    2    0    0  0.22043816824E+02 -0.24069649387E-01 -0.23038814147E+02  0.31886006286E+02  0.00000000000E+00 0. -1.
         11    1    3    3    0    0 -0.11491634200E+02 -0.20087668645E+02  0.82275585712E+01  0.24561449641E+02  0.51100000000E-03 0.  1.
        -11    1    3    3    0    0 -0.52362666488E+01 -0.16132193718E+01 -0.29109841750E+01  0.62044173206E+01  0.51100000000E-03 0. -1.
        -12    1    3    3    0    0 -0.53159159753E+01  0.21724957666E+02  0.17722239751E+02  0.28536126753E+02  0.00000000000E+00 0.  1.
</event>
<event>
 7    1  0.6246445E-012  0.5930197E+02  0.7816164E-02  0.1266605E+00
        -11   -1    0    0    0    0  0.00000000000E+00  0.00000000000E+00  0.45593999997E+02  0.45594000000E+02  0.51100000000E-03 0. -1.
         11   -1    0    0    0    0 -0.00000000000E+00 -0.00000000000E+00 -0.45593999997E+02  0.45594000000E+02  0.51100000000E-03 0.  1.
    9900012    2    1    2    0    0  0.23190723863E+02 -0.18161984804E+02  0.12208673855E+02  0.59301967281E+02  0.50000042408E+02 0.  0.
         12    1    1    2    0    0 -0.23190723863E+02  0.18161984804E+02 -0.12208673855E+02  0.31886032719E+02  0.00000000000E+00 0. -1.
         11    1    3    3    0    0  0.13104296582E+02 -0.21099427973E+02  0.81238286096E+01  0.26132451879E+02  0.51100000000E-03 0. -1.
        -11    1    3    3    0    0  0.24039185031E+01 -0.12904750724E+02  0.76674511947E+01  0.15202013798E+02  0.51100000000E-03 0.  1.
         12    1    3    3    0    0  0.76825087779E+01  0.15842193894E+02 -0.35826059488E+01  0.17967501604E+02  0.00000000000E+00 0. -1.
</event>
<event>
 7    1  0.6246445E-012  0.5930192E+02  0.7816164E-02  0.1266605E+00
        -11   -1    0    0    0    0  0.00000000000E+00  0.00000000000E+00  0.45593999997E+02  0.45594000000E+02  0.51100000000E-03 0.  1.
         11   -1    0    0    0    0 -0.00000000000E+00 -0.00000000000E+00 -0.45593999997E+02  0.45594000000E+02  0.51100000000E-03 0. -1.
    9900012    2    1    2    0    0 -0.17946969564E+02 -0.99821920251E+01  0.24392298094E+02  0.59301920271E+02  0.49999956674E+02 0.  0.
         12    1    1    2    0    0  0.17946969564E+02  0.99821920251E+01 -0.24392298094E+02  0.31886079729E+02  0.00000000000E+00 0. -1.
         11    1    3    3    0    0 -0.27865429630E+02 -0.55874068521E+01  0.21901509856E+02  0.35880042057E+02  0.51100000000E-03 0. -1.
        -11    1    3    3    0    0  0.43281171629E+00 -0.10744935569E+02  0.47989631837E+01  0.11775865754E+02  0.51100000000E-03 0.  1.
         12    1    3    3    0    0  0.94856483495E+01  0.63501503956E+01 -0.23081749450E+01  0.11646012461E+02  0.00000000000E+00 0. -1.
</event>
<event>
 7    1  0.6246445E-012  0.5930193E+02  0.7816164E-02  0.1266605E+00
        -11   -1    0    0    0    0  0.00000000000E+00  0.00000000000E+00  0.45593999997E+02  0.45594000000E+02  0.51100000000E-03 0.  1.
         11   -1    0    0    0    0 -0.00000000000E+00 -0.00000000000E+00 -0.45593999997E+02  0.45594000000E+02  0.51100000000E-03 0. -1.
    9900012    2    1    2    0    0  0.19485202996E+02 -0.16582746407E+02  0.19027893836E+02  0.59301931600E+02  0.49999977335E+02 0.  0.
         12    1    1    2    0    0 -0.19485202996E+02  0.16582746407E+02 -0.19027893836E+02  0.31886068400E+02  0.00000000000E+00 0. -1.
         11    1    3    3    0    0  0.11347771519E+02 -0.98585222079E+01 -0.44663173066E+01  0.15681529553E+02  0.51100000000E-03 0.  1.
        -11    1    3    3    0    0  0.21588383185E+02 -0.84787830774E+00  0.17344171771E+02  0.27705549639E+02  0.51100000000E-03 0. -1.
         12    1    3    3    0    0 -0.13450951708E+02 -0.58763458910E+01  0.61500393723E+01  0.15914852408E+02  0.00000000000E+00 0. -1.
</event>
<event>
 7    1  0.6246445E-012  0.5930194E+02  0.7816164E-02  0.1266605E+00
        -11   -1    0    0    0    0  0.00000000000E+00  0.00000000000E+00  0.45593999997E+02  0.45594000000E+02  0.51100000000E-03 0.  1.
         11   -1    0    0    0    0 -0.00000000000E+00 -0.00000000000E+00 -0.45593999997E+02  0.45594000000E+02  0.51100000000E-03 0. -1.
    9900012    2    1    2    0    0  0.14457286171E+02  0.31048430366E+01  0.28250092748E+02  0.59301938563E+02  0.49999990033E+02 0.  0.
         12    1    1    2    0    0 -0.14457286171E+02 -0.31048430366E+01 -0.28250092748E+02  0.31886061437E+02  0.00000000000E+00 0. -1.
         11    1    3    3    0    0  0.10076738202E+01 -0.15502778721E+02  0.72687724379E+01  0.17151868925E+02  0.51100000000E-03 0. -1.
        -11    1    3    3    0    0  0.38225076111E+01  0.72097954781E+01 -0.67959186258E+01  0.10619662212E+02  0.51100000000E-03 0.  1.
        -12    1    3    3    0    0  0.96271047398E+01  0.11397826279E+02  0.27777238936E+02  0.31530407426E+02  0.00000000000E+00 0.  1.
</event>
<event>
 7    1  0.6246445E-012  0.5930194E+02  0.7816164E-02  0.1266605E+00
        -11   -1    0    0    0    0  0.00000000000E+00  0.00000000000E+00  0.45593999997E+02  0.45594000000E+02  0.51100000000E-03 0. -1.
         11   -1    0    0    0    0 -0.00000000000E+00 -0.00000000000E+00 -0.45593999997E+02  0.45594000000E+02  0.51100000000E-03 0.  1.
    9900012    2    1    2    0    0  0.40876626564E+01 -0.20339988997E+02 -0.24213560286E+02  0.59301942857E+02  0.49999997865E+02 0.  0.
         12    1    1    2    0    0 -0.40876626564E+01  0.20339988997E+02  0.24213560286E+02  0.31886057143E+02  0.00000000000E+00 0. -1.
         11    1    3    3    0    0 -0.36303874757E+01 -0.61286924403E+01 -0.15168415669E+02  0.16757727126E+02  0.51100000000E-03 0. -1.
        -11    1    3    3    0    0 -0.62634622123E+01  0.79736527727E+01 -0.12499002448E+02  0.16094569266E+02  0.51100000000E-03 0.  1.
         12    1    3    3    0    0  0.13981512344E+02 -0.22184949329E+02  0.34538578304E+01  0.26449646465E+02  0.00000000000E+00 0. -1.
</event>
<event>
 7    1  0.6246445E-012  0.5930193E+02  0.7816164E-02  0.1266605E+00
        -11   -1    0    0    0    0  0.00000000000E+00  0.00000000000E+00  0.45593999997E+02  0.45594000000E+02  0.51100000000E-03 0.  1.
         11   -1    0    0    0    0 -0.00000000000E+00 -0.00000000000E+00 -0.45593999997E+02  0.45594000000E+02  0.51100000000E-03 0. -1.
    9900012    2    1    2    0    0 -0.14037139955E+02 -0.85884913225E+01  0.27311499395E+02  0.59301929679E+02  0.49999973831E+02 0.  0.
         12    1    1    2    0    0  0.14037139955E+02  0.85884913225E+01 -0.27311499395E+02  0.31886070321E+02  0.00000000000E+00 0. -1.
         11    1    3    3    0    0  0.46826228979E+01 -0.24062393981E+01  0.60135664698E+01  0.79924919264E+01  0.51100000000E-03 0. -1.
        -11    1    3    3    0    0 -0.14785719014E+02 -0.12543450862E+02  0.32497295824E+02  0.37842170688E+02  0.51100000000E-03 0.  1.
         12    1    3    3    0    0 -0.39340438389E+01  0.63611989377E+01 -0.11199362898E+02  0.13467267064E+02  0.00000000000E+00 0. -1.
</event>
<event>
 7    1  0.6246445E-012  0.5930194E+02  0.7816164E-02  0.1266605E+00
        -11   -1    0    0    0    0  0.00000000000E+00  0.00000000000E+00  0.45593999997E+02  0.45594000000E+02  0.51100000000E-03 0.  1.
         11   -1    0    0    0    0 -0.00000000000E+00 -0.00000000000E+00 -0.45593999997E+02  0.45594000000E+02  0.51100000000E-03 0. -1.
    9900012    2    1    2    0    0  0.20349331269E+02  0.14240911100E+02  0.19995542745E+02  0.59301944087E+02  0.50000000107E+02 0.  0.
         12    1    1    2    0    0 -0.20349331269E+02 -0.14240911100E+02 -0.19995542745E+02  0.31886055913E+02  0.00000000000E+00 0. -1.
         11    1    3    3    0    0  0.11151345089E+01 -0.31879008142E+00 -0.10868711085E+01  0.15894782655E+01  0.51100000000E-03 0. -1.
        -11    1    3    3    0    0 -0.10899428096E+01  0.28578854157E+02  0.76510124874E+01  0.29605352094E+02  0.51100000000E-03 0.  1.
        -12    1    3    3    0    0  0.20324139569E+02 -0.14019152976E+02  0.13431401366E+02  0.28107113727E+02  0.00000000000E+00 0.  1.
</event>
<event>
 7    1  0.6246445E-012  0.5930194E+02  0.7816164E-02  0.1266605E+00
        -11   -1    0    0    0    0  0.00000000000E+00  0.00000000000E+00  0.45593999997E+02  0.45594000000E+02  0.51100000000E-03 0.  1.
         11   -1    0    0    0    0 -0.00000000000E+00 -0.00000000000E+00 -0.45593999997E+02  0.45594000000E+02  0.51100000000E-03 0. -1.
    9900012    2    1    2    0    0 -0.20983615128E+01 -0.31783635577E+02  0.14554208423E+01  0.59301939388E+02  0.49999991537E+02 0.  0.
         12    1    1    2    0    0  0.20983615128E+01  0.31783635577E+02 -0.14554208423E+01  0.31886060612E+02  0.00000000000E+00 0. -1.
         11    1    3    3    0    0 -0.16242332014E+02 -0.53683078416E+01  0.16059308019E+00  0.17107246088E+02  0.51100000000E-03 0. -1.
        -11    1    3    3    0    0 -0.51421838757E+01 -0.52361454120E+00  0.77061089017E+01  0.92790269891E+01  0.51100000000E-03 0.  1.
         12    1    3    3    0    0  0.19286154377E+02 -0.25891713195E+02 -0.64112811395E+01  0.32915666310E+02  0.00000000000E+00 0. -1.
</event>
<event>
 7    1  0.6246445E-012  0.5930191E+02  0.7816164E-02  0.1266605E+00
        -11   -1    0    0    0    0  0.00000000000E+00  0.00000000000E+00  0.45593999997E+02  0.45594000000E+02  0.51100000000E-03 0.  1.
         11   -1    0    0    0    0 -0.00000000000E+00 -0.00000000000E+00 -0.45593999997E+02  0.45594000000E+02  0.51100000000E-03 0. -1.
    9900012    2    1    2    0    0 -0.74079400036E+01  0.78974811585E+01  0.29991245959E+02  0.59301911844E+02  0.49999941304E+02 0.  0.
         12    1    1    2    0    0  0.74079400036E+01 -0.78974811585E+01 -0.29991245959E+02  0.31886088156E+02  0.00000000000E+00 0. -1.
         11    1    3    3    0    0 -0.55762662135E+01 -0.12726780476E+02  0.36641854361E+01  0.14369827464E+02  0.51100000000E-03 0. -1.
        -11    1    3    3    0    0  0.72759869638E+01  0.11755059214E+02  0.28831896064E+02  0.31974984509E+02  0.51100000000E-03 0.  1.
         12    1    3    3    0    0 -0.91076607540E+01  0.88692024206E+01 -0.25048355417E+01  0.12957099871E+02  0.00000000000E+00 0. -1.
</event>
<event>
 7    1  0.6246445E-012  0.5930195E+02  0.7816164E-02  0.1266605E+00
        -11   -1    0    0    0    0  0.00000000000E+00  0.00000000000E+00  0.45593999997E+02  0.45594000000E+02  0.51100000000E-03 0. -1.
         11   -1    0    0    0    0 -0.00000000000E+00 -0.00000000000E+00 -0.45593999997E+02  0.45594000000E+02  0.51100000000E-03 0.  1.
    9900012    2    1    2    0    0 -0.99410946936E+01 -0.29776166687E+02 -0.55923863928E+01  0.59301948946E+02  0.50000008969E+02 0.  0.
         12    1    1    2    0    0  0.99410946936E+01  0.29776166687E+02  0.55923863928E+01  0.31886051054E+02  0.00000000000E+00 0. -1.
         11    1    3    3    0    0  0.71587858940E+01  0.75696004412E+01  0.55916133160E+01  0.11824263447E+02  0.51100000000E-03 0. -1.
        -11    1    3    3    0    0  0.43978793951E+01 -0.47122805687E+01 -0.44274157784E+01  0.78197789015E+01  0.51100000000E-03 0.  1.
        -12    1    3    3    0    0 -0.21497759983E+02 -0.32633486559E+02 -0.67565839305E+01  0.39657906598E+02  0.00000000000E+00 0.  1.
</event>
<event>
 7    1  0.6246445E-012  0.5930192E+02  0.7816164E-02  0.1266605E+00
        -11   -1    0    0    0    0  0.00000000000E+00  0.00000000000E+00  0.45593999997E+02  0.45594000000E+02  0.51100000000E-03 0.  1.
         11   -1    0    0    0    0 -0.00000000000E+00 -0.00000000000E+00 -0.45593999997E+02  0.45594000000E+02  0.51100000000E-03 0. -1.
    9900012    2    1    2    0    0  0.27350649201E+02  0.52153533223E+00  0.16382680019E+02  0.59301918155E+02  0.49999952814E+02 0.  0.
         12    1    1    2    0    0 -0.27350649201E+02 -0.52153533223E+00 -0.16382680019E+02  0.31886081845E+02  0.00000000000E+00 0. -1.
         11    1    3    3    0    0 -0.99773708480E+01  0.56817179515E+01  0.21149002812E+01  0.11674872649E+02  0.51100000000E-03 0. -1.
        -11    1    3    3    0    0 -0.32487725692E+01 -0.19258733831E+00  0.45740562752E+01  0.56136979042E+01  0.51100000000E-03 0.  1.
        -12    1    3    3    0    0  0.40576792619E+02 -0.49675952809E+01  0.96937234627E+01  0.42013347601E+02  0.00000000000E+00 0.  1.
</event>
<event>
 7    1  0.6246445E-012  0.5930173E+02  0.7816164E-02  0.1266606E+00
        -11   -1    0    0    0    0  0.00000000000E+00  0.00000000000E+00  0.45593999997E+02  0.45594000000E+02  0.51100000000E-03 0.  1.
         11   -1    0    0    0    0 -0.00000000000E+00 -0.00000000000E+00 -0.45593999997E+02  0.45594000000E+02  0.51100000000E-03 0. -1.
    9900012    2    1    2    0    0 -0.10290028905E+02  0.99465972554E+01  0.28494120874E+02  0.59301726837E+02  0.49999603895E+02 0.  0.
         12    1    1    2    0    0  0.10290028905E+02 -0.99465972554E+01 -0.28494120874E+02  0.31886273163E+02  0.00000000000E+00 0. -1.
         11    1    3    3    0    0  0.34387795623E+01  0.18655479052E+02  0.21720450852E+02  0.28837997313E+02  0.51100000000E-03 0. -1.
        -11    1    3    3    0    0  0.57184361653E+00  0.69286221881E+01  0.61214971369E+01  0.92631278737E+01  0.51100000000E-03 0.  1.
         12    1    3    3    0    0 -0.14300652084E+02 -0.15637503985E+02  0.65217288518E+00  0.21200601651E+02  0.00000000000E+00 0. -1.
</event>
<event>
 7    1  0.6246445E-012  0.5930192E+02  0.7816164E-02  0.1266605E+00
        -11   -1    0    0    0    0  0.00000000000E+00  0.00000000000E+00  0.45593999997E+02  0.45594000000E+02  0.51100000000E-03 0.  1.
         11   -1    0    0    0    0 -0.00000000000E+00 -0.00000000000E+00 -0.45593999997E+02  0.45594000000E+02  0.51100000000E-03 0. -1.
    9900012    2    1    2    0    0  0.13034891298E+02  0.23077966470E+02  0.17726284225E+02  0.59301920279E+02  0.49999956688E+02 0.  0.
         12    1    1    2    0    0 -0.13034891298E+02 -0.23077966470E+02 -0.17726284225E+02  0.31886079721E+02  0.00000000000E+00 0. -1.
         11    1    3    3    0    0  0.17434445815E+01  0.13402027427E+02 -0.12676191109E+02  0.18529429550E+02  0.51100000000E-03 0. -1.
        -11    1    3    3    0    0 -0.59635348004E+01 -0.58062156242E+00  0.27251475289E+01  0.65823474559E+01  0.51100000000E-03 0.  1.
        -12    1    3    3    0    0  0.17254981517E+02  0.10256560605E+02  0.27677327805E+02  0.34190143273E+02  0.00000000000E+00 0.  1.
</event>
<event>
 7    1  0.6246445E-012  0.5930196E+02  0.7816164E-02  0.1266605E+00
        -11   -1    0    0    0    0  0.00000000000E+00  0.00000000000E+00  0.45593999997E+02  0.45594000000E+02  0.51100000000E-03 0.  1.
         11   -1    0    0    0    0 -0.00000000000E+00 -0.00000000000E+00 -0.45593999997E+02  0.45594000000E+02  0.51100000000E-03 0. -1.
    9900012    2    1    2    0    0 -0.29914020878E+02  0.96288196508E+01 -0.53997102484E+01  0.59301957854E+02  0.50000025216E+02 0.  0.
         12    1    1    2    0    0  0.29914020878E+02 -0.96288196508E+01  0.53997102484E+01  0.31886042146E+02  0.00000000000E+00 0. -1.
         11    1    3    3    0    0 -0.81598073332E+01  0.14988786507E+02 -0.12480338022E+02  0.21142493090E+02  0.51100000000E-03 0. -1.
        -11    1    3    3    0    0 -0.28778308799E+02 -0.24408373973E+01  0.91145572750E+01  0.30285704534E+02  0.51100000000E-03 0.  1.
         12    1    3    3    0    0  0.70240952541E+01 -0.29191294588E+01 -0.20339295014E+01  0.78737602296E+01  0.00000000000E+00 0. -1.
</event>
<event>
 7    1  0.6246445E-012  0.5930186E+02  0.7816164E-02  0.1266605E+00
        -11   -1    0    0    0    0  0.00000000000E+00  0.00000000000E+00  0.45593999997E+02  0.45594000000E+02  0.51100000000E-03 0.  1.
         11   -1    0    0    0    0 -0.00000000000E+00 -0.00000000000E+00 -0.45593999997E+02  0.45594000000E+02  0.51100000000E-03 0. -1.
    9900012    2    1    2    0    0 -0.22532592363E+02  0.19248087760E+02  0.11769415401E+02  0.59301862889E+02  0.49999852022E+02 0.  0.
         12    1    1    2    0    0  0.22532592363E+02 -0.19248087760E+02 -0.11769415401E+02  0.31886137111E+02  0.00000000000E+00 0. -1.
         11    1    3    3    0    0 -0.75726713058E+01  0.10372391274E+02 -0.52760519295E+01  0.13884112348E+02  0.51100000000E-03 0. -1.
        -11    1    3    3    0    0  0.12798426721E+02  0.12382921916E+01  0.22674831142E+01  0.13056591210E+02  0.51100000000E-03 0.  1.
        -12    1    3    3    0    0 -0.27758347779E+02  0.76374042935E+01  0.14777984216E+02  0.32361159331E+02  0.00000000000E+00 0.  1.
</event>
<event>
 7    1  0.6246445E-012  0.5930200E+02  0.7816164E-02  0.1266605E+00
        -11   -1    0    0    0    0  0.00000000000E+00  0.00000000000E+00  0.45593999997E+02  0.45594000000E+02  0.51100000000E-03 0.  1.
         11   -1    0    0    0    0 -0.00000000000E+00 -0.00000000000E+00 -0.45593999997E+02  0.45594000000E+02  0.51100000000E-03 0. -1.
    9900012    2    1    2    0    0  0.11749580007E+02 -0.25755742802E+02 -0.14673301834E+02  0.59302004574E+02  0.50000110421E+02 0.  0.
         12    1    1    2    0    0 -0.11749580007E+02  0.25755742802E+02  0.14673301834E+02  0.31885995426E+02  0.00000000000E+00 0. -1.
         11    1    3    3    0    0 -0.12819144134E+02 -0.86549039506E+01  0.68681842684E+01  0.16923645415E+02  0.51100000000E-03 0. -1.
        -11    1    3    3    0    0  0.18187135595E+02 -0.38465032666E+01 -0.31942019653E+01  0.18861877292E+02  0.51100000000E-03 0.  1.
        -12    1    3    3    0    0  0.63815885463E+01 -0.13254335584E+02 -0.18347284138E+02  0.23516481867E+02  0.00000000000E+00 0.  1.
</event>
<event>
 7    1  0.6246445E-012  0.5930197E+02  0.7816164E-02  0.1266605E+00
        -11   -1    0    0    0    0  0.00000000000E+00  0.00000000000E+00  0.45593999997E+02  0.45594000000E+02  0.51100000000E-03 0.  1.
         11   -1    0    0    0    0 -0.00000000000E+00 -0.00000000000E+00 -0.45593999997E+02  0.45594000000E+02  0.51100000000E-03 0. -1.
    9900012    2    1    2    0    0  0.51638201124E+01 -0.15117729990E+02  0.27595439834E+02  0.59301967042E+02  0.50000041972E+02 0.  0.
         12    1    1    2    0    0 -0.51638201124E+01  0.15117729990E+02 -0.27595439834E+02  0.31886032958E+02  0.00000000000E+00 0. -1.
         11    1    3    3    0    0 -0.95626769372E+01 -0.33525591306E+01  0.82970459933E+01  0.13096771182E+02  0.51100000000E-03 0. -1.
        -11    1    3    3    0    0  0.48870608426E+01  0.43061330214E+01  0.25537489868E+02  0.26355066577E+02  0.51100000000E-03 0.  1.
         12    1    3    3    0    0  0.98394362070E+01 -0.16071303880E+02 -0.62390960271E+01  0.19850129282E+02  0.00000000000E+00 0. -1.
</event>
<event>
 7    1  0.6246445E-012  0.5930200E+02  0.7816164E-02  0.1266605E+00
        -11   -1    0    0    0    0  0.00000000000E+00  0.00000000000E+00  0.45593999997E+02  0.45594000000E+02  0.51100000000E-03 0. -1.
         11   -1    0    0    0    0 -0.00000000000E+00 -0.00000000000E+00 -0.45593999997E+02  0.45594000000E+02  0.51100000000E-03 0.  1.
    9900012    2    1    2    0    0 -0.91146576067E+01 -0.24189957786E+02 -0.18667784819E+02  0.59301996315E+02  0.50000095360E+02 0.  0.
         12    1    1    2    0    0  0.91146576067E+01  0.24189957786E+02  0.18667784819E+02  0.31886003685E+02  0.00000000000E+00 0. -1.
         11    1    3    3    0    0 -0.16443982148E+01 -0.78625048018E+01 -0.67078336182E+01  0.10465087642E+02  0.51100000000E-03 0. -1.
        -11    1    3    3    0    0  0.63029054020E+01 -0.26926103095E+02 -0.14578995487E+02  0.31261617905E+02  0.51100000000E-03 0.  1.
         12    1    3    3    0    0 -0.13773164794E+02  0.10598650111E+02  0.26190442865E+01  0.17575290768E+02  0.00000000000E+00 0. -1.
</event>
<event>
 7    1  0.6246445E-012  0.5930197E+02  0.7816164E-02  0.1266605E+00
        -11   -1    0    0    0    0  0.00000000000E+00  0.00000000000E+00  0.45593999997E+02  0.45594000000E+02  0.51100000000E-03 0.  1.
         11   -1    0    0    0    0 -0.00000000000E+00 -0.00000000000E+00 -0.45593999997E+02  0.45594000000E+02  0.51100000000E-03 0. -1.
    9900012    2    1    2    0    0 -0.20209469339E+02 -0.85951644602E+01  0.23117517668E+02  0.59301966597E+02  0.50000041160E+02 0.  0.
         12    1    1    2    0    0  0.20209469339E+02  0.85951644602E+01 -0.23117517668E+02  0.31886033403E+02  0.00000000000E+00 0. -1.
         11    1    3    3    0    0  0.64085660827E+01  0.28034467700E-01 -0.96218316371E+00  0.64804553752E+01  0.51100000000E-03 0. -1.
        -11    1    3    3    0    0  0.33213348835E+01  0.90377392028E+01  0.13316707395E+02  0.16433097438E+02  0.51100000000E-03 0.  1.
        -12    1    3    3    0    0 -0.29939370305E+02 -0.17660938131E+02  0.10762993437E+02  0.36388413783E+02  0.00000000000E+00 0.  1.
</event>
<event>
 7    1  0.6246445E-012  0.5930195E+02  0.7816164E-02  0.1266605E+00
        -11   -1    0    0    0    0  0.00000000000E+00  0.00000000000E+00  0.45593999997E+02  0.45594000000E+02  0.51100000000E-03 0.  1.
         11   -1    0    0    0    0 -0.00000000000E+00 -0.00000000000E+00 -0.45593999997E+02  0.45594000000E+02  0.51100000000E-03 0. -1.
    9900012    2    1    2    0    0  0.11861130228E+02  0.87646177083E+01  0.28270399485E+02  0.59301946295E+02  0.50000004135E+02 0.  0.
         12    1    1    2    0    0 -0.11861130228E+02 -0.87646177083E+01 -0.28270399485E+02  0.31886053705E+02  0.00000000000E+00 0. -1.
         11    1    3    3    0    0  0.53772461779E+01 -0.11919474436E+01  0.15160645335E+02  0.16130117247E+02  0.51100000000E-03 0. -1.
        -11    1    3    3    0    0 -0.12070125420E+02  0.49371147406E+01  0.19021252040E+02  0.23062329871E+02  0.51100000000E-03 0.  1.
         12    1    3    3    0    0  0.18554009470E+02  0.50194504112E+01 -0.59114978907E+01  0.20109499177E+02  0.00000000000E+00 0. -1.
</event>
<event>
 7    1  0.6246445E-012  0.5930192E+02  0.7816164E-02  0.1266605E+00
        -11   -1    0    0    0    0  0.00000000000E+00  0.00000000000E+00  0.45593999997E+02  0.45594000000E+02  0.51100000000E-03 0. -1.
         11   -1    0    0    0    0 -0.00000000000E+00 -0.00000000000E+00 -0.45593999997E+02  0.45594000000E+02  0.51100000000E-03 0.  1.
    9900012    2    1    2    0    0 -0.10232540415E+02  0.25253336812E+01 -0.30093847906E+02  0.59301923488E+02  0.49999962540E+02 0.  0.
         12    1    1    2    0    0  0.10232540415E+02 -0.25253336812E+01  0.30093847906E+02  0.31886076512E+02  0.00000000000E+00 0. -1.
         11    1    3    3    0    0 -0.22775972750E+02 -0.69398316341E+01 -0.19504891965E+02  0.30779002723E+02  0.51100000000E-03 0. -1.
        -11    1    3    3    0    0 -0.18377060420E+01 -0.47800874606E+01 -0.57703748552E+01  0.77151555952E+01  0.51100000000E-03 0.  1.
         12    1    3    3    0    0  0.14381138377E+02  0.14245252776E+02 -0.48185810854E+01  0.20807765169E+02  0.00000000000E+00 0. -1.
</event>
<event>
 7    1  0.6246445E-012  0.5930197E+02  0.7816164E-02  0.1266605E+00
        -11   -1    0    0    0    0  0.00000000000E+00  0.00000000000E+00  0.45593999997E+02  0.45594000000E+02  0.51100000000E-03 0.  1.
         11   -1    0    0    0    0 -0.00000000000E+00 -0.00000000000E+00 -0.45593999997E+02  0.45594000000E+02  0.51100000000E-03 0. -1.
    9900012    2    1    2    0    0  0.73903953445E+01  0.20696498157E+01  0.30948623803E+02  0.59301973139E+02  0.50000053092E+02 0.  0.
         12    1    1    2    0    0 -0.73903953445E+01 -0.20696498157E+01 -0.30948623803E+02  0.31886026861E+02  0.00000000000E+00 0. -1.
         11    1    3    3    0    0 -0.18816151428E+00 -0.62289961873E+01 -0.95477142441E+01  0.11401519452E+02  0.51100000000E-03 0. -1.
        -11    1    3    3    0    0 -0.59798112720E+01  0.48542967504E+01  0.37200432639E+01  0.85534239890E+01  0.51100000000E-03 0.  1.
         12    1    3    3    0    0  0.13558368131E+02  0.34443492527E+01  0.36776294783E+02  0.39347029698E+02  0.00000000000E+00 0. -1.
</event>
<event>
 7    1  0.6246445E-012  0.5930195E+02  0.7816164E-02  0.1266605E+00
        -11   -1    0    0    0    0  0.00000000000E+00  0.00000000000E+00  0.45593999997E+02  0.45594000000E+02  0.51100000000E-03 0.  1.
         11   -1    0    0    0    0 -0.00000000000E+00 -0.00000000000E+00 -0.45593999997E+02  0.45594000000E+02  0.51100000000E-03 0. -1.
    9900012    2    1    2    0    0  0.60284947938E+01  0.23264209602E+02 -0.20956002119E+02  0.59301949403E+02  0.50000009802E+02 0.  0.
         12    1    1    2    0    0 -0.60284947938E+01 -0.23264209602E+02  0.20956002119E+02  0.31886050597E+02  0.00000000000E+00 0. -1.
         11    1    3    3    0    0  0.11076507000E+02  0.42096697439E+01  0.18007872893E+01  0.11985539696E+02  0.51100000000E-03 0. -1.
        -11    1    3    3    0    0  0.55053172057E+00  0.22812781438E+02  0.78002159347E+00  0.22832750952E+02  0.51100000000E-03 0.  1.
         12    1    3    3    0    0 -0.55985439269E+01 -0.37582415797E+01 -0.23536811002E+02  0.24483658755E+02  0.00000000000E+00 0. -1.
</event>
<event>
 7    1  0.6246445E-012  0.5930195E+02  0.7816164E-02  0.1266605E+00
        -11   -1    0    0    0    0  0.00000000000E+00  0.00000000000E+00  0.45593999997E+02  0.45594000000E+02  0.51100000000E-03 0. -1.
         11   -1    0    0    0    0 -0.00000000000E+00 -0.00000000000E+00 -0.45593999997E+02  0.45594000000E+02  0.51100000000E-03 0.  1.
    9900012    2    1    2    0    0 -0.19305300700E+02 -0.25193968974E+02 -0.30478630905E+01  0.59301950116E+02  0.50000011103E+02 0.  0.
         12    1    1    2    0    0  0.19305300700E+02  0.25193968974E+02  0.30478630905E+01  0.31886049884E+02  0.00000000000E+00 0. -1.
         11    1    3    3    0    0 -0.20720157635E+02 -0.11563766510E+02  0.13858155488E+02  0.27478975638E+02  0.51100000000E-03 0. -1.
        -11    1    3    3    0    0 -0.55670248215E+01  0.37681841021E+01 -0.95624844895E+01  0.11688972866E+02  0.51100000000E-03 0.  1.
        -12    1    3    3    0    0  0.69818817565E+01 -0.17398386566E+02 -0.73435340893E+01  0.20134001611E+02  0.00000000000E+00 0.  1.
</event>
<event>
 7    1  0.6246445E-012  0.5930193E+02  0.7816164E-02  0.1266605E+00
        -11   -1    0    0    0    0  0.00000000000E+00  0.00000000000E+00  0.45593999997E+02  0.45594000000E+02  0.51100000000E-03 0.  1.
         11   -1    0    0    0    0 -0.00000000000E+00 -0.00000000000E+00 -0.45593999997E+02  0.45594000000E+02  0.51100000000E-03 0. -1.
    9900012    2    1    2    0    0  0.19317328283E+02 -0.32334467400E+00  0.25366468419E+02  0.59301930254E+02  0.49999974881E+02 0.  0.
         12    1    1    2    0    0 -0.19317328283E+02  0.32334467400E+00 -0.25366468419E+02  0.31886069746E+02  0.00000000000E+00 0. -1.
         11    1    3    3    0    0 -0.18778064122E+01 -0.72251439874E+01  0.21110208252E+02  0.22391287486E+02  0.51100000000E-03 0. -1.
        -11    1    3    3    0    0  0.20067333138E+02 -0.12877285086E+01  0.13721097883E+02  0.24343882832E+02  0.51100000000E-03 0.  1.
         12    1    3    3    0    0  0.11278015567E+01  0.81895278220E+01 -0.94648377159E+01  0.12566759936E+02  0.00000000000E+00 0. -1.
</event>
<event>
 7    1  0.6246445E-012  0.5930195E+02  0.7816164E-02  0.1266605E+00
        -11   -1    0    0    0    0  0.00000000000E+00  0.00000000000E+00  0.45593999997E+02  0.45594000000E+02  0.51100000000E-03 0. -1.
         11   -1    0    0    0    0 -0.00000000000E+00 -0.00000000000E+00 -0.45593999997E+02  0.45594000000E+02  0.51100000000E-03 0.  1.
    9900012    2    1    2    0    0 -0.21733789485E+01 -0.22965332921E+02 -0.22013403934E+02  0.59301952189E+02  0.50000014884E+02 0.  0.
         12    1    1    2    0    0  0.21733789485E+01  0.22965332921E+02  0.22013403934E+02  0.31886047811E+02  0.00000000000E+00 0. -1.
         11    1    3    3    0    0 -0.59502770344E+01 -0.26909662146E+01  0.10518097826E+02  0.12380528183E+02  0.51100000000E-03 0. -1.
        -11    1    3    3    0    0 -0.27942066423E+01 -0.13351950726E+01  0.41150394145E+01  0.51501345891E+01  0.51100000000E-03 0.  1.
        -12    1    3    3    0    0  0.65711047282E+01 -0.18939171634E+02 -0.36646541174E+02  0.41771289417E+02  0.00000000000E+00 0.  1.
</event>
<event>
 7    1  0.6246445E-012  0.5930193E+02  0.7816164E-02  0.1266605E+00
        -11   -1    0    0    0    0  0.00000000000E+00  0.00000000000E+00  0.45593999997E+02  0.45594000000E+02  0.51100000000E-03 0. -1.
         11   -1    0    0    0    0 -0.00000000000E+00 -0.00000000000E+00 -0.45593999997E+02  0.45594000000E+02  0.51100000000E-03 0.  1.
    9900012    2    1    2    0    0  0.22116877012E+02  0.43092616993E+01 -0.22560935117E+02  0.59301925006E+02  0.49999965309E+02 0.  0.
         12    1    1    2    0    0 -0.22116877012E+02 -0.43092616993E+01  0.22560935117E+02  0.31886074994E+02  0.00000000000E+00 0. -1.
         11    1    3    3    0    0 -0.15778653189E+01  0.11353299646E+02  0.65092374239E+01  0.13181701101E+02  0.51100000000E-03 0. -1.
        -11    1    3    3    0    0 -0.20367987335E+01 -0.89125127169E+01 -0.12392064326E+02  0.15399502932E+02  0.51100000000E-03 0.  1.
        -12    1    3    3    0    0  0.25731541065E+02  0.18684747701E+01 -0.16678108214E+02  0.30720720973E+02  0.00000000000E+00 0.  1.
</event>
<event>
 7    1  0.6246445E-012  0.5930197E+02  0.7816164E-02  0.1266605E+00
        -11   -1    0    0    0    0  0.00000000000E+00  0.00000000000E+00  0.45593999997E+02  0.45594000000E+02  0.51100000000E-03 0. -1.
         11   -1    0    0    0    0 -0.00000000000E+00 -0.00000000000E+00 -0.45593999997E+02  0.45594000000E+02  0.51100000000E-03 0.  1.
    9900012    2    1    2    0    0  0.20177494143E+02  0.24689741470E+02 -0.65263948311E-01  0.59301970722E+02  0.50000048684E+02 0.  0.
         12    1    1    2    0    0 -0.20177494143E+02 -0.24689741470E+02  0.65263948311E-01  0.31886029278E+02  0.00000000000E+00 0. -1.
         11    1    3    3    0    0  0.28100604913E+02  0.48468921019E+00  0.12101644236E+01  0.28130826833E+02  0.51100000000E-03 0. -1.
        -11    1    3    3    0    0  0.40205372777E+01 -0.13604410603E+00  0.82734242621E-01  0.40236890059E+01  0.51100000000E-03 0.  1.
        -12    1    3    3    0    0 -0.11943648048E+02  0.24341096365E+02 -0.13581626146E+01  0.27147454883E+02  0.00000000000E+00 0.  1.
</event>
<event>
 7    1  0.6246445E-012  0.5930192E+02  0.7816164E-02  0.1266605E+00
        -11   -1    0    0    0    0  0.00000000000E+00  0.00000000000E+00  0.45593999997E+02  0.45594000000E+02  0.51100000000E-03 0.  1.
         11   -1    0    0    0    0 -0.00000000000E+00 -0.00000000000E+00 -0.45593999997E+02  0.45594000000E+02  0.51100000000E-03 0. -1.
    9900012    2    1    2    0    0 -0.25235130269E+02  0.10346262310E+02  0.16518624549E+02  0.59301923094E+02  0.49999961822E+02 0.  0.
         12    1    1    2    0    0  0.25235130269E+02 -0.10346262310E+02 -0.16518624549E+02  0.31886076906E+02  0.00000000000E+00 0. -1.
         11    1    3    3    0    0 -0.17457659878E+02 -0.32178484331E+01 -0.90861147047E+01  0.19941963736E+02  0.51100000000E-03 0. -1.
        -11    1    3    3    0    0  0.72118739580E+01  0.53441767290E+00  0.36205433337E+00  0.72407052029E+01  0.51100000000E-03 0.  1.
        -12    1    3    3    0    0 -0.14989344349E+02  0.13029693070E+02  0.25242684920E+02  0.32119254155E+02  0.00000000000E+00 0.  1.
</event>
<event>
 7    1  0.6246445E-012  0.5930194E+02  0.7816164E-02  0.1266605E+00
        -11   -1    0    0    0    0  0.00000000000E+00  0.00000000000E+00  0.45593999997E+02  0.45594000000E+02  0.51100000000E-03 0.  1.
         11   -1    0    0    0    0 -0.00000000000E+00 -0.00000000000E+00 -0.45593999997E+02  0.45594000000E+02  0.51100000000E-03 0. -1.
    9900012    2    1    2    0    0 -0.26294690289E+02 -0.65029737279E+01  0.16823247753E+02  0.59301936121E+02  0.49999985581E+02 0.  0.
         12    1    1    2    0    0  0.26294690289E+02  0.65029737279E+01 -0.16823247753E+02  0.31886063879E+02  0.00000000000E+00 0. -1.
         11    1    3    3    0    0 -0.25389326686E+02 -0.51831401867E+00 -0.17180971685E+01  0.25452670138E+02  0.51100000000E-03 0. -1.
        -11    1    3    3    0    0 -0.11373009072E+02 -0.76113261903E+00 -0.60203933823E+00  0.11414337906E+02  0.51100000000E-03 0.  1.
        -12    1    3    3    0    0  0.10467645469E+02 -0.52235270902E+01  0.19143384260E+02  0.22434928078E+02  0.00000000000E+00 0.  1.
</event>
<event>
 7    1  0.6246445E-012  0.5930193E+02  0.7816164E-02  0.1266605E+00
        -11   -1    0    0    0    0  0.00000000000E+00  0.00000000000E+00  0.45593999997E+02  0.45594000000E+02  0.51100000000E-03 0.  1.
         11   -1    0    0    0    0 -0.00000000000E+00 -0.00000000000E+00 -0.45593999997E+02  0.45594000000E+02  0.51100000000E-03 0. -1.
    9900012    2    1    2    0    0  0.26291900514E+02  0.73110365505E+01  0.16492609023E+02  0.59301930307E+02  0.49999974976E+02 0.  0.
         12    1    1    2    0    0 -0.26291900514E+02 -0.73110365505E+01 -0.16492609023E+02  0.31886069693E+02  0.00000000000E+00 0. -1.
         11    1    3    3    0    0 -0.91618184211E+01  0.13494338648E+02  0.67196632139E+01  0.17640577267E+02  0.51100000000E-03 0. -1.
        -11    1    3    3    0    0  0.20607465784E+02  0.15969144695E+01 -0.25941069563E+01  0.20831398729E+02  0.51100000000E-03 0.  1.
        -12    1    3    3    0    0  0.14846253151E+02 -0.77802165674E+01  0.12367052765E+02  0.20829954310E+02  0.00000000000E+00 0.  1.
</event>
<event>
 7    1  0.6246445E-012  0.5930202E+02  0.7816164E-02  0.1266604E+00
        -11   -1    0    0    0    0  0.00000000000E+00  0.00000000000E+00  0.45593999997E+02  0.45594000000E+02  0.51100000000E-03 0.  1.
         11   -1    0    0    0    0 -0.00000000000E+00 -0.00000000000E+00 -0.45593999997E+02  0.45594000000E+02  0.51100000000E-03 0. -1.
    9900012    2    1    2    0    0  0.23041322793E+01 -0.25892279205E+02 -0.18466091935E+02  0.59302020332E+02  0.50000139161E+02 0.  0.
         12    1    1    2    0    0 -0.23041322793E+01  0.25892279205E+02  0.18466091935E+02  0.31885979668E+02  0.00000000000E+00 0. -1.
         11    1    3    3    0    0  0.61686391911E+01 -0.18872297331E+02  0.37536723969E-01  0.19854901795E+02  0.51100000000E-03 0. -1.
        -11    1    3    3    0    0  0.41563158451E+01  0.16879332754E+01  0.86947428483E+01  0.97837944381E+01  0.51100000000E-03 0.  1.
         12    1    3    3    0    0 -0.80208227570E+01 -0.87079151492E+01 -0.27198371508E+02  0.29663324099E+02  0.00000000000E+00 0. -1.
</event>
<event>
 7    1  0.6246445E-012  0.5930194E+02  0.7816164E-02  0.1266605E+00
        -11   -1    0    0    0    0  0.00000000000E+00  0.00000000000E+00  0.45593999997E+02  0.45594000000E+02  0.51100000000E-03 0. -1.
         11   -1    0    0    0    0 -0.00000000000E+00 -0.00000000000E+00 -0.45593999997E+02  0.45594000000E+02  0.51100000000E-03 0.  1.
    9900012    2    1    2    0    0 -0.12329454431E+02  0.27880254201E+02 -0.93486349797E+01  0.59301937263E+02  0.49999987663E+02 0.  0.
         12    1    1    2    0    0  0.12329454431E+02 -0.27880254201E+02  0.93486349797E+01  0.31886062737E+02  0.00000000000E+00 0. -1.
         11    1    3    3    0    0 -0.16418103689E+02  0.85942008170E+01  0.62541154362E+01  0.19558332663E+02  0.51100000000E-03 0. -1.
        -11    1    3    3    0    0  0.69270727045E+00  0.25159228394E+02 -0.28903612957E+01  0.25334182549E+02  0.51100000000E-03 0.  1.
         12    1    3    3    0    0  0.33959419871E+01 -0.58731750102E+01 -0.12712389120E+02  0.14409422050E+02  0.00000000000E+00 0. -1.
</event>
<event>
 7    1  0.6246445E-012  0.5930193E+02  0.7816164E-02  0.1266605E+00
        -11   -1    0    0    0    0  0.00000000000E+00  0.00000000000E+00  0.45593999997E+02  0.45594000000E+02  0.51100000000E-03 0. -1.
         11   -1    0    0    0    0 -0.00000000000E+00 -0.00000000000E+00 -0.45593999997E+02  0.45594000000E+02  0.51100000000E-03 0.  1.
    9900012    2    1    2    0    0  0.30224914744E+01  0.13245833072E+02 -0.28846734530E+02  0.59301927154E+02  0.49999969227E+02 0.  0.
         12    1    1    2    0    0 -0.30224914744E+01 -0.13245833072E+02  0.28846734530E+02  0.31886072846E+02  0.00000000000E+00 0. -1.
         11    1    3    3    0    0  0.16057465596E+02  0.15677202992E+02 -0.66361594729E+01  0.23402040676E+02  0.51100000000E-03 0. -1.
        -11    1    3    3    0    0 -0.61465631528E+01  0.11237319917E+02 -0.87004232984E+01  0.15484022841E+02  0.51100000000E-03 0.  1.
        -12    1    3    3    0    0 -0.68884109687E+01 -0.13668689837E+02 -0.13510151758E+02  0.20415863637E+02  0.00000000000E+00 0.  1.
</event>
<event>
 7    1  0.6246445E-012  0.5930193E+02  0.7816164E-02  0.1266605E+00
        -11   -1    0    0    0    0  0.00000000000E+00  0.00000000000E+00  0.45593999997E+02  0.45594000000E+02  0.51100000000E-03 0.  1.
         11   -1    0    0    0    0 -0.00000000000E+00 -0.00000000000E+00 -0.45593999997E+02  0.45594000000E+02  0.51100000000E-03 0. -1.
    9900012    2    1    2    0    0 -0.10085659906E+01 -0.62957128501E+01  0.31242087183E+02  0.59301933808E+02  0.49999981363E+02 0.  0.
         12    1    1    2    0    0  0.10085659906E+01  0.62957128501E+01 -0.31242087183E+02  0.31886066192E+02  0.00000000000E+00 0. -1.
         11    1    3    3    0    0  0.37701711751E+01 -0.30623899397E+01 -0.35837225382E+01  0.60361817670E+01  0.51100000000E-03 0. -1.
        -11    1    3    3    0    0 -0.10863078709E+02 -0.17876038440E+02  0.30221009026E+02  0.36754164609E+02  0.51100000000E-03 0.  1.
        -12    1    3    3    0    0  0.60843415435E+01  0.14642715529E+02  0.46048006952E+01  0.16511587432E+02  0.00000000000E+00 0.  1.
</event>
<event>
 7    1  0.6246445E-012  0.5930195E+02  0.7816164E-02  0.1266605E+00
        -11   -1    0    0    0    0  0.00000000000E+00  0.00000000000E+00  0.45593999997E+02  0.45594000000E+02  0.51100000000E-03 0. -1.
         11   -1    0    0    0    0 -0.00000000000E+00 -0.00000000000E+00 -0.45593999997E+02  0.45594000000E+02  0.51100000000E-03 0.  1.
    9900012    2    1    2    0    0 -0.62234949957E+01  0.23732993965E+02 -0.20365005274E+02  0.59301947684E+02  0.50000006668E+02 0.  0.
         12    1    1    2    0    0  0.62234949957E+01 -0.23732993965E+02  0.20365005274E+02  0.31886052316E+02  0.00000000000E+00 0. -1.
         11    1    3    3    0    0 -0.33092157693E+01 -0.93026265769E+00 -0.12783244496E+01  0.36674802358E+01  0.51100000000E-03 0. -1.
        -11    1    3    3    0    0 -0.16257668503E+02 -0.43741314644E+01 -0.16500485929E+02  0.23573520046E+02  0.51100000000E-03 0.  1.
         12    1    3    3    0    0  0.13343389276E+02  0.29037388087E+02 -0.25861948961E+01  0.32060947402E+02  0.00000000000E+00 0. -1.
</event>
<event>
 7    1  0.6246445E-012  0.5930193E+02  0.7816164E-02  0.1266605E+00
        -11   -1    0    0    0    0  0.00000000000E+00  0.00000000000E+00  0.45593999997E+02  0.45594000000E+02  0.51100000000E-03 0.  1.
         11   -1    0    0    0    0 -0.00000000000E+00 -0.00000000000E+00 -0.45593999997E+02  0.45594000000E+02  0.51100000000E-03 0. -1.
    9900012    2    1    2    0    0  0.31658890819E+02  0.81379865495E+00  0.37112888101E+01  0.59301932498E+02  0.49999978972E+02 0.  0.
         12    1    1    2    0    0 -0.31658890819E+02 -0.81379865495E+00 -0.37112888101E+01  0.31886067502E+02  0.00000000000E+00 0. -1.
         11    1    3    3    0    0  0.56006222771E+01  0.89908697026E+01  0.25048182902E+01  0.10884705914E+02  0.51100000000E-03 0. -1.
        -11    1    3    3    0    0  0.22233893911E+02  0.10725456957E+00  0.18460615221E+02  0.28898994041E+02  0.51100000000E-03 0.  1.
        -12    1    3    3    0    0  0.38243746301E+01 -0.82843256172E+01 -0.17254144701E+02  0.19518232543E+02  0.00000000000E+00 0.  1.
</event>
<event>
 7    1  0.6246445E-012  0.5930197E+02  0.7816164E-02  0.1266605E+00
        -11   -1    0    0    0    0  0.00000000000E+00  0.00000000000E+00  0.45593999997E+02  0.45594000000E+02  0.51100000000E-03 0. -1.
         11   -1    0    0    0    0 -0.00000000000E+00 -0.00000000000E+00 -0.45593999997E+02  0.45594000000E+02  0.51100000000E-03 0.  1.
    9900012    2    1    2    0    0  0.27591706193E+02  0.15451869519E+01 -0.15906895961E+02  0.59301965558E+02  0.50000039266E+02 0.  0.
         12    1    1    2    0    0 -0.27591706193E+02 -0.15451869519E+01  0.15906895961E+02  0.31886034442E+02  0.00000000000E+00 0. -1.
         11    1    3    3    0    0  0.13915341585E+02 -0.21408865185E+01  0.14266907909E+02  0.20044071145E+02  0.51100000000E-03 0. -1.
        -11    1    3    3    0    0  0.50917471254E+01 -0.82054689830E+01 -0.16961284166E+02  0.19517704036E+02  0.51100000000E-03 0.  1.
        -12    1    3    3    0    0  0.85846174817E+01  0.11891542453E+02 -0.13212519703E+02  0.19740190378E+02  0.00000000000E+00 0.  1.
</event>
<event>
 7    1  0.6246445E-012  0.5930200E+02  0.7816164E-02  0.1266605E+00
        -11   -1    0    0    0    0  0.00000000000E+00  0.00000000000E+00  0.45593999997E+02  0.45594000000E+02  0.51100000000E-03 0.  1.
         11   -1    0    0    0    0 -0.00000000000E+00 -0.00000000000E+00 -0.45593999997E+02  0.45594000000E+02  0.51100000000E-03 0. -1.
    9900012    2    1    2    0    0 -0.21882813806E+02  0.26190039594E+01  0.23043444518E+02  0.59301999043E+02  0.50000100334E+02 0.  0.
         12    1    1    2    0    0  0.21882813806E+02 -0.26190039594E+01 -0.23043444518E+02  0.31886000957E+02  0.00000000000E+00 0. -1.
         11    1    3    3    0    0  0.81210608890E+01  0.31578697879E+01  0.55093602062E+01  0.10309065026E+02  0.51100000000E-03 0. -1.
        -11    1    3    3    0    0 -0.12701653808E+02 -0.36729885219E+01 -0.98233892108E+01  0.16471849622E+02  0.51100000000E-03 0.  1.
        -12    1    3    3    0    0 -0.17302220887E+02  0.31341226934E+01  0.27357473522E+02  0.32521084395E+02  0.00000000000E+00 0.  1.
</event>
<event>
 7    1  0.6246445E-012  0.5930195E+02  0.7816164E-02  0.1266605E+00
        -11   -1    0    0    0    0  0.00000000000E+00  0.00000000000E+00  0.45593999997E+02  0.45594000000E+02  0.51100000000E-03 0. -1.
         11   -1    0    0    0    0 -0.00000000000E+00 -0.00000000000E+00 -0.45593999997E+02  0.45594000000E+02  0.51100000000E-03 0.  1.
    9900012    2    1    2    0    0  0.85774917388E+01  0.12071703492E+02 -0.28238637224E+02  0.59301952550E+02  0.50000015542E+02 0.  0.
         12    1    1    2    0    0 -0.85774917388E+01 -0.12071703492E+02  0.28238637224E+02  0.31886047450E+02  0.00000000000E+00 0. -1.
         11    1    3    3    0    0  0.58768622295E+01  0.21111414787E+02 -0.75178599117E+01  0.23167813058E+02  0.51100000000E-03 0. -1.
        -11    1    3    3    0    0  0.10514897141E+01 -0.56021367090E+01 -0.27646678382E+02  0.28228148933E+02  0.51100000000E-03 0.  1.
         12    1    3    3    0    0  0.16491397952E+01 -0.34375745857E+01  0.69259010700E+01  0.79059905596E+01  0.00000000000E+00 0. -1.
</event>
<event>
 7    1  0.6246445E-012  0.5930195E+02  0.7816164E-02  0.1266605E+00
        -11   -1    0    0    0    0  0.00000000000E+00  0.00000000000E+00  0.45593999997E+02  0.45594000000E+02  0.51100000000E-03 0. -1.
         11   -1    0    0    0    0 -0.00000000000E+00 -0.00000000000E+00 -0.45593999997E+02  0.45594000000E+02  0.51100000000E-03 0.  1.
    9900012    2    1    2    0    0  0.44881778772E+01  0.13090637968E+02 -0.28726500656E+02  0.59301946888E+02  0.50000005217E+02 0.  0.
         12    1    1    2    0    0 -0.44881778772E+01 -0.13090637968E+02  0.28726500656E+02  0.31886053112E+02  0.00000000000E+00 0. -1.
         11    1    3    3    0    0  0.53568236281E+01  0.26570026798E+02 -0.34549681541E+01  0.27323958144E+02  0.51100000000E-03 0.  1.
        -11    1    3    3    0    0  0.65020729751E+01 -0.41862985042E+01 -0.99839025043E+01  0.12628553267E+02  0.51100000000E-03 0. -1.
        -12    1    3    3    0    0 -0.73707187260E+01 -0.92930903260E+01 -0.15287629998E+02  0.19349435477E+02  0.00000000000E+00 0.  1.
</event>
<event>
 7    1  0.6246445E-012  0.5930196E+02  0.7816164E-02  0.1266605E+00
        -11   -1    0    0    0    0  0.00000000000E+00  0.00000000000E+00  0.45593999997E+02  0.45594000000E+02  0.51100000000E-03 0. -1.
         11   -1    0    0    0    0 -0.00000000000E+00 -0.00000000000E+00 -0.45593999997E+02  0.45594000000E+02  0.51100000000E-03 0.  1.
    9900012    2    1    2    0    0 -0.16871494488E+02  0.21858086661E+02  0.15946668449E+02  0.59301960525E+02  0.50000030088E+02 0.  0.
         12    1    1    2    0    0  0.16871494488E+02 -0.21858086661E+02 -0.15946668449E+02  0.31886039475E+02  0.00000000000E+00 0. -1.
         11    1    3    3    0    0  0.51375435204E+01  0.17381768926E+02  0.62202434815E+01  0.19162767902E+02  0.51100000000E-03 0. -1.
        -11    1    3    3    0    0 -0.19619978689E+02  0.12397744296E+02  0.17280570847E+02  0.28935544862E+02  0.51100000000E-03 0.  1.
         12    1    3    3    0    0 -0.23890593198E+01 -0.79214265614E+01 -0.75541458796E+01  0.11203647762E+02  0.00000000000E+00 0. -1.
</event>
<event>
 7    1  0.6246445E-012  0.5930197E+02  0.7816164E-02  0.1266605E+00
        -11   -1    0    0    0    0  0.00000000000E+00  0.00000000000E+00  0.45593999997E+02  0.45594000000E+02  0.51100000000E-03 0.  1.
         11   -1    0    0    0    0 -0.00000000000E+00 -0.00000000000E+00 -0.45593999997E+02  0.45594000000E+02  0.51100000000E-03 0. -1.
    9900012    2    1    2    0    0 -0.14090004757E+02 -0.28578645164E+02 -0.12049781006E+01  0.59301965977E+02  0.50000040031E+02 0.  0.
         12    1    1    2    0    0  0.14090004757E+02  0.28578645164E+02  0.12049781006E+01  0.31886034023E+02  0.00000000000E+00 0. -1.
         11    1    3    3    0    0 -0.13535876540E+02 -0.39509269085E+01 -0.14960073927E+02  0.20558054122E+02  0.51100000000E-03 0. -1.
        -11    1    3    3    0    0 -0.97067634394E+01 -0.14633739873E+02 -0.23263878799E+01  0.17713827366E+02  0.51100000000E-03 0.  1.
        -12    1    3    3    0    0  0.91526352219E+01 -0.99939783827E+01  0.16081483706E+02  0.21030084489E+02  0.00000000000E+00 0.  1.
</event>
<event>
 7    1  0.9047232E-012  0.5930195E+02  0.7816164E-02  0.1266605E+00
        -11   -1    0    0    0    0  0.00000000000E+00  0.00000000000E+00  0.45593999997E+02  0.45594000000E+02  0.51100000000E-03 0. -1.
         11   -1    0    0    0    0 -0.00000000000E+00 -0.00000000000E+00 -0.45593999997E+02  0.45594000000E+02  0.51100000000E-03 0.  1.
    9900012    2    1    2    0    0 -0.25052388578E+02  0.17088044396E+02  0.98537656018E+01  0.59301950836E+02  0.50000012417E+02 0.  0.
         12    1    1    2    0    0  0.25052388578E+02 -0.17088044396E+02 -0.98537656018E+01  0.31886049164E+02  0.00000000000E+00 0. -1.
         11    1    3    3    0    0  0.48495278610E+00 -0.80341378112E+01  0.68935653047E+01  0.10597348369E+02  0.51100000000E-03 0. -1.
        -11    1    3    3    0    0 -0.30859467749E+02  0.15175537251E+02 -0.52022843010E+01  0.34780273760E+02  0.51100000000E-03 0.  1.
         12    1    3    3    0    0  0.53221263847E+01  0.99466449561E+01  0.81624845981E+01  0.13924328707E+02  0.00000000000E+00 0. -1.
</event>
<event>
 7    1  0.6246445E-012  0.5930155E+02  0.7816164E-02  0.1266606E+00
        -11   -1    0    0    0    0  0.00000000000E+00  0.00000000000E+00  0.45593999997E+02  0.45594000000E+02  0.51100000000E-03 0. -1.
         11   -1    0    0    0    0 -0.00000000000E+00 -0.00000000000E+00 -0.45593999997E+02  0.45594000000E+02  0.51100000000E-03 0.  1.
    9900012    2    1    2    0    0 -0.70524183299E+01  0.30789996062E+02 -0.43572022993E+01  0.59301550313E+02  0.49999281953E+02 0.  0.
         12    1    1    2    0    0  0.70524183299E+01 -0.30789996062E+02  0.43572022993E+01  0.31886449687E+02  0.00000000000E+00 0. -1.
         11    1    3    3    0    0  0.64134460927E+01  0.13878008436E+02 -0.14548591479E+02  0.21104334228E+02  0.51100000000E-03 0. -1.
        -11    1    3    3    0    0  0.43630873238E+01  0.18106796111E+02  0.26929427810E+01  0.18818728371E+02  0.51100000000E-03 0.  1.
         12    1    3    3    0    0 -0.17828951746E+02 -0.11948084855E+01  0.74984463984E+01  0.19378487714E+02  0.00000000000E+00 0. -1.
</event>
<event>
 7    1  0.9380861E-012  0.5930194E+02  0.7816164E-02  0.1266605E+00
        -11   -1    0    0    0    0  0.00000000000E+00  0.00000000000E+00  0.45593999997E+02  0.45594000000E+02  0.51100000000E-03 0. -1.
         11   -1    0    0    0    0 -0.00000000000E+00 -0.00000000000E+00 -0.45593999997E+02  0.45594000000E+02  0.51100000000E-03 0.  1.
    9900012    2    1    2    0    0  0.11536798071E+01 -0.20157792609E+02 -0.24679005417E+02  0.59301938965E+02  0.49999990766E+02 0.  0.
         12    1    1    2    0    0 -0.11536798071E+01  0.20157792609E+02  0.24679005417E+02  0.31886061035E+02  0.00000000000E+00 0. -1.
         11    1    3    3    0    0  0.17300204246E+02 -0.97397610852E+01 -0.12145056778E+02  0.23273642117E+02  0.51100000000E-03 0. -1.
        -11    1    3    3    0    0  0.24327104091E+01 -0.27044455153E+01 -0.15296123778E+02  0.15722706776E+02  0.51100000000E-03 0.  1.
         12    1    3    3    0    0 -0.18579234848E+02 -0.77135860089E+01  0.27621751394E+01  0.20305590072E+02  0.00000000000E+00 0. -1.
</event>
<event>
 7    1  0.6246445E-012  0.5930197E+02  0.7816164E-02  0.1266605E+00
        -11   -1    0    0    0    0  0.00000000000E+00  0.00000000000E+00  0.45593999997E+02  0.45594000000E+02  0.51100000000E-03 0.  1.
         11   -1    0    0    0    0 -0.00000000000E+00 -0.00000000000E+00 -0.45593999997E+02  0.45594000000E+02  0.51100000000E-03 0. -1.
    9900012    2    1    2    0    0  0.19129379011E+01 -0.19031792236E+02  0.25511774900E+02  0.59301966919E+02  0.50000041748E+02 0.  0.
         12    1    1    2    0    0 -0.19129379011E+01  0.19031792236E+02 -0.25511774900E+02  0.31886033081E+02  0.00000000000E+00 0. -1.
         11    1    3    3    0    0 -0.19331349901E+02 -0.17753774288E+02  0.14958951159E+02  0.30210392426E+02  0.51100000000E-03 0. -1.
        -11    1    3    3    0    0 -0.22440174078E+01 -0.25430407276E+01  0.25567159023E+01  0.42472893397E+01  0.51100000000E-03 0.  1.
        -12    1    3    3    0    0  0.23488305209E+02  0.12650227804E+01  0.79961078381E+01  0.24844285154E+02  0.00000000000E+00 0.  1.
</event>
<event>
 7    1  0.6246445E-012  0.5930197E+02  0.7816164E-02  0.1266605E+00
        -11   -1    0    0    0    0  0.00000000000E+00  0.00000000000E+00  0.45593999997E+02  0.45594000000E+02  0.51100000000E-03 0.  1.
         11   -1    0    0    0    0 -0.00000000000E+00 -0.00000000000E+00 -0.45593999997E+02  0.45594000000E+02  0.51100000000E-03 0. -1.
    9900012    2    1    2    0    0  0.30338418059E+02  0.28824074894E+00  0.98089712431E+01  0.59301974693E+02  0.50000055926E+02 0.  0.
         12    1    1    2    0    0 -0.30338418059E+02 -0.28824074894E+00 -0.98089712431E+01  0.31886025307E+02  0.00000000000E+00 0. -1.
         11    1    3    3    0    0  0.35966720948E+01 -0.53347137101E+01  0.30713626503E+01  0.71294101661E+01  0.51100000000E-03 0. -1.
        -11    1    3    3    0    0  0.15015557677E+02 -0.19096831804E+02  0.46396815979E+01  0.24732217912E+02  0.51100000000E-03 0.  1.
         12    1    3    3    0    0  0.11726188287E+02  0.24719786263E+02  0.20979269949E+01  0.27440346614E+02  0.00000000000E+00 0. -1.
</event>
<event>
 7    1  0.6246445E-012  0.5930190E+02  0.7816164E-02  0.1266605E+00
        -11   -1    0    0    0    0  0.00000000000E+00  0.00000000000E+00  0.45593999997E+02  0.45594000000E+02  0.51100000000E-03 0.  1.
         11   -1    0    0    0    0 -0.00000000000E+00 -0.00000000000E+00 -0.45593999997E+02  0.45594000000E+02  0.51100000000E-03 0. -1.
    9900012    2    1    2    0    0  0.23031112608E+02 -0.15993082069E+02  0.15182648459E+02  0.59301895875E+02  0.49999912182E+02 0.  0.
         12    1    1    2    0    0 -0.23031112608E+02  0.15993082069E+02 -0.15182648459E+02  0.31886104125E+02  0.00000000000E+00 0. -1.
         11    1    3    3    0    0  0.20787557153E+02  0.64891652017E+00  0.12615307154E+02  0.24324670602E+02  0.51100000000E-03 0.  1.
        -11    1    3    3    0    0  0.15696118428E+02 -0.13884993029E+02 -0.25638248728E+00  0.20957740751E+02  0.51100000000E-03 0. -1.
         12    1    3    3    0    0 -0.13452562974E+02 -0.27570055597E+01  0.28237237918E+01  0.14019484522E+02  0.00000000000E+00 0. -1.
</event>
<event>
 7    1  0.6246445E-012  0.5930197E+02  0.7816164E-02  0.1266605E+00
        -11   -1    0    0    0    0  0.00000000000E+00  0.00000000000E+00  0.45593999997E+02  0.45594000000E+02  0.51100000000E-03 0.  1.
         11   -1    0    0    0    0 -0.00000000000E+00 -0.00000000000E+00 -0.45593999997E+02  0.45594000000E+02  0.51100000000E-03 0. -1.
    9900012    2    1    2    0    0 -0.22790687876E+02  0.15817666878E+02  0.15719566955E+02  0.59301971326E+02  0.50000049786E+02 0.  0.
         12    1    1    2    0    0  0.22790687876E+02 -0.15817666878E+02 -0.15719566955E+02  0.31886028674E+02  0.00000000000E+00 0. -1.
         11    1    3    3    0    0 -0.72567347664E+01 -0.19118543742E+01  0.20406233507E+01  0.77768586549E+01  0.51100000000E-03 0. -1.
        -11    1    3    3    0    0 -0.25561215203E+02  0.23596956597E+02  0.16874094807E+01  0.34828715657E+02  0.51100000000E-03 0.  1.
        -12    1    3    3    0    0  0.10027262093E+02 -0.58674353451E+01  0.11991534124E+02  0.16696397015E+02  0.00000000000E+00 0.  1.
</event>
<event>
 7    1  0.6246445E-012  0.5930195E+02  0.7816164E-02  0.1266605E+00
        -11   -1    0    0    0    0  0.00000000000E+00  0.00000000000E+00  0.45593999997E+02  0.45594000000E+02  0.51100000000E-03 0.  1.
         11   -1    0    0    0    0 -0.00000000000E+00 -0.00000000000E+00 -0.45593999997E+02  0.45594000000E+02  0.51100000000E-03 0. -1.
    9900012    2    1    2    0    0  0.28236097950E+02  0.58411518560E+01  0.13613378528E+02  0.59301947290E+02  0.50000005950E+02 0.  0.
         12    1    1    2    0    0 -0.28236097950E+02 -0.58411518560E+01 -0.13613378528E+02  0.31886052710E+02  0.00000000000E+00 0. -1.
         11    1    3    3    0    0  0.13955703651E+02  0.12544506131E+02 -0.12102600874E+02  0.22329336010E+02  0.51100000000E-03 0. -1.
        -11    1    3    3    0    0  0.11138054900E+02 -0.43962813685E+00  0.89642719344E+00  0.11182715315E+02  0.51100000000E-03 0.  1.
         12    1    3    3    0    0  0.31423393995E+01 -0.62637261381E+01  0.24819552209E+02  0.25789895965E+02  0.00000000000E+00 0. -1.
</event>
<event>
 7    1  0.6246445E-012  0.5930191E+02  0.7816164E-02  0.1266605E+00
        -11   -1    0    0    0    0  0.00000000000E+00  0.00000000000E+00  0.45593999997E+02  0.45594000000E+02  0.51100000000E-03 0.  1.
         11   -1    0    0    0    0 -0.00000000000E+00 -0.00000000000E+00 -0.45593999997E+02  0.45594000000E+02  0.51100000000E-03 0. -1.
    9900012    2    1    2    0    0 -0.30932765644E+02 -0.77015092131E+01  0.75717398255E+00  0.59301912956E+02  0.49999943332E+02 0.  0.
         12    1    1    2    0    0  0.30932765644E+02  0.77015092131E+01 -0.75717398255E+00  0.31886087044E+02  0.00000000000E+00 0. -1.
         11    1    3    3    0    0  0.53243413112E+00  0.11867900446E+02  0.93360983608E+01  0.15109377219E+02  0.51100000000E-03 0. -1.
        -11    1    3    3    0    0 -0.44888278165E+01  0.40336546361E+01 -0.55859083083E+01  0.82232789554E+01  0.51100000000E-03 0.  1.
         12    1    3    3    0    0 -0.26976371959E+02 -0.23603064295E+02 -0.29930160700E+01  0.35969256781E+02  0.00000000000E+00 0. -1.
</event>
<event>
 7    1  0.6246445E-012  0.5930192E+02  0.7816164E-02  0.1266605E+00
        -11   -1    0    0    0    0  0.00000000000E+00  0.00000000000E+00  0.45593999997E+02  0.45594000000E+02  0.51100000000E-03 0. -1.
         11   -1    0    0    0    0 -0.00000000000E+00 -0.00000000000E+00 -0.45593999997E+02  0.45594000000E+02  0.51100000000E-03 0.  1.
    9900012    2    1    2    0    0 -0.64294128690E+00  0.22050055945E+02 -0.23023982195E+02  0.59301920015E+02  0.49999956207E+02 0.  0.
         12    1    1    2    0    0  0.64294128690E+00 -0.22050055945E+02  0.23023982195E+02  0.31886079985E+02  0.00000000000E+00 0. -1.
         11    1    3    3    0    0  0.57452612026E+01  0.25029063035E+01 -0.48620661302E+01  0.79317245014E+01  0.51100000000E-03 0. -1.
        -11    1    3    3    0    0  0.12391601407E+01  0.24806071056E+02 -0.28288777726E+02  0.37644808734E+02  0.51100000000E-03 0.  1.
         12    1    3    3    0    0 -0.76273626302E+01 -0.52589214148E+01  0.10126861661E+02  0.13725386780E+02  0.00000000000E+00 0. -1.
</event>
<event>
 7    1  0.6246445E-012  0.5930195E+02  0.7816164E-02  0.1266605E+00
        -11   -1    0    0    0    0  0.00000000000E+00  0.00000000000E+00  0.45593999997E+02  0.45594000000E+02  0.51100000000E-03 0. -1.
         11   -1    0    0    0    0 -0.00000000000E+00 -0.00000000000E+00 -0.45593999997E+02  0.45594000000E+02  0.51100000000E-03 0.  1.
    9900012    2    1    2    0    0  0.12675438519E+02  0.11182901645E+02 -0.27036936009E+02  0.59301953842E+02  0.50000017898E+02 0.  0.
         12    1    1    2    0    0 -0.12675438519E+02 -0.11182901645E+02  0.27036936009E+02  0.31886046158E+02  0.00000000000E+00 0. -1.
         11    1    3    3    0    0  0.11265109413E+02 -0.94353870212E+01 -0.11976930502E+02  0.18957217170E+02  0.51100000000E-03 0. -1.
        -11    1    3    3    0    0 -0.56239243352E+01 -0.61780354530E+01  0.84920611357E+00  0.83974876166E+01  0.51100000000E-03 0.  1.
        -12    1    3    3    0    0  0.70342534407E+01  0.26796324119E+02 -0.15909211621E+02  0.31947249055E+02  0.00000000000E+00 0.  1.
</event>
<event>
 7    1  0.6246445E-012  0.5930195E+02  0.7816164E-02  0.1266605E+00
        -11   -1    0    0    0    0  0.00000000000E+00  0.00000000000E+00  0.45593999997E+02  0.45594000000E+02  0.51100000000E-03 0. -1.
         11   -1    0    0    0    0 -0.00000000000E+00 -0.00000000000E+00 -0.45593999997E+02  0.45594000000E+02  0.51100000000E-03 0.  1.
    9900012    2    1    2    0    0 -0.68218894157E+01 -0.11129625226E+02  0.29091470529E+02  0.59301946772E+02  0.50000005005E+02 0.  0.
         12    1    1    2    0    0  0.68218894157E+01  0.11129625226E+02 -0.29091470529E+02  0.31886053228E+02  0.00000000000E+00 0. -1.
         11    1    3    3    0    0 -0.72995190546E+01 -0.53881550391E+01  0.29484671125E+02  0.30849003627E+02  0.51100000000E-03 0. -1.
        -11    1    3    3    0    0  0.61984076323E+01 -0.25323392443E+01  0.12390879584E+02  0.14084278340E+02  0.51100000000E-03 0.  1.
        -12    1    3    3    0    0 -0.57207779934E+01 -0.32091309428E+01 -0.12784080180E+02  0.14368664806E+02  0.00000000000E+00 0.  1.
</event>
<event>
 7    1  0.6246445E-012  0.5930194E+02  0.7816164E-02  0.1266605E+00
        -11   -1    0    0    0    0  0.00000000000E+00  0.00000000000E+00  0.45593999997E+02  0.45594000000E+02  0.51100000000E-03 0.  1.
         11   -1    0    0    0    0 -0.00000000000E+00 -0.00000000000E+00 -0.45593999997E+02  0.45594000000E+02  0.51100000000E-03 0. -1.
    9900012    2    1    2    0    0  0.13381685008E+02 -0.83997114041E+01  0.27696496968E+02  0.59301943649E+02  0.49999999309E+02 0.  0.
         12    1    1    2    0    0 -0.13381685008E+02  0.83997114041E+01 -0.27696496968E+02  0.31886056351E+02  0.00000000000E+00 0. -1.
         11    1    3    3    0    0  0.47033906137E+01  0.67328558476E+00  0.73049865586E+01  0.87142426880E+01  0.51100000000E-03 0. -1.
        -11    1    3    3    0    0 -0.14098242825E+02 -0.21359683928E+01  0.22550524584E+02  0.26680497953E+02  0.51100000000E-03 0.  1.
         12    1    3    3    0    0  0.22776537220E+02 -0.69370285960E+01 -0.21590141747E+01  0.23907203008E+02  0.00000000000E+00 0. -1.
</event>
<event>
 7    1  0.6246445E-012  0.5930192E+02  0.7816164E-02  0.1266605E+00
        -11   -1    0    0    0    0  0.00000000000E+00  0.00000000000E+00  0.45593999997E+02  0.45594000000E+02  0.51100000000E-03 0.  1.
         11   -1    0    0    0    0 -0.00000000000E+00 -0.00000000000E+00 -0.45593999997E+02  0.45594000000E+02  0.51100000000E-03 0. -1.
    9900012    2    1    2    0    0 -0.12423670957E+02  0.14867779135E+02  0.25324371670E+02  0.59301917504E+02  0.49999951627E+02 0.  0.
         12    1    1    2    0    0  0.12423670957E+02 -0.14867779135E+02 -0.25324371670E+02  0.31886082496E+02  0.00000000000E+00 0. -1.
         11    1    3    3    0    0 -0.18118117370E+02 -0.56724430316E+01  0.10372590512E+02  0.21634080086E+02  0.51100000000E-03 0. -1.
        -11    1    3    3    0    0  0.86745379289E+01  0.98979898422E+01  0.21214247552E+02  0.24965218017E+02  0.51100000000E-03 0.  1.
         12    1    3    3    0    0 -0.29800915162E+01  0.10642232325E+02 -0.62624663937E+01  0.12702619400E+02  0.00000000000E+00 0. -1.
</event>
<event>
 7    1  0.6246445E-012  0.5930195E+02  0.7816164E-02  0.1266605E+00
        -11   -1    0    0    0    0  0.00000000000E+00  0.00000000000E+00  0.45593999997E+02  0.45594000000E+02  0.51100000000E-03 0.  1.
         11   -1    0    0    0    0 -0.00000000000E+00 -0.00000000000E+00 -0.45593999997E+02  0.45594000000E+02  0.51100000000E-03 0. -1.
    9900012    2    1    2    0    0  0.21182552764E+02 -0.64413112121E+01  0.22946222346E+02  0.59301950517E+02  0.50000011834E+02 0.  0.
         12    1    1    2    0    0 -0.21182552764E+02  0.64413112121E+01 -0.22946222346E+02  0.31886049483E+02  0.00000000000E+00 0. -1.
         11    1    3    3    0    0  0.22349611631E+02 -0.17172194794E+02  0.95617731152E+01  0.29762676618E+02  0.51100000000E-03 0. -1.
        -11    1    3    3    0    0  0.10230217314E+02  0.10427084143E+02  0.97898287846E+01  0.17584714326E+02  0.51100000000E-03 0.  1.
         12    1    3    3    0    0 -0.11397276181E+02  0.30379943905E+00  0.35946204457E+01  0.11954559573E+02  0.00000000000E+00 0. -1.
</event>
<event>
 7    1  0.6246445E-012  0.5930196E+02  0.7816164E-02  0.1266605E+00
        -11   -1    0    0    0    0  0.00000000000E+00  0.00000000000E+00  0.45593999997E+02  0.45594000000E+02  0.51100000000E-03 0.  1.
         11   -1    0    0    0    0 -0.00000000000E+00 -0.00000000000E+00 -0.45593999997E+02  0.45594000000E+02  0.51100000000E-03 0. -1.
    9900012    2    1    2    0    0 -0.23603036290E+02  0.21405949695E+02  0.11839121976E+01  0.59301958343E+02  0.50000026108E+02 0.  0.
         12    1    1    2    0    0  0.23603036290E+02 -0.21405949695E+02 -0.11839121976E+01  0.31886041657E+02  0.00000000000E+00 0. -1.
         11    1    3    3    0    0 -0.13214266965E+02 -0.12807736914E+02 -0.52231974822E+01  0.19129473816E+02  0.51100000000E-03 0. -1.
        -11    1    3    3    0    0 -0.79435168413E+01  0.88775651035E+01 -0.41519164429E+01  0.12615428347E+02  0.51100000000E-03 0.  1.
        -12    1    3    3    0    0 -0.24452524837E+01  0.25336121505E+02  0.10559026123E+02  0.27557056180E+02  0.00000000000E+00 0.  1.
</event>
<event>
 7    1  0.6246445E-012  0.5930192E+02  0.7816164E-02  0.1266605E+00
        -11   -1    0    0    0    0  0.00000000000E+00  0.00000000000E+00  0.45593999997E+02  0.45594000000E+02  0.51100000000E-03 0.  1.
         11   -1    0    0    0    0 -0.00000000000E+00 -0.00000000000E+00 -0.45593999997E+02  0.45594000000E+02  0.51100000000E-03 0. -1.
    9900012    2    1    2    0    0  0.22669636352E+02  0.13589135792E+02  0.17836616297E+02  0.59301923025E+02  0.49999961697E+02 0.  0.
         12    1    1    2    0    0 -0.22669636352E+02 -0.13589135792E+02 -0.17836616297E+02  0.31886076975E+02  0.00000000000E+00 0. -1.
         11    1    3    3    0    0  0.39769269218E+01  0.13088158479E+02  0.74166839729E+01  0.15560303388E+02  0.51100000000E-03 0. -1.
        -11    1    3    3    0    0  0.84588597748E+01  0.19258647063E+02  0.65122133788E+01  0.22019462272E+02  0.51100000000E-03 0.  1.
         12    1    3    3    0    0  0.10233849656E+02 -0.18757669751E+02  0.39077189454E+01  0.21722157365E+02  0.00000000000E+00 0. -1.
</event>
<event>
 7    1  0.6246445E-012  0.5930195E+02  0.7816164E-02  0.1266605E+00
        -11   -1    0    0    0    0  0.00000000000E+00  0.00000000000E+00  0.45593999997E+02  0.45594000000E+02  0.51100000000E-03 0. -1.
         11   -1    0    0    0    0 -0.00000000000E+00 -0.00000000000E+00 -0.45593999997E+02  0.45594000000E+02  0.51100000000E-03 0.  1.
    9900012    2    1    2    0    0 -0.20311570793E+02 -0.22799468065E+02 -0.91839394496E+01  0.59301946686E+02  0.50000004847E+02 0.  0.
         12    1    1    2    0    0  0.20311570793E+02  0.22799468065E+02  0.91839394496E+01  0.31886053314E+02  0.00000000000E+00 0. -1.
         11    1    3    3    0    0 -0.29965820403E+01  0.67705481817E+01  0.52872932004E+01  0.90980930009E+01  0.51100000000E-03 0. -1.
        -11    1    3    3    0    0 -0.54424176840E+01  0.74195297465E+01 -0.21623672276E+01  0.94522570953E+01  0.51100000000E-03 0.  1.
        -12    1    3    3    0    0 -0.11872571069E+02 -0.36989545994E+02 -0.12308865422E+02  0.40751596589E+02  0.00000000000E+00 0.  1.
</event>
<event>
 7    1  0.8303961E-012  0.5930194E+02  0.7816164E-02  0.1266605E+00
        -11   -1    0    0    0    0  0.00000000000E+00  0.00000000000E+00  0.45593999997E+02  0.45594000000E+02  0.51100000000E-03 0. -1.
         11   -1    0    0    0    0 -0.00000000000E+00 -0.00000000000E+00 -0.45593999997E+02  0.45594000000E+02  0.51100000000E-03 0.  1.
    9900012    2    1    2    0    0 -0.23089600910E+02 -0.21934456486E+02 -0.15719294792E+01  0.59301936997E+02  0.49999987178E+02 0.  0.
         12    1    1    2    0    0  0.23089600910E+02  0.21934456486E+02  0.15719294792E+01  0.31886063003E+02  0.00000000000E+00 0. -1.
         11    1    3    3    0    0  0.42801692857E+01 -0.54924327297E+01 -0.38386201014E+01  0.79512056286E+01  0.51100000000E-03 0. -1.
        -11    1    3    3    0    0 -0.44786587962E+01 -0.21129189646E+02 -0.11254033721E+02  0.24354759596E+02  0.51100000000E-03 0.  1.
         12    1    3    3    0    0 -0.22891111400E+02  0.46871658895E+01  0.13520724343E+02  0.26995971773E+02  0.00000000000E+00 0. -1.
</event>
<event>
 7    1  0.6246445E-012  0.5930194E+02  0.7816164E-02  0.1266605E+00
        -11   -1    0    0    0    0  0.00000000000E+00  0.00000000000E+00  0.45593999997E+02  0.45594000000E+02  0.51100000000E-03 0. -1.
         11   -1    0    0    0    0 -0.00000000000E+00 -0.00000000000E+00 -0.45593999997E+02  0.45594000000E+02  0.51100000000E-03 0.  1.
    9900012    2    1    2    0    0  0.17237252065E+01  0.12532596408E+01 -0.31814761021E+02  0.59301938670E+02  0.49999990229E+02 0.  0.
         12    1    1    2    0    0 -0.17237252065E+01 -0.12532596408E+01  0.31814761021E+02  0.31886061330E+02  0.00000000000E+00 0. -1.
         11    1    3    3    0    0  0.77041707933E+01  0.20715665615E+02 -0.19381583697E+02  0.29396238473E+02  0.51100000000E-03 0. -1.
        -11    1    3    3    0    0 -0.16279661288E+01  0.33920113299E+01 -0.29540260362E+01  0.47835431076E+01  0.51100000000E-03 0.  1.
         12    1    3    3    0    0 -0.43524794580E+01 -0.22854417304E+02 -0.94791512877E+01  0.25122157090E+02  0.00000000000E+00 0. -1.
</event>
<event>
 7    1  0.6246445E-012  0.5930196E+02  0.7816164E-02  0.1266605E+00
        -11   -1    0    0    0    0  0.00000000000E+00  0.00000000000E+00  0.45593999997E+02  0.45594000000E+02  0.51100000000E-03 0.  1.
         11   -1    0    0    0    0 -0.00000000000E+00 -0.00000000000E+00 -0.45593999997E+02  0.45594000000E+02  0.51100000000E-03 0. -1.
    9900012    2    1    2    0    0 -0.72950679367E+00 -0.31834122013E+02  0.16660661062E+01  0.59301964173E+02  0.50000036739E+02 0.  0.
         12    1    1    2    0    0  0.72950679367E+00  0.31834122013E+02 -0.16660661062E+01  0.31886035827E+02  0.00000000000E+00 0. -1.
         11    1    3    3    0    0 -0.83276393955E+01 -0.27187872436E+01 -0.10351564080E+02  0.13560835562E+02  0.51100000000E-03 0. -1.
        -11    1    3    3    0    0  0.15329166797E+02 -0.40974051944E+01 -0.20784083685E+01  0.16002870543E+02  0.51100000000E-03 0.  1.
        -12    1    3    3    0    0 -0.77310341951E+01 -0.25017929575E+02  0.14096038554E+02  0.29738258068E+02  0.00000000000E+00 0.  1.
</event>
<event>
 7    1  0.6246445E-012  0.5930192E+02  0.7816164E-02  0.1266605E+00
        -11   -1    0    0    0    0  0.00000000000E+00  0.00000000000E+00  0.45593999997E+02  0.45594000000E+02  0.51100000000E-03 0. -1.
         11   -1    0    0    0    0 -0.00000000000E+00 -0.00000000000E+00 -0.45593999997E+02  0.45594000000E+02  0.51100000000E-03 0.  1.
    9900012    2    1    2    0    0 -0.11829028595E+02 -0.11260128865E+02 -0.27386231010E+02  0.59301920459E+02  0.49999957016E+02 0.  0.
         12    1    1    2    0    0  0.11829028595E+02  0.11260128865E+02  0.27386231010E+02  0.31886079541E+02  0.00000000000E+00 0. -1.
         11    1    3    3    0    0  0.17178365463E+01  0.16329268516E+01  0.23568325774E+01  0.33424650427E+01  0.51100000000E-03 0. -1.
        -11    1    3    3    0    0 -0.24853328983E+02  0.41440751814E+01 -0.23814709002E+02  0.34669895958E+02  0.51100000000E-03 0.  1.
         12    1    3    3    0    0  0.11306463841E+02 -0.17037130898E+02 -0.59283545854E+01  0.21289559458E+02  0.00000000000E+00 0. -1.
</event>
<event>
 7    1  0.6246445E-012  0.5930195E+02  0.7816164E-02  0.1266605E+00
        -11   -1    0    0    0    0  0.00000000000E+00  0.00000000000E+00  0.45593999997E+02  0.45594000000E+02  0.51100000000E-03 0.  1.
         11   -1    0    0    0    0 -0.00000000000E+00 -0.00000000000E+00 -0.45593999997E+02  0.45594000000E+02  0.51100000000E-03 0. -1.
    9900012    2    1    2    0    0  0.73871740123E+01  0.24412735402E+02  0.19135525226E+02  0.59301947950E+02  0.50000007153E+02 0.  0.
         12    1    1    2    0    0 -0.73871740123E+01 -0.24412735402E+02 -0.19135525226E+02  0.31886052050E+02  0.00000000000E+00 0. -1.
         11    1    3    3    0    0  0.21296480827E+02  0.10499637504E+02  0.85913078109E+00  0.23759642028E+02  0.51100000000E-03 0. -1.
        -11    1    3    3    0    0  0.56593231087E-01 -0.27914072178E+01  0.12785902950E+02  0.13087187305E+02  0.51100000000E-03 0.  1.
        -12    1    3    3    0    0 -0.13965900046E+02  0.16704505116E+02  0.54904914945E+01  0.22455118617E+02  0.00000000000E+00 0.  1.
</event>
<event>
 7    1  0.6246445E-012  0.5930195E+02  0.7816164E-02  0.1266605E+00
        -11   -1    0    0    0    0  0.00000000000E+00  0.00000000000E+00  0.45593999997E+02  0.45594000000E+02  0.51100000000E-03 0.  1.
         11   -1    0    0    0    0 -0.00000000000E+00 -0.00000000000E+00 -0.45593999997E+02  0.45594000000E+02  0.51100000000E-03 0. -1.
    9900012    2    1    2    0    0 -0.69737620286E+01 -0.59424329366E+01  0.30541357646E+02  0.59301946734E+02  0.50000004935E+02 0.  0.
         12    1    1    2    0    0  0.69737620286E+01  0.59424329366E+01 -0.30541357646E+02  0.31886053266E+02  0.00000000000E+00 0. -1.
         11    1    3    3    0    0 -0.54977298251E+01 -0.17848682509E+02  0.13196435373E+01  0.18722765817E+02  0.51100000000E-03 0. -1.
        -11    1    3    3    0    0  0.15993699225E+00 -0.64530773434E+01  0.17704872411E+02  0.18844901018E+02  0.51100000000E-03 0.  1.
         12    1    3    3    0    0 -0.16359691958E+01  0.18359326915E+02  0.11516841698E+02  0.21734279898E+02  0.00000000000E+00 0. -1.
</event>
<event>
 7    1  0.6246445E-012  0.5930194E+02  0.7816164E-02  0.1266605E+00
        -11   -1    0    0    0    0  0.00000000000E+00  0.00000000000E+00  0.45593999997E+02  0.45594000000E+02  0.51100000000E-03 0.  1.
         11   -1    0    0    0    0 -0.00000000000E+00 -0.00000000000E+00 -0.45593999997E+02  0.45594000000E+02  0.51100000000E-03 0. -1.
    9900012    2    1    2    0    0  0.23954698687E+01 -0.13519829603E+02  0.28778406573E+02  0.59301941083E+02  0.49999994629E+02 0.  0.
         12    1    1    2    0    0 -0.23954698687E+01  0.13519829603E+02 -0.28778406573E+02  0.31886058917E+02  0.00000000000E+00 0. -1.
         11    1    3    3    0    0  0.17674805119E+02 -0.30786131607E+01  0.54758963678E+01  0.18757985934E+02  0.51100000000E-03 0. -1.
        -11    1    3    3    0    0 -0.40670665234E+01 -0.18746995852E+02  0.14489597045E+02  0.24040368266E+02  0.51100000000E-03 0.  1.
         12    1    3    3    0    0 -0.11212268727E+02  0.83057794100E+01  0.88129131606E+01  0.16503586883E+02  0.00000000000E+00 0. -1.
</event>
<event>
 7    1  0.6246445E-012  0.5930196E+02  0.7816164E-02  0.1266605E+00
        -11   -1    0    0    0    0  0.00000000000E+00  0.00000000000E+00  0.45593999997E+02  0.45594000000E+02  0.51100000000E-03 0.  1.
         11   -1    0    0    0    0 -0.00000000000E+00 -0.00000000000E+00 -0.45593999997E+02  0.45594000000E+02  0.51100000000E-03 0. -1.
    9900012    2    1    2    0    0  0.19222471314E+02 -0.23429496064E+01  0.25332319908E+02  0.59301964683E+02  0.50000037671E+02 0.  0.
         12    1    1    2    0    0 -0.19222471314E+02  0.23429496064E+01 -0.25332319908E+02  0.31886035317E+02  0.00000000000E+00 0. -1.
         11    1    3    3    0    0  0.15704201600E+02 -0.16900797913E+02  0.24107379694E+02  0.33368018730E+02  0.51100000000E-03 0. -1.
        -11    1    3    3    0    0  0.35316314908E+01 -0.33453382676E+01 -0.50033286390E+01  0.69783240712E+01  0.51100000000E-03 0.  1.
         12    1    3    3    0    0 -0.13361776186E-01  0.17903186574E+02  0.62282688534E+01  0.18955621882E+02  0.00000000000E+00 0. -1.
</event>
<event>
 7    1  0.6246445E-012  0.5930199E+02  0.7816164E-02  0.1266605E+00
        -11   -1    0    0    0    0  0.00000000000E+00  0.00000000000E+00  0.45593999997E+02  0.45594000000E+02  0.51100000000E-03 0.  1.
         11   -1    0    0    0    0 -0.00000000000E+00 -0.00000000000E+00 -0.45593999997E+02  0.45594000000E+02  0.51100000000E-03 0. -1.
    9900012    2    1    2    0    0  0.20246124140E+02  0.21355944709E+02  0.12277435649E+02  0.59301994556E+02  0.50000092151E+02 0.  0.
         12    1    1    2    0    0 -0.20246124140E+02 -0.21355944709E+02 -0.12277435649E+02  0.31886005444E+02  0.00000000000E+00 0. -1.
         11    1    3    3    0    0  0.18064434056E+02  0.27025971672E+01  0.57685844528E+01  0.19154748134E+02  0.51100000000E-03 0. -1.
        -11    1    3    3    0    0 -0.35389423799E+01 -0.87313095711E+01  0.76681462931E+01  0.12147442028E+02  0.51100000000E-03 0.  1.
        -12    1    3    3    0    0  0.57206324635E+01  0.27384657113E+02 -0.11592950972E+01  0.27999804394E+02  0.00000000000E+00 0.  1.
</event>
<event>
 7    1  0.6246445E-012  0.5930196E+02  0.7816164E-02  0.1266605E+00
        -11   -1    0    0    0    0  0.00000000000E+00  0.00000000000E+00  0.45593999997E+02  0.45594000000E+02  0.51100000000E-03 0.  1.
         11   -1    0    0    0    0 -0.00000000000E+00 -0.00000000000E+00 -0.45593999997E+02  0.45594000000E+02  0.51100000000E-03 0. -1.
    9900012    2    1    2    0    0  0.92965807594E+01 -0.29862090329E+02  0.62087590721E+01  0.59301960079E+02  0.50000029274E+02 0.  0.
         12    1    1    2    0    0 -0.92965807594E+01  0.29862090329E+02 -0.62087590721E+01  0.31886039921E+02  0.00000000000E+00 0. -1.
         11    1    3    3    0    0 -0.98826219058E+00 -0.86900878388E+01 -0.15225113223E+02  0.17558427086E+02  0.51100000000E-03 0. -1.
        -11    1    3    3    0    0  0.13061470515E+02 -0.17563029410E+02  0.22226580545E+01  0.22000050526E+02  0.51100000000E-03 0.  1.
        -12    1    3    3    0    0 -0.27766275649E+01 -0.36089730803E+01  0.19211214241E+02  0.19743482467E+02  0.00000000000E+00 0.  1.
</event>
<event>
 7    1  0.6246445E-012  0.5930195E+02  0.7816164E-02  0.1266605E+00
        -11   -1    0    0    0    0  0.00000000000E+00  0.00000000000E+00  0.45593999997E+02  0.45594000000E+02  0.51100000000E-03 0. -1.
         11   -1    0    0    0    0 -0.00000000000E+00 -0.00000000000E+00 -0.45593999997E+02  0.45594000000E+02  0.51100000000E-03 0.  1.
    9900012    2    1    2    0    0 -0.28303530414E+01  0.17344644045E+02 -0.26605877821E+02  0.59301948034E+02  0.50000007306E+02 0.  0.
         12    1    1    2    0    0  0.28303530414E+01 -0.17344644045E+02  0.26605877821E+02  0.31886051966E+02  0.00000000000E+00 0. -1.
         11    1    3    3    0    0 -0.13270052787E+02 -0.27295975081E+01 -0.14042238055E+01  0.13620456977E+02  0.51100000000E-03 0. -1.
        -11    1    3    3    0    0  0.11432055072E+01  0.20937835721E+01 -0.25327420012E+02  0.25439517551E+02  0.51100000000E-03 0.  1.
        -12    1    3    3    0    0  0.92964942380E+01  0.17980457981E+02  0.12576599719E+00  0.20241973506E+02  0.00000000000E+00 0.  1.
</event>
<event>
 7    1  0.6246445E-012  0.5930202E+02  0.7816164E-02  0.1266604E+00
        -11   -1    0    0    0    0  0.00000000000E+00  0.00000000000E+00  0.45593999997E+02  0.45594000000E+02  0.51100000000E-03 0. -1.
         11   -1    0    0    0    0 -0.00000000000E+00 -0.00000000000E+00 -0.45593999997E+02  0.45594000000E+02  0.51100000000E-03 0.  1.
    9900012    2    1    2    0    0  0.14577377079E+01  0.31652798427E+02 -0.35624272958E+01  0.59302022898E+02  0.50000143841E+02 0.  0.
         12    1    1    2    0    0 -0.14577377079E+01 -0.31652798427E+02  0.35624272958E+01  0.31885977102E+02  0.00000000000E+00 0. -1.
         11    1    3    3    0    0 -0.11353761755E+02 -0.20276770015E+01 -0.66529790343E+01  0.13314710298E+02  0.51100000000E-03 0. -1.
        -11    1    3    3    0    0 -0.27454049860E+01 -0.38144869142E+01 -0.19364129088E+01  0.50830359206E+01  0.51100000000E-03 0.  1.
        -12    1    3    3    0    0  0.15556904449E+02  0.37494962343E+02  0.50269646474E+01  0.40904276680E+02  0.00000000000E+00 0.  1.
</event>
<event>
 7    1  0.6246445E-012  0.5930207E+02  0.7816164E-02  0.1266604E+00
        -11   -1    0    0    0    0  0.00000000000E+00  0.00000000000E+00  0.45593999997E+02  0.45594000000E+02  0.51100000000E-03 0.  1.
         11   -1    0    0    0    0 -0.00000000000E+00 -0.00000000000E+00 -0.45593999997E+02  0.45594000000E+02  0.51100000000E-03 0. -1.
    9900012    2    1    2    0    0 -0.28381144376E+02 -0.68846078392E+01  0.12799421608E+02  0.59302072466E+02  0.50000234241E+02 0.  0.
         12    1    1    2    0    0  0.28381144376E+02  0.68846078392E+01 -0.12799421608E+02  0.31885927534E+02  0.00000000000E+00 0. -1.
         11    1    3    3    0    0  0.48247183892E+00 -0.53570956598E+01  0.11010072345E+02  0.12253691129E+02  0.51100000000E-03 0. -1.
        -11    1    3    3    0    0 -0.20316967545E+02  0.12279677955E+02  0.13236864326E+02  0.27180585688E+02  0.51100000000E-03 0.  1.
        -12    1    3    3    0    0 -0.85466486697E+01 -0.13807190134E+02 -0.11447515062E+02  0.19867795650E+02  0.00000000000E+00 0.  1.
</event>
<event>
 7    1  0.6246445E-012  0.5930191E+02  0.7816164E-02  0.1266605E+00
        -11   -1    0    0    0    0  0.00000000000E+00  0.00000000000E+00  0.45593999997E+02  0.45594000000E+02  0.51100000000E-03 0.  1.
         11   -1    0    0    0    0 -0.00000000000E+00 -0.00000000000E+00 -0.45593999997E+02  0.45594000000E+02  0.51100000000E-03 0. -1.
    9900012    2    1    2    0    0  0.53309724149E+01  0.12647667504E+02  0.28780897518E+02  0.59301908642E+02  0.49999935465E+02 0.  0.
         12    1    1    2    0    0 -0.53309724149E+01 -0.12647667504E+02 -0.28780897518E+02  0.31886091358E+02  0.00000000000E+00 0. -1.
         11    1    3    3    0    0 -0.79987333036E+01  0.32905684350E+01  0.37827031289E+00  0.86574051412E+01  0.51100000000E-03 0. -1.
        -11    1    3    3    0    0  0.50447592434E+00  0.19672805667E+02  0.23373627901E+01  0.19817594300E+02  0.51100000000E-03 0.  1.
         12    1    3    3    0    0  0.12825229794E+02 -0.10315706598E+02  0.26065264415E+02  0.30826909201E+02  0.00000000000E+00 0. -1.
</event>
<event>
 7    1  0.6246445E-012  0.5930192E+02  0.7816164E-02  0.1266605E+00
        -11   -1    0    0    0    0  0.00000000000E+00  0.00000000000E+00  0.45593999997E+02  0.45594000000E+02  0.51100000000E-03 0.  1.
         11   -1    0    0    0    0 -0.00000000000E+00 -0.00000000000E+00 -0.45593999997E+02  0.45594000000E+02  0.51100000000E-03 0. -1.
    9900012    2    1    2    0    0  0.29837056839E+02  0.46157203918E+01  0.10255121127E+02  0.59301916125E+02  0.49999949112E+02 0.  0.
         12    1    1    2    0    0 -0.29837056839E+02 -0.46157203918E+01 -0.10255121127E+02  0.31886083875E+02  0.00000000000E+00 0. -1.
         11    1    3    3    0    0 -0.95796943782E+01 -0.51848119311E+01 -0.45615153340E+01  0.11809328581E+02  0.51100000000E-03 0. -1.
        -11    1    3    3    0    0  0.63692027098E+01 -0.24619612327E+01  0.97169934683E+01  0.11876361336E+02  0.51100000000E-03 0.  1.
        -12    1    3    3    0    0  0.33047548508E+02  0.12262493556E+02  0.50996429927E+01  0.35616226207E+02  0.00000000000E+00 0.  1.
</event>
<event>
 7    1  0.6246445E-012  0.5930206E+02  0.7816164E-02  0.1266604E+00
        -11   -1    0    0    0    0  0.00000000000E+00  0.00000000000E+00  0.45593999997E+02  0.45594000000E+02  0.51100000000E-03 0.  1.
         11   -1    0    0    0    0 -0.00000000000E+00 -0.00000000000E+00 -0.45593999997E+02  0.45594000000E+02  0.51100000000E-03 0. -1.
    9900012    2    1    2    0    0  0.13675713032E+02 -0.27730930921E+02  0.77899445791E+01  0.59302064335E+02  0.50000219411E+02 0.  0.
         12    1    1    2    0    0 -0.13675713032E+02  0.27730930921E+02 -0.77899445791E+01  0.31885935665E+02  0.00000000000E+00 0. -1.
         11    1    3    3    0    0  0.19308254503E+02 -0.49827922028E+01  0.67805545280E+01  0.21062118366E+02  0.51100000000E-03 0. -1.
        -11    1    3    3    0    0  0.29848931615E+01 -0.45926176657E+01  0.13506125865E+02  0.14574538084E+02  0.51100000000E-03 0.  1.
         12    1    3    3    0    0 -0.86174346326E+01 -0.18155521053E+02 -0.12496735814E+02  0.23665407885E+02  0.00000000000E+00 0. -1.
</event>
<event>
 7    1  0.6246445E-012  0.5930190E+02  0.7816164E-02  0.1266605E+00
        -11   -1    0    0    0    0  0.00000000000E+00  0.00000000000E+00  0.45593999997E+02  0.45594000000E+02  0.51100000000E-03 0.  1.
         11   -1    0    0    0    0 -0.00000000000E+00 -0.00000000000E+00 -0.45593999997E+02  0.45594000000E+02  0.51100000000E-03 0. -1.
    9900012    2    1    2    0    0  0.14495458420E+02 -0.24471167137E+02  0.14414133409E+02  0.59301896792E+02  0.49999913853E+02 0.  0.
         12    1    1    2    0    0 -0.14495458420E+02  0.24471167137E+02 -0.14414133409E+02  0.31886103208E+02  0.00000000000E+00 0. -1.
         11    1    3    3    0    0  0.17080174393E+02  0.15664908505E+01  0.10792493858E+02  0.20264850723E+02  0.51100000000E-03 0.  1.
        -11    1    3    3    0    0  0.39483972379E+01  0.53195696736E+01  0.21792851225E+01  0.69740193696E+01  0.51100000000E-03 0. -1.
         12    1    3    3    0    0 -0.65331132103E+01 -0.31357227662E+02  0.14423544285E+01  0.32063026699E+02  0.00000000000E+00 0. -1.
</event>
<event>
 7    1  0.6246445E-012  0.5930199E+02  0.7816164E-02  0.1266605E+00
        -11   -1    0    0    0    0  0.00000000000E+00  0.00000000000E+00  0.45593999997E+02  0.45594000000E+02  0.51100000000E-03 0. -1.
         11   -1    0    0    0    0 -0.00000000000E+00 -0.00000000000E+00 -0.45593999997E+02  0.45594000000E+02  0.51100000000E-03 0.  1.
    9900012    2    1    2    0    0  0.18871923449E+02 -0.18671286732E+02 -0.17662143671E+02  0.59301987989E+02  0.50000080175E+02 0.  0.
         12    1    1    2    0    0 -0.18871923449E+02  0.18671286732E+02  0.17662143671E+02  0.31886012011E+02  0.00000000000E+00 0. -1.
         11    1    3    3    0    0  0.56330011657E+01  0.57708125592E+01  0.15097720795E+00  0.80657159697E+01  0.51100000000E-03 0. -1.
        -11    1    3    3    0    0  0.23703182779E+02 -0.12799095790E+02 -0.22279039079E+02  0.34957306953E+02  0.51100000000E-03 0.  1.
        -12    1    3    3    0    0 -0.10464260496E+02 -0.11643003502E+02  0.44659181994E+01  0.16278965066E+02  0.00000000000E+00 0.  1.
</event>
<event>
 7    1  0.6246445E-012  0.5930197E+02  0.7816164E-02  0.1266605E+00
        -11   -1    0    0    0    0  0.00000000000E+00  0.00000000000E+00  0.45593999997E+02  0.45594000000E+02  0.51100000000E-03 0.  1.
         11   -1    0    0    0    0 -0.00000000000E+00 -0.00000000000E+00 -0.45593999997E+02  0.45594000000E+02  0.51100000000E-03 0. -1.
    9900012    2    1    2    0    0 -0.17978860198E+02 -0.25908488387E+02  0.47148239590E+01  0.59301972504E+02  0.50000051933E+02 0.  0.
         12    1    1    2    0    0  0.17978860198E+02  0.25908488387E+02 -0.47148239590E+01  0.31886027496E+02  0.00000000000E+00 0. -1.
         11    1    3    3    0    0  0.10259146297E+02 -0.34818244497E+01 -0.41148734514E+01  0.11589019287E+02  0.51100000000E-03 0. -1.
        -11    1    3    3    0    0  0.33264625792E+01 -0.20215035518E+01  0.93454473211E+01  0.10123695758E+02  0.51100000000E-03 0.  1.
        -12    1    3    3    0    0 -0.31564469075E+02 -0.20405160386E+02 -0.51574991064E+00  0.37589257459E+02  0.00000000000E+00 0.  1.
</event>
<event>
 7    1  0.6246445E-012  0.5930192E+02  0.7816164E-02  0.1266605E+00
        -11   -1    0    0    0    0  0.00000000000E+00  0.00000000000E+00  0.45593999997E+02  0.45594000000E+02  0.51100000000E-03 0. -1.
         11   -1    0    0    0    0 -0.00000000000E+00 -0.00000000000E+00 -0.45593999997E+02  0.45594000000E+02  0.51100000000E-03 0.  1.
    9900012    2    1    2    0    0  0.30037933903E+02 -0.42310543961E+01 -0.98256233441E+01  0.59301918889E+02  0.49999954154E+02 0.  0.
         12    1    1    2    0    0 -0.30037933903E+02  0.42310543961E+01  0.98256233441E+01  0.31886081111E+02  0.00000000000E+00 0. -1.
         11    1    3    3    0    0  0.13548183876E+02  0.17643257918E+01  0.94190993365E+01  0.16594745085E+02  0.51100000000E-03 0. -1.
        -11    1    3    3    0    0  0.21204398806E+00 -0.14529381945E+02  0.19413338802E+01  0.14660036830E+02  0.51100000000E-03 0.  1.
        -12    1    3    3    0    0  0.16277706039E+02  0.85340017573E+01 -0.21186056561E+02  0.28047136975E+02  0.00000000000E+00 0.  1.
</event>
<event>
 7    1  0.6246445E-012  0.5930195E+02  0.7816164E-02  0.1266605E+00
        -11   -1    0    0    0    0  0.00000000000E+00  0.00000000000E+00  0.45593999997E+02  0.45594000000E+02  0.51100000000E-03 0.  1.
         11   -1    0    0    0    0 -0.00000000000E+00 -0.00000000000E+00 -0.45593999997E+02  0.45594000000E+02  0.51100000000E-03 0. -1.
    9900012    2    1    2    0    0 -0.14872525556E+02  0.24476817417E+02  0.14014755633E+02  0.59301953165E+02  0.50000016665E+02 0.  0.
         12    1    1    2    0    0  0.14872525556E+02 -0.24476817417E+02 -0.14014755633E+02  0.31886046835E+02  0.00000000000E+00 0. -1.
         11    1    3    3    0    0  0.40220406542E+01 -0.70007839608E+01  0.77652056449E+01  0.11202062581E+02  0.51100000000E-03 0. -1.
        -11    1    3    3    0    0  0.54422552723E+01  0.27238984096E+01 -0.59422272988E+01  0.85057527901E+01  0.51100000000E-03 0.  1.
        -12    1    3    3    0    0 -0.24336821483E+02  0.28753702968E+02  0.12191777287E+02  0.39594137795E+02  0.00000000000E+00 0.  1.
</event>
<event>
 7    1  0.6246445E-012  0.5930195E+02  0.7816164E-02  0.1266605E+00
        -11   -1    0    0    0    0  0.00000000000E+00  0.00000000000E+00  0.45593999997E+02  0.45594000000E+02  0.51100000000E-03 0.  1.
         11   -1    0    0    0    0 -0.00000000000E+00 -0.00000000000E+00 -0.45593999997E+02  0.45594000000E+02  0.51100000000E-03 0. -1.
    9900012    2    1    2    0    0 -0.19808708085E+02 -0.22309695584E+02 -0.11252233014E+02  0.59301950059E+02  0.50000010999E+02 0.  0.
         12    1    1    2    0    0  0.19808708085E+02  0.22309695584E+02  0.11252233014E+02  0.31886049941E+02  0.00000000000E+00 0. -1.
         11    1    3    3    0    0  0.68498487656E+01  0.59975494406E+01 -0.92237195004E+01  0.12960248033E+02  0.51100000000E-03 0. -1.
        -11    1    3    3    0    0  0.44528434786E+00  0.34001786224E+01 -0.30887460101E+01  0.46151755103E+01  0.51100000000E-03 0.  1.
        -12    1    3    3    0    0 -0.27103841199E+02 -0.31707423647E+02  0.10602324967E+01  0.41726526515E+02  0.00000000000E+00 0.  1.
</event>
<event>
 7    1  0.6246445E-012  0.5930201E+02  0.7816164E-02  0.1266605E+00
        -11   -1    0    0    0    0  0.00000000000E+00  0.00000000000E+00  0.45593999997E+02  0.45594000000E+02  0.51100000000E-03 0.  1.
         11   -1    0    0    0    0 -0.00000000000E+00 -0.00000000000E+00 -0.45593999997E+02  0.45594000000E+02  0.51100000000E-03 0. -1.
    9900012    2    1    2    0    0  0.54152763252E+00  0.10648785720E+01  0.31863599833E+02  0.59302012280E+02  0.50000124476E+02 0.  0.
         12    1    1    2    0    0 -0.54152763252E+00 -0.10648785720E+01 -0.31863599833E+02  0.31885987720E+02  0.00000000000E+00 0. -1.
         11    1    3    3    0    0  0.33300890047E+01  0.14961245579E+01 -0.10328262344E+02  0.10954491534E+02  0.51100000000E-03 0. -1.
        -11    1    3    3    0    0 -0.11749274123E+02 -0.13571877030E+01  0.12034968065E+02  0.16873880925E+02  0.51100000000E-03 0.  1.
        -12    1    3    3    0    0  0.89607127509E+01  0.92594171705E+00  0.30156894112E+02  0.31473639821E+02  0.00000000000E+00 0.  1.
</event>
<event>
 7    1  0.6246445E-012  0.5930197E+02  0.7816164E-02  0.1266605E+00
        -11   -1    0    0    0    0  0.00000000000E+00  0.00000000000E+00  0.45593999997E+02  0.45594000000E+02  0.51100000000E-03 0. -1.
         11   -1    0    0    0    0 -0.00000000000E+00 -0.00000000000E+00 -0.45593999997E+02  0.45594000000E+02  0.51100000000E-03 0.  1.
    9900012    2    1    2    0    0  0.20271223962E+02  0.19748132112E+02  0.14690397381E+02  0.59301968292E+02  0.50000044253E+02 0.  0.
         12    1    1    2    0    0 -0.20271223962E+02 -0.19748132112E+02 -0.14690397381E+02  0.31886031708E+02  0.00000000000E+00 0. -1.
         11    1    3    3    0    0  0.53667261684E+00 -0.89528841151E+00  0.16437213169E+01  0.19471463392E+01  0.51100000000E-03 0. -1.
        -11    1    3    3    0    0 -0.82683633592E+01 -0.10866616353E+02  0.41483865720E+01  0.14270889776E+02  0.51100000000E-03 0.  1.
        -12    1    3    3    0    0  0.28002914705E+02  0.31510036876E+02  0.88982894923E+01  0.43083932177E+02  0.00000000000E+00 0.  1.
</event>
<event>
 7    1  0.6246445E-012  0.5930195E+02  0.7816164E-02  0.1266605E+00
        -11   -1    0    0    0    0  0.00000000000E+00  0.00000000000E+00  0.45593999997E+02  0.45594000000E+02  0.51100000000E-03 0.  1.
         11   -1    0    0    0    0 -0.00000000000E+00 -0.00000000000E+00 -0.45593999997E+02  0.45594000000E+02  0.51100000000E-03 0. -1.
    9900012    2    1    2    0    0  0.55753491233E+01 -0.13690274501E+02  0.28252652083E+02  0.59301945313E+02  0.50000002345E+02 0.  0.
         12    1    1    2    0    0 -0.55753491233E+01  0.13690274501E+02 -0.28252652083E+02  0.31886054687E+02  0.00000000000E+00 0. -1.
         11    1    3    3    0    0  0.17568617945E+01 -0.13571438527E+02  0.61922752857E+01  0.15020478706E+02  0.51100000000E-03 0. -1.
        -11    1    3    3    0    0  0.86930464826E+01 -0.15299728772E+02  0.67940584370E+00  0.17610007104E+02  0.51100000000E-03 0.  1.
         12    1    3    3    0    0 -0.48745591538E+01  0.15180892799E+02  0.21380970954E+02  0.26671459503E+02  0.00000000000E+00 0. -1.
</event>
<event>
 7    1  0.6246445E-012  0.5930203E+02  0.7816164E-02  0.1266604E+00
        -11   -1    0    0    0    0  0.00000000000E+00  0.00000000000E+00  0.45593999997E+02  0.45594000000E+02  0.51100000000E-03 0. -1.
         11   -1    0    0    0    0 -0.00000000000E+00 -0.00000000000E+00 -0.45593999997E+02  0.45594000000E+02  0.51100000000E-03 0.  1.
    9900012    2    1    2    0    0  0.16469960672E+02 -0.16597564854E+02 -0.21678943751E+02  0.59302025563E+02  0.50000148701E+02 0.  0.
         12    1    1    2    0    0 -0.16469960672E+02  0.16597564854E+02  0.21678943751E+02  0.31885974437E+02  0.00000000000E+00 0. -1.
         11    1    3    3    0    0  0.11588805388E+01  0.12393094179E+01  0.10401580519E+02  0.10539059232E+02  0.51100000000E-03 0. -1.
        -11    1    3    3    0    0  0.20723314393E+02 -0.14403716482E+02 -0.12506254572E+02  0.28166100398E+02  0.51100000000E-03 0.  1.
        -12    1    3    3    0    0 -0.54122342605E+01 -0.34331577898E+01 -0.19574269697E+02  0.20596865934E+02  0.00000000000E+00 0.  1.
</event>
<event>
 7    1  0.6246445E-012  0.5930200E+02  0.7816164E-02  0.1266605E+00
        -11   -1    0    0    0    0  0.00000000000E+00  0.00000000000E+00  0.45593999997E+02  0.45594000000E+02  0.51100000000E-03 0. -1.
         11   -1    0    0    0    0 -0.00000000000E+00 -0.00000000000E+00 -0.45593999997E+02  0.45594000000E+02  0.51100000000E-03 0.  1.
    9900012    2    1    2    0    0 -0.23114564205E+02  0.20830786972E+02  0.69650620509E+01  0.59302002232E+02  0.50000106151E+02 0.  0.
         12    1    1    2    0    0  0.23114564205E+02 -0.20830786972E+02 -0.69650620509E+01  0.31885997768E+02  0.00000000000E+00 0. -1.
         11    1    3    3    0    0 -0.59170115478E+01  0.19556678649E+02  0.34207209878E+01  0.20716564333E+02  0.51100000000E-03 0. -1.
        -11    1    3    3    0    0 -0.20146505947E+01  0.15925472051E+02  0.64247589441E+01  0.17290373183E+02  0.51100000000E-03 0.  1.
         12    1    3    3    0    0 -0.15182902063E+02 -0.14651363727E+02 -0.28804178810E+01  0.21295064716E+02  0.00000000000E+00 0. -1.
</event>
<event>
 7    1  0.6246445E-012  0.5930192E+02  0.7816164E-02  0.1266605E+00
        -11   -1    0    0    0    0  0.00000000000E+00  0.00000000000E+00  0.45593999997E+02  0.45594000000E+02  0.51100000000E-03 0.  1.
         11   -1    0    0    0    0 -0.00000000000E+00 -0.00000000000E+00 -0.45593999997E+02  0.45594000000E+02  0.51100000000E-03 0. -1.
    9900012    2    1    2    0    0  0.29864653223E+01 -0.12431969689E+01  0.31721559824E+02  0.59301923548E+02  0.49999962650E+02 0.  0.
         12    1    1    2    0    0 -0.29864653223E+01  0.12431969689E+01 -0.31721559824E+02  0.31886076452E+02  0.00000000000E+00 0. -1.
         11    1    3    3    0    0 -0.13390448397E+02 -0.11023453943E+02  0.51186733842E+01  0.18083734752E+02  0.51100000000E-03 0. -1.
        -11    1    3    3    0    0  0.47804676137E+01  0.95272045055E+01 -0.15481634109E+01  0.10771133019E+02  0.51100000000E-03 0.  1.
        -12    1    3    3    0    0  0.11596446105E+02  0.25305246850E+00  0.28151049851E+02  0.30447055778E+02  0.00000000000E+00 0.  1.
</event>
<event>
 7    1  0.6246445E-012  0.5930197E+02  0.7816164E-02  0.1266605E+00
        -11   -1    0    0    0    0  0.00000000000E+00  0.00000000000E+00  0.45593999997E+02  0.45594000000E+02  0.51100000000E-03 0. -1.
         11   -1    0    0    0    0 -0.00000000000E+00 -0.00000000000E+00 -0.45593999997E+02  0.45594000000E+02  0.51100000000E-03 0.  1.
    9900012    2    1    2    0    0 -0.68287318942E+01 -0.28917252740E+02 -0.11570657550E+02  0.59301965417E+02  0.50000039008E+02 0.  0.
         12    1    1    2    0    0  0.68287318942E+01  0.28917252740E+02  0.11570657550E+02  0.31886034583E+02  0.00000000000E+00 0. -1.
         11    1    3    3    0    0  0.86195907211E+01  0.60881791781E+01 -0.25934741246E+00  0.10556066088E+02  0.51100000000E-03 0. -1.
        -11    1    3    3    0    0 -0.95739821915E+00 -0.26869228437E+02 -0.16241613524E+02  0.31411177282E+02  0.51100000000E-03 0.  1.
        -12    1    3    3    0    0 -0.14490924396E+02 -0.81362034815E+01  0.49303033865E+01  0.17334722047E+02  0.00000000000E+00 0.  1.
</event>
<event>
 7    1  0.6246445E-012  0.5930190E+02  0.7816164E-02  0.1266605E+00
        -11   -1    0    0    0    0  0.00000000000E+00  0.00000000000E+00  0.45593999997E+02  0.45594000000E+02  0.51100000000E-03 0.  1.
         11   -1    0    0    0    0 -0.00000000000E+00 -0.00000000000E+00 -0.45593999997E+02  0.45594000000E+02  0.51100000000E-03 0. -1.
    9900012    2    1    2    0    0 -0.34908844571E+01  0.47228752702E+01  0.31340577744E+02  0.59301895841E+02  0.49999912118E+02 0.  0.
         12    1    1    2    0    0  0.34908844571E+01 -0.47228752702E+01 -0.31340577744E+02  0.31886104159E+02  0.00000000000E+00 0. -1.
         11    1    3    3    0    0  0.34348883118E+01  0.74994771619E+01 -0.71420985424E+00  0.82795356992E+01  0.51100000000E-03 0. -1.
        -11    1    3    3    0    0  0.14196767651E+02 -0.13357003012E+01  0.24864357507E+02  0.28663017663E+02  0.51100000000E-03 0.  1.
         12    1    3    3    0    0 -0.21122540420E+02 -0.14409015906E+01  0.71904300915E+01  0.22359342479E+02  0.00000000000E+00 0. -1.
</event>
<event>
 7    1  0.6246445E-012  0.5930194E+02  0.7816164E-02  0.1266605E+00
        -11   -1    0    0    0    0  0.00000000000E+00  0.00000000000E+00  0.45593999997E+02  0.45594000000E+02  0.51100000000E-03 0.  1.
         11   -1    0    0    0    0 -0.00000000000E+00 -0.00000000000E+00 -0.45593999997E+02  0.45594000000E+02  0.51100000000E-03 0. -1.
    9900012    2    1    2    0    0 -0.28119514188E+02 -0.67288660923E+01  0.13443801857E+02  0.59301944656E+02  0.50000001146E+02 0.  0.
         12    1    1    2    0    0  0.28119514188E+02  0.67288660923E+01 -0.13443801857E+02  0.31886055344E+02  0.00000000000E+00 0. -1.
         11    1    3    3    0    0 -0.18471470129E+02 -0.48618671797E+01  0.25632167645E+01  0.19271819884E+02  0.51100000000E-03 0. -1.
        -11    1    3    3    0    0 -0.79264499003E+01 -0.19354529083E+02  0.50474642707E+01  0.21515187656E+02  0.51100000000E-03 0.  1.
        -12    1    3    3    0    0 -0.17215941581E+01  0.17487530170E+02  0.58331208214E+01  0.18514937116E+02  0.00000000000E+00 0.  1.
</event>
<event>
 7    1  0.6246445E-012  0.5930194E+02  0.7816164E-02  0.1266605E+00
        -11   -1    0    0    0    0  0.00000000000E+00  0.00000000000E+00  0.45593999997E+02  0.45594000000E+02  0.51100000000E-03 0.  1.
         11   -1    0    0    0    0 -0.00000000000E+00 -0.00000000000E+00 -0.45593999997E+02  0.45594000000E+02  0.51100000000E-03 0. -1.
    9900012    2    1    2    0    0  0.64531830500E+01  0.16142244568E+02  0.26730231985E+02  0.59301938263E+02  0.49999989486E+02 0.  0.
         12    1    1    2    0    0 -0.64531830500E+01 -0.16142244568E+02 -0.26730231985E+02  0.31886061737E+02  0.00000000000E+00 0. -1.
         11    1    3    3    0    0 -0.18382765361E+01  0.30872363169E+01  0.23548949403E+00  0.36007977259E+01  0.51100000000E-03 0. -1.
        -11    1    3    3    0    0 -0.56982908559E+01  0.27837298869E+02  0.12762714629E+02  0.31149199218E+02  0.51100000000E-03 0.  1.
        -12    1    3    3    0    0  0.13989750442E+02 -0.14782290617E+02  0.13732027861E+02  0.24551941319E+02  0.00000000000E+00 0.  1.
</event>
<event>
 7    1  0.6246445E-012  0.5930192E+02  0.7816164E-02  0.1266605E+00
        -11   -1    0    0    0    0  0.00000000000E+00  0.00000000000E+00  0.45593999997E+02  0.45594000000E+02  0.51100000000E-03 0. -1.
         11   -1    0    0    0    0 -0.00000000000E+00 -0.00000000000E+00 -0.45593999997E+02  0.45594000000E+02  0.51100000000E-03 0.  1.
    9900012    2    1    2    0    0  0.29963033839E+02  0.26928514927E+01 -0.10568231647E+02  0.59301915792E+02  0.49999948505E+02 0.  0.
         12    1    1    2    0    0 -0.29963033839E+02 -0.26928514927E+01  0.10568231647E+02  0.31886084208E+02  0.00000000000E+00 0. -1.
         11    1    3    3    0    0 -0.17563266103E+01 -0.27259116225E+01 -0.65882340806E+01  0.73430311111E+01  0.51100000000E-03 0. -1.
        -11    1    3    3    0    0  0.10801882174E+02  0.63121012033E+01 -0.21356190366E+02  0.24750962553E+02  0.51100000000E-03 0.  1.
        -12    1    3    3    0    0  0.20917478275E+02 -0.89333808804E+00  0.17376192799E+02  0.27207922128E+02  0.00000000000E+00 0.  1.
</event>
<event>
 7    1  0.6246445E-012  0.5930193E+02  0.7816164E-02  0.1266605E+00
        -11   -1    0    0    0    0  0.00000000000E+00  0.00000000000E+00  0.45593999997E+02  0.45594000000E+02  0.51100000000E-03 0.  1.
         11   -1    0    0    0    0 -0.00000000000E+00 -0.00000000000E+00 -0.45593999997E+02  0.45594000000E+02  0.51100000000E-03 0. -1.
    9900012    2    1    2    0    0  0.13753413957E+02  0.17856426834E+02  0.22554664803E+02  0.59301932837E+02  0.49999979591E+02 0.  0.
         12    1    1    2    0    0 -0.13753413957E+02 -0.17856426834E+02 -0.22554664803E+02  0.31886067163E+02  0.00000000000E+00 0. -1.
         11    1    3    3    0    0 -0.43011928068E+01  0.82576714563E+01 -0.56317552052E+01  0.10881455068E+02  0.51100000000E-03 0. -1.
        -11    1    3    3    0    0 -0.23917170128E+01 -0.43861224883E+00 -0.64910709533E+01  0.69315722138E+01  0.51100000000E-03 0.  1.
        -12    1    3    3    0    0  0.20446323777E+02  0.10037367626E+02  0.34677490961E+02  0.41488905556E+02  0.00000000000E+00 0.  1.
</event>
<event>
 7    1  0.6246445E-012  0.5930195E+02  0.7816164E-02  0.1266605E+00
        -11   -1    0    0    0    0  0.00000000000E+00  0.00000000000E+00  0.45593999997E+02  0.45594000000E+02  0.51100000000E-03 0.  1.
         11   -1    0    0    0    0 -0.00000000000E+00 -0.00000000000E+00 -0.45593999997E+02  0.45594000000E+02  0.51100000000E-03 0. -1.
    9900012    2    1    2    0    0 -0.26724086626E+02 -0.16184748561E+02  0.63715779693E+01  0.59301954498E+02  0.50000019095E+02 0.  0.
         12    1    1    2    0    0  0.26724086626E+02  0.16184748561E+02 -0.63715779693E+01  0.31886045502E+02  0.00000000000E+00 0. -1.
         11    1    3    3    0    0 -0.43033451513E+01 -0.11965726354E+02 -0.15221686892E+02  0.19834241572E+02  0.51100000000E-03 0. -1.
        -11    1    3    3    0    0 -0.86396063509E+01  0.12782867693E+01 -0.42156999192E+01  0.96978833274E+01  0.51100000000E-03 0.  1.
        -12    1    3    3    0    0 -0.13781135124E+02 -0.54973089763E+01  0.25808964780E+02  0.29769829598E+02  0.00000000000E+00 0.  1.
</event>
<event>
 7    1  0.6246445E-012  0.5930195E+02  0.7816164E-02  0.1266605E+00
        -11   -1    0    0    0    0  0.00000000000E+00  0.00000000000E+00  0.45593999997E+02  0.45594000000E+02  0.51100000000E-03 0.  1.
         11   -1    0    0    0    0 -0.00000000000E+00 -0.00000000000E+00 -0.45593999997E+02  0.45594000000E+02  0.51100000000E-03 0. -1.
    9900012    2    1    2    0    0  0.22125168940E+02  0.22348177880E+02  0.52683798330E+01  0.59301953189E+02  0.50000016707E+02 0.  0.
         12    1    1    2    0    0 -0.22125168940E+02 -0.22348177880E+02 -0.52683798330E+01  0.31886046811E+02  0.00000000000E+00 0. -1.
         11    1    3    3    0    0 -0.58863647073E+01 -0.36626995006E+01  0.66982111485E+01  0.96400565325E+01  0.51100000000E-03 0. -1.
        -11    1    3    3    0    0 -0.12167454038E+01  0.11211466752E+01  0.95820064489E+01  0.97238000336E+01  0.51100000000E-03 0.  1.
        -12    1    3    3    0    0  0.29228279051E+02  0.24889730706E+02 -0.11011837764E+02  0.39938096623E+02  0.00000000000E+00 0.  1.
</event>
<event>
 7    1  0.6999541E-012  0.5930196E+02  0.7816164E-02  0.1266605E+00
        -11   -1    0    0    0    0  0.00000000000E+00  0.00000000000E+00  0.45593999997E+02  0.45594000000E+02  0.51100000000E-03 0. -1.
         11   -1    0    0    0    0 -0.00000000000E+00 -0.00000000000E+00 -0.45593999997E+02  0.45594000000E+02  0.51100000000E-03 0.  1.
    9900012    2    1    2    0    0  0.12755254162E+02 -0.19714154720E+02 -0.21572561219E+02  0.59301955991E+02  0.50000021817E+02 0.  0.
         12    1    1    2    0    0 -0.12755254162E+02  0.19714154720E+02  0.21572561219E+02  0.31886044009E+02  0.00000000000E+00 0. -1.
         11    1    3    3    0    0  0.10600049599E+02 -0.15193006661E+02 -0.15680969534E+02  0.24270997275E+02  0.51100000000E-03 0. -1.
        -11    1    3    3    0    0 -0.57766733655E+01 -0.17604091312E+02 -0.67206298263E+01  0.19708902852E+02  0.51100000000E-03 0.  1.
         12    1    3    3    0    0  0.79318779285E+01  0.13082943254E+02  0.82903814163E+00  0.15322055864E+02  0.00000000000E+00 0. -1.
</event>
<event>
 7    1  0.6246445E-012  0.5930194E+02  0.7816164E-02  0.1266605E+00
        -11   -1    0    0    0    0  0.00000000000E+00  0.00000000000E+00  0.45593999997E+02  0.45594000000E+02  0.51100000000E-03 0. -1.
         11   -1    0    0    0    0 -0.00000000000E+00 -0.00000000000E+00 -0.45593999997E+02  0.45594000000E+02  0.51100000000E-03 0.  1.
    9900012    2    1    2    0    0 -0.73137933397E+01  0.37995184256E+01 -0.30802481053E+02  0.59301941098E+02  0.49999994658E+02 0.  0.
         12    1    1    2    0    0  0.73137933397E+01 -0.37995184256E+01  0.30802481053E+02  0.31886058902E+02  0.00000000000E+00 0. -1.
         11    1    3    3    0    0 -0.94539693422E+00  0.10502511573E+02 -0.16187314284E+02  0.19319049373E+02  0.51100000000E-03 0.  1.
        -11    1    3    3    0    0 -0.95112455017E-01 -0.11546853489E+02  0.92758709073E+01  0.14811504084E+02  0.51100000000E-03 0. -1.
         12    1    3    3    0    0 -0.62732839505E+01  0.48438603422E+01 -0.23891037676E+02  0.25171387641E+02  0.00000000000E+00 0. -1.
</event>
<event>
 7    1  0.6246445E-012  0.5930194E+02  0.7816164E-02  0.1266605E+00
        -11   -1    0    0    0    0  0.00000000000E+00  0.00000000000E+00  0.45593999997E+02  0.45594000000E+02  0.51100000000E-03 0. -1.
         11   -1    0    0    0    0 -0.00000000000E+00 -0.00000000000E+00 -0.45593999997E+02  0.45594000000E+02  0.51100000000E-03 0.  1.
    9900012    2    1    2    0    0  0.28004842318E+02  0.12063527792E+02 -0.93231448359E+01  0.59301938379E+02  0.49999989699E+02 0.  0.
         12    1    1    2    0    0 -0.28004842318E+02 -0.12063527792E+02  0.93231448359E+01  0.31886061621E+02  0.00000000000E+00 0. -1.
         11    1    3    3    0    0  0.24003131473E+01  0.12883831182E+02 -0.49840121812E+01  0.14021233427E+02  0.51100000000E-03 0. -1.
        -11    1    3    3    0    0  0.38975587890E+01  0.18548079238E+01 -0.18650387545E+02  0.19143360018E+02  0.51100000000E-03 0.  1.
         12    1    3    3    0    0  0.21706970381E+02 -0.26751113131E+01  0.14311254890E+02  0.26137344934E+02  0.00000000000E+00 0. -1.
</event>
<event>
 7    1  0.6246445E-012  0.5930195E+02  0.7816164E-02  0.1266605E+00
        -11   -1    0    0    0    0  0.00000000000E+00  0.00000000000E+00  0.45593999997E+02  0.45594000000E+02  0.51100000000E-03 0.  1.
         11   -1    0    0    0    0 -0.00000000000E+00 -0.00000000000E+00 -0.45593999997E+02  0.45594000000E+02  0.51100000000E-03 0. -1.
    9900012    2    1    2    0    0 -0.19005585249E+01 -0.21817234576E+02  0.23175765737E+02  0.59301953448E+02  0.50000017180E+02 0.  0.
         12    1    1    2    0    0  0.19005585249E+01  0.21817234576E+02 -0.23175765737E+02  0.31886046552E+02  0.00000000000E+00 0. -1.
         11    1    3    3    0    0 -0.35873527184E+01  0.93416140916E+01  0.57719832172E+01  0.11552083963E+02  0.51100000000E-03 0. -1.
        -11    1    3    3    0    0  0.46637570720E+00  0.65584287419E+01  0.12117419665E+01  0.66857170683E+01  0.51100000000E-03 0.  1.
        -12    1    3    3    0    0  0.12204184863E+01 -0.37717277409E+02  0.16192040553E+02  0.41064152417E+02  0.00000000000E+00 0.  1.
</event>
<event>
 7    1  0.6246445E-012  0.5930192E+02  0.7816164E-02  0.1266605E+00
        -11   -1    0    0    0    0  0.00000000000E+00  0.00000000000E+00  0.45593999997E+02  0.45594000000E+02  0.51100000000E-03 0.  1.
         11   -1    0    0    0    0 -0.00000000000E+00 -0.00000000000E+00 -0.45593999997E+02  0.45594000000E+02  0.51100000000E-03 0. -1.
    9900012    2    1    2    0    0  0.48788416191E+00  0.25862026090E+02  0.18645090530E+02  0.59301924272E+02  0.49999963971E+02 0.  0.
         12    1    1    2    0    0 -0.48788416191E+00 -0.25862026090E+02 -0.18645090530E+02  0.31886075728E+02  0.00000000000E+00 0. -1.
         11    1    3    3    0    0 -0.37100738035E+01 -0.72781009701E+01  0.25009239493E+01  0.85434198199E+01  0.51100000000E-03 0. -1.
        -11    1    3    3    0    0  0.18353869860E+02  0.10392023094E+02  0.46173644561E+01  0.21591172678E+02  0.51100000000E-03 0.  1.
        -12    1    3    3    0    0 -0.14155911895E+02  0.22748103966E+02  0.11526802124E+02  0.29167331774E+02  0.00000000000E+00 0.  1.
</event>
<event>
 7    1  0.6246445E-012  0.5930191E+02  0.7816164E-02  0.1266605E+00
        -11   -1    0    0    0    0  0.00000000000E+00  0.00000000000E+00  0.45593999997E+02  0.45594000000E+02  0.51100000000E-03 0. -1.
         11   -1    0    0    0    0 -0.00000000000E+00 -0.00000000000E+00 -0.45593999997E+02  0.45594000000E+02  0.51100000000E-03 0.  1.
    9900012    2    1    2    0    0 -0.35108985227E+00  0.22594846245E+01 -0.31803997881E+02  0.59301908736E+02  0.49999935637E+02 0.  0.
         12    1    1    2    0    0  0.35108985227E+00 -0.22594846245E+01  0.31803997881E+02  0.31886091264E+02  0.00000000000E+00 0. -1.
         11    1    3    3    0    0  0.17647889423E+01  0.89602204554E+00 -0.29311535014E+02  0.29378281445E+02  0.51100000000E-03 0. -1.
        -11    1    3    3    0    0  0.35089636846E+00  0.13639555238E+02 -0.84587392456E+01  0.16053375509E+02  0.51100000000E-03 0.  1.
         12    1    3    3    0    0 -0.24667751630E+01 -0.12276092659E+02  0.59662763788E+01  0.13870251782E+02  0.00000000000E+00 0. -1.
</event>
<event>
 7    1  0.6246445E-012  0.5930194E+02  0.7816164E-02  0.1266605E+00
        -11   -1    0    0    0    0  0.00000000000E+00  0.00000000000E+00  0.45593999997E+02  0.45594000000E+02  0.51100000000E-03 0.  1.
         11   -1    0    0    0    0 -0.00000000000E+00 -0.00000000000E+00 -0.45593999997E+02  0.45594000000E+02  0.51100000000E-03 0. -1.
    9900012    2    1    2    0    0  0.19059976255E+02  0.38852103536E+01  0.25265451000E+02  0.59301943980E+02  0.49999999912E+02 0.  0.
         12    1    1    2    0    0 -0.19059976255E+02 -0.38852103536E+01 -0.25265451000E+02  0.31886056020E+02  0.00000000000E+00 0. -1.
         11    1    3    3    0    0  0.76704322251E+01 -0.61159805818E+01  0.21997744656E+02  0.24086127111E+02  0.51100000000E-03 0. -1.
        -11    1    3    3    0    0  0.17951098555E+02  0.13523138256E+02  0.10525216632E+02  0.24817280130E+02  0.51100000000E-03 0.  1.
         12    1    3    3    0    0 -0.65615545258E+01 -0.35219473209E+01 -0.72575102880E+01  0.10398536739E+02  0.00000000000E+00 0. -1.
</event>
<event>
 7    1  0.6246445E-012  0.5930193E+02  0.7816164E-02  0.1266605E+00
        -11   -1    0    0    0    0  0.00000000000E+00  0.00000000000E+00  0.45593999997E+02  0.45594000000E+02  0.51100000000E-03 0.  1.
         11   -1    0    0    0    0 -0.00000000000E+00 -0.00000000000E+00 -0.45593999997E+02  0.45594000000E+02  0.51100000000E-03 0. -1.
    9900012    2    1    2    0    0  0.99764695776E+01  0.20246162095E+02  0.22522971819E+02  0.59301932755E+02  0.49999979441E+02 0.  0.
         12    1    1    2    0    0 -0.99764695776E+01 -0.20246162095E+02 -0.22522971819E+02  0.31886067245E+02  0.00000000000E+00 0. -1.
         11    1    3    3    0    0  0.12970092698E+02  0.22984361282E+00 -0.35095700445E+01  0.13438497492E+02  0.51100000000E-03 0. -1.
        -11    1    3    3    0    0  0.82419030493E+01  0.68163730184E+01 -0.38083624415E+01  0.11353216802E+02  0.51100000000E-03 0.  1.
        -12    1    3    3    0    0 -0.11235526169E+02  0.13199945464E+02  0.29840904305E+02  0.34510218462E+02  0.00000000000E+00 0.  1.
</event>
<event>
 7    1  0.6246445E-012  0.5930190E+02  0.7816164E-02  0.1266605E+00
        -11   -1    0    0    0    0  0.00000000000E+00  0.00000000000E+00  0.45593999997E+02  0.45594000000E+02  0.51100000000E-03 0. -1.
         11   -1    0    0    0    0 -0.00000000000E+00 -0.00000000000E+00 -0.45593999997E+02  0.45594000000E+02  0.51100000000E-03 0.  1.
    9900012    2    1    2    0    0  0.20583035337E+02  0.16318398144E+02 -0.18076838618E+02  0.59301897132E+02  0.49999914474E+02 0.  0.
         12    1    1    2    0    0 -0.20583035337E+02 -0.16318398144E+02  0.18076838618E+02  0.31886102868E+02  0.00000000000E+00 0. -1.
         11    1    3    3    0    0  0.13914393329E+02  0.25306010195E+01  0.18318544641E+01  0.14260784490E+02  0.51100000000E-03 0. -1.
        -11    1    3    3    0    0  0.18755625755E+02  0.24550071317E+00 -0.93136000734E+00  0.18780340779E+02  0.51100000000E-03 0.  1.
        -12    1    3    3    0    0 -0.12086983747E+02  0.13542296412E+02 -0.18977333074E+02  0.26260771863E+02  0.00000000000E+00 0.  1.
</event>
<event>
 7    1  0.6246445E-012  0.5930196E+02  0.7816164E-02  0.1266605E+00
        -11   -1    0    0    0    0  0.00000000000E+00  0.00000000000E+00  0.45593999997E+02  0.45594000000E+02  0.51100000000E-03 0.  1.
         11   -1    0    0    0    0 -0.00000000000E+00 -0.00000000000E+00 -0.45593999997E+02  0.45594000000E+02  0.51100000000E-03 0. -1.
    9900012    2    1    2    0    0 -0.14877810375E+00  0.16876132919E+02  0.27053530867E+02  0.59301960271E+02  0.50000029624E+02 0.  0.
         12    1    1    2    0    0  0.14877810375E+00 -0.16876132919E+02 -0.27053530867E+02  0.31886039729E+02  0.00000000000E+00 0. -1.
         11    1    3    3    0    0  0.63426911324E+01 -0.24049223703E+01 -0.56500658813E+01  0.88281723551E+01  0.51100000000E-03 0. -1.
        -11    1    3    3    0    0 -0.13451685507E+02 -0.38479028943E+01  0.90235711942E+01  0.16648694754E+02  0.51100000000E-03 0.  1.
         12    1    3    3    0    0  0.69602162704E+01  0.23128958183E+02  0.23680025554E+02  0.33825093162E+02  0.00000000000E+00 0. -1.
</event>
<event>
 7    1  0.6246445E-012  0.5930194E+02  0.7816164E-02  0.1266605E+00
        -11   -1    0    0    0    0  0.00000000000E+00  0.00000000000E+00  0.45593999997E+02  0.45594000000E+02  0.51100000000E-03 0. -1.
         11   -1    0    0    0    0 -0.00000000000E+00 -0.00000000000E+00 -0.45593999997E+02  0.45594000000E+02  0.51100000000E-03 0.  1.
    9900012    2    1    2    0    0  0.24006182050E+02  0.18982130929E+02 -0.89500120148E+01  0.59301940565E+02  0.49999993685E+02 0.  0.
         12    1    1    2    0    0 -0.24006182050E+02 -0.18982130929E+02  0.89500120148E+01  0.31886059435E+02  0.00000000000E+00 0. -1.
         11    1    3    3    0    0  0.14497783479E+01  0.81735833982E+00  0.61098149057E+01  0.63324379474E+01  0.51100000000E-03 0. -1.
        -11    1    3    3    0    0  0.66955032513E+01  0.29515717069E+02 -0.39477294672E+01  0.30521990206E+02  0.51100000000E-03 0.  1.
        -12    1    3    3    0    0  0.15860900450E+02 -0.11350944480E+02 -0.11112097453E+02  0.22447512412E+02  0.00000000000E+00 0.  1.
</event>
<event>
 7    1  0.6246445E-012  0.5930195E+02  0.7816164E-02  0.1266605E+00
        -11   -1    0    0    0    0  0.00000000000E+00  0.00000000000E+00  0.45593999997E+02  0.45594000000E+02  0.51100000000E-03 0. -1.
         11   -1    0    0    0    0 -0.00000000000E+00 -0.00000000000E+00 -0.45593999997E+02  0.45594000000E+02  0.51100000000E-03 0.  1.
    9900012    2    1    2    0    0  0.23996975266E+02  0.67450457220E+01 -0.19883902942E+02  0.59301951955E+02  0.50000014458E+02 0.  0.
         12    1    1    2    0    0 -0.23996975266E+02 -0.67450457220E+01  0.19883902942E+02  0.31886048045E+02  0.00000000000E+00 0. -1.
         11    1    3    3    0    0  0.54777413928E+01 -0.13034475875E+02  0.37151838092E+01  0.14618679937E+02  0.51100000000E-03 0. -1.
        -11    1    3    3    0    0  0.13900853314E+02  0.15416305728E+02 -0.54017403092E+00  0.20765066660E+02  0.51100000000E-03 0.  1.
        -12    1    3    3    0    0  0.46183805594E+01  0.43632158692E+01 -0.23058912720E+02  0.23918205358E+02  0.00000000000E+00 0.  1.
</event>
<event>
 7    1  0.6246445E-012  0.5930196E+02  0.7816164E-02  0.1266605E+00
        -11   -1    0    0    0    0  0.00000000000E+00  0.00000000000E+00  0.45593999997E+02  0.45594000000E+02  0.51100000000E-03 0. -1.
         11   -1    0    0    0    0 -0.00000000000E+00 -0.00000000000E+00 -0.45593999997E+02  0.45594000000E+02  0.51100000000E-03 0.  1.
    9900012    2    1    2    0    0 -0.15853239287E+02 -0.25754391272E+02 -0.10104742141E+02  0.59301957922E+02  0.50000025339E+02 0.  0.
         12    1    1    2    0    0  0.15853239287E+02  0.25754391272E+02  0.10104742141E+02  0.31886042078E+02  0.00000000000E+00 0. -1.
         11    1    3    3    0    0 -0.19852914417E+00  0.27727099796E+01  0.11816948099E+02  0.12139505636E+02  0.51100000000E-03 0. -1.
        -11    1    3    3    0    0  0.34745835811E+01 -0.18381030330E+02 -0.41775863810E+01  0.19167348155E+02  0.51100000000E-03 0.  1.
        -12    1    3    3    0    0 -0.19129293724E+02 -0.10146070922E+02 -0.17744103859E+02  0.27995104131E+02  0.00000000000E+00 0.  1.
</event>
<event>
 7    1  0.6246445E-012  0.5930197E+02  0.7816164E-02  0.1266605E+00
        -11   -1    0    0    0    0  0.00000000000E+00  0.00000000000E+00  0.45593999997E+02  0.45594000000E+02  0.51100000000E-03 0. -1.
         11   -1    0    0    0    0 -0.00000000000E+00 -0.00000000000E+00 -0.45593999997E+02  0.45594000000E+02  0.51100000000E-03 0.  1.
    9900012    2    1    2    0    0 -0.24719183579E+02  0.19936257450E+02  0.28682027582E+01  0.59301968811E+02  0.50000045199E+02 0.  0.
         12    1    1    2    0    0  0.24719183579E+02 -0.19936257450E+02 -0.28682027582E+01  0.31886031189E+02  0.00000000000E+00 0. -1.
         11    1    3    3    0    0 -0.16380811366E+02  0.78033099483E+01  0.39907426563E+01  0.18578176831E+02  0.51100000000E-03 0. -1.
        -11    1    3    3    0    0 -0.65864762845E+01  0.23418322410E+02  0.85212412391E+01  0.25776172076E+02  0.51100000000E-03 0.  1.
         12    1    3    3    0    0 -0.17518959279E+01 -0.11285374909E+02 -0.96437811372E+01  0.14947619904E+02  0.00000000000E+00 0. -1.
</event>
<event>
 7    1  0.6246445E-012  0.5930195E+02  0.7816164E-02  0.1266605E+00
        -11   -1    0    0    0    0  0.00000000000E+00  0.00000000000E+00  0.45593999997E+02  0.45594000000E+02  0.51100000000E-03 0.  1.
         11   -1    0    0    0    0 -0.00000000000E+00 -0.00000000000E+00 -0.45593999997E+02  0.45594000000E+02  0.51100000000E-03 0. -1.
    9900012    2    1    2    0    0  0.29598774237E+02 -0.10256317944E+02  0.59532163252E+01  0.59301948525E+02  0.50000008201E+02 0.  0.
         12    1    1    2    0    0 -0.29598774237E+02  0.10256317944E+02 -0.59532163252E+01  0.31886051475E+02  0.00000000000E+00 0. -1.
         11    1    3    3    0    0  0.15092845363E+02 -0.55162174946E+01  0.48133971667E+01  0.16774725904E+02  0.51100000000E-03 0. -1.
        -11    1    3    3    0    0  0.13583164565E+02  0.16070712363E+02  0.42443480278E+01  0.21465894947E+02  0.51100000000E-03 0.  1.
         12    1    3    3    0    0  0.92276430872E+00 -0.20810812812E+02 -0.31045288694E+01  0.21061327674E+02  0.00000000000E+00 0. -1.
</event>
<event>
 7    1  0.6246445E-012  0.5930196E+02  0.7816164E-02  0.1266605E+00
        -11   -1    0    0    0    0  0.00000000000E+00  0.00000000000E+00  0.45593999997E+02  0.45594000000E+02  0.51100000000E-03 0. -1.
         11   -1    0    0    0    0 -0.00000000000E+00 -0.00000000000E+00 -0.45593999997E+02  0.45594000000E+02  0.51100000000E-03 0.  1.
    9900012    2    1    2    0    0 -0.54009159966E+00 -0.76448551548E+01 -0.30951321024E+02  0.59301956307E+02  0.50000022394E+02 0.  0.
         12    1    1    2    0    0  0.54009159966E+00  0.76448551548E+01  0.30951321024E+02  0.31886043693E+02  0.00000000000E+00 0. -1.
         11    1    3    3    0    0 -0.31600953740E+01 -0.82874834204E+01 -0.12918453071E+01  0.89631160193E+01  0.51100000000E-03 0. -1.
        -11    1    3    3    0    0 -0.76194463366E+01 -0.10926535320E+02  0.34860822744E+01  0.13769455562E+02  0.51100000000E-03 0.  1.
         12    1    3    3    0    0  0.10239450111E+02  0.11569163586E+02 -0.33145557992E+02  0.36569384726E+02  0.00000000000E+00 0. -1.
</event>
<event>
 7    1  0.6246445E-012  0.5930194E+02  0.7816164E-02  0.1266605E+00
        -11   -1    0    0    0    0  0.00000000000E+00  0.00000000000E+00  0.45593999997E+02  0.45594000000E+02  0.51100000000E-03 0.  1.
         11   -1    0    0    0    0 -0.00000000000E+00 -0.00000000000E+00 -0.45593999997E+02  0.45594000000E+02  0.51100000000E-03 0. -1.
    9900012    2    1    2    0    0 -0.14144583674E+02 -0.11707529410E+02  0.26068854177E+02  0.59301942697E+02  0.49999997574E+02 0.  0.
         12    1    1    2    0    0  0.14144583674E+02  0.11707529410E+02 -0.26068854177E+02  0.31886057303E+02  0.00000000000E+00 0. -1.
         11    1    3    3    0    0 -0.27379687924E+02 -0.49292448177E+01  0.75900387932E+01  0.28836668574E+02  0.51100000000E-03 0. -1.
        -11    1    3    3    0    0  0.99418728441E+01 -0.90019403145E+00 -0.82772990730E+00  0.10016801985E+02  0.51100000000E-03 0.  1.
        -12    1    3    3    0    0  0.32932314060E+01 -0.58780905607E+01  0.19306545291E+02  0.20448472139E+02  0.00000000000E+00 0.  1.
</event>
<event>
 7    1  0.6246445E-012  0.5930194E+02  0.7816164E-02  0.1266605E+00
        -11   -1    0    0    0    0  0.00000000000E+00  0.00000000000E+00  0.45593999997E+02  0.45594000000E+02  0.51100000000E-03 0.  1.
         11   -1    0    0    0    0 -0.00000000000E+00 -0.00000000000E+00 -0.45593999997E+02  0.45594000000E+02  0.51100000000E-03 0. -1.
    9900012    2    1    2    0    0 -0.23021322753E+02  0.40650276119E+01  0.21684444748E+02  0.59301938863E+02  0.49999990581E+02 0.  0.
         12    1    1    2    0    0  0.23021322753E+02 -0.40650276119E+01 -0.21684444748E+02  0.31886061137E+02  0.00000000000E+00 0. -1.
         11    1    3    3    0    0  0.42837160358E+01 -0.29832180910E+01 -0.22399909351E+01  0.56804377388E+01  0.51100000000E-03 0. -1.
        -11    1    3    3    0    0 -0.69874589618E+01  0.16185011331E+02  0.25819268923E+02  0.31263618193E+02  0.51100000000E-03 0.  1.
        -12    1    3    3    0    0 -0.20317579827E+02 -0.91367656277E+01 -0.18948332396E+01  0.22357882931E+02  0.00000000000E+00 0.  1.
</event>
<event>
 7    1  0.6246445E-012  0.5930192E+02  0.7816164E-02  0.1266605E+00
        -11   -1    0    0    0    0  0.00000000000E+00  0.00000000000E+00  0.45593999997E+02  0.45594000000E+02  0.51100000000E-03 0.  1.
         11   -1    0    0    0    0 -0.00000000000E+00 -0.00000000000E+00 -0.45593999997E+02  0.45594000000E+02  0.51100000000E-03 0. -1.
    9900012    2    1    2    0    0  0.26665991862E+02 -0.40548923640E+01  0.17006023284E+02  0.59301919934E+02  0.49999956059E+02 0.  0.
         12    1    1    2    0    0 -0.26665991862E+02  0.40548923640E+01 -0.17006023284E+02  0.31886080066E+02  0.00000000000E+00 0. -1.
         11    1    3    3    0    0  0.24846526471E+02 -0.99060590859E+01  0.49542071201E+01  0.27203383112E+02  0.51100000000E-03 0. -1.
        -11    1    3    3    0    0  0.14797691740E+02  0.19772742502E+01  0.10940818252E+02  0.18508992371E+02  0.51100000000E-03 0.  1.
        -12    1    3    3    0    0 -0.12978226349E+02  0.38738924717E+01  0.11109979110E+01  0.13589544451E+02  0.00000000000E+00 0.  1.
</event>
<event>
 7    1  0.6246445E-012  0.5930174E+02  0.7816164E-02  0.1266605E+00
        -11   -1    0    0    0    0  0.00000000000E+00  0.00000000000E+00  0.45593999997E+02  0.45594000000E+02  0.51100000000E-03 0.  1.
         11   -1    0    0    0    0 -0.00000000000E+00 -0.00000000000E+00 -0.45593999997E+02  0.45594000000E+02  0.51100000000E-03 0. -1.
    9900012    2    1    2    0    0 -0.23345390654E+02  0.13885838377E+01 -0.21674834252E+02  0.59301735407E+02  0.49999619524E+02 0.  0.
         12    1    1    2    0    0  0.23345390654E+02 -0.13885838377E+01  0.21674834252E+02  0.31886264593E+02  0.00000000000E+00 0. -1.
         11    1    3    3    0    0 -0.16083213200E+02  0.19975085435E+02 -0.10552396072E+02  0.27731333327E+02  0.51100000000E-03 0. -1.
        -11    1    3    3    0    0 -0.11650163012E+02 -0.11738864660E+02 -0.15208857279E+02  0.22468568751E+02  0.51100000000E-03 0.  1.
        -12    1    3    3    0    0  0.43879855585E+01 -0.68476369374E+01  0.40864190990E+01  0.91018333286E+01  0.00000000000E+00 0.  1.
</event>
<event>
 7    1  0.6246445E-012  0.5930195E+02  0.7816164E-02  0.1266605E+00
        -11   -1    0    0    0    0  0.00000000000E+00  0.00000000000E+00  0.45593999997E+02  0.45594000000E+02  0.51100000000E-03 0.  1.
         11   -1    0    0    0    0 -0.00000000000E+00 -0.00000000000E+00 -0.45593999997E+02  0.45594000000E+02  0.51100000000E-03 0. -1.
    9900012    2    1    2    0    0  0.23664170078E+02  0.21132497337E+02  0.31851245296E+01  0.59301946505E+02  0.50000004519E+02 0.  0.
         12    1    1    2    0    0 -0.23664170078E+02 -0.21132497337E+02 -0.31851245296E+01  0.31886053495E+02  0.00000000000E+00 0. -1.
         11    1    3    3    0    0  0.16782575869E+02 -0.16880852673E+01 -0.17895989513E+02  0.24592090712E+02  0.51100000000E-03 0. -1.
        -11    1    3    3    0    0  0.84137113274E+01  0.56042352160E+01  0.97324148091E+01  0.14032743457E+02  0.51100000000E-03 0.  1.
        -12    1    3    3    0    0 -0.15321171185E+01  0.17216347389E+02  0.11348699234E+02  0.20677112336E+02  0.00000000000E+00 0.  1.
</event>
<event>
 7    1  0.6246445E-012  0.5930194E+02  0.7816164E-02  0.1266605E+00
        -11   -1    0    0    0    0  0.00000000000E+00  0.00000000000E+00  0.45593999997E+02  0.45594000000E+02  0.51100000000E-03 0.  1.
         11   -1    0    0    0    0 -0.00000000000E+00 -0.00000000000E+00 -0.45593999997E+02  0.45594000000E+02  0.51100000000E-03 0. -1.
    9900012    2    1    2    0    0 -0.20491722204E+02  0.19054090991E+02 -0.15288950700E+02  0.59301936024E+02  0.49999985403E+02 0.  0.
         12    1    1    2    0    0  0.20491722204E+02 -0.19054090991E+02  0.15288950700E+02  0.31886063976E+02  0.00000000000E+00 0. -1.
         11    1    3    3    0    0  0.18839162605E+01  0.83350421744E+01  0.19153664480E+01  0.87573225028E+01  0.51100000000E-03 0. -1.
        -11    1    3    3    0    0 -0.29527512065E+01 -0.52906763391E+01  0.11113111000E+02  0.12657457572E+02  0.51100000000E-03 0.  1.
         12    1    3    3    0    0 -0.19422887258E+02  0.16009725156E+02 -0.28317428149E+02  0.37887155949E+02  0.00000000000E+00 0. -1.
</event>
<event>
 7    1  0.6246445E-012  0.5930195E+02  0.7816164E-02  0.1266605E+00
        -11   -1    0    0    0    0  0.00000000000E+00  0.00000000000E+00  0.45593999997E+02  0.45594000000E+02  0.51100000000E-03 0. -1.
         11   -1    0    0    0    0 -0.00000000000E+00 -0.00000000000E+00 -0.45593999997E+02  0.45594000000E+02  0.51100000000E-03 0.  1.
    9900012    2    1    2    0    0 -0.25324479149E+02 -0.18917731708E+02 -0.41845751106E+01  0.59301945274E+02  0.50000002272E+02 0.  0.
         12    1    1    2    0    0  0.25324479149E+02  0.18917731708E+02  0.41845751106E+01  0.31886054726E+02  0.00000000000E+00 0. -1.
         11    1    3    3    0    0  0.83403707895E+01 -0.98864261898E+00  0.48365283362E+01  0.96918112725E+01  0.51100000000E-03 0. -1.
        -11    1    3    3    0    0 -0.23801826203E+02  0.27756675183E+01  0.22268971986E+01  0.24066373474E+02  0.51100000000E-03 0.  1.
        -12    1    3    3    0    0 -0.98630237356E+01 -0.20704756607E+02 -0.11248000645E+02  0.25543760528E+02  0.00000000000E+00 0.  1.
</event>
<event>
 7    1  0.6246445E-012  0.5930191E+02  0.7816164E-02  0.1266605E+00
        -11   -1    0    0    0    0  0.00000000000E+00  0.00000000000E+00  0.45593999997E+02  0.45594000000E+02  0.51100000000E-03 0.  1.
         11   -1    0    0    0    0 -0.00000000000E+00 -0.00000000000E+00 -0.45593999997E+02  0.45594000000E+02  0.51100000000E-03 0. -1.
    9900012    2    1    2    0    0 -0.86381834882E+01 -0.20973985888E+02  0.22409739545E+02  0.59301910173E+02  0.49999938256E+02 0.  0.
         12    1    1    2    0    0  0.86381834882E+01  0.20973985888E+02 -0.22409739545E+02  0.31886089827E+02  0.00000000000E+00 0. -1.
         11    1    3    3    0    0 -0.11845991422E+02 -0.20525936801E+02  0.93218380506E+00  0.23717305101E+02  0.51100000000E-03 0. -1.
        -11    1    3    3    0    0 -0.94566022229E+01 -0.40238054417E+01 -0.13842028339E+00  0.10278010326E+02  0.51100000000E-03 0.  1.
        -12    1    3    3    0    0  0.12664410157E+02  0.35757563555E+01  0.21615976024E+02  0.25306594745E+02  0.00000000000E+00 0.  1.
</event>
<event>
 7    1  0.6246445E-012  0.5930193E+02  0.7816164E-02  0.1266605E+00
        -11   -1    0    0    0    0  0.00000000000E+00  0.00000000000E+00  0.45593999997E+02  0.45594000000E+02  0.51100000000E-03 0.  1.
         11   -1    0    0    0    0 -0.00000000000E+00 -0.00000000000E+00 -0.45593999997E+02  0.45594000000E+02  0.51100000000E-03 0. -1.
    9900012    2    1    2    0    0 -0.34060971318E+01 -0.25695271344E+02  0.18570753832E+02  0.59301931491E+02  0.49999977136E+02 0.  0.
         12    1    1    2    0    0  0.34060971318E+01  0.25695271344E+02 -0.18570753832E+02  0.31886068509E+02  0.00000000000E+00 0. -1.
         11    1    3    3    0    0  0.13313874838E+02  0.33179027308E+01  0.53758206109E+01  0.14736593543E+02  0.51100000000E-03 0. -1.
        -11    1    3    3    0    0 -0.27373827396E+01  0.16693585317E+01 -0.52350330118E+01  0.61388592642E+01  0.51100000000E-03 0.  1.
        -12    1    3    3    0    0 -0.13982589230E+02 -0.30682532606E+02  0.18429966232E+02  0.38426478684E+02  0.00000000000E+00 0.  1.
</event>
<event>
 7    1  0.6246445E-012  0.5930195E+02  0.7816164E-02  0.1266605E+00
        -11   -1    0    0    0    0  0.00000000000E+00  0.00000000000E+00  0.45593999997E+02  0.45594000000E+02  0.51100000000E-03 0.  1.
         11   -1    0    0    0    0 -0.00000000000E+00 -0.00000000000E+00 -0.45593999997E+02  0.45594000000E+02  0.51100000000E-03 0. -1.
    9900012    2    1    2    0    0  0.30501400429E+02  0.91744761120E+01  0.14877977855E+01  0.59301953172E+02  0.50000016678E+02 0.  0.
         12    1    1    2    0    0 -0.30501400429E+02 -0.91744761120E+01 -0.14877977855E+01  0.31886046828E+02  0.00000000000E+00 0. -1.
         11    1    3    3    0    0 -0.25404998490E+00 -0.94214407701E+01  0.11922086994E+02  0.15197507892E+02  0.51100000000E-03 0. -1.
        -11    1    3    3    0    0  0.20205019111E+02  0.39346886465E+01  0.40161329469E+01  0.20972694060E+02  0.51100000000E-03 0.  1.
        -12    1    3    3    0    0  0.10550431302E+02  0.14661228236E+02 -0.14450422155E+02  0.23131751220E+02  0.00000000000E+00 0.  1.
</event>
<event>
 7    1  0.6246445E-012  0.5930186E+02  0.7816164E-02  0.1266605E+00
        -11   -1    0    0    0    0  0.00000000000E+00  0.00000000000E+00  0.45593999997E+02  0.45594000000E+02  0.51100000000E-03 0. -1.
         11   -1    0    0    0    0 -0.00000000000E+00 -0.00000000000E+00 -0.45593999997E+02  0.45594000000E+02  0.51100000000E-03 0.  1.
    9900012    2    1    2    0    0  0.30106989881E+02 -0.65983974244E+01  0.81704505681E+01  0.59301859582E+02  0.49999845991E+02 0.  0.
         12    1    1    2    0    0 -0.30106989881E+02  0.65983974244E+01 -0.81704505681E+01  0.31886140418E+02  0.00000000000E+00 0. -1.
         11    1    3    3    0    0 -0.70657701226E+01  0.52963307585E-01 -0.69451146290E+01  0.99077005409E+01  0.51100000000E-03 0. -1.
        -11    1    3    3    0    0  0.65300436376E+00 -0.36178518884E+01 -0.60470673585E+01  0.70768842639E+01  0.51100000000E-03 0.  1.
         12    1    3    3    0    0  0.36519755640E+02 -0.30335088436E+01  0.21162632556E+02  0.42317274777E+02  0.00000000000E+00 0. -1.
</event>
<event>
 7    1  0.1001117E-011  0.5930194E+02  0.7816164E-02  0.1266605E+00
        -11   -1    0    0    0    0  0.00000000000E+00  0.00000000000E+00  0.45593999997E+02  0.45594000000E+02  0.51100000000E-03 0. -1.
         11   -1    0    0    0    0 -0.00000000000E+00 -0.00000000000E+00 -0.45593999997E+02  0.45594000000E+02  0.51100000000E-03 0.  1.
    9900012    2    1    2    0    0 -0.27132289165E+02 -0.61945121166E+01 -0.15562385194E+02  0.59301938333E+02  0.49999989614E+02 0.  0.
         12    1    1    2    0    0  0.27132289165E+02  0.61945121166E+01  0.15562385194E+02  0.31886061667E+02  0.00000000000E+00 0. -1.
         11    1    3    3    0    0  0.37979973297E+01  0.56377062295E+01  0.59069357078E+01  0.90055763261E+01  0.51100000000E-03 0. -1.
        -11    1    3    3    0    0 -0.29031243172E+01 -0.74265298569E+01 -0.20402119330E+02  0.21904975461E+02  0.51100000000E-03 0.  1.
         12    1    3    3    0    0 -0.28027162178E+02 -0.44056884892E+01 -0.10672015719E+01  0.28391386546E+02  0.00000000000E+00 0. -1.
</event>
<event>
 7    1  0.6246445E-012  0.5930199E+02  0.7816164E-02  0.1266605E+00
        -11   -1    0    0    0    0  0.00000000000E+00  0.00000000000E+00  0.45593999997E+02  0.45594000000E+02  0.51100000000E-03 0. -1.
         11   -1    0    0    0    0 -0.00000000000E+00 -0.00000000000E+00 -0.45593999997E+02  0.45594000000E+02  0.51100000000E-03 0.  1.
    9900012    2    1    2    0    0  0.25871796896E+02 -0.11747522161E+02  0.14469387367E+02  0.59301994883E+02  0.50000092748E+02 0.  0.
         12    1    1    2    0    0 -0.25871796896E+02  0.11747522161E+02 -0.14469387367E+02  0.31886005117E+02  0.00000000000E+00 0. -1.
         11    1    3    3    0    0  0.99305669934E-01  0.12843550998E+02 -0.29859909905E+01  0.13186462995E+02  0.51100000000E-03 0. -1.
        -11    1    3    3    0    0  0.25277606963E+02 -0.86500593661E+01  0.10263540243E+02  0.28620293489E+02  0.51100000000E-03 0.  1.
        -12    1    3    3    0    0  0.49488426318E+00 -0.15941013793E+02  0.71918381145E+01  0.17495238399E+02  0.00000000000E+00 0.  1.
</event>
<event>
 7    1  0.6246445E-012  0.5930195E+02  0.7816164E-02  0.1266605E+00
        -11   -1    0    0    0    0  0.00000000000E+00  0.00000000000E+00  0.45593999997E+02  0.45594000000E+02  0.51100000000E-03 0.  1.
         11   -1    0    0    0    0 -0.00000000000E+00 -0.00000000000E+00 -0.45593999997E+02  0.45594000000E+02  0.51100000000E-03 0. -1.
    9900012    2    1    2    0    0  0.11933484152E+02  0.27761851195E+02  0.10178002652E+02  0.59301950327E+02  0.50000011488E+02 0.  0.
         12    1    1    2    0    0 -0.11933484152E+02 -0.27761851195E+02 -0.10178002652E+02  0.31886049673E+02  0.00000000000E+00 0. -1.
         11    1    3    3    0    0 -0.83507531172E+00  0.71073588144E+00  0.20508403033E+01  0.23256058308E+01  0.51100000000E-03 0. -1.
        -11    1    3    3    0    0 -0.17390914283E+02  0.38098802448E+01 -0.96771138092E+00  0.17829625702E+02  0.51100000000E-03 0.  1.
        -12    1    3    3    0    0  0.30159473747E+02  0.23241235069E+02  0.90948737293E+01  0.39146718794E+02  0.00000000000E+00 0.  1.
</event>
<event>
 7    1  0.6246445E-012  0.5930191E+02  0.7816164E-02  0.1266605E+00
        -11   -1    0    0    0    0  0.00000000000E+00  0.00000000000E+00  0.45593999997E+02  0.45594000000E+02  0.51100000000E-03 0.  1.
         11   -1    0    0    0    0 -0.00000000000E+00 -0.00000000000E+00 -0.45593999997E+02  0.45594000000E+02  0.51100000000E-03 0. -1.
    9900012    2    1    2    0    0 -0.48221838024E+00  0.29489963047E+02 -0.12117439810E+02  0.59301908947E+02  0.49999936021E+02 0.  0.
         12    1    1    2    0    0  0.48221838024E+00 -0.29489963047E+02  0.12117439810E+02  0.31886091053E+02  0.00000000000E+00 0. -1.
         11    1    3    3    0    0 -0.84289515514E+01  0.25121165236E+02 -0.75398356304E+01  0.27549397247E+02  0.51100000000E-03 0. -1.
        -11    1    3    3    0    0  0.14306094652E+02  0.11978589641E+02 -0.92085058151E+01  0.20807391321E+02  0.51100000000E-03 0.  1.
        -12    1    3    3    0    0 -0.63593614811E+01 -0.76097918304E+01  0.46309016351E+01  0.10945120379E+02  0.00000000000E+00 0.  1.
</event>
<event>
 7    1  0.6246445E-012  0.5930195E+02  0.7816164E-02  0.1266605E+00
        -11   -1    0    0    0    0  0.00000000000E+00  0.00000000000E+00  0.45593999997E+02  0.45594000000E+02  0.51100000000E-03 0.  1.
         11   -1    0    0    0    0 -0.00000000000E+00 -0.00000000000E+00 -0.45593999997E+02  0.45594000000E+02  0.51100000000E-03 0. -1.
    9900012    2    1    2    0    0 -0.11450597838E+01  0.30896648636E+02  0.77978423421E+01  0.59301946559E+02  0.50000004616E+02 0.  0.
         12    1    1    2    0    0  0.11450597838E+01 -0.30896648636E+02 -0.77978423421E+01  0.31886053441E+02  0.00000000000E+00 0. -1.
         11    1    3    3    0    0  0.10430721000E+01  0.83806666575E+01 -0.16394503799E+02  0.18441890578E+02  0.51100000000E-03 0. -1.
        -11    1    3    3    0    0 -0.69364296250E+00  0.20160094632E+02  0.41120567472E+01  0.20586878518E+02  0.51100000000E-03 0.  1.
        -12    1    3    3    0    0 -0.14944889213E+01  0.23558873467E+01  0.20080289393E+02  0.20273177463E+02  0.00000000000E+00 0.  1.
</event>
<event>
 7    1  0.6246445E-012  0.5930195E+02  0.7816164E-02  0.1266605E+00
        -11   -1    0    0    0    0  0.00000000000E+00  0.00000000000E+00  0.45593999997E+02  0.45594000000E+02  0.51100000000E-03 0.  1.
         11   -1    0    0    0    0 -0.00000000000E+00 -0.00000000000E+00 -0.45593999997E+02  0.45594000000E+02  0.51100000000E-03 0. -1.
    9900012    2    1    2    0    0 -0.17814141882E+02  0.99644950545E+01  0.24496636762E+02  0.59301952498E+02  0.50000015447E+02 0.  0.
         12    1    1    2    0    0  0.17814141882E+02 -0.99644950545E+01 -0.24496636762E+02  0.31886047502E+02  0.00000000000E+00 0. -1.
         11    1    3    3    0    0 -0.18718284500E+00 -0.43219779769E+01 -0.93533063580E+01  0.10305283652E+02  0.51100000000E-03 0. -1.
        -11    1    3    3    0    0 -0.33811208801E+01  0.10310889077E+02 -0.12355370542E+01  0.10921216234E+02  0.51100000000E-03 0.  1.
        -12    1    3    3    0    0 -0.14245838156E+02  0.39755839545E+01  0.35085480174E+02  0.38075452612E+02  0.00000000000E+00 0.  1.
</event>
<event>
 7    1  0.6246445E-012  0.5930194E+02  0.7816164E-02  0.1266605E+00
        -11   -1    0    0    0    0  0.00000000000E+00  0.00000000000E+00  0.45593999997E+02  0.45594000000E+02  0.51100000000E-03 0. -1.
         11   -1    0    0    0    0 -0.00000000000E+00 -0.00000000000E+00 -0.45593999997E+02  0.45594000000E+02  0.51100000000E-03 0.  1.
    9900012    2    1    2    0    0  0.23099791445E+02  0.76118448084E+01  0.20619893069E+02  0.59301944484E+02  0.50000000833E+02 0.  0.
         12    1    1    2    0    0 -0.23099791445E+02 -0.76118448084E+01 -0.20619893069E+02  0.31886055516E+02  0.00000000000E+00 0. -1.
         11    1    3    3    0    0  0.39292936778E+01 -0.13330991835E+02  0.18193393532E+02  0.22894415489E+02  0.51100000000E-03 0. -1.
        -11    1    3    3    0    0  0.14165004371E+02  0.38244801622E+01 -0.69754363970E+01  0.16245944433E+02  0.51100000000E-03 0.  1.
        -12    1    3    3    0    0  0.50054933960E+01  0.17118356481E+02  0.94019359333E+01  0.20161584562E+02  0.00000000000E+00 0.  1.
</event>
<event>
 7    1  0.6246445E-012  0.5930194E+02  0.7816164E-02  0.1266605E+00
        -11   -1    0    0    0    0  0.00000000000E+00  0.00000000000E+00  0.45593999997E+02  0.45594000000E+02  0.51100000000E-03 0. -1.
         11   -1    0    0    0    0 -0.00000000000E+00 -0.00000000000E+00 -0.45593999997E+02  0.45594000000E+02  0.51100000000E-03 0.  1.
    9900012    2    1    2    0    0  0.27541392608E+02  0.15818450907E+02 -0.28229857488E+01  0.59301938085E+02  0.49999989163E+02 0.  0.
         12    1    1    2    0    0 -0.27541392608E+02 -0.15818450907E+02  0.28229857488E+01  0.31886061915E+02  0.00000000000E+00 0. -1.
         11    1    3    3    0    0  0.14625405276E+02 -0.13879579553E+02  0.44061711558E+01  0.20638787575E+02  0.51100000000E-03 0. -1.
        -11    1    3    3    0    0 -0.35387044131E+00 -0.24655809380E+01  0.13421718802E+01  0.28294415117E+01  0.51100000000E-03 0.  1.
        -12    1    3    3    0    0  0.13269857774E+02  0.32163611397E+02 -0.85713287848E+01  0.35833708999E+02  0.00000000000E+00 0.  1.
</event>
<event>
 7    1  0.6246445E-012  0.5930196E+02  0.7816164E-02  0.1266605E+00
        -11   -1    0    0    0    0  0.00000000000E+00  0.00000000000E+00  0.45593999997E+02  0.45594000000E+02  0.51100000000E-03 0.  1.
         11   -1    0    0    0    0 -0.00000000000E+00 -0.00000000000E+00 -0.45593999997E+02  0.45594000000E+02  0.51100000000E-03 0. -1.
    9900012    2    1    2    0    0 -0.61575183505E-01  0.28874842867E+02  0.13526236200E+02  0.59301962180E+02  0.50000033106E+02 0.  0.
         12    1    1    2    0    0  0.61575183505E-01 -0.28874842867E+02 -0.13526236200E+02  0.31886037820E+02  0.00000000000E+00 0. -1.
         11    1    3    3    0    0 -0.10054247881E+02  0.24264231309E+02  0.44038441883E+01  0.26631460069E+02  0.51100000000E-03 0. -1.
        -11    1    3    3    0    0  0.88560459945E+00  0.15475729508E+02 -0.54565213386E+00  0.15510649110E+02  0.51100000000E-03 0.  1.
         12    1    3    3    0    0  0.91070680985E+01 -0.10865117950E+02  0.96680441457E+01  0.17159853001E+02  0.00000000000E+00 0. -1.
</event>
<event>
 7    1  0.6927894E-012  0.5930194E+02  0.7816164E-02  0.1266605E+00
        -11   -1    0    0    0    0  0.00000000000E+00  0.00000000000E+00  0.45593999997E+02  0.45594000000E+02  0.51100000000E-03 0. -1.
         11   -1    0    0    0    0 -0.00000000000E+00 -0.00000000000E+00 -0.45593999997E+02  0.45594000000E+02  0.51100000000E-03 0.  1.
    9900012    2    1    2    0    0  0.26148806736E+02 -0.11749258021E+02 -0.13961220534E+02  0.59301939777E+02  0.49999992247E+02 0.  0.
         12    1    1    2    0    0 -0.26148806736E+02  0.11749258021E+02  0.13961220534E+02  0.31886060223E+02  0.00000000000E+00 0. -1.
         11    1    3    3    0    0  0.12908126081E+02  0.55942562173E+01  0.92257512131E+01  0.16823492719E+02  0.51100000000E-03 0. -1.
        -11    1    3    3    0    0  0.19841383224E+02 -0.67996015679E+01 -0.21305909756E+02  0.29897439029E+02  0.51100000000E-03 0.  1.
         12    1    3    3    0    0 -0.66007025693E+01 -0.10543912671E+02 -0.18810619916E+01  0.12581008029E+02  0.00000000000E+00 0. -1.
</event>
<event>
 7    1  0.6246445E-012  0.5930191E+02  0.7816164E-02  0.1266605E+00
        -11   -1    0    0    0    0  0.00000000000E+00  0.00000000000E+00  0.45593999997E+02  0.45594000000E+02  0.51100000000E-03 0.  1.
         11   -1    0    0    0    0 -0.00000000000E+00 -0.00000000000E+00 -0.45593999997E+02  0.45594000000E+02  0.51100000000E-03 0. -1.
    9900012    2    1    2    0    0  0.11212612024E+02  0.11956623688E+02  0.27350300906E+02  0.59301914036E+02  0.49999945303E+02 0.  0.
         12    1    1    2    0    0 -0.11212612024E+02 -0.11956623688E+02 -0.27350300906E+02  0.31886085964E+02  0.00000000000E+00 0. -1.
         11    1    3    3    0    0  0.67960196685E+01 -0.78291888365E+01  0.25996152643E+02  0.27987176236E+02  0.51100000000E-03 0.  1.
        -11    1    3    3    0    0 -0.94207823923E+01  0.11260246164E+02  0.29795449601E+01  0.14980720042E+02  0.51100000000E-03 0. -1.
        -12    1    3    3    0    0  0.13837374748E+02  0.85255663612E+01 -0.16253966974E+01  0.16334017758E+02  0.00000000000E+00 0.  1.
</event>
<event>
 7    1  0.6246445E-012  0.5930195E+02  0.7816164E-02  0.1266605E+00
        -11   -1    0    0    0    0  0.00000000000E+00  0.00000000000E+00  0.45593999997E+02  0.45594000000E+02  0.51100000000E-03 0.  1.
         11   -1    0    0    0    0 -0.00000000000E+00 -0.00000000000E+00 -0.45593999997E+02  0.45594000000E+02  0.51100000000E-03 0. -1.
    9900012    2    1    2    0    0 -0.22309476422E+01  0.22785852717E+02  0.22193425196E+02  0.59301947668E+02  0.50000006638E+02 0.  0.
         12    1    1    2    0    0  0.22309476422E+01 -0.22785852717E+02 -0.22193425196E+02  0.31886052332E+02  0.00000000000E+00 0. -1.
         11    1    3    3    0    0 -0.22966574885E+00 -0.11909814900E+02 -0.42871376445E+01  0.12660015275E+02  0.51100000000E-03 0. -1.
        -11    1    3    3    0    0 -0.23604879711E+01  0.71756324286E+01 -0.11521983848E+01  0.76412803633E+01  0.51100000000E-03 0.  1.
        -12    1    3    3    0    0  0.35920607779E+00  0.27520035189E+02  0.27632761225E+02  0.39000652029E+02  0.00000000000E+00 0.  1.
</event>
<event>
 7    1  0.6246445E-012  0.5930188E+02  0.7816164E-02  0.1266605E+00
        -11   -1    0    0    0    0  0.00000000000E+00  0.00000000000E+00  0.45593999997E+02  0.45594000000E+02  0.51100000000E-03 0.  1.
         11   -1    0    0    0    0 -0.00000000000E+00 -0.00000000000E+00 -0.45593999997E+02  0.45594000000E+02  0.51100000000E-03 0. -1.
    9900012    2    1    2    0    0 -0.17424993420E+01 -0.14194186310E+02  0.28499361688E+02  0.59301876912E+02  0.49999877596E+02 0.  0.
         12    1    1    2    0    0  0.17424993420E+01  0.14194186310E+02 -0.28499361688E+02  0.31886123088E+02  0.00000000000E+00 0. -1.
         11    1    3    3    0    0 -0.93236597270E+00 -0.22950527294E+01 -0.83833728128E+01  0.87417111207E+01  0.51100000000E-03 0. -1.
        -11    1    3    3    0    0  0.68939755172E+01 -0.47545182543E+01 -0.33188700242E+01  0.90081763282E+01  0.51100000000E-03 0.  1.
         12    1    3    3    0    0 -0.77041088865E+01 -0.71446153265E+01  0.40201604525E+02  0.41551989463E+02  0.00000000000E+00 0. -1.
</event>
<event>
 7    1  0.6246445E-012  0.5930193E+02  0.7816164E-02  0.1266605E+00
        -11   -1    0    0    0    0  0.00000000000E+00  0.00000000000E+00  0.45593999997E+02  0.45594000000E+02  0.51100000000E-03 0. -1.
         11   -1    0    0    0    0 -0.00000000000E+00 -0.00000000000E+00 -0.45593999997E+02  0.45594000000E+02  0.51100000000E-03 0.  1.
    9900012    2    1    2    0    0 -0.24850193564E+02 -0.19586535902E+02  0.39441982585E+01  0.59301933941E+02  0.49999981605E+02 0.  0.
         12    1    1    2    0    0  0.24850193564E+02  0.19586535902E+02 -0.39441982585E+01  0.31886066059E+02  0.00000000000E+00 0. -1.
         11    1    3    3    0    0 -0.13192555251E+02 -0.21858154949E+02 -0.15445561237E+01  0.25577492170E+02  0.51100000000E-03 0. -1.
        -11    1    3    3    0    0  0.49112508948E+01 -0.10225106641E+02  0.62615051802E+01  0.12956837521E+02  0.51100000000E-03 0.  1.
         12    1    3    3    0    0 -0.16568889207E+02  0.12496725688E+02 -0.77275079800E+00  0.20767604250E+02  0.00000000000E+00 0. -1.
</event>
<event>
 7    1  0.6246445E-012  0.5930194E+02  0.7816164E-02  0.1266605E+00
        -11   -1    0    0    0    0  0.00000000000E+00  0.00000000000E+00  0.45593999997E+02  0.45594000000E+02  0.51100000000E-03 0.  1.
         11   -1    0    0    0    0 -0.00000000000E+00 -0.00000000000E+00 -0.45593999997E+02  0.45594000000E+02  0.51100000000E-03 0. -1.
    9900012    2    1    2    0    0 -0.62861477308E+01  0.15665507415E+02  0.27051751089E+02  0.59301937013E+02  0.49999987207E+02 0.  0.
         12    1    1    2    0    0  0.62861477308E+01 -0.15665507415E+02 -0.27051751089E+02  0.31886062987E+02  0.00000000000E+00 0. -1.
         11    1    3    3    0    0  0.14301194942E+02  0.19114937341E+02  0.16888234132E+02  0.29242391467E+02  0.51100000000E-03 0.  1.
        -11    1    3    3    0    0 -0.94239892709E+01  0.68880589395E+01 -0.15852214175E+00  0.11673990717E+02  0.51100000000E-03 0. -1.
        -12    1    3    3    0    0 -0.11163353402E+02 -0.10337488866E+02  0.10322039098E+02  0.18385554829E+02  0.00000000000E+00 0.  1.
</event>
<event>
 7    1  0.8800479E-012  0.5930200E+02  0.7816164E-02  0.1266605E+00
        -11   -1    0    0    0    0  0.00000000000E+00  0.00000000000E+00  0.45593999997E+02  0.45594000000E+02  0.51100000000E-03 0. -1.
         11   -1    0    0    0    0 -0.00000000000E+00 -0.00000000000E+00 -0.45593999997E+02  0.45594000000E+02  0.51100000000E-03 0.  1.
    9900012    2    1    2    0    0 -0.17185976474E+02 -0.21878776450E+02 -0.15578142573E+02  0.59301997235E+02  0.50000097037E+02 0.  0.
         12    1    1    2    0    0  0.17185976474E+02  0.21878776450E+02  0.15578142573E+02  0.31886002765E+02  0.00000000000E+00 0. -1.
         11    1    3    3    0    0 -0.56202934129E+01  0.59714816194E+01 -0.96907774236E+01  0.12694780743E+02  0.51100000000E-03 0. -1.
        -11    1    3    3    0    0 -0.18963653547E+02 -0.18952846239E+02 -0.16014915275E+02  0.31229922317E+02  0.51100000000E-03 0.  1.
         12    1    3    3    0    0  0.73979704853E+01 -0.88974118307E+01  0.10127550126E+02  0.15377294175E+02  0.00000000000E+00 0. -1.
</event>
<event>
 7    1  0.6246445E-012  0.5930194E+02  0.7816164E-02  0.1266605E+00
        -11   -1    0    0    0    0  0.00000000000E+00  0.00000000000E+00  0.45593999997E+02  0.45594000000E+02  0.51100000000E-03 0.  1.
         11   -1    0    0    0    0 -0.00000000000E+00 -0.00000000000E+00 -0.45593999997E+02  0.45594000000E+02  0.51100000000E-03 0. -1.
    9900012    2    1    2    0    0 -0.11893014366E+02 -0.93989275238E+01  0.28052401376E+02  0.59301939530E+02  0.49999991797E+02 0.  0.
         12    1    1    2    0    0  0.11893014366E+02  0.93989275238E+01 -0.28052401376E+02  0.31886060470E+02  0.00000000000E+00 0. -1.
         11    1    3    3    0    0  0.29845336534E+01 -0.23359500015E+01 -0.87730851846E+01  0.95567320490E+01  0.51100000000E-03 0. -1.
        -11    1    3    3    0    0  0.31597095879E+01  0.85410766228E+01  0.66192572108E+01  0.11258255675E+02  0.51100000000E-03 0.  1.
        -12    1    3    3    0    0 -0.18037257608E+02 -0.15604054145E+02  0.30206229350E+02  0.38486951806E+02  0.00000000000E+00 0.  1.
</event>
<event>
 7    1  0.6246445E-012  0.5930190E+02  0.7816164E-02  0.1266605E+00
        -11   -1    0    0    0    0  0.00000000000E+00  0.00000000000E+00  0.45593999997E+02  0.45594000000E+02  0.51100000000E-03 0. -1.
         11   -1    0    0    0    0 -0.00000000000E+00 -0.00000000000E+00 -0.45593999997E+02  0.45594000000E+02  0.51100000000E-03 0.  1.
    9900012    2    1    2    0    0  0.10372779822E+01 -0.71813580186E+01 -0.31049564176E+02  0.59301901397E+02  0.49999922251E+02 0.  0.
         12    1    1    2    0    0 -0.10372779822E+01  0.71813580186E+01  0.31049564176E+02  0.31886098603E+02  0.00000000000E+00 0. -1.
         11    1    3    3    0    0  0.41137932110E+01  0.18067577861E+02 -0.16366928257E+02  0.24723207826E+02  0.51100000000E-03 0. -1.
        -11    1    3    3    0    0  0.12648540373E+01  0.63260689760E+00 -0.71320956228E+01  0.72709583589E+01  0.51100000000E-03 0.  1.
        -12    1    3    3    0    0 -0.43413692661E+01 -0.25881542777E+02 -0.75505402960E+01  0.27307735212E+02  0.00000000000E+00 0.  1.
</event>
<event>
 7    1  0.6246445E-012  0.5930194E+02  0.7816164E-02  0.1266605E+00
        -11   -1    0    0    0    0  0.00000000000E+00  0.00000000000E+00  0.45593999997E+02  0.45594000000E+02  0.51100000000E-03 0. -1.
         11   -1    0    0    0    0 -0.00000000000E+00 -0.00000000000E+00 -0.45593999997E+02  0.45594000000E+02  0.51100000000E-03 0.  1.
    9900012    2    1    2    0    0 -0.80432990466E+01 -0.15094729240E+02 -0.26910504900E+02  0.59301940595E+02  0.49999993740E+02 0.  0.
         12    1    1    2    0    0  0.80432990466E+01  0.15094729240E+02  0.26910504900E+02  0.31886059405E+02  0.00000000000E+00 0. -1.
         11    1    3    3    0    0 -0.27805424240E+01  0.94338815808E+01 -0.16347146571E+02  0.19077702669E+02  0.51100000000E-03 0. -1.
        -11    1    3    3    0    0 -0.51319323724E+01  0.56787785117E+01 -0.58882062137E+01  0.96569264229E+01  0.51100000000E-03 0.  1.
        -12    1    3    3    0    0 -0.13082425018E+00 -0.30207389332E+02 -0.46751521157E+01  0.30567311504E+02  0.00000000000E+00 0.  1.
</event>
<event>
 7    1  0.6246445E-012  0.5930196E+02  0.7816164E-02  0.1266605E+00
        -11   -1    0    0    0    0  0.00000000000E+00  0.00000000000E+00  0.45593999997E+02  0.45594000000E+02  0.51100000000E-03 0.  1.
         11   -1    0    0    0    0 -0.00000000000E+00 -0.00000000000E+00 -0.45593999997E+02  0.45594000000E+02  0.51100000000E-03 0. -1.
    9900012    2    1    2    0    0  0.25278508122E+02  0.13302519915E+02  0.14168973859E+02  0.59301955574E+02  0.50000021057E+02 0.  0.
         12    1    1    2    0    0 -0.25278508122E+02 -0.13302519915E+02 -0.14168973859E+02  0.31886044426E+02  0.00000000000E+00 0. -1.
         11    1    3    3    0    0 -0.22920622493E+01 -0.14496055983E+02  0.36248326477E+01  0.15117162446E+02  0.51100000000E-03 0. -1.
        -11    1    3    3    0    0  0.66446172503E+01  0.11648691064E+02 -0.40261536872E+01  0.14001887575E+02  0.51100000000E-03 0.  1.
        -12    1    3    3    0    0  0.20925953121E+02  0.16149884834E+02  0.14570294898E+02  0.30182905553E+02  0.00000000000E+00 0.  1.
</event>
<event>
 7    1  0.6246445E-012  0.5930194E+02  0.7816164E-02  0.1266605E+00
        -11   -1    0    0    0    0  0.00000000000E+00  0.00000000000E+00  0.45593999997E+02  0.45594000000E+02  0.51100000000E-03 0. -1.
         11   -1    0    0    0    0 -0.00000000000E+00 -0.00000000000E+00 -0.45593999997E+02  0.45594000000E+02  0.51100000000E-03 0.  1.
    9900012    2    1    2    0    0  0.26213846560E+02 -0.14274988067E+02 -0.11215150055E+02  0.59301943070E+02  0.49999998253E+02 0.  0.
         12    1    1    2    0    0 -0.26213846560E+02  0.14274988067E+02  0.11215150055E+02  0.31886056930E+02  0.00000000000E+00 0. -1.
         11    1    3    3    0    0  0.91592588765E+01  0.76498731832E+01 -0.11717768408E+02  0.16724792364E+02  0.51100000000E-03 0. -1.
        -11    1    3    3    0    0 -0.16075787073E+01  0.62618954633E+01 -0.51973886722E+01  0.82950885085E+01  0.51100000000E-03 0.  1.
        -12    1    3    3    0    0  0.18662166391E+02 -0.28186756713E+02  0.57000070254E+01  0.34282062197E+02  0.00000000000E+00 0.  1.
</event>
<event>
 7    1  0.6246445E-012  0.5930194E+02  0.7816164E-02  0.1266605E+00
        -11   -1    0    0    0    0  0.00000000000E+00  0.00000000000E+00  0.45593999997E+02  0.45594000000E+02  0.51100000000E-03 0. -1.
         11   -1    0    0    0    0 -0.00000000000E+00 -0.00000000000E+00 -0.45593999997E+02  0.45594000000E+02  0.51100000000E-03 0.  1.
    9900012    2    1    2    0    0 -0.17976912157E+02 -0.36442088863E+01 -0.26082007497E+02  0.59301941226E+02  0.49999994890E+02 0.  0.
         12    1    1    2    0    0  0.17976912157E+02  0.36442088863E+01  0.26082007497E+02  0.31886058774E+02  0.00000000000E+00 0. -1.
         11    1    3    3    0    0 -0.61844330578E+01 -0.16978453492E+02 -0.38322569316E+01  0.18471634705E+02  0.51100000000E-03 0. -1.
        -11    1    3    3    0    0 -0.54120965178E+01 -0.39896295531E+01 -0.21309306118E+02  0.22344897855E+02  0.51100000000E-03 0.  1.
        -12    1    3    3    0    0 -0.63803825815E+01  0.17323874159E+02 -0.94044444734E+00  0.18485408665E+02  0.00000000000E+00 0.  1.
</event>
<event>
 7    1  0.6246445E-012  0.5930200E+02  0.7816164E-02  0.1266605E+00
        -11   -1    0    0    0    0  0.00000000000E+00  0.00000000000E+00  0.45593999997E+02  0.45594000000E+02  0.51100000000E-03 0.  1.
         11   -1    0    0    0    0 -0.00000000000E+00 -0.00000000000E+00 -0.45593999997E+02  0.45594000000E+02  0.51100000000E-03 0. -1.
    9900012    2    1    2    0    0 -0.19170971803E+02  0.56150957923E+01  0.24852801732E+02  0.59301996572E+02  0.50000095829E+02 0.  0.
         12    1    1    2    0    0  0.19170971803E+02 -0.56150957923E+01 -0.24852801732E+02  0.31886003428E+02  0.00000000000E+00 0. -1.
         11    1    3    3    0    0 -0.20798688525E+02  0.63066235405E+01  0.14560767445E+02  0.26160559889E+02  0.51100000000E-03 0. -1.
        -11    1    3    3    0    0  0.86384600480E+00 -0.15624336417E+02  0.91930234983E+01  0.18148768545E+02  0.51100000000E-03 0.  1.
         12    1    3    3    0    0  0.76387071736E+00  0.14932808669E+02  0.10990107890E+01  0.14992668139E+02  0.00000000000E+00 0. -1.
</event>
<event>
 7    1  0.6246445E-012  0.5930194E+02  0.7816164E-02  0.1266605E+00
        -11   -1    0    0    0    0  0.00000000000E+00  0.00000000000E+00  0.45593999997E+02  0.45594000000E+02  0.51100000000E-03 0. -1.
         11   -1    0    0    0    0 -0.00000000000E+00 -0.00000000000E+00 -0.45593999997E+02  0.45594000000E+02  0.51100000000E-03 0.  1.
    9900012    2    1    2    0    0 -0.15759129139E+02  0.11889454372E+02 -0.25040193451E+02  0.59301944043E+02  0.50000000027E+02 0.  0.
         12    1    1    2    0    0  0.15759129139E+02 -0.11889454372E+02  0.25040193451E+02  0.31886055957E+02  0.00000000000E+00 0. -1.
         11    1    3    3    0    0 -0.49406630958E+01  0.17527733951E+02  0.75728912779E+01  0.19722583296E+02  0.51100000000E-03 0. -1.
        -11    1    3    3    0    0  0.30137580359E+01  0.37308801352E+01 -0.32412898654E+01  0.57886236995E+01  0.51100000000E-03 0.  1.
        -12    1    3    3    0    0 -0.13832224079E+02 -0.93691597141E+01 -0.29371794863E+02  0.33790737047E+02  0.00000000000E+00 0.  1.
</event>
<event>
 7    1  0.6246445E-012  0.5930192E+02  0.7816164E-02  0.1266605E+00
        -11   -1    0    0    0    0  0.00000000000E+00  0.00000000000E+00  0.45593999997E+02  0.45594000000E+02  0.51100000000E-03 0.  1.
         11   -1    0    0    0    0 -0.00000000000E+00 -0.00000000000E+00 -0.45593999997E+02  0.45594000000E+02  0.51100000000E-03 0. -1.
    9900012    2    1    2    0    0 -0.21503968694E+02 -0.55042554357E+01  0.22891146732E+02  0.59301920025E+02  0.49999956224E+02 0.  0.
         12    1    1    2    0    0  0.21503968694E+02  0.55042554357E+01 -0.22891146732E+02  0.31886079975E+02  0.00000000000E+00 0. -1.
         11    1    3    3    0    0  0.90414256002E+00 -0.13416168652E+01 -0.10034285296E+01  0.19037538331E+01  0.51100000000E-03 0. -1.
        -11    1    3    3    0    0  0.10724690362E+02  0.91296589229E+01 -0.60997837602E+00  0.14097578845E+02  0.51100000000E-03 0.  1.
        -12    1    3    3    0    0 -0.33132801616E+02 -0.13292297493E+02  0.24504553637E+02  0.43300587347E+02  0.00000000000E+00 0.  1.
</event>
<event>
 7    1  0.6246445E-012  0.5930197E+02  0.7816164E-02  0.1266605E+00
        -11   -1    0    0    0    0  0.00000000000E+00  0.00000000000E+00  0.45593999997E+02  0.45594000000E+02  0.51100000000E-03 0.  1.
         11   -1    0    0    0    0 -0.00000000000E+00 -0.00000000000E+00 -0.45593999997E+02  0.45594000000E+02  0.51100000000E-03 0. -1.
    9900012    2    1    2    0    0  0.23656456560E+02 -0.14448538935E+01  0.21330805081E+02  0.59301971945E+02  0.50000050914E+02 0.  0.
         12    1    1    2    0    0 -0.23656456560E+02  0.14448538935E+01 -0.21330805081E+02  0.31886028055E+02  0.00000000000E+00 0. -1.
         11    1    3    3    0    0  0.39826811573E+00  0.74356824658E+01 -0.10176373319E+02  0.12609780546E+02  0.51100000000E-03 0. -1.
        -11    1    3    3    0    0  0.99528810658E+01  0.81203294032E+01  0.10884743360E+02  0.16836782038E+02  0.51100000000E-03 0.  1.
        -12    1    3    3    0    0  0.13305307378E+02 -0.17000865763E+02  0.20622435040E+02  0.29855409360E+02  0.00000000000E+00 0.  1.
</event>
<event>
 7    1  0.6246445E-012  0.5930193E+02  0.7816164E-02  0.1266605E+00
        -11   -1    0    0    0    0  0.00000000000E+00  0.00000000000E+00  0.45593999997E+02  0.45594000000E+02  0.51100000000E-03 0. -1.
         11   -1    0    0    0    0 -0.00000000000E+00 -0.00000000000E+00 -0.45593999997E+02  0.45594000000E+02  0.51100000000E-03 0.  1.
    9900012    2    1    2    0    0  0.55144319546E+01 -0.23184204861E+02 -0.21185022534E+02  0.59301929459E+02  0.49999973430E+02 0.  0.
         12    1    1    2    0    0 -0.55144319546E+01  0.23184204861E+02  0.21185022534E+02  0.31886070541E+02  0.00000000000E+00 0. -1.
         11    1    3    3    0    0  0.26723554564E+01 -0.17644360925E+01  0.52172897183E+01  0.61216689453E+01  0.51100000000E-03 0. -1.
        -11    1    3    3    0    0  0.14551114056E+02 -0.25437249593E+02 -0.69416580584E+01  0.30116029021E+02  0.51100000000E-03 0.  1.
         12    1    3    3    0    0 -0.11709037558E+02  0.40174808248E+01 -0.19460654193E+02  0.23064231493E+02  0.00000000000E+00 0. -1.
</event>
<event>
 7    1  0.6246445E-012  0.5930217E+02  0.7816164E-02  0.1266604E+00
        -11   -1    0    0    0    0  0.00000000000E+00  0.00000000000E+00  0.45593999997E+02  0.45594000000E+02  0.51100000000E-03 0. -1.
         11   -1    0    0    0    0 -0.00000000000E+00 -0.00000000000E+00 -0.45593999997E+02  0.45594000000E+02  0.51100000000E-03 0.  1.
    9900012    2    1    2    0    0 -0.13038047329E+02  0.94595460061E+01 -0.27517852717E+02  0.59302173886E+02  0.50000419205E+02 0.  0.
         12    1    1    2    0    0  0.13038047329E+02 -0.94595460061E+01  0.27517852717E+02  0.31885826114E+02  0.00000000000E+00 0. -1.
         11    1    3    3    0    0  0.56219220483E+01  0.30333041939E+01  0.18306261818E+01  0.66451587136E+01  0.51100000000E-03 0. -1.
        -11    1    3    3    0    0  0.46728023994E+01  0.15802582985E+02 -0.19796494268E+02  0.25757676464E+02  0.51100000000E-03 0.  1.
         12    1    3    3    0    0 -0.23332771776E+02 -0.93763411731E+01 -0.95519846316E+01  0.26899338709E+02  0.00000000000E+00 0. -1.
</event>
<event>
 7    1  0.6246445E-012  0.5930194E+02  0.7816164E-02  0.1266605E+00
        -11   -1    0    0    0    0  0.00000000000E+00  0.00000000000E+00  0.45593999997E+02  0.45594000000E+02  0.51100000000E-03 0.  1.
         11   -1    0    0    0    0 -0.00000000000E+00 -0.00000000000E+00 -0.45593999997E+02  0.45594000000E+02  0.51100000000E-03 0. -1.
    9900012    2    1    2    0    0 -0.11514511934E+02  0.19102876094E+01  0.29673014191E+02  0.59301937919E+02  0.49999988859E+02 0.  0.
         12    1    1    2    0    0  0.11514511934E+02 -0.19102876094E+01 -0.29673014191E+02  0.31886062081E+02  0.00000000000E+00 0. -1.
         11    1    3    3    0    0  0.33435692393E+01  0.32224381309E+01 -0.70409491476E+01  0.84343658876E+01  0.51100000000E-03 0. -1.
        -11    1    3    3    0    0 -0.65866991903E+01  0.46595940889E+01 -0.39217056515E+01  0.89708527340E+01  0.51100000000E-03 0.  1.
        -12    1    3    3    0    0 -0.82713819833E+01 -0.59717446104E+01  0.40635668990E+02  0.41896719298E+02  0.00000000000E+00 0.  1.
</event>
<event>
 7    1  0.6246445E-012  0.5930193E+02  0.7816164E-02  0.1266605E+00
        -11   -1    0    0    0    0  0.00000000000E+00  0.00000000000E+00  0.45593999997E+02  0.45594000000E+02  0.51100000000E-03 0. -1.
         11   -1    0    0    0    0 -0.00000000000E+00 -0.00000000000E+00 -0.45593999997E+02  0.45594000000E+02  0.51100000000E-03 0.  1.
    9900012    2    1    2    0    0  0.57003139867E+01 -0.13094588227E+02 -0.28508935462E+02  0.59301933740E+02  0.49999981237E+02 0.  0.
         12    1    1    2    0    0 -0.57003139867E+01  0.13094588227E+02  0.28508935462E+02  0.31886066260E+02  0.00000000000E+00 0. -1.
         11    1    3    3    0    0  0.24899859570E+02 -0.75232336843E+01 -0.14943841254E+02  0.29998674027E+02  0.51100000000E-03 0. -1.
        -11    1    3    3    0    0 -0.12361675629E+01  0.47397479632E+01 -0.46492997108E+01  0.67534664477E+01  0.51100000000E-03 0.  1.
        -12    1    3    3    0    0 -0.17963378020E+02 -0.10311102506E+02 -0.89157944967E+01  0.22549793265E+02  0.00000000000E+00 0.  1.
</event>
<event>
 7    1  0.6246445E-012  0.5930195E+02  0.7816164E-02  0.1266605E+00
        -11   -1    0    0    0    0  0.00000000000E+00  0.00000000000E+00  0.45593999997E+02  0.45594000000E+02  0.51100000000E-03 0.  1.
         11   -1    0    0    0    0 -0.00000000000E+00 -0.00000000000E+00 -0.45593999997E+02  0.45594000000E+02  0.51100000000E-03 0. -1.
    9900012    2    1    2    0    0  0.19792876148E+01  0.30772355068E+02  0.81157046618E+01  0.59301951671E+02  0.50000013940E+02 0.  0.
         12    1    1    2    0    0 -0.19792876148E+01 -0.30772355068E+02 -0.81157046618E+01  0.31886048329E+02  0.00000000000E+00 0. -1.
         11    1    3    3    0    0  0.28460288203E+01 -0.20451836701E+01 -0.13868578390E+02  0.14304549036E+02  0.51100000000E-03 0. -1.
        -11    1    3    3    0    0  0.52614678731E+01  0.37576412635E+00  0.69366095567E+01  0.87144016009E+01  0.51100000000E-03 0.  1.
         12    1    3    3    0    0 -0.61282090786E+01  0.32441774612E+02  0.15047673495E+02  0.36283001035E+02  0.00000000000E+00 0. -1.
</event>
<event>
 7    1  0.6246445E-012  0.5930194E+02  0.7816164E-02  0.1266605E+00
        -11   -1    0    0    0    0  0.00000000000E+00  0.00000000000E+00  0.45593999997E+02  0.45594000000E+02  0.51100000000E-03 0.  1.
         11   -1    0    0    0    0 -0.00000000000E+00 -0.00000000000E+00 -0.45593999997E+02  0.45594000000E+02  0.51100000000E-03 0. -1.
    9900012    2    1    2    0    0 -0.97730793819E+01  0.15071102186E+02  0.26345203569E+02  0.59301937954E+02  0.49999988922E+02 0.  0.
         12    1    1    2    0    0  0.97730793819E+01 -0.15071102186E+02 -0.26345203569E+02  0.31886062046E+02  0.00000000000E+00 0. -1.
         11    1    3    3    0    0 -0.19654905661E+01 -0.59869231570E+01  0.11714561350E+01  0.64092676485E+01  0.51100000000E-03 0. -1.
        -11    1    3    3    0    0 -0.18344022582E+02  0.54188074089E+01  0.27912455701E+02  0.33837432257E+02  0.51100000000E-03 0.  1.
        -12    1    3    3    0    0  0.10536433766E+02  0.15639217934E+02 -0.27387082662E+01  0.19055238048E+02  0.00000000000E+00 0.  1.
</event>
<event>
 7    1  0.6246445E-012  0.5930194E+02  0.7816164E-02  0.1266605E+00
        -11   -1    0    0    0    0  0.00000000000E+00  0.00000000000E+00  0.45593999997E+02  0.45594000000E+02  0.51100000000E-03 0.  1.
         11   -1    0    0    0    0 -0.00000000000E+00 -0.00000000000E+00 -0.45593999997E+02  0.45594000000E+02  0.51100000000E-03 0. -1.
    9900012    2    1    2    0    0 -0.45996019631E+01 -0.81529844033E+01  0.30481034097E+02  0.59301938272E+02  0.49999989503E+02 0.  0.
         12    1    1    2    0    0  0.45996019631E+01  0.81529844033E+01 -0.30481034097E+02  0.31886061728E+02  0.00000000000E+00 0. -1.
         11    1    3    3    0    0 -0.10950714438E+00  0.10269872158E+02 -0.52715034540E+01  0.11544306600E+02  0.51100000000E-03 0. -1.
        -11    1    3    3    0    0  0.10529759518E+02 -0.95412742020E+01  0.15662799118E+02  0.21147931940E+02  0.51100000000E-03 0.  1.
        -12    1    3    3    0    0 -0.15019854336E+02 -0.88815823592E+01  0.20089738433E+02  0.26609699732E+02  0.00000000000E+00 0.  1.
</event>
<event>
 7    1  0.6246445E-012  0.5930193E+02  0.7816164E-02  0.1266605E+00
        -11   -1    0    0    0    0  0.00000000000E+00  0.00000000000E+00  0.45593999997E+02  0.45594000000E+02  0.51100000000E-03 0. -1.
         11   -1    0    0    0    0 -0.00000000000E+00 -0.00000000000E+00 -0.45593999997E+02  0.45594000000E+02  0.51100000000E-03 0.  1.
    9900012    2    1    2    0    0 -0.11717340745E+01  0.17785153049E+02 -0.26439301715E+02  0.59301932433E+02  0.49999978854E+02 0.  0.
         12    1    1    2    0    0  0.11717340745E+01 -0.17785153049E+02  0.26439301715E+02  0.31886067567E+02  0.00000000000E+00 0. -1.
         11    1    3    3    0    0 -0.13776573276E+02 -0.50709139837E+01 -0.53353623316E+01  0.15619674495E+02  0.51100000000E-03 0. -1.
        -11    1    3    3    0    0 -0.68633890283E+01  0.15948270859E+02 -0.72849465348E+01  0.18828805024E+02  0.51100000000E-03 0.  1.
        -12    1    3    3    0    0  0.19468228230E+02  0.69077961733E+01 -0.13818992849E+02  0.24853452914E+02  0.00000000000E+00 0.  1.
</event>
<event>
 7    1  0.6246445E-012  0.5930195E+02  0.7816164E-02  0.1266605E+00
        -11   -1    0    0    0    0  0.00000000000E+00  0.00000000000E+00  0.45593999997E+02  0.45594000000E+02  0.51100000000E-03 0.  1.
         11   -1    0    0    0    0 -0.00000000000E+00 -0.00000000000E+00 -0.45593999997E+02  0.45594000000E+02  0.51100000000E-03 0. -1.
    9900012    2    1    2    0    0 -0.18635316298E+02  0.51877816364E+01  0.25348212314E+02  0.59301953532E+02  0.50000017334E+02 0.  0.
         12    1    1    2    0    0  0.18635316298E+02 -0.51877816364E+01 -0.25348212314E+02  0.31886046468E+02  0.00000000000E+00 0. -1.
         11    1    3    3    0    0 -0.18177584298E+02  0.16727965375E+01  0.14752827037E+02  0.23470592771E+02  0.51100000000E-03 0. -1.
        -11    1    3    3    0    0 -0.79242008015E+01 -0.13447412852E+02  0.35706763765E+01  0.16011733223E+02  0.51100000000E-03 0.  1.
        -12    1    3    3    0    0  0.74664688014E+01  0.16962397951E+02  0.70247089000E+01  0.19819627538E+02  0.00000000000E+00 0.  1.
</event>
<event>
 7    1  0.6246445E-012  0.5930194E+02  0.7816164E-02  0.1266605E+00
        -11   -1    0    0    0    0  0.00000000000E+00  0.00000000000E+00  0.45593999997E+02  0.45594000000E+02  0.51100000000E-03 0.  1.
         11   -1    0    0    0    0 -0.00000000000E+00 -0.00000000000E+00 -0.45593999997E+02  0.45594000000E+02  0.51100000000E-03 0. -1.
    9900012    2    1    2    0    0 -0.24620007293E+02  0.10796689180E+02  0.17146643752E+02  0.59301942728E+02  0.49999997630E+02 0.  0.
         12    1    1    2    0    0  0.24620007293E+02 -0.10796689180E+02 -0.17146643752E+02  0.31886057272E+02  0.00000000000E+00 0. -1.
         11    1    3    3    0    0 -0.17210109603E+02 -0.42335818618E+01 -0.96181740406E+00  0.17749258602E+02  0.51100000000E-03 0. -1.
        -11    1    3    3    0    0 -0.19360108204E+02  0.12537423344E+02  0.49245216263E+01  0.23584988601E+02  0.51100000000E-03 0.  1.
        -12    1    3    3    0    0  0.11950210514E+02  0.24928476979E+01  0.13183939530E+02  0.17967695526E+02  0.00000000000E+00 0.  1.
</event>
<event>
 7    1  0.6246445E-012  0.5930179E+02  0.7816164E-02  0.1266605E+00
        -11   -1    0    0    0    0  0.00000000000E+00  0.00000000000E+00  0.45593999997E+02  0.45594000000E+02  0.51100000000E-03 0.  1.
         11   -1    0    0    0    0 -0.00000000000E+00 -0.00000000000E+00 -0.45593999997E+02  0.45594000000E+02  0.51100000000E-03 0. -1.
    9900012    2    1    2    0    0  0.30610276183E+01  0.31738185000E+02 -0.21895416483E+00  0.59301792666E+02  0.49999723952E+02 0.  0.
         12    1    1    2    0    0 -0.30610276183E+01 -0.31738185000E+02  0.21895416483E+00  0.31886207334E+02  0.00000000000E+00 0. -1.
         11    1    3    3    0    0  0.18319584741E+02  0.26258172595E+02 -0.69937232440E+01  0.32772106709E+02  0.51100000000E-03 0. -1.
        -11    1    3    3    0    0 -0.65349087173E+01  0.44851344175E+01 -0.67460061206E+01  0.10408172824E+02  0.51100000000E-03 0.  1.
        -12    1    3    3    0    0 -0.87236484051E+01  0.99487798814E+00  0.13520775200E+02  0.16121513133E+02  0.00000000000E+00 0.  1.
</event>
<event>
 7    1  0.6246445E-012  0.5930194E+02  0.7816164E-02  0.1266605E+00
        -11   -1    0    0    0    0  0.00000000000E+00  0.00000000000E+00  0.45593999997E+02  0.45594000000E+02  0.51100000000E-03 0. -1.
         11   -1    0    0    0    0 -0.00000000000E+00 -0.00000000000E+00 -0.45593999997E+02  0.45594000000E+02  0.51100000000E-03 0.  1.
    9900012    2    1    2    0    0 -0.13764772521E+02 -0.28519901512E+02 -0.37238431701E+01  0.59301941090E+02  0.49999994643E+02 0.  0.
         12    1    1    2    0    0  0.13764772521E+02  0.28519901512E+02  0.37238431701E+01  0.31886058910E+02  0.00000000000E+00 0. -1.
         11    1    3    3    0    0  0.63953883635E+00 -0.41898351387E+00  0.39897619012E+01  0.40623586003E+01  0.51100000000E-03 0. -1.
        -11    1    3    3    0    0 -0.21981604714E+02 -0.32714316260E+02  0.50079827216E+01  0.39730307391E+02  0.51100000000E-03 0.  1.
        -12    1    3    3    0    0  0.75772933562E+01  0.46133982618E+01 -0.12721587793E+02  0.15509275099E+02  0.00000000000E+00 0.  1.
</event>
<event>
 7    1  0.6246445E-012  0.5930208E+02  0.7816164E-02  0.1266604E+00
        -11   -1    0    0    0    0  0.00000000000E+00  0.00000000000E+00  0.45593999997E+02  0.45594000000E+02  0.51100000000E-03 0. -1.
         11   -1    0    0    0    0 -0.00000000000E+00 -0.00000000000E+00 -0.45593999997E+02  0.45594000000E+02  0.51100000000E-03 0.  1.
    9900012    2    1    2    0    0 -0.18343809651E+02  0.18480367864E+02 -0.18403604112E+02  0.59302078448E+02  0.50000245150E+02 0.  0.
         12    1    1    2    0    0  0.18343809651E+02 -0.18480367864E+02  0.18403604112E+02  0.31885921552E+02  0.00000000000E+00 0. -1.
         11    1    3    3    0    0 -0.12092547687E+02  0.21262619886E+02 -0.18039750490E+02  0.30393441924E+02  0.51100000000E-03 0. -1.
        -11    1    3    3    0    0  0.37475203560E+00 -0.82060116913E+00 -0.13784193286E+02  0.13813681992E+02  0.51100000000E-03 0.  1.
         12    1    3    3    0    0 -0.66260139993E+01 -0.19616508528E+01  0.13420339665E+02  0.15094954531E+02  0.00000000000E+00 0. -1.
</event>
<event>
 7    1  0.6246445E-012  0.5930195E+02  0.7816164E-02  0.1266605E+00
        -11   -1    0    0    0    0  0.00000000000E+00  0.00000000000E+00  0.45593999997E+02  0.45594000000E+02  0.51100000000E-03 0. -1.
         11   -1    0    0    0    0 -0.00000000000E+00 -0.00000000000E+00 -0.45593999997E+02  0.45594000000E+02  0.51100000000E-03 0.  1.
    9900012    2    1    2    0    0  0.51265730347E+01 -0.14119921473E+02 -0.28125904546E+02  0.59301945995E+02  0.50000003587E+02 0.  0.
         12    1    1    2    0    0 -0.51265730347E+01  0.14119921473E+02  0.28125904546E+02  0.31886054005E+02  0.00000000000E+00 0. -1.
         11    1    3    3    0    0 -0.10680431137E+02 -0.22526674290E+02 -0.68822474528E+01  0.25862869023E+02  0.51100000000E-03 0. -1.
        -11    1    3    3    0    0  0.89273282678E+01 -0.47628099873E+01 -0.12911955460E+02  0.16404272097E+02  0.51100000000E-03 0.  1.
         12    1    3    3    0    0  0.68796759043E+01  0.13169562804E+02 -0.83317016339E+01  0.17034804875E+02  0.00000000000E+00 0. -1.
</event>
<event>
 7    1  0.6246445E-012  0.5930196E+02  0.7816164E-02  0.1266605E+00
        -11   -1    0    0    0    0  0.00000000000E+00  0.00000000000E+00  0.45593999997E+02  0.45594000000E+02  0.51100000000E-03 0.  1.
         11   -1    0    0    0    0 -0.00000000000E+00 -0.00000000000E+00 -0.45593999997E+02  0.45594000000E+02  0.51100000000E-03 0. -1.
    9900012    2    1    2    0    0 -0.23462952402E+01 -0.13728954538E+02  0.28683279764E+02  0.59301955528E+02  0.50000020973E+02 0.  0.
         12    1    1    2    0    0  0.23462952402E+01  0.13728954538E+02 -0.28683279764E+02  0.31886044472E+02  0.00000000000E+00 0. -1.
         11    1    3    3    0    0 -0.14559968424E+02 -0.82806465039E+01  0.92452240871E+01  0.19132066164E+02  0.51100000000E-03 0. -1.
        -11    1    3    3    0    0  0.10192722886E+02 -0.18921272908E+02  0.10982161030E+02  0.24135327415E+02  0.51100000000E-03 0.  1.
         12    1    3    3    0    0  0.20209502979E+01  0.13472964874E+02  0.84558946468E+01  0.16034561948E+02  0.00000000000E+00 0. -1.
</event>
<event>
 7    1  0.6246445E-012  0.5930198E+02  0.7816164E-02  0.1266605E+00
        -11   -1    0    0    0    0  0.00000000000E+00  0.00000000000E+00  0.45593999997E+02  0.45594000000E+02  0.51100000000E-03 0.  1.
         11   -1    0    0    0    0 -0.00000000000E+00 -0.00000000000E+00 -0.45593999997E+02  0.45594000000E+02  0.51100000000E-03 0. -1.
    9900012    2    1    2    0    0 -0.20759304665E+02  0.77763287688E+01  0.22919387231E+02  0.59301979077E+02  0.50000063921E+02 0.  0.
         12    1    1    2    0    0  0.20759304665E+02 -0.77763287688E+01 -0.22919387231E+02  0.31886020923E+02  0.00000000000E+00 0. -1.
         11    1    3    3    0    0 -0.15213744385E+02 -0.71217866379E+01  0.35103517778E+01  0.17161014918E+02  0.51100000000E-03 0. -1.
        -11    1    3    3    0    0  0.94055498630E+01 -0.32268830935E+01  0.15361694047E+02  0.18299147165E+02  0.51100000000E-03 0.  1.
        -12    1    3    3    0    0 -0.14951110142E+02  0.18124998500E+02  0.40473414061E+01  0.23841816994E+02  0.00000000000E+00 0.  1.
</event>
<event>
 7    1  0.6246445E-012  0.5930198E+02  0.7816164E-02  0.1266605E+00
        -11   -1    0    0    0    0  0.00000000000E+00  0.00000000000E+00  0.45593999997E+02  0.45594000000E+02  0.51100000000E-03 0.  1.
         11   -1    0    0    0    0 -0.00000000000E+00 -0.00000000000E+00 -0.45593999997E+02  0.45594000000E+02  0.51100000000E-03 0. -1.
    9900012    2    1    2    0    0  0.55769089994E+01 -0.10448989086E+01  0.31377134382E+02  0.59301979713E+02  0.50000065082E+02 0.  0.
         12    1    1    2    0    0 -0.55769089994E+01  0.10448989086E+01 -0.31377134382E+02  0.31886020287E+02  0.00000000000E+00 0. -1.
         11    1    3    3    0    0 -0.15277084793E+02  0.10609648059E+02  0.12145850153E+02  0.22214311331E+02  0.51100000000E-03 0. -1.
        -11    1    3    3    0    0  0.13542331765E+01  0.89531518104E+00  0.12965647519E+02  0.13066887641E+02  0.51100000000E-03 0.  1.
         12    1    3    3    0    0  0.19499760616E+02 -0.12549862149E+02  0.62656367099E+01  0.24020780741E+02  0.00000000000E+00 0. -1.
</event>
<event>
 7    1  0.6246445E-012  0.5930195E+02  0.7816164E-02  0.1266605E+00
        -11   -1    0    0    0    0  0.00000000000E+00  0.00000000000E+00  0.45593999997E+02  0.45594000000E+02  0.51100000000E-03 0. -1.
         11   -1    0    0    0    0 -0.00000000000E+00 -0.00000000000E+00 -0.45593999997E+02  0.45594000000E+02  0.51100000000E-03 0.  1.
    9900012    2    1    2    0    0 -0.12829939931E+02 -0.17049831522E+02 -0.23694224137E+02  0.59301947077E+02  0.50000005561E+02 0.  0.
         12    1    1    2    0    0  0.12829939931E+02  0.17049831522E+02  0.23694224137E+02  0.31886052923E+02  0.00000000000E+00 0. -1.
         11    1    3    3    0    0  0.31889117157E+01 -0.10073653195E+02  0.14362355089E+01  0.10663508772E+02  0.51100000000E-03 0. -1.
        -11    1    3    3    0    0 -0.20873102637E+02  0.30998334747E+01  0.32271394333E-01  0.21102047839E+02  0.51100000000E-03 0.  1.
         12    1    3    3    0    0  0.48542509910E+01 -0.10076011802E+02 -0.25162731040E+02  0.27536390466E+02  0.00000000000E+00 0. -1.
</event>
<event>
 7    1  0.6246445E-012  0.5930195E+02  0.7816164E-02  0.1266605E+00
        -11   -1    0    0    0    0  0.00000000000E+00  0.00000000000E+00  0.45593999997E+02  0.45594000000E+02  0.51100000000E-03 0. -1.
         11   -1    0    0    0    0 -0.00000000000E+00 -0.00000000000E+00 -0.45593999997E+02  0.45594000000E+02  0.51100000000E-03 0.  1.
    9900012    2    1    2    0    0  0.23204140278E+02 -0.45845496523E+01 -0.21383871811E+02  0.59301949834E+02  0.50000010590E+02 0.  0.
         12    1    1    2    0    0 -0.23204140278E+02  0.45845496523E+01  0.21383871811E+02  0.31886050166E+02  0.00000000000E+00 0. -1.
         11    1    3    3    0    0  0.64477304810E+01 -0.31734865934E+01 -0.10503250047E+02  0.12726449125E+02  0.51100000000E-03 0. -1.
        -11    1    3    3    0    0  0.58448065288E-01 -0.59235345293E+01 -0.24092432211E+02  0.24810017485E+02  0.51100000000E-03 0.  1.
         12    1    3    3    0    0  0.16697961731E+02  0.45124714704E+01  0.13211810447E+02  0.21765483225E+02  0.00000000000E+00 0. -1.
</event>
<event>
 7    1  0.6246445E-012  0.5930193E+02  0.7816164E-02  0.1266605E+00
        -11   -1    0    0    0    0  0.00000000000E+00  0.00000000000E+00  0.45593999997E+02  0.45594000000E+02  0.51100000000E-03 0. -1.
         11   -1    0    0    0    0 -0.00000000000E+00 -0.00000000000E+00 -0.45593999997E+02  0.45594000000E+02  0.51100000000E-03 0.  1.
    9900012    2    1    2    0    0  0.16562864978E+02 -0.26189721117E+02 -0.75160638327E+01  0.59301934015E+02  0.49999981739E+02 0.  0.
         12    1    1    2    0    0 -0.16562864978E+02  0.26189721117E+02  0.75160638327E+01  0.31886065985E+02  0.00000000000E+00 0. -1.
         11    1    3    3    0    0 -0.36426408401E+01 -0.54655602237E+01 -0.38348493537E+01  0.76057380099E+01  0.51100000000E-03 0. -1.
        -11    1    3    3    0    0 -0.10921006878E+02 -0.14533262774E+02  0.48851930443E+01  0.18824166102E+02  0.51100000000E-03 0.  1.
         12    1    3    3    0    0  0.31126512695E+02 -0.61908981193E+01 -0.85664075233E+01  0.32872029903E+02  0.00000000000E+00 0. -1.
</event>
<event>
 7    1  0.6246445E-012  0.5930192E+02  0.7816164E-02  0.1266605E+00
        -11   -1    0    0    0    0  0.00000000000E+00  0.00000000000E+00  0.45593999997E+02  0.45594000000E+02  0.51100000000E-03 0.  1.
         11   -1    0    0    0    0 -0.00000000000E+00 -0.00000000000E+00 -0.45593999997E+02  0.45594000000E+02  0.51100000000E-03 0. -1.
    9900012    2    1    2    0    0  0.36682427110E+01 -0.13775849792E+02  0.28521785995E+02  0.59301916540E+02  0.49999949868E+02 0.  0.
         12    1    1    2    0    0 -0.36682427110E+01  0.13775849792E+02 -0.28521785995E+02  0.31886083460E+02  0.00000000000E+00 0. -1.
         11    1    3    3    0    0 -0.36413777052E+01 -0.14240031119E+02  0.18268283066E+02  0.23447138083E+02  0.51100000000E-03 0. -1.
        -11    1    3    3    0    0 -0.31337884703E+01 -0.84444651538E+01  0.17974774683E+02  0.20105276598E+02  0.51100000000E-03 0.  1.
         12    1    3    3    0    0  0.10443408886E+02  0.89086464811E+01 -0.77212717536E+01  0.15749501858E+02  0.00000000000E+00 0. -1.
</event>
<event>
 7    1  0.6246445E-012  0.5930196E+02  0.7816164E-02  0.1266605E+00
        -11   -1    0    0    0    0  0.00000000000E+00  0.00000000000E+00  0.45593999997E+02  0.45594000000E+02  0.51100000000E-03 0.  1.
         11   -1    0    0    0    0 -0.00000000000E+00 -0.00000000000E+00 -0.45593999997E+02  0.45594000000E+02  0.51100000000E-03 0. -1.
    9900012    2    1    2    0    0  0.12372224754E+02  0.50589895438E+01  0.28949168543E+02  0.59301957915E+02  0.50000025326E+02 0.  0.
         12    1    1    2    0    0 -0.12372224754E+02 -0.50589895438E+01 -0.28949168543E+02  0.31886042085E+02  0.00000000000E+00 0. -1.
         11    1    3    3    0    0 -0.49646784456E+01 -0.16239276238E+02  0.11581928135E+02  0.20554882252E+02  0.51100000000E-03 0. -1.
        -11    1    3    3    0    0 -0.21632554226E+01 -0.11434351695E+01  0.67468670019E+01  0.71768609164E+01  0.51100000000E-03 0.  1.
        -12    1    3    3    0    0  0.19500158622E+02  0.22441700951E+02  0.10620373406E+02  0.31570214747E+02  0.00000000000E+00 0.  1.
</event>
<event>
 7    1  0.6246445E-012  0.5930195E+02  0.7816164E-02  0.1266605E+00
        -11   -1    0    0    0    0  0.00000000000E+00  0.00000000000E+00  0.45593999997E+02  0.45594000000E+02  0.51100000000E-03 0. -1.
         11   -1    0    0    0    0 -0.00000000000E+00 -0.00000000000E+00 -0.45593999997E+02  0.45594000000E+02  0.51100000000E-03 0.  1.
    9900012    2    1    2    0    0 -0.26971937703E+02  0.16022598676E+02 -0.57018426223E+01  0.59301951310E+02  0.50000013281E+02 0.  0.
         12    1    1    2    0    0  0.26971937703E+02 -0.16022598676E+02  0.57018426223E+01  0.31886048690E+02  0.00000000000E+00 0. -1.
         11    1    3    3    0    0  0.42240686576E+01 -0.46175206615E+01 -0.83737974202E+01  0.10453934024E+02  0.51100000000E-03 0. -1.
        -11    1    3    3    0    0 -0.60855631467E-01 -0.29947952871E+00 -0.94209515155E+01  0.94259068060E+01  0.51100000000E-03 0.  1.
         12    1    3    3    0    0 -0.31135150729E+02  0.20939598866E+02  0.12092906313E+02  0.39422110480E+02  0.00000000000E+00 0. -1.
</event>
<event>
 7    1  0.6246445E-012  0.5930191E+02  0.7816164E-02  0.1266605E+00
        -11   -1    0    0    0    0  0.00000000000E+00  0.00000000000E+00  0.45593999997E+02  0.45594000000E+02  0.51100000000E-03 0.  1.
         11   -1    0    0    0    0 -0.00000000000E+00 -0.00000000000E+00 -0.45593999997E+02  0.45594000000E+02  0.51100000000E-03 0. -1.
    9900012    2    1    2    0    0  0.15454858092E+01  0.27792039686E+02  0.15554305715E+02  0.59301914907E+02  0.49999946891E+02 0.  0.
         12    1    1    2    0    0 -0.15454858092E+01 -0.27792039686E+02 -0.15554305715E+02  0.31886085093E+02  0.00000000000E+00 0. -1.
         11    1    3    3    0    0  0.54615832083E+01 -0.51376403747E+01 -0.45658455453E+01  0.87790196244E+01  0.51100000000E-03 0. -1.
        -11    1    3    3    0    0  0.10694388245E+02  0.65853910759E+01  0.15653341998E+02  0.20068991791E+02  0.51100000000E-03 0.  1.
        -12    1    3    3    0    0 -0.14610485644E+02  0.26344288984E+02  0.44668092629E+01  0.30453903491E+02  0.00000000000E+00 0.  1.
</event>
<event>
 7    1  0.8150973E-012  0.5930194E+02  0.7816164E-02  0.1266605E+00
        -11   -1    0    0    0    0  0.00000000000E+00  0.00000000000E+00  0.45593999997E+02  0.45594000000E+02  0.51100000000E-03 0. -1.
         11   -1    0    0    0    0 -0.00000000000E+00 -0.00000000000E+00 -0.45593999997E+02  0.45594000000E+02  0.51100000000E-03 0.  1.
    9900012    2    1    2    0    0 -0.40726428941E+01 -0.29344285936E+02 -0.11791824170E+02  0.59301942632E+02  0.49999997454E+02 0.  0.
         12    1    1    2    0    0  0.40726428941E+01  0.29344285936E+02  0.11791824170E+02  0.31886057368E+02  0.00000000000E+00 0. -1.
         11    1    3    3    0    0  0.34232993653E+01  0.99392838769E+01 -0.27721185453E+01  0.10871659672E+02  0.51100000000E-03 0. -1.
        -11    1    3    3    0    0 -0.31237357178E+01 -0.16543585616E+02 -0.17010973278E+02  0.23933682583E+02  0.51100000000E-03 0.  1.
         12    1    3    3    0    0 -0.43722065415E+01 -0.22739984197E+02  0.79912676533E+01  0.24496600377E+02  0.00000000000E+00 0. -1.
</event>
<event>
 7    1  0.6246445E-012  0.5930196E+02  0.7816164E-02  0.1266605E+00
        -11   -1    0    0    0    0  0.00000000000E+00  0.00000000000E+00  0.45593999997E+02  0.45594000000E+02  0.51100000000E-03 0. -1.
         11   -1    0    0    0    0 -0.00000000000E+00 -0.00000000000E+00 -0.45593999997E+02  0.45594000000E+02  0.51100000000E-03 0.  1.
    9900012    2    1    2    0    0 -0.12387628165E+02 -0.18979441621E+02 -0.22428709976E+02  0.59301959685E+02  0.50000028555E+02 0.  0.
         12    1    1    2    0    0  0.12387628165E+02  0.18979441621E+02  0.22428709976E+02  0.31886040315E+02  0.00000000000E+00 0. -1.
         11    1    3    3    0    0  0.11628140162E+02 -0.90392117058E+01 -0.40831245321E+01  0.15283746206E+02  0.51100000000E-03 0. -1.
        -11    1    3    3    0    0  0.32159930027E+01 -0.10886176943E+02 -0.33614030999E+00  0.11356251582E+02  0.51100000000E-03 0.  1.
        -12    1    3    3    0    0 -0.27231761330E+02  0.94594702778E+00 -0.18009445134E+02  0.32661961896E+02  0.00000000000E+00 0.  1.
</event>
<event>
 7    1  0.6246445E-012  0.5930221E+02  0.7816164E-02  0.1266604E+00
        -11   -1    0    0    0    0  0.00000000000E+00  0.00000000000E+00  0.45593999997E+02  0.45594000000E+02  0.51100000000E-03 0. -1.
         11   -1    0    0    0    0 -0.00000000000E+00 -0.00000000000E+00 -0.45593999997E+02  0.45594000000E+02  0.51100000000E-03 0.  1.
    9900012    2    1    2    0    0 -0.13705919308E+02  0.27065270763E+02 -0.98144077952E+01  0.59302208401E+02  0.50000482151E+02 0.  0.
         12    1    1    2    0    0  0.13705919308E+02 -0.27065270763E+02  0.98144077952E+01  0.31885791599E+02  0.00000000000E+00 0. -1.
         11    1    3    3    0    0 -0.15978788432E+02 -0.42154209984E+01  0.41429762690E+01  0.17036892516E+02  0.51100000000E-03 0. -1.
        -11    1    3    3    0    0  0.34091903377E+01  0.13827314476E+02  0.62390963916E+01  0.15548103692E+02  0.51100000000E-03 0.  1.
         12    1    3    3    0    0 -0.11363212130E+01  0.17453377285E+02 -0.20196480456E+02  0.26717212193E+02  0.00000000000E+00 0. -1.
</event>
<event>
 7    1  0.6246445E-012  0.5930202E+02  0.7816164E-02  0.1266604E+00
        -11   -1    0    0    0    0  0.00000000000E+00  0.00000000000E+00  0.45593999997E+02  0.45594000000E+02  0.51100000000E-03 0.  1.
         11   -1    0    0    0    0 -0.00000000000E+00 -0.00000000000E+00 -0.45593999997E+02  0.45594000000E+02  0.51100000000E-03 0. -1.
    9900012    2    1    2    0    0 -0.21874853348E+02 -0.57291963404E+01  0.22480717710E+02  0.59302022385E+02  0.50000142905E+02 0.  0.
         12    1    1    2    0    0  0.21874853348E+02  0.57291963404E+01 -0.22480717710E+02  0.31885977615E+02  0.00000000000E+00 0. -1.
         11    1    3    3    0    0 -0.11844154736E+01 -0.91836238713E+01  0.10074359620E+02  0.13683366159E+02  0.51100000000E-03 0. -1.
        -11    1    3    3    0    0 -0.21668498484E+02  0.49275557653E+01  0.24684760264E+02  0.33213581889E+02  0.51100000000E-03 0.  1.
         12    1    3    3    0    0  0.97806060916E+00 -0.14731282343E+01 -0.12278402174E+02  0.12405074337E+02  0.00000000000E+00 0. -1.
</event>
<event>
 7    1  0.6246445E-012  0.5930197E+02  0.7816164E-02  0.1266605E+00
        -11   -1    0    0    0    0  0.00000000000E+00  0.00000000000E+00  0.45593999997E+02  0.45594000000E+02  0.51100000000E-03 0.  1.
         11   -1    0    0    0    0 -0.00000000000E+00 -0.00000000000E+00 -0.45593999997E+02  0.45594000000E+02  0.51100000000E-03 0. -1.
    9900012    2    1    2    0    0  0.21711393561E+02 -0.21331187238E+02  0.95033939542E+01  0.59301973970E+02  0.50000054607E+02 0.  0.
         12    1    1    2    0    0 -0.21711393561E+02  0.21331187238E+02 -0.95033939542E+01  0.31886026030E+02  0.00000000000E+00 0. -1.
         11    1    3    3    0    0  0.12601865073E+02  0.33166151105E+00  0.24314045692E+02  0.27387767723E+02  0.51100000000E-03 0. -1.
        -11    1    3    3    0    0  0.70942180216E+01 -0.18650059254E+02 -0.37870269201E+01  0.20309953537E+02  0.51100000000E-03 0.  1.
        -12    1    3    3    0    0  0.20153104664E+01 -0.30127894953E+01 -0.11023624818E+02  0.11604252710E+02  0.00000000000E+00 0.  1.
</event>
<event>
 7    1  0.6246445E-012  0.5930196E+02  0.7816164E-02  0.1266605E+00
        -11   -1    0    0    0    0  0.00000000000E+00  0.00000000000E+00  0.45593999997E+02  0.45594000000E+02  0.51100000000E-03 0.  1.
         11   -1    0    0    0    0 -0.00000000000E+00 -0.00000000000E+00 -0.45593999997E+02  0.45594000000E+02  0.51100000000E-03 0. -1.
    9900012    2    1    2    0    0 -0.66179925217E+01 -0.23405552245E+02  0.20618005163E+02  0.59301955438E+02  0.50000020810E+02 0.  0.
         12    1    1    2    0    0  0.66179925217E+01  0.23405552245E+02 -0.20618005163E+02  0.31886044562E+02  0.00000000000E+00 0. -1.
         11    1    3    3    0    0 -0.88620063005E+00  0.10312177293E+02  0.70127590687E+01  0.12502205490E+02  0.51100000000E-03 0. -1.
        -11    1    3    3    0    0 -0.14126398764E+01 -0.25153050972E+01  0.14994204284E+02  0.15269200159E+02  0.51100000000E-03 0.  1.
        -12    1    3    3    0    0 -0.43191520152E+01 -0.31202424441E+02 -0.13889581891E+01  0.31530549789E+02  0.00000000000E+00 0.  1.
</event>
<event>
 7    1  0.6246445E-012  0.5930197E+02  0.7816164E-02  0.1266605E+00
        -11   -1    0    0    0    0  0.00000000000E+00  0.00000000000E+00  0.45593999997E+02  0.45594000000E+02  0.51100000000E-03 0. -1.
         11   -1    0    0    0    0 -0.00000000000E+00 -0.00000000000E+00 -0.45593999997E+02  0.45594000000E+02  0.51100000000E-03 0.  1.
    9900012    2    1    2    0    0  0.19120190501E+02  0.63321033367E+00 -0.25509532023E+02  0.59301970706E+02  0.50000048654E+02 0.  0.
         12    1    1    2    0    0 -0.19120190501E+02 -0.63321033367E+00  0.25509532023E+02  0.31886029294E+02  0.00000000000E+00 0. -1.
         11    1    3    3    0    0  0.10837858043E+02  0.24078991101E+01 -0.12512134074E+02  0.16727541494E+02  0.51100000000E-03 0. -1.
        -11    1    3    3    0    0  0.20633103418E+02  0.95180816679E+01 -0.12268911591E+02  0.25823342680E+02  0.51100000000E-03 0.  1.
         12    1    3    3    0    0 -0.12350770960E+02 -0.11292770444E+02 -0.72848635805E+00  0.16751086531E+02  0.00000000000E+00 0. -1.
</event>
<event>
 7    1  0.6246445E-012  0.5930199E+02  0.7816164E-02  0.1266605E+00
        -11   -1    0    0    0    0  0.00000000000E+00  0.00000000000E+00  0.45593999997E+02  0.45594000000E+02  0.51100000000E-03 0.  1.
         11   -1    0    0    0    0 -0.00000000000E+00 -0.00000000000E+00 -0.45593999997E+02  0.45594000000E+02  0.51100000000E-03 0. -1.
    9900012    2    1    2    0    0 -0.27672107532E+02  0.82255148970E+01  0.13539311851E+02  0.59301990591E+02  0.50000084921E+02 0.  0.
         12    1    1    2    0    0  0.27672107532E+02 -0.82255148970E+01 -0.13539311851E+02  0.31886009409E+02  0.00000000000E+00 0. -1.
         11    1    3    3    0    0 -0.66149275811E+01  0.85076996024E+01 -0.74369752359E+01  0.13093770288E+02  0.51100000000E-03 0. -1.
        -11    1    3    3    0    0  0.91102903276E+01 -0.16408898348E+01 -0.30976438598E+00  0.92620658354E+01  0.51100000000E-03 0.  1.
        -12    1    3    3    0    0 -0.30167470279E+02  0.13587051293E+01  0.21286051473E+02  0.36946154468E+02  0.00000000000E+00 0.  1.
</event>
<event>
 7    1  0.6427542E-012  0.5930195E+02  0.7816164E-02  0.1266605E+00
        -11   -1    0    0    0    0  0.00000000000E+00  0.00000000000E+00  0.45593999997E+02  0.45594000000E+02  0.51100000000E-03 0.  1.
         11   -1    0    0    0    0 -0.00000000000E+00 -0.00000000000E+00 -0.45593999997E+02  0.45594000000E+02  0.51100000000E-03 0. -1.
    9900012    2    1    2    0    0 -0.10431487615E+02  0.26161690087E+02 -0.14948917841E+02  0.59301951222E+02  0.50000013121E+02 0.  0.
         12    1    1    2    0    0  0.10431487615E+02 -0.26161690087E+02  0.14948917841E+02  0.31886048778E+02  0.00000000000E+00 0. -1.
         11    1    3    3    0    0 -0.12118866644E+02  0.67802801817E+01 -0.15103201152E+02  0.20516964039E+02  0.51100000000E-03 0. -1.
        -11    1    3    3    0    0  0.56459738278E+00  0.14222117302E+02 -0.16220544626E+02  0.21579931858E+02  0.51100000000E-03 0.  1.
         12    1    3    3    0    0  0.11227816458E+01  0.51592926030E+01  0.16374827937E+02  0.17205055326E+02  0.00000000000E+00 0. -1.
</event>
<event>
 7    1  0.6246445E-012  0.5930200E+02  0.7816164E-02  0.1266605E+00
        -11   -1    0    0    0    0  0.00000000000E+00  0.00000000000E+00  0.45593999997E+02  0.45594000000E+02  0.51100000000E-03 0. -1.
         11   -1    0    0    0    0 -0.00000000000E+00 -0.00000000000E+00 -0.45593999997E+02  0.45594000000E+02  0.51100000000E-03 0.  1.
    9900012    2    1    2    0    0 -0.26259407341E+02  0.56374729109E+01 -0.17186610367E+02  0.59301997576E+02  0.50000097658E+02 0.  0.
         12    1    1    2    0    0  0.26259407341E+02 -0.56374729109E+01  0.17186610367E+02  0.31886002424E+02  0.00000000000E+00 0. -1.
         11    1    3    3    0    0 -0.19116499289E+02  0.18270552548E+02 -0.87723871858E+01  0.27860517093E+02  0.51100000000E-03 0. -1.
        -11    1    3    3    0    0  0.75150422979E+00  0.72532988676E+01 -0.68229296173E+01  0.99863642980E+01  0.51100000000E-03 0.  1.
        -12    1    3    3    0    0 -0.78944122813E+01 -0.19886378504E+02 -0.15912935635E+01  0.21455116185E+02  0.00000000000E+00 0.  1.
</event>
<event>
 7    1  0.6246445E-012  0.5930195E+02  0.7816164E-02  0.1266605E+00
        -11   -1    0    0    0    0  0.00000000000E+00  0.00000000000E+00  0.45593999997E+02  0.45594000000E+02  0.51100000000E-03 0.  1.
         11   -1    0    0    0    0 -0.00000000000E+00 -0.00000000000E+00 -0.45593999997E+02  0.45594000000E+02  0.51100000000E-03 0. -1.
    9900012    2    1    2    0    0  0.31381099698E+02 -0.44730722135E+01 -0.34551696370E+01  0.59301953044E+02  0.50000016443E+02 0.  0.
         12    1    1    2    0    0 -0.31381099698E+02  0.44730722135E+01  0.34551696370E+01  0.31886046956E+02  0.00000000000E+00 0. -1.
         11    1    3    3    0    0 -0.28895088632E+01 -0.11188992052E+02 -0.90333578183E+01  0.14667800051E+02  0.51100000000E-03 0. -1.
        -11    1    3    3    0    0  0.19372812776E+02  0.26113446615E+00 -0.10284826118E+02  0.21935170722E+02  0.51100000000E-03 0.  1.
        -12    1    3    3    0    0  0.14897795785E+02  0.64547853719E+01  0.15863014299E+02  0.22698982270E+02  0.00000000000E+00 0.  1.
</event>
<event>
 7    1  0.6246445E-012  0.5930196E+02  0.7816164E-02  0.1266605E+00
        -11   -1    0    0    0    0  0.00000000000E+00  0.00000000000E+00  0.45593999997E+02  0.45594000000E+02  0.51100000000E-03 0.  1.
         11   -1    0    0    0    0 -0.00000000000E+00 -0.00000000000E+00 -0.45593999997E+02  0.45594000000E+02  0.51100000000E-03 0. -1.
    9900012    2    1    2    0    0 -0.26381921802E+02  0.23433165618E+01  0.17754517920E+02  0.59301955450E+02  0.50000020832E+02 0.  0.
         12    1    1    2    0    0  0.26381921802E+02 -0.23433165618E+01 -0.17754517920E+02  0.31886044550E+02  0.00000000000E+00 0. -1.
         11    1    3    3    0    0 -0.13811414149E+02 -0.32520137375E+00  0.10874154306E+02  0.17581471749E+02  0.51100000000E-03 0. -1.
        -11    1    3    3    0    0 -0.16178795424E+02 -0.15589029288E+02  0.25388679315E+01  0.22610110706E+02  0.51100000000E-03 0.  1.
         12    1    3    3    0    0  0.36082877712E+01  0.18257547224E+02  0.43414956825E+01  0.19110372995E+02  0.00000000000E+00 0. -1.
</event>
<event>
 7    1  0.6246445E-012  0.5930196E+02  0.7816164E-02  0.1266605E+00
        -11   -1    0    0    0    0  0.00000000000E+00  0.00000000000E+00  0.45593999997E+02  0.45594000000E+02  0.51100000000E-03 0.  1.
         11   -1    0    0    0    0 -0.00000000000E+00 -0.00000000000E+00 -0.45593999997E+02  0.45594000000E+02  0.51100000000E-03 0. -1.
    9900012    2    1    2    0    0  0.13741624177E+02 -0.26319857693E+02  0.11625517954E+02  0.59301955848E+02  0.50000021557E+02 0.  0.
         12    1    1    2    0    0 -0.13741624177E+02  0.26319857693E+02 -0.11625517954E+02  0.31886044152E+02  0.00000000000E+00 0. -1.
         11    1    3    3    0    0 -0.17525398901E+01 -0.10449004039E+02 -0.44770473553E+01  0.11502044808E+02  0.51100000000E-03 0. -1.
        -11    1    3    3    0    0  0.27381236865E+02 -0.12197196595E+02  0.36491852084E+01  0.30196362198E+02  0.51100000000E-03 0.  1.
         12    1    3    3    0    0 -0.11887072799E+02 -0.36736570590E+01  0.12453380101E+02  0.17603548842E+02  0.00000000000E+00 0. -1.
</event>
<event>
 7    1  0.6246445E-012  0.5930194E+02  0.7816164E-02  0.1266605E+00
        -11   -1    0    0    0    0  0.00000000000E+00  0.00000000000E+00  0.45593999997E+02  0.45594000000E+02  0.51100000000E-03 0.  1.
         11   -1    0    0    0    0 -0.00000000000E+00 -0.00000000000E+00 -0.45593999997E+02  0.45594000000E+02  0.51100000000E-03 0. -1.
    9900012    2    1    2    0    0  0.11797591978E+02 -0.15293996170E+02  0.25369886086E+02  0.59301943246E+02  0.49999998574E+02 0.  0.
         12    1    1    2    0    0 -0.11797591978E+02  0.15293996170E+02 -0.25369886086E+02  0.31886056754E+02  0.00000000000E+00 0. -1.
         11    1    3    3    0    0 -0.96467116749E+00 -0.17129604202E+02 -0.10772295923E+01  0.17190530953E+02  0.51100000000E-03 0.  1.
        -11    1    3    3    0    0  0.52203208112E+01 -0.11479317607E+02  0.13041703609E+01  0.12677828784E+02  0.51100000000E-03 0. -1.
        -12    1    3    3    0    0  0.75419423348E+01  0.13314925639E+02  0.25142945317E+02  0.29433583509E+02  0.00000000000E+00 0.  1.
</event>
<event>
 7    1  0.6246445E-012  0.5930195E+02  0.7816164E-02  0.1266605E+00
        -11   -1    0    0    0    0  0.00000000000E+00  0.00000000000E+00  0.45593999997E+02  0.45594000000E+02  0.51100000000E-03 0. -1.
         11   -1    0    0    0    0 -0.00000000000E+00 -0.00000000000E+00 -0.45593999997E+02  0.45594000000E+02  0.51100000000E-03 0.  1.
    9900012    2    1    2    0    0  0.98610950567E+01 -0.29795763512E+02 -0.56295161910E+01  0.59301950205E+02  0.50000011266E+02 0.  0.
         12    1    1    2    0    0 -0.98610950567E+01  0.29795763512E+02  0.56295161910E+01  0.31886049795E+02  0.00000000000E+00 0. -1.
         11    1    3    3    0    0  0.81137941661E+01 -0.18583567876E+02 -0.21320236612E+02  0.29423377444E+02  0.51100000000E-03 0.  1.
        -11    1    3    3    0    0  0.86322119653E+01  0.29123316440E+00 -0.74428699272E+00  0.86691328031E+01  0.51100000000E-03 0. -1.
         12    1    3    3    0    0 -0.68849110747E+01 -0.11503428800E+02  0.16435007413E+02  0.21209439958E+02  0.00000000000E+00 0. -1.
</event>
<event>
 7    1  0.6246445E-012  0.5930195E+02  0.7816164E-02  0.1266605E+00
        -11   -1    0    0    0    0  0.00000000000E+00  0.00000000000E+00  0.45593999997E+02  0.45594000000E+02  0.51100000000E-03 0.  1.
         11   -1    0    0    0    0 -0.00000000000E+00 -0.00000000000E+00 -0.45593999997E+02  0.45594000000E+02  0.51100000000E-03 0. -1.
    9900012    2    1    2    0    0 -0.11185342014E+02 -0.13199146869E+02  0.26784147890E+02  0.59301953957E+02  0.50000018109E+02 0.  0.
         12    1    1    2    0    0  0.11185342014E+02  0.13199146869E+02 -0.26784147890E+02  0.31886046043E+02  0.00000000000E+00 0. -1.
         11    1    3    3    0    0  0.41464399627E+01 -0.53186270572E+01 -0.11074724915E+02  0.12966506482E+02  0.51100000000E-03 0. -1.
        -11    1    3    3    0    0  0.48121667797E+01  0.60543529368E+00  0.72675147901E+01  0.87372920574E+01  0.51100000000E-03 0.  1.
        -12    1    3    3    0    0 -0.20143948757E+02 -0.84859551054E+01  0.30591358016E+02  0.37598155418E+02  0.00000000000E+00 0.  1.
</event>
<event>
 7    1  0.6246445E-012  0.5930194E+02  0.7816164E-02  0.1266605E+00
        -11   -1    0    0    0    0  0.00000000000E+00  0.00000000000E+00  0.45593999997E+02  0.45594000000E+02  0.51100000000E-03 0.  1.
         11   -1    0    0    0    0 -0.00000000000E+00 -0.00000000000E+00 -0.45593999997E+02  0.45594000000E+02  0.51100000000E-03 0. -1.
    9900012    2    1    2    0    0  0.12993729519E+02  0.25936199159E+02  0.13236213903E+02  0.59301940474E+02  0.49999993519E+02 0.  0.
         12    1    1    2    0    0 -0.12993729519E+02 -0.25936199159E+02 -0.13236213903E+02  0.31886059526E+02  0.00000000000E+00 0. -1.
         11    1    3    3    0    0 -0.54484768262E+01  0.10913387952E+02 -0.22619130763E+01  0.12405812643E+02  0.51100000000E-03 0. -1.
        -11    1    3    3    0    0  0.82128300816E+01  0.18575103561E+02  0.25194149758E+02  0.32360936830E+02  0.51100000000E-03 0.  1.
         12    1    3    3    0    0  0.10229376263E+02 -0.35522923541E+01 -0.96960227788E+01  0.14535191001E+02  0.00000000000E+00 0. -1.
</event>
<event>
 7    1  0.6246445E-012  0.5930191E+02  0.7816164E-02  0.1266605E+00
        -11   -1    0    0    0    0  0.00000000000E+00  0.00000000000E+00  0.45593999997E+02  0.45594000000E+02  0.51100000000E-03 0.  1.
         11   -1    0    0    0    0 -0.00000000000E+00 -0.00000000000E+00 -0.45593999997E+02  0.45594000000E+02  0.51100000000E-03 0. -1.
    9900012    2    1    2    0    0 -0.69250120958E+01  0.21693579828E+02 -0.22319396270E+02  0.59301911369E+02  0.49999940439E+02 0.  0.
         12    1    1    2    0    0  0.69250120958E+01 -0.21693579828E+02  0.22319396270E+02  0.31886088631E+02  0.00000000000E+00 0. -1.
         11    1    3    3    0    0  0.10248522286E+02  0.39745877746E+01 -0.42957628677E+01  0.11801827651E+02  0.51100000000E-03 0. -1.
        -11    1    3    3    0    0 -0.10473661927E+02  0.28639015475E+02 -0.16288026095E+02  0.34571528689E+02  0.51100000000E-03 0.  1.
        -12    1    3    3    0    0 -0.66998724544E+01 -0.10920023422E+02 -0.17356073077E+01  0.12928555030E+02  0.00000000000E+00 0.  1.
</event>
<event>
 7    1  0.6246445E-012  0.5930197E+02  0.7816164E-02  0.1266605E+00
        -11   -1    0    0    0    0  0.00000000000E+00  0.00000000000E+00  0.45593999997E+02  0.45594000000E+02  0.51100000000E-03 0.  1.
         11   -1    0    0    0    0 -0.00000000000E+00 -0.00000000000E+00 -0.45593999997E+02  0.45594000000E+02  0.51100000000E-03 0. -1.
    9900012    2    1    2    0    0  0.27908702994E+02 -0.14678180080E+02  0.47301575430E+01  0.59301967577E+02  0.50000042948E+02 0.  0.
         12    1    1    2    0    0 -0.27908702994E+02  0.14678180080E+02 -0.47301575430E+01  0.31886032423E+02  0.00000000000E+00 0. -1.
         11    1    3    3    0    0  0.46272219502E+01  0.72001660702E+01 -0.31590809663E+01  0.91232322796E+01  0.51100000000E-03 0. -1.
        -11    1    3    3    0    0  0.16037641279E+02 -0.23368315092E+01  0.20258439147E+02  0.25943613399E+02  0.51100000000E-03 0.  1.
         12    1    3    3    0    0  0.72438397656E+01 -0.19541514641E+02 -0.12369200637E+02  0.24235121898E+02  0.00000000000E+00 0. -1.
</event>
<event>
 7    1  0.6246445E-012  0.5930192E+02  0.7816164E-02  0.1266605E+00
        -11   -1    0    0    0    0  0.00000000000E+00  0.00000000000E+00  0.45593999997E+02  0.45594000000E+02  0.51100000000E-03 0.  1.
         11   -1    0    0    0    0 -0.00000000000E+00 -0.00000000000E+00 -0.45593999997E+02  0.45594000000E+02  0.51100000000E-03 0. -1.
    9900012    2    1    2    0    0 -0.15689032344E+02 -0.14425625520E+02 -0.23716612765E+02  0.59301919517E+02  0.49999955298E+02 0.  0.
         12    1    1    2    0    0  0.15689032344E+02  0.14425625520E+02  0.23716612765E+02  0.31886080483E+02  0.00000000000E+00 0. -1.
         11    1    3    3    0    0  0.33651660473E+00 -0.42934711222E+01 -0.24005640247E+02  0.24388888897E+02  0.51100000000E-03 0. -1.
        -11    1    3    3    0    0 -0.12511936535E+02 -0.20452631264E+02 -0.50964436895E+00  0.23981626699E+02  0.51100000000E-03 0.  1.
         12    1    3    3    0    0 -0.35136124135E+01  0.10320476866E+02  0.79867185082E+00  0.10931403920E+02  0.00000000000E+00 0. -1.
</event>
<event>
 7    1  0.6246445E-012  0.5930196E+02  0.7816164E-02  0.1266605E+00
        -11   -1    0    0    0    0  0.00000000000E+00  0.00000000000E+00  0.45593999997E+02  0.45594000000E+02  0.51100000000E-03 0.  1.
         11   -1    0    0    0    0 -0.00000000000E+00 -0.00000000000E+00 -0.45593999997E+02  0.45594000000E+02  0.51100000000E-03 0. -1.
    9900012    2    1    2    0    0 -0.78771107148E+01  0.73401906277E+00  0.30889029264E+02  0.59301956250E+02  0.50000022290E+02 0.  0.
         12    1    1    2    0    0  0.78771107148E+01 -0.73401906277E+00 -0.30889029264E+02  0.31886043750E+02  0.00000000000E+00 0. -1.
         11    1    3    3    0    0  0.61968454532E+00  0.47648627271E+01  0.11956779262E+01  0.49515221607E+01  0.51100000000E-03 0. -1.
        -11    1    3    3    0    0  0.71959546420E+00  0.17842259628E+02  0.24047998274E+02  0.29952800662E+02  0.51100000000E-03 0.  1.
         12    1    3    3    0    0 -0.92163907243E+01 -0.21873103292E+02  0.56453530638E+01  0.24397633427E+02  0.00000000000E+00 0. -1.
</event>
<event>
 7    1  0.6246445E-012  0.5930194E+02  0.7816164E-02  0.1266605E+00
        -11   -1    0    0    0    0  0.00000000000E+00  0.00000000000E+00  0.45593999997E+02  0.45594000000E+02  0.51100000000E-03 0.  1.
         11   -1    0    0    0    0 -0.00000000000E+00 -0.00000000000E+00 -0.45593999997E+02  0.45594000000E+02  0.51100000000E-03 0. -1.
    9900012    2    1    2    0    0  0.31500373063E+02 -0.43146892787E+01 -0.24147250393E+01  0.59301938097E+02  0.49999989183E+02 0.  0.
         12    1    1    2    0    0 -0.31500373063E+02  0.43146892787E+01  0.24147250393E+01  0.31886061903E+02  0.00000000000E+00 0. -1.
         11    1    3    3    0    0  0.25743734082E+01  0.35429664872E+01  0.33116662412E+00  0.43920020000E+01  0.51100000000E-03 0. -1.
        -11    1    3    3    0    0 -0.13518122738E+01  0.14651795111E+02 -0.81119741509E+01  0.16801982659E+02  0.51100000000E-03 0.  1.
        -12    1    3    3    0    0  0.30277811929E+02 -0.22509450876E+02  0.53660824875E+01  0.38107953438E+02  0.00000000000E+00 0.  1.
</event>
<event>
 7    1  0.6246445E-012  0.5930193E+02  0.7816164E-02  0.1266605E+00
        -11   -1    0    0    0    0  0.00000000000E+00  0.00000000000E+00  0.45593999997E+02  0.45594000000E+02  0.51100000000E-03 0.  1.
         11   -1    0    0    0    0 -0.00000000000E+00 -0.00000000000E+00 -0.45593999997E+02  0.45594000000E+02  0.51100000000E-03 0. -1.
    9900012    2    1    2    0    0 -0.24967359145E+02  0.11729832206E+02  0.15992608030E+02  0.59301929407E+02  0.49999973336E+02 0.  0.
         12    1    1    2    0    0  0.24967359145E+02 -0.11729832206E+02 -0.15992608030E+02  0.31886070593E+02  0.00000000000E+00 0. -1.
         11    1    3    3    0    0  0.25140802379E+01  0.28498878105E+00 -0.31372764567E+01  0.40304245279E+01  0.51100000000E-03 0. -1.
        -11    1    3    3    0    0  0.15298416251E+01  0.87422737131E+01 -0.10477839714E+02  0.13731456238E+02  0.51100000000E-03 0.  1.
        -12    1    3    3    0    0 -0.29011281008E+02  0.27025697121E+01  0.29607724201E+02  0.41540048641E+02  0.00000000000E+00 0.  1.
</event>
<event>
 7    1  0.6246445E-012  0.5930189E+02  0.7816164E-02  0.1266605E+00
        -11   -1    0    0    0    0  0.00000000000E+00  0.00000000000E+00  0.45593999997E+02  0.45594000000E+02  0.51100000000E-03 0.  1.
         11   -1    0    0    0    0 -0.00000000000E+00 -0.00000000000E+00 -0.45593999997E+02  0.45594000000E+02  0.51100000000E-03 0. -1.
    9900012    2    1    2    0    0 -0.26308170261E+02  0.94054776196E+00  0.17992205983E+02  0.59301891289E+02  0.49999903818E+02 0.  0.
         12    1    1    2    0    0  0.26308170261E+02 -0.94054776196E+00 -0.17992205983E+02  0.31886108711E+02  0.00000000000E+00 0. -1.
         11    1    3    3    0    0 -0.18415145861E+02  0.60615151284E+01  0.16553715690E+02  0.25492843430E+02  0.51100000000E-03 0. -1.
        -11    1    3    3    0    0  0.66474298841E+01  0.10470105038E+02  0.14782042342E+01  0.12489856348E+02  0.51100000000E-03 0.  1.
         12    1    3    3    0    0 -0.14540454284E+02 -0.15591072405E+02 -0.39713941075E-01  0.21319191512E+02  0.00000000000E+00 0. -1.
</event>
<event>
 7    1  0.6246445E-012  0.5930195E+02  0.7816164E-02  0.1266605E+00
        -11   -1    0    0    0    0  0.00000000000E+00  0.00000000000E+00  0.45593999997E+02  0.45594000000E+02  0.51100000000E-03 0. -1.
         11   -1    0    0    0    0 -0.00000000000E+00 -0.00000000000E+00 -0.45593999997E+02  0.45594000000E+02  0.51100000000E-03 0.  1.
    9900012    2    1    2    0    0 -0.30799848222E+02 -0.71920954729E+01  0.40451220656E+01  0.59301954458E+02  0.50000019022E+02 0.  0.
         12    1    1    2    0    0  0.30799848222E+02  0.71920954729E+01 -0.40451220656E+01  0.31886045542E+02  0.00000000000E+00 0. -1.
         11    1    3    3    0    0 -0.11584665682E+02 -0.28268777822E+01  0.12597148418E+02  0.17346004309E+02  0.51100000000E-03 0. -1.
        -11    1    3    3    0    0 -0.23807213802E+02  0.99343548473E+01 -0.76628107988E+01  0.26910843630E+02  0.51100000000E-03 0.  1.
         12    1    3    3    0    0  0.45920312625E+01 -0.14299572538E+02 -0.88921555338E+00  0.15045106520E+02  0.00000000000E+00 0. -1.
</event>
<event>
 7    1  0.6246445E-012  0.5930197E+02  0.7816164E-02  0.1266605E+00
        -11   -1    0    0    0    0  0.00000000000E+00  0.00000000000E+00  0.45593999997E+02  0.45594000000E+02  0.51100000000E-03 0.  1.
         11   -1    0    0    0    0 -0.00000000000E+00 -0.00000000000E+00 -0.45593999997E+02  0.45594000000E+02  0.51100000000E-03 0. -1.
    9900012    2    1    2    0    0 -0.16763198047E+02  0.25688252432E+02  0.87079182915E+01  0.59301969160E+02  0.50000045835E+02 0.  0.
         12    1    1    2    0    0  0.16763198047E+02 -0.25688252432E+02 -0.87079182915E+01  0.31886030840E+02  0.00000000000E+00 0. -1.
         11    1    3    3    0    0 -0.20371825956E+02 -0.19480549507E+01  0.15934041738E+02  0.25936458842E+02  0.51100000000E-03 0. -1.
        -11    1    3    3    0    0  0.50924913022E+01  0.65568357064E+00  0.75581609714E+00  0.51898600021E+01  0.51100000000E-03 0.  1.
        -12    1    3    3    0    0 -0.14838633934E+01  0.26980623812E+02 -0.79819395438E+01  0.28175650316E+02  0.00000000000E+00 0.  1.
</event>
<event>
 7    1  0.6246445E-012  0.5930196E+02  0.7816164E-02  0.1266605E+00
        -11   -1    0    0    0    0  0.00000000000E+00  0.00000000000E+00  0.45593999997E+02  0.45594000000E+02  0.51100000000E-03 0.  1.
         11   -1    0    0    0    0 -0.00000000000E+00 -0.00000000000E+00 -0.45593999997E+02  0.45594000000E+02  0.51100000000E-03 0. -1.
    9900012    2    1    2    0    0  0.29898950958E+02 -0.78034220717E+01 -0.78663142891E+01  0.59301959717E+02  0.50000028613E+02 0.  0.
         12    1    1    2    0    0 -0.29898950958E+02  0.78034220717E+01  0.78663142891E+01  0.31886040283E+02  0.00000000000E+00 0. -1.
         11    1    3    3    0    0  0.60415224915E+01  0.17564605922E+00  0.21266818821E+01  0.64073100161E+01  0.51100000000E-03 0. -1.
        -11    1    3    3    0    0  0.35285086943E+02 -0.14844356370E+02 -0.47690447573E+01  0.38576366661E+02  0.51100000000E-03 0.  1.
         12    1    3    3    0    0 -0.11427658476E+02  0.68652882389E+01 -0.52239514138E+01  0.14318283040E+02  0.00000000000E+00 0. -1.
</event>
<event>
 7    1  0.6706370E-012  0.5930198E+02  0.7816164E-02  0.1266605E+00
        -11   -1    0    0    0    0  0.00000000000E+00  0.00000000000E+00  0.45593999997E+02  0.45594000000E+02  0.51100000000E-03 0.  1.
         11   -1    0    0    0    0 -0.00000000000E+00 -0.00000000000E+00 -0.45593999997E+02  0.45594000000E+02  0.51100000000E-03 0. -1.
    9900012    2    1    2    0    0 -0.28700777377E+02  0.95414453529E+01  0.10096770278E+02  0.59301975295E+02  0.50000057024E+02 0.  0.
         12    1    1    2    0    0  0.28700777377E+02 -0.95414453529E+01 -0.10096770278E+02  0.31886024705E+02  0.00000000000E+00 0. -1.
         11    1    3    3    0    0 -0.21374231278E+02  0.62504211077E+01  0.13178859070E+01  0.22308347099E+02  0.51100000000E-03 0. -1.
        -11    1    3    3    0    0 -0.85802447085E+01 -0.51287179286E+01  0.20324146770E+02  0.22649399309E+02  0.51100000000E-03 0.  1.
         12    1    3    3    0    0  0.12536986100E+01  0.84197421737E+01 -0.11545262400E+02  0.14344228887E+02  0.00000000000E+00 0. -1.
</event>
<event>
 7    1  0.6246445E-012  0.5930192E+02  0.7816164E-02  0.1266605E+00
        -11   -1    0    0    0    0  0.00000000000E+00  0.00000000000E+00  0.45593999997E+02  0.45594000000E+02  0.51100000000E-03 0.  1.
         11   -1    0    0    0    0 -0.00000000000E+00 -0.00000000000E+00 -0.45593999997E+02  0.45594000000E+02  0.51100000000E-03 0. -1.
    9900012    2    1    2    0    0  0.29181763124E+01 -0.10270816996E+02  0.30045245136E+02  0.59301918553E+02  0.49999953541E+02 0.  0.
         12    1    1    2    0    0 -0.29181763124E+01  0.10270816996E+02 -0.30045245136E+02  0.31886081447E+02  0.00000000000E+00 0. -1.
         11    1    3    3    0    0 -0.18093038838E+01  0.84988241257E+01 -0.87352269075E+01  0.12321030048E+02  0.51100000000E-03 0. -1.
        -11    1    3    3    0    0 -0.47264788967E+01 -0.13167402641E+02  0.13618699416E+02  0.19524063848E+02  0.51100000000E-03 0.  1.
        -12    1    3    3    0    0  0.94539590929E+01 -0.56022384810E+01  0.25161772627E+02  0.27456824657E+02  0.00000000000E+00 0.  1.
</event>
<event>
 7    1  0.6246445E-012  0.5930193E+02  0.7816164E-02  0.1266605E+00
        -11   -1    0    0    0    0  0.00000000000E+00  0.00000000000E+00  0.45593999997E+02  0.45594000000E+02  0.51100000000E-03 0.  1.
         11   -1    0    0    0    0 -0.00000000000E+00 -0.00000000000E+00 -0.45593999997E+02  0.45594000000E+02  0.51100000000E-03 0. -1.
    9900012    2    1    2    0    0 -0.31833711473E+02  0.17579427094E+01 -0.49615777907E+00  0.59301925904E+02  0.49999966947E+02 0.  0.
         12    1    1    2    0    0  0.31833711473E+02 -0.17579427094E+01  0.49615777907E+00  0.31886074096E+02  0.00000000000E+00 0. -1.
         11    1    3    3    0    0 -0.68012476068E+01  0.22792502468E+01 -0.81480948449E+01  0.10855570025E+02  0.51100000000E-03 0. -1.
        -11    1    3    3    0    0  0.56859104394E+01 -0.11118573725E+02 -0.51663700882E+01  0.13514571372E+02  0.51100000000E-03 0.  1.
        -12    1    3    3    0    0 -0.30718374305E+02  0.10597266188E+02  0.12818307154E+02  0.34931784508E+02  0.00000000000E+00 0.  1.
</event>
<event>
 7    1  0.6246445E-012  0.5930192E+02  0.7816164E-02  0.1266605E+00
        -11   -1    0    0    0    0  0.00000000000E+00  0.00000000000E+00  0.45593999997E+02  0.45594000000E+02  0.51100000000E-03 0. -1.
         11   -1    0    0    0    0 -0.00000000000E+00 -0.00000000000E+00 -0.45593999997E+02  0.45594000000E+02  0.51100000000E-03 0.  1.
    9900012    2    1    2    0    0  0.24255175097E+02 -0.19463335587E+02 -0.70417970534E+01  0.59301923776E+02  0.49999963067E+02 0.  0.
         12    1    1    2    0    0 -0.24255175097E+02  0.19463335587E+02  0.70417970534E+01  0.31886076224E+02  0.00000000000E+00 0. -1.
         11    1    3    3    0    0  0.42169043102E+01 -0.18412830074E+02 -0.96908780186E+01  0.21230348804E+02  0.51100000000E-03 0. -1.
        -11    1    3    3    0    0  0.20215431712E+02 -0.91727709656E+01 -0.89289183428E+01  0.23927578012E+02  0.51100000000E-03 0.  1.
         12    1    3    3    0    0 -0.17716092441E+00  0.81222654519E+01  0.11577999308E+02  0.14143996961E+02  0.00000000000E+00 0. -1.
</event>
<event>
 7    1  0.6246445E-012  0.5930195E+02  0.7816164E-02  0.1266605E+00
        -11   -1    0    0    0    0  0.00000000000E+00  0.00000000000E+00  0.45593999997E+02  0.45594000000E+02  0.51100000000E-03 0. -1.
         11   -1    0    0    0    0 -0.00000000000E+00 -0.00000000000E+00 -0.45593999997E+02  0.45594000000E+02  0.51100000000E-03 0.  1.
    9900012    2    1    2    0    0  0.13470363012E+02 -0.14874976785E+02 -0.24779116807E+02  0.59301949072E+02  0.50000009200E+02 0.  0.
         12    1    1    2    0    0 -0.13470363012E+02  0.14874976785E+02  0.24779116807E+02  0.31886050928E+02  0.00000000000E+00 0. -1.
         11    1    3    3    0    0  0.10638468300E+02 -0.39763245646E+01 -0.85790825621E+01  0.14233370040E+02  0.51100000000E-03 0. -1.
        -11    1    3    3    0    0  0.16431304685E+01 -0.63545850045E+01 -0.29886408260E+02  0.30598660547E+02  0.51100000000E-03 0.  1.
         12    1    3    3    0    0  0.11887642431E+01 -0.45440672160E+01  0.13686374016E+02  0.14469918486E+02  0.00000000000E+00 0. -1.
</event>
<event>
 7    1  0.6246445E-012  0.5930193E+02  0.7816164E-02  0.1266605E+00
        -11   -1    0    0    0    0  0.00000000000E+00  0.00000000000E+00  0.45593999997E+02  0.45594000000E+02  0.51100000000E-03 0.  1.
         11   -1    0    0    0    0 -0.00000000000E+00 -0.00000000000E+00 -0.45593999997E+02  0.45594000000E+02  0.51100000000E-03 0. -1.
    9900012    2    1    2    0    0  0.10121504740E+02 -0.12796595808E+02  0.27395691282E+02  0.59301927440E+02  0.49999969748E+02 0.  0.
         12    1    1    2    0    0 -0.10121504740E+02  0.12796595808E+02 -0.27395691282E+02  0.31886072560E+02  0.00000000000E+00 0. -1.
         11    1    3    3    0    0  0.22298307858E+02 -0.17710118157E+02  0.70016091783E+01  0.29323801762E+02  0.51100000000E-03 0. -1.
        -11    1    3    3    0    0 -0.72425159888E+01 -0.43275242947E+01  0.17860362958E+01  0.86238871909E+01  0.51100000000E-03 0.  1.
        -12    1    3    3    0    0 -0.49342871289E+01  0.92410466439E+01  0.18608045808E+02  0.21354238487E+02  0.00000000000E+00 0.  1.
</event>
<event>
 7    1  0.6246445E-012  0.5930195E+02  0.7816164E-02  0.1266605E+00
        -11   -1    0    0    0    0  0.00000000000E+00  0.00000000000E+00  0.45593999997E+02  0.45594000000E+02  0.51100000000E-03 0. -1.
         11   -1    0    0    0    0 -0.00000000000E+00 -0.00000000000E+00 -0.45593999997E+02  0.45594000000E+02  0.51100000000E-03 0.  1.
    9900012    2    1    2    0    0 -0.17408048619E+02 -0.22861320475E+02 -0.13821734578E+02  0.59301945410E+02  0.50000002521E+02 0.  0.
         12    1    1    2    0    0  0.17408048619E+02  0.22861320475E+02  0.13821734578E+02  0.31886054590E+02  0.00000000000E+00 0. -1.
         11    1    3    3    0    0 -0.13122872720E+02 -0.14201143129E+02 -0.87455219357E+01  0.21221838016E+02  0.51100000000E-03 0. -1.
        -11    1    3    3    0    0  0.44708551873E+01 -0.20950775641E+02  0.17974251586E+01  0.21497773920E+02  0.51100000000E-03 0.  1.
         12    1    3    3    0    0 -0.87560310871E+01  0.12290598295E+02 -0.68736378006E+01  0.16582333474E+02  0.00000000000E+00 0. -1.
</event>
<event>
 7    1  0.6246445E-012  0.5930191E+02  0.7816164E-02  0.1266605E+00
        -11   -1    0    0    0    0  0.00000000000E+00  0.00000000000E+00  0.45593999997E+02  0.45594000000E+02  0.51100000000E-03 0. -1.
         11   -1    0    0    0    0 -0.00000000000E+00 -0.00000000000E+00 -0.45593999997E+02  0.45594000000E+02  0.51100000000E-03 0.  1.
    9900012    2    1    2    0    0  0.16663644829E+02  0.17771895879E+02 -0.20571956306E+02  0.59301910111E+02  0.49999938144E+02 0.  0.
         12    1    1    2    0    0 -0.16663644829E+02 -0.17771895879E+02  0.20571956306E+02  0.31886089889E+02  0.00000000000E+00 0. -1.
         11    1    3    3    0    0 -0.37485057878E+01  0.42437306184E+01  0.17713770337E+01  0.59328173796E+01  0.51100000000E-03 0. -1.
        -11    1    3    3    0    0 -0.11301295058E+02 -0.34830711190E+01 -0.18925369893E+01  0.11976341299E+02  0.51100000000E-03 0.  1.
        -12    1    3    3    0    0  0.31713445675E+02  0.17011236380E+02 -0.20450796351E+02  0.41392751432E+02  0.00000000000E+00 0.  1.
</event>
<event>
 7    1  0.6246445E-012  0.5930196E+02  0.7816164E-02  0.1266605E+00
        -11   -1    0    0    0    0  0.00000000000E+00  0.00000000000E+00  0.45593999997E+02  0.45594000000E+02  0.51100000000E-03 0. -1.
         11   -1    0    0    0    0 -0.00000000000E+00 -0.00000000000E+00 -0.45593999997E+02  0.45594000000E+02  0.51100000000E-03 0.  1.
    9900012    2    1    2    0    0 -0.26060138574E+02 -0.17103974263E+02  0.67113770429E+01  0.59301963246E+02  0.50000035049E+02 0.  0.
         12    1    1    2    0    0  0.26060138574E+02  0.17103974263E+02 -0.67113770429E+01  0.31886036754E+02  0.00000000000E+00 0. -1.
         11    1    3    3    0    0  0.38807005692E+01  0.82416648146E+01  0.55074587245E+01  0.10645044748E+02  0.51100000000E-03 0. -1.
        -11    1    3    3    0    0  0.10106884394E+01  0.49294247992E+01 -0.15715542487E+01  0.52716698483E+01  0.51100000000E-03 0.  1.
         12    1    3    3    0    0 -0.30951527583E+02 -0.30275063876E+02  0.27754725671E+01  0.43385248650E+02  0.00000000000E+00 0. -1.
</event>
<event>
 7    1  0.6246445E-012  0.5930195E+02  0.7816164E-02  0.1266605E+00
        -11   -1    0    0    0    0  0.00000000000E+00  0.00000000000E+00  0.45593999997E+02  0.45594000000E+02  0.51100000000E-03 0. -1.
         11   -1    0    0    0    0 -0.00000000000E+00 -0.00000000000E+00 -0.45593999997E+02  0.45594000000E+02  0.51100000000E-03 0.  1.
    9900012    2    1    2    0    0 -0.16518396863E+02  0.49430251949E+01 -0.26822184186E+02  0.59301945093E+02  0.50000001943E+02 0.  0.
         12    1    1    2    0    0  0.16518396863E+02 -0.49430251949E+01  0.26822184186E+02  0.31886054907E+02  0.00000000000E+00 0. -1.
         11    1    3    3    0    0 -0.17536790893E+02  0.12710471206E+02 -0.79330889483E+01  0.23065754131E+02  0.51100000000E-03 0. -1.
        -11    1    3    3    0    0 -0.30504563044E+01  0.10903804778E+02 -0.39900129002E+01  0.12004934215E+02  0.51100000000E-03 0.  1.
        -12    1    3    3    0    0  0.40688503338E+01 -0.18671250789E+02 -0.14899082338E+02  0.24231256748E+02  0.00000000000E+00 0.  1.
</event>
<event>
 7    1  0.6246445E-012  0.5930196E+02  0.7816164E-02  0.1266605E+00
        -11   -1    0    0    0    0  0.00000000000E+00  0.00000000000E+00  0.45593999997E+02  0.45594000000E+02  0.51100000000E-03 0. -1.
         11   -1    0    0    0    0 -0.00000000000E+00 -0.00000000000E+00 -0.45593999997E+02  0.45594000000E+02  0.51100000000E-03 0.  1.
    9900012    2    1    2    0    0  0.15722315442E+01 -0.23647867499E+02 -0.21331335976E+02  0.59301961616E+02  0.50000032077E+02 0.  0.
         12    1    1    2    0    0 -0.15722315442E+01  0.23647867499E+02  0.21331335976E+02  0.31886038384E+02  0.00000000000E+00 0. -1.
         11    1    3    3    0    0 -0.43201670484E+01  0.36007266715E+01  0.13094960434E+01  0.57744139130E+01  0.51100000000E-03 0. -1.
        -11    1    3    3    0    0  0.10074758131E+02 -0.28655177102E+02 -0.31420107082E+02  0.43701751172E+02  0.51100000000E-03 0.  1.
         12    1    3    3    0    0 -0.41823595379E+01  0.14065829312E+01  0.87792750628E+01  0.98257965314E+01  0.00000000000E+00 0. -1.
</event>
<event>
 7    1  0.6246445E-012  0.5930197E+02  0.7816164E-02  0.1266605E+00
        -11   -1    0    0    0    0  0.00000000000E+00  0.00000000000E+00  0.45593999997E+02  0.45594000000E+02  0.51100000000E-03 0. -1.
         11   -1    0    0    0    0 -0.00000000000E+00 -0.00000000000E+00 -0.45593999997E+02  0.45594000000E+02  0.51100000000E-03 0.  1.
    9900012    2    1    2    0    0  0.55420136205E+01 -0.31079266577E+02  0.44815114219E+01  0.59301973741E+02  0.50000054191E+02 0.  0.
         12    1    1    2    0    0 -0.55420136205E+01  0.31079266577E+02 -0.44815114219E+01  0.31886026259E+02  0.00000000000E+00 0. -1.
         11    1    3    3    0    0  0.94886741574E+01 -0.71179147869E+00  0.58829570961E+01  0.11187080443E+02  0.51100000000E-03 0. -1.
        -11    1    3    3    0    0 -0.15591998943E+02 -0.14495848552E+00 -0.20031269629E+01  0.15720813016E+02  0.51100000000E-03 0.  1.
         12    1    3    3    0    0  0.11645338406E+02 -0.30222516613E+02  0.60168128865E+00  0.32394080283E+02  0.00000000000E+00 0. -1.
</event>
<event>
 7    1  0.6246445E-012  0.5930196E+02  0.7816164E-02  0.1266605E+00
        -11   -1    0    0    0    0  0.00000000000E+00  0.00000000000E+00  0.45593999997E+02  0.45594000000E+02  0.51100000000E-03 0.  1.
         11   -1    0    0    0    0 -0.00000000000E+00 -0.00000000000E+00 -0.45593999997E+02  0.45594000000E+02  0.51100000000E-03 0. -1.
    9900012    2    1    2    0    0  0.21633897552E+01 -0.89263639805E+00  0.31800034618E+02  0.59301964551E+02  0.50000037429E+02 0.  0.
         12    1    1    2    0    0 -0.21633897552E+01  0.89263639805E+00 -0.31800034618E+02  0.31886035449E+02  0.00000000000E+00 0. -1.
         11    1    3    3    0    0  0.63816399171E+01 -0.39603009841E+01 -0.36357838972E+01  0.83443535834E+01  0.51100000000E-03 0. -1.
        -11    1    3    3    0    0 -0.11844581810E+02  0.98971616908E+01  0.14961904151E+01  0.15507627601E+02  0.51100000000E-03 0.  1.
        -12    1    3    3    0    0  0.76263316477E+01 -0.68294971048E+01  0.33939628100E+02  0.35449983367E+02  0.00000000000E+00 0.  1.
</event>
<event>
 7    1  0.6246445E-012  0.5930190E+02  0.7816164E-02  0.1266605E+00
        -11   -1    0    0    0    0  0.00000000000E+00  0.00000000000E+00  0.45593999997E+02  0.45594000000E+02  0.51100000000E-03 0.  1.
         11   -1    0    0    0    0 -0.00000000000E+00 -0.00000000000E+00 -0.45593999997E+02  0.45594000000E+02  0.51100000000E-03 0. -1.
    9900012    2    1    2    0    0 -0.23199416717E+01  0.19542116313E+02  0.25088787163E+02  0.59301895179E+02  0.49999910911E+02 0.  0.
         12    1    1    2    0    0  0.23199416717E+01 -0.19542116313E+02 -0.25088787163E+02  0.31886104821E+02  0.00000000000E+00 0. -1.
         11    1    3    3    0    0 -0.39606742427E+01 -0.87016681741E+00 -0.67886500207E+01  0.79075849734E+01  0.51100000000E-03 0.  1.
        -11    1    3    3    0    0 -0.10200595621E+02 -0.55974024581E+01  0.76147728807E+01  0.13905676236E+02  0.51100000000E-03 0. -1.
        -12    1    3    3    0    0  0.11841328192E+02  0.26009685589E+02  0.24262664303E+02  0.37488633969E+02  0.00000000000E+00 0.  1.
</event>
<event>
 7    1  0.8427672E-012  0.5930191E+02  0.7816164E-02  0.1266605E+00
        -11   -1    0    0    0    0  0.00000000000E+00  0.00000000000E+00  0.45593999997E+02  0.45594000000E+02  0.51100000000E-03 0. -1.
         11   -1    0    0    0    0 -0.00000000000E+00 -0.00000000000E+00 -0.45593999997E+02  0.45594000000E+02  0.51100000000E-03 0.  1.
    9900012    2    1    2    0    0 -0.31180317616E+02  0.51187213797E+01 -0.42789206874E+01  0.59301910910E+02  0.49999939601E+02 0.  0.
         12    1    1    2    0    0  0.31180317616E+02 -0.51187213797E+01  0.42789206874E+01  0.31886089090E+02  0.00000000000E+00 0. -1.
         11    1    3    3    0    0 -0.15391613441E+02  0.12903124678E+02  0.35460562121E+01  0.20395266747E+02  0.51100000000E-03 0. -1.
        -11    1    3    3    0    0 -0.43780520881E+01  0.66179827705E+00 -0.19827741552E+02  0.20316118043E+02  0.51100000000E-03 0.  1.
         12    1    3    3    0    0 -0.11410652087E+02 -0.84462015753E+01  0.12002764652E+02  0.18590526120E+02  0.00000000000E+00 0. -1.
</event>
<event>
 7    1  0.6246445E-012  0.5930205E+02  0.7816164E-02  0.1266604E+00
        -11   -1    0    0    0    0  0.00000000000E+00  0.00000000000E+00  0.45593999997E+02  0.45594000000E+02  0.51100000000E-03 0.  1.
         11   -1    0    0    0    0 -0.00000000000E+00 -0.00000000000E+00 -0.45593999997E+02  0.45594000000E+02  0.51100000000E-03 0. -1.
    9900012    2    1    2    0    0 -0.27886203980E+02  0.90344574305E+01 -0.12547979221E+02  0.59302053629E+02  0.50000199885E+02 0.  0.
         12    1    1    2    0    0  0.27886203980E+02 -0.90344574305E+01  0.12547979221E+02  0.31885946371E+02  0.00000000000E+00 0. -1.
         11    1    3    3    0    0 -0.12828544902E+02 -0.33966951723E+01 -0.72782854786E+01  0.15135472975E+02  0.51100000000E-03 0. -1.
        -11    1    3    3    0    0 -0.17159378405E+02 -0.52426026220E+01 -0.15436796844E+02  0.23669048281E+02  0.51100000000E-03 0.  1.
        -12    1    3    3    0    0  0.21017193271E+01  0.17673755225E+02  0.10167103102E+02  0.20497532372E+02  0.00000000000E+00 0.  1.
</event>
<event>
 7    1  0.6246445E-012  0.5930198E+02  0.7816164E-02  0.1266605E+00
        -11   -1    0    0    0    0  0.00000000000E+00  0.00000000000E+00  0.45593999997E+02  0.45594000000E+02  0.51100000000E-03 0. -1.
         11   -1    0    0    0    0 -0.00000000000E+00 -0.00000000000E+00 -0.45593999997E+02  0.45594000000E+02  0.51100000000E-03 0.  1.
    9900012    2    1    2    0    0  0.13077301022E+02  0.13779986144E+02 -0.25608876992E+02  0.59301977969E+02  0.50000061901E+02 0.  0.
         12    1    1    2    0    0 -0.13077301022E+02 -0.13779986144E+02  0.25608876992E+02  0.31886022031E+02  0.00000000000E+00 0. -1.
         11    1    3    3    0    0 -0.68619483488E+01 -0.27810955243E+01  0.98315582486E+01  0.12307735995E+02  0.51100000000E-03 0. -1.
        -11    1    3    3    0    0  0.34273576325E+01 -0.23672019063E+01 -0.85875674584E+00  0.42529858471E+01  0.51100000000E-03 0.  1.
        -12    1    3    3    0    0  0.16511891738E+02  0.18928283574E+02 -0.34581678495E+02  0.42741256128E+02  0.00000000000E+00 0.  1.
</event>
<event>
 7    1  0.6246445E-012  0.5930191E+02  0.7816164E-02  0.1266605E+00
        -11   -1    0    0    0    0  0.00000000000E+00  0.00000000000E+00  0.45593999997E+02  0.45594000000E+02  0.51100000000E-03 0.  1.
         11   -1    0    0    0    0 -0.00000000000E+00 -0.00000000000E+00 -0.45593999997E+02  0.45594000000E+02  0.51100000000E-03 0. -1.
    9900012    2    1    2    0    0  0.24031186864E+02  0.20903983415E+02 -0.14995076142E+01  0.59301906043E+02  0.49999930725E+02 0.  0.
         12    1    1    2    0    0 -0.24031186864E+02 -0.20903983415E+02  0.14995076142E+01  0.31886093957E+02  0.00000000000E+00 0. -1.
         11    1    3    3    0    0 -0.66149155120E+01  0.61969900958E+01 -0.65777873878E+01  0.11199423229E+02  0.51100000000E-03 0. -1.
        -11    1    3    3    0    0 -0.35898266191E+01  0.99208745554E+01 -0.55704488999E+01  0.11930654144E+02  0.51100000000E-03 0.  1.
         12    1    3    3    0    0  0.34235928995E+02  0.47861187641E+01  0.10648728674E+02  0.36171828670E+02  0.00000000000E+00 0. -1.
</event>
<event>
 7    1  0.6246445E-012  0.5930194E+02  0.7816164E-02  0.1266605E+00
        -11   -1    0    0    0    0  0.00000000000E+00  0.00000000000E+00  0.45593999997E+02  0.45594000000E+02  0.51100000000E-03 0. -1.
         11   -1    0    0    0    0 -0.00000000000E+00 -0.00000000000E+00 -0.45593999997E+02  0.45594000000E+02  0.51100000000E-03 0.  1.
    9900012    2    1    2    0    0 -0.24704064208E+02 -0.17957470393E+02 -0.91629311331E+01  0.59301939749E+02  0.49999992198E+02 0.  0.
         12    1    1    2    0    0  0.24704064208E+02  0.17957470393E+02  0.91629311331E+01  0.31886060251E+02  0.00000000000E+00 0. -1.
         11    1    3    3    0    0 -0.95104900511E+01  0.70324166913E+01  0.10380240922E+02  0.15737017106E+02  0.51100000000E-03 0. -1.
        -11    1    3    3    0    0 -0.59193157315E+01  0.43345080129E+01 -0.42027361880E+00  0.73486657713E+01  0.51100000000E-03 0.  1.
        -12    1    3    3    0    0 -0.92742584259E+01 -0.29324395098E+02 -0.19122898437E+02  0.36216256872E+02  0.00000000000E+00 0.  1.
</event>
<event>
 7    1  0.6246445E-012  0.5930177E+02  0.7816164E-02  0.1266605E+00
        -11   -1    0    0    0    0  0.00000000000E+00  0.00000000000E+00  0.45593999997E+02  0.45594000000E+02  0.51100000000E-03 0. -1.
         11   -1    0    0    0    0 -0.00000000000E+00 -0.00000000000E+00 -0.45593999997E+02  0.45594000000E+02  0.51100000000E-03 0.  1.
    9900012    2    1    2    0    0  0.20206775315E+02 -0.12098429117E+02 -0.21495258101E+02  0.59301766661E+02  0.49999676525E+02 0.  0.
         12    1    1    2    0    0 -0.20206775315E+02  0.12098429117E+02  0.21495258101E+02  0.31886233339E+02  0.00000000000E+00 0. -1.
         11    1    3    3    0    0  0.82375143429E+01  0.18383057118E+01 -0.15725221531E+02  0.17847089480E+02  0.51100000000E-03 0. -1.
        -11    1    3    3    0    0  0.66338464822E+01 -0.24649835021E+02  0.42095991273E+01  0.25871664245E+02  0.51100000000E-03 0.  1.
         12    1    3    3    0    0  0.53354144900E+01  0.10713100193E+02 -0.99796356966E+01  0.15583012936E+02  0.00000000000E+00 0. -1.
</event>
<event>
 7    1  0.6246445E-012  0.5930220E+02  0.7816164E-02  0.1266604E+00
        -11   -1    0    0    0    0  0.00000000000E+00  0.00000000000E+00  0.45593999997E+02  0.45594000000E+02  0.51100000000E-03 0.  1.
         11   -1    0    0    0    0 -0.00000000000E+00 -0.00000000000E+00 -0.45593999997E+02  0.45594000000E+02  0.51100000000E-03 0. -1.
    9900012    2    1    2    0    0  0.90012106815E+01 -0.19212745489E+02  0.23802375748E+02  0.59302196354E+02  0.50000460180E+02 0.  0.
         12    1    1    2    0    0 -0.90012106815E+01  0.19212745489E+02 -0.23802375748E+02  0.31885803646E+02  0.00000000000E+00 0. -1.
         11    1    3    3    0    0  0.37884671631E+01 -0.40026134384E+01  0.79011171862E+01  0.96333302048E+01  0.51100000000E-03 0. -1.
        -11    1    3    3    0    0  0.22097140026E+02 -0.11559226795E+02  0.19938551071E+02  0.31928751002E+02  0.51100000000E-03 0.  1.
         12    1    3    3    0    0 -0.16884396508E+02 -0.36509052549E+01 -0.40372925098E+01  0.17740115147E+02  0.00000000000E+00 0. -1.
</event>
<event>
 7    1  0.6246445E-012  0.5930196E+02  0.7816164E-02  0.1266605E+00
        -11   -1    0    0    0    0  0.00000000000E+00  0.00000000000E+00  0.45593999997E+02  0.45594000000E+02  0.51100000000E-03 0.  1.
         11   -1    0    0    0    0 -0.00000000000E+00 -0.00000000000E+00 -0.45593999997E+02  0.45594000000E+02  0.51100000000E-03 0. -1.
    9900012    2    1    2    0    0  0.53639506534E+01 -0.15248813787E+02  0.27484932386E+02  0.59301956081E+02  0.50000021982E+02 0.  0.
         12    1    1    2    0    0 -0.53639506534E+01  0.15248813787E+02 -0.27484932386E+02  0.31886043919E+02  0.00000000000E+00 0. -1.
         11    1    3    3    0    0  0.98028203730E+01  0.25737961058E+01 -0.94308906271E+01  0.13844183325E+02  0.51100000000E-03 0. -1.
        -11    1    3    3    0    0 -0.92554248421E+01 -0.45833623303E+01  0.72562953019E+01  0.12622357982E+02  0.51100000000E-03 0.  1.
        -12    1    3    3    0    0  0.48165551224E+01 -0.13239247563E+02  0.29659527712E+02  0.32835414774E+02  0.00000000000E+00 0.  1.
</event>
<event>
 7    1  0.6246445E-012  0.5930196E+02  0.7816164E-02  0.1266605E+00
        -11   -1    0    0    0    0  0.00000000000E+00  0.00000000000E+00  0.45593999997E+02  0.45594000000E+02  0.51100000000E-03 0. -1.
         11   -1    0    0    0    0 -0.00000000000E+00 -0.00000000000E+00 -0.45593999997E+02  0.45594000000E+02  0.51100000000E-03 0.  1.
    9900012    2    1    2    0    0 -0.11774689831E+02 -0.24030242389E+02 -0.17338504988E+02  0.59301958773E+02  0.50000026892E+02 0.  0.
         12    1    1    2    0    0  0.11774689831E+02  0.24030242389E+02  0.17338504988E+02  0.31886041227E+02  0.00000000000E+00 0. -1.
         11    1    3    3    0    0  0.95079142784E+01 -0.11526678450E+02 -0.19091524855E+01  0.15063519293E+02  0.51100000000E-03 0. -1.
        -11    1    3    3    0    0  0.73369890868E+01 -0.98070249281E+01 -0.77143186811E+01  0.14474800854E+02  0.51100000000E-03 0.  1.
        -12    1    3    3    0    0 -0.28619593197E+02 -0.26965390108E+01 -0.77150338212E+01  0.29763638626E+02  0.00000000000E+00 0.  1.
</event>
<event>
 7    1  0.6246445E-012  0.5930190E+02  0.7816164E-02  0.1266605E+00
        -11   -1    0    0    0    0  0.00000000000E+00  0.00000000000E+00  0.45593999997E+02  0.45594000000E+02  0.51100000000E-03 0.  1.
         11   -1    0    0    0    0 -0.00000000000E+00 -0.00000000000E+00 -0.45593999997E+02  0.45594000000E+02  0.51100000000E-03 0. -1.
    9900012    2    1    2    0    0 -0.13532305736E+02  0.88701639327E+01  0.27475813048E+02  0.59301899433E+02  0.49999918670E+02 0.  0.
         12    1    1    2    0    0  0.13532305736E+02 -0.88701639327E+01 -0.27475813048E+02  0.31886100567E+02  0.00000000000E+00 0. -1.
         11    1    3    3    0    0 -0.39214375462E+01 -0.11261494578E+02 -0.42150249615E+01  0.12647741626E+02  0.51100000000E-03 0. -1.
        -11    1    3    3    0    0 -0.14772791886E+02  0.63539883519E+01  0.62259219495E+01  0.17244438305E+02  0.51100000000E-03 0.  1.
         12    1    3    3    0    0  0.51619236959E+01  0.13777670158E+02  0.25464916060E+02  0.29409719502E+02  0.00000000000E+00 0. -1.
</event>
<event>
 7    1  0.6246445E-012  0.5930195E+02  0.7816164E-02  0.1266605E+00
        -11   -1    0    0    0    0  0.00000000000E+00  0.00000000000E+00  0.45593999997E+02  0.45594000000E+02  0.51100000000E-03 0. -1.
         11   -1    0    0    0    0 -0.00000000000E+00 -0.00000000000E+00 -0.45593999997E+02  0.45594000000E+02  0.51100000000E-03 0.  1.
    9900012    2    1    2    0    0  0.22508370136E+02  0.21962065351E+02 -0.52688687538E+01  0.59301952604E+02  0.50000015640E+02 0.  0.
         12    1    1    2    0    0 -0.22508370136E+02 -0.21962065351E+02  0.52688687538E+01  0.31886047396E+02  0.00000000000E+00 0. -1.
         11    1    3    3    0    0 -0.95370118889E+01  0.11630892485E+02 -0.64822103406E+01  0.16378379252E+02  0.51100000000E-03 0. -1.
        -11    1    3    3    0    0  0.23462014494E+02  0.84828076223E+01 -0.11501355854E+02  0.27471900845E+02  0.51100000000E-03 0.  1.
         12    1    3    3    0    0  0.85833675307E+01  0.18483652436E+01  0.12714697441E+02  0.15451672507E+02  0.00000000000E+00 0. -1.
</event>
<event>
 7    1  0.6246445E-012  0.5930194E+02  0.7816164E-02  0.1266605E+00
        -11   -1    0    0    0    0  0.00000000000E+00  0.00000000000E+00  0.45593999997E+02  0.45594000000E+02  0.51100000000E-03 0.  1.
         11   -1    0    0    0    0 -0.00000000000E+00 -0.00000000000E+00 -0.45593999997E+02  0.45594000000E+02  0.51100000000E-03 0. -1.
    9900012    2    1    2    0    0 -0.16687461647E+01 -0.28880526770E+02  0.13410868977E+02  0.59301938045E+02  0.49999989089E+02 0.  0.
         12    1    1    2    0    0  0.16687461647E+01  0.28880526770E+02 -0.13410868977E+02  0.31886061955E+02  0.00000000000E+00 0. -1.
         11    1    3    3    0    0  0.77374403832E+01 -0.27814028093E+02 -0.71898396983E+00  0.28879146121E+02  0.51100000000E-03 0. -1.
        -11    1    3    3    0    0  0.96864363424E+00 -0.11900663192E+02  0.60852692422E+01  0.13401289375E+02  0.51100000000E-03 0.  1.
         12    1    3    3    0    0 -0.10374830182E+02  0.10834164515E+02  0.80445837044E+01  0.17021502549E+02  0.00000000000E+00 0. -1.
</event>
<event>
 7    1  0.9432900E-012  0.5930194E+02  0.7816164E-02  0.1266605E+00
        -11   -1    0    0    0    0  0.00000000000E+00  0.00000000000E+00  0.45593999997E+02  0.45594000000E+02  0.51100000000E-03 0. -1.
         11   -1    0    0    0    0 -0.00000000000E+00 -0.00000000000E+00 -0.45593999997E+02  0.45594000000E+02  0.51100000000E-03 0.  1.
    9900012    2    1    2    0    0  0.20593983492E+02 -0.36815630336E+00 -0.24340768037E+02  0.59301942172E+02  0.49999996616E+02 0.  0.
         12    1    1    2    0    0 -0.20593983492E+02  0.36815630336E+00  0.24340768037E+02  0.31886057828E+02  0.00000000000E+00 0. -1.
         11    1    3    3    0    0  0.36601849202E+00  0.77949695707E+01  0.34940312530E+01  0.85500745495E+01  0.51100000000E-03 0. -1.
        -11    1    3    3    0    0 -0.18505761662E+01  0.92596550604E+01 -0.19091657929E+02  0.21299231130E+02  0.51100000000E-03 0.  1.
         12    1    3    3    0    0  0.22078541166E+02 -0.17422780934E+02 -0.87431413611E+01  0.29452636493E+02  0.00000000000E+00 0. -1.
</event>
<event>
 7    1  0.6246445E-012  0.5930194E+02  0.7816164E-02  0.1266605E+00
        -11   -1    0    0    0    0  0.00000000000E+00  0.00000000000E+00  0.45593999997E+02  0.45594000000E+02  0.51100000000E-03 0. -1.
         11   -1    0    0    0    0 -0.00000000000E+00 -0.00000000000E+00 -0.45593999997E+02  0.45594000000E+02  0.51100000000E-03 0.  1.
    9900012    2    1    2    0    0  0.14488623210E+02 -0.13004498027E+02 -0.25252400027E+02  0.59301939118E+02  0.49999991046E+02 0.  0.
         12    1    1    2    0    0 -0.14488623210E+02  0.13004498027E+02  0.25252400027E+02  0.31886060882E+02  0.00000000000E+00 0. -1.
         11    1    3    3    0    0 -0.27924415027E+01  0.92291563853E+01  0.45486926140E+01  0.10661409939E+02  0.51100000000E-03 0. -1.
        -11    1    3    3    0    0  0.12783700541E+02 -0.83192056804E+00 -0.15353523978E+01  0.12902418323E+02  0.51100000000E-03 0.  1.
        -12    1    3    3    0    0  0.44973641717E+01 -0.21401733844E+02 -0.28265740243E+02  0.35738110856E+02  0.00000000000E+00 0.  1.
</event>
<event>
 7    1  0.6246445E-012  0.5930193E+02  0.7816164E-02  0.1266605E+00
        -11   -1    0    0    0    0  0.00000000000E+00  0.00000000000E+00  0.45593999997E+02  0.45594000000E+02  0.51100000000E-03 0. -1.
         11   -1    0    0    0    0 -0.00000000000E+00 -0.00000000000E+00 -0.45593999997E+02  0.45594000000E+02  0.51100000000E-03 0.  1.
    9900012    2    1    2    0    0 -0.30121568723E+01  0.12137303028E+01 -0.31720268234E+02  0.59301927067E+02  0.49999969068E+02 0.  0.
         12    1    1    2    0    0  0.30121568723E+01 -0.12137303028E+01  0.31720268234E+02  0.31886072933E+02  0.00000000000E+00 0. -1.
         11    1    3    3    0    0 -0.95476581079E+00 -0.17116817857E+02 -0.65392846106E+01  0.18348277161E+02  0.51100000000E-03 0. -1.
        -11    1    3    3    0    0  0.27959433557E+01 -0.60192941351E+01 -0.94960802307E+01  0.11585540175E+02  0.51100000000E-03 0.  1.
         12    1    3    3    0    0 -0.48533344172E+01  0.24349842295E+02 -0.15684903392E+02  0.29368109731E+02  0.00000000000E+00 0. -1.
</event>
<event>
 7    1  0.6246445E-012  0.5930195E+02  0.7816164E-02  0.1266605E+00
        -11   -1    0    0    0    0  0.00000000000E+00  0.00000000000E+00  0.45593999997E+02  0.45594000000E+02  0.51100000000E-03 0. -1.
         11   -1    0    0    0    0 -0.00000000000E+00 -0.00000000000E+00 -0.45593999997E+02  0.45594000000E+02  0.51100000000E-03 0.  1.
    9900012    2    1    2    0    0  0.20677258250E+02  0.91419266783E+01 -0.22485463034E+02  0.59301954776E+02  0.50000019603E+02 0.  0.
         12    1    1    2    0    0 -0.20677258250E+02 -0.91419266783E+01  0.22485463034E+02  0.31886045224E+02  0.00000000000E+00 0. -1.
         11    1    3    3    0    0  0.15883564024E+02  0.63314302444E+01 -0.62986790679E+01  0.18222183549E+02  0.51100000000E-03 0. -1.
        -11    1    3    3    0    0 -0.39035435909E+01  0.10166629445E+02  0.85504478770E+01  0.13845871804E+02  0.51100000000E-03 0.  1.
        -12    1    3    3    0    0  0.86972378172E+01 -0.73561330115E+01 -0.24737231843E+02  0.27233899423E+02  0.00000000000E+00 0.  1.
</event>
<event>
 7    1  0.6246445E-012  0.5930195E+02  0.7816164E-02  0.1266605E+00
        -11   -1    0    0    0    0  0.00000000000E+00  0.00000000000E+00  0.45593999997E+02  0.45594000000E+02  0.51100000000E-03 0.  1.
         11   -1    0    0    0    0 -0.00000000000E+00 -0.00000000000E+00 -0.45593999997E+02  0.45594000000E+02  0.51100000000E-03 0. -1.
    9900012    2    1    2    0    0  0.14450328947E+02  0.23802000579E+02  0.15536187034E+02  0.59301947472E+02  0.50000006282E+02 0.  0.
         12    1    1    2    0    0 -0.14450328947E+02 -0.23802000579E+02 -0.15536187034E+02  0.31886052528E+02  0.00000000000E+00 0. -1.
         11    1    3    3    0    0 -0.33791629771E+01 -0.15422120770E+01  0.65200014944E+01  0.75038377024E+01  0.51100000000E-03 0. -1.
        -11    1    3    3    0    0 -0.66125842036E+00  0.13406963655E+01  0.19634738304E+02  0.19691563624E+02  0.51100000000E-03 0.  1.
        -12    1    3    3    0    0  0.18490750345E+02  0.24003516290E+02 -0.10618552763E+02  0.32106546146E+02  0.00000000000E+00 0.  1.
</event>
<event>
 7    1  0.6246445E-012  0.5930195E+02  0.7816164E-02  0.1266605E+00
        -11   -1    0    0    0    0  0.00000000000E+00  0.00000000000E+00  0.45593999997E+02  0.45594000000E+02  0.51100000000E-03 0. -1.
         11   -1    0    0    0    0 -0.00000000000E+00 -0.00000000000E+00 -0.45593999997E+02  0.45594000000E+02  0.51100000000E-03 0.  1.
    9900012    2    1    2    0    0 -0.25139105716E+02  0.16615540933E+02 -0.10424465619E+02  0.59301947875E+02  0.50000007016E+02 0.  0.
         12    1    1    2    0    0  0.25139105716E+02 -0.16615540933E+02  0.10424465619E+02  0.31886052125E+02  0.00000000000E+00 0. -1.
         11    1    3    3    0    0  0.72510414124E+01 -0.81976216290E+01 -0.32408940263E+01  0.11414113907E+02  0.51100000000E-03 0. -1.
        -11    1    3    3    0    0 -0.25297585078E+01  0.53877498144E+01  0.73122771459E+01  0.94285165053E+01  0.51100000000E-03 0.  1.
        -12    1    3    3    0    0 -0.29860388621E+02  0.19425412748E+02 -0.14495848739E+02  0.38459317462E+02  0.00000000000E+00 0.  1.
</event>
<event>
 7    1  0.6246445E-012  0.5930171E+02  0.7816164E-02  0.1266606E+00
        -11   -1    0    0    0    0  0.00000000000E+00  0.00000000000E+00  0.45593999997E+02  0.45594000000E+02  0.51100000000E-03 0.  1.
         11   -1    0    0    0    0 -0.00000000000E+00 -0.00000000000E+00 -0.45593999997E+02  0.45594000000E+02  0.51100000000E-03 0. -1.
    9900012    2    1    2    0    0  0.21547475708E+02  0.97375200627E+01  0.21392109719E+02  0.59301711966E+02  0.49999576773E+02 0.  0.
         12    1    1    2    0    0 -0.21547475708E+02 -0.97375200627E+01 -0.21392109719E+02  0.31886288034E+02  0.00000000000E+00 0. -1.
         11    1    3    3    0    0  0.17783639148E+02  0.13118144185E+02 -0.70074140789E+01  0.23182911390E+02  0.51100000000E-03 0. -1.
        -11    1    3    3    0    0  0.81826422247E+01  0.35591016915E+01  0.29903434572E+01  0.94108975598E+01  0.51100000000E-03 0.  1.
         12    1    3    3    0    0 -0.44188056645E+01 -0.69397258141E+01  0.25409180341E+02  0.26707903015E+02  0.00000000000E+00 0. -1.
</event>
<event>
 7    1  0.6246445E-012  0.5930198E+02  0.7816164E-02  0.1266605E+00
        -11   -1    0    0    0    0  0.00000000000E+00  0.00000000000E+00  0.45593999997E+02  0.45594000000E+02  0.51100000000E-03 0.  1.
         11   -1    0    0    0    0 -0.00000000000E+00 -0.00000000000E+00 -0.45593999997E+02  0.45594000000E+02  0.51100000000E-03 0. -1.
    9900012    2    1    2    0    0  0.12955882035E+02  0.28841596789E+02  0.41262395475E+01  0.59301977397E+02  0.50000060857E+02 0.  0.
         12    1    1    2    0    0 -0.12955882035E+02 -0.28841596789E+02 -0.41262395475E+01  0.31886022603E+02  0.00000000000E+00 0. -1.
         11    1    3    3    0    0 -0.55012353697E+01  0.14890360706E+02 -0.10806411970E+02  0.19203254216E+02  0.51100000000E-03 0. -1.
        -11    1    3    3    0    0 -0.27161487627E+01  0.50811884229E+01 -0.65046507553E+01  0.86894431121E+01  0.51100000000E-03 0.  1.
        -12    1    3    3    0    0  0.21173266167E+02  0.88700476600E+01  0.21437302273E+02  0.31409280069E+02  0.00000000000E+00 0.  1.
</event>
<event>
 7    1  0.6246445E-012  0.5930196E+02  0.7816164E-02  0.1266605E+00
        -11   -1    0    0    0    0  0.00000000000E+00  0.00000000000E+00  0.45593999997E+02  0.45594000000E+02  0.51100000000E-03 0. -1.
         11   -1    0    0    0    0 -0.00000000000E+00 -0.00000000000E+00 -0.45593999997E+02  0.45594000000E+02  0.51100000000E-03 0.  1.
    9900012    2    1    2    0    0  0.46856098978E+01 -0.52218469486E+01 -0.31104612058E+02  0.59301960469E+02  0.50000029985E+02 0.  0.
         12    1    1    2    0    0 -0.46856098978E+01  0.52218469486E+01  0.31104612058E+02  0.31886039531E+02  0.00000000000E+00 0. -1.
         11    1    3    3    0    0 -0.39003133045E+01  0.12623228048E+02 -0.26780834318E+01  0.13480744095E+02  0.51100000000E-03 0. -1.
        -11    1    3    3    0    0 -0.11592831010E+01 -0.14042840449E+02  0.14512340620E+01  0.14165146866E+02  0.51100000000E-03 0.  1.
        -12    1    3    3    0    0  0.97452063033E+01 -0.38022345478E+01 -0.29877762689E+02  0.31656069508E+02  0.00000000000E+00 0.  1.
</event>
<event>
 7    1  0.6246445E-012  0.5930194E+02  0.7816164E-02  0.1266605E+00
        -11   -1    0    0    0    0  0.00000000000E+00  0.00000000000E+00  0.45593999997E+02  0.45594000000E+02  0.51100000000E-03 0.  1.
         11   -1    0    0    0    0 -0.00000000000E+00 -0.00000000000E+00 -0.45593999997E+02  0.45594000000E+02  0.51100000000E-03 0. -1.
    9900012    2    1    2    0    0  0.25840277856E+01 -0.21084659676E+02  0.23779843571E+02  0.59301936689E+02  0.49999986615E+02 0.  0.
         12    1    1    2    0    0 -0.25840277856E+01  0.21084659676E+02 -0.23779843571E+02  0.31886063311E+02  0.00000000000E+00 0. -1.
         11    1    3    3    0    0 -0.19643827483E+01 -0.16827016594E+02  0.15592813389E+02  0.23024836952E+02  0.51100000000E-03 0.  1.
        -11    1    3    3    0    0  0.54131155487E+00 -0.19019870941E+02  0.21687682518E+00  0.19028808282E+02  0.51100000000E-03 0. -1.
        -12    1    3    3    0    0  0.40070989790E+01  0.14762227859E+02  0.79701533572E+01  0.17248291455E+02  0.00000000000E+00 0.  1.
</event>
<event>
 7    1  0.6246445E-012  0.5930198E+02  0.7816164E-02  0.1266605E+00
        -11   -1    0    0    0    0  0.00000000000E+00  0.00000000000E+00  0.45593999997E+02  0.45594000000E+02  0.51100000000E-03 0. -1.
         11   -1    0    0    0    0 -0.00000000000E+00 -0.00000000000E+00 -0.45593999997E+02  0.45594000000E+02  0.51100000000E-03 0.  1.
    9900012    2    1    2    0    0 -0.14569542433E+02 -0.17137214039E+02 -0.22600052890E+02  0.59301983279E+02  0.50000071585E+02 0.  0.
         12    1    1    2    0    0  0.14569542433E+02  0.17137214039E+02  0.22600052890E+02  0.31886016721E+02  0.00000000000E+00 0. -1.
         11    1    3    3    0    0 -0.14450177517E+02 -0.17096369598E+02 -0.63820857498E+01  0.23277124017E+02  0.51100000000E-03 0. -1.
        -11    1    3    3    0    0  0.12386736988E+02 -0.48992534277E+01  0.19262307280E+01  0.13458985936E+02  0.51100000000E-03 0.  1.
        -12    1    3    3    0    0 -0.12506101903E+02  0.48584089871E+01 -0.18144197868E+02  0.22565873326E+02  0.00000000000E+00 0.  1.
</event>
<event>
 7    1  0.6246445E-012  0.5930216E+02  0.7816164E-02  0.1266604E+00
        -11   -1    0    0    0    0  0.00000000000E+00  0.00000000000E+00  0.45593999997E+02  0.45594000000E+02  0.51100000000E-03 0.  1.
         11   -1    0    0    0    0 -0.00000000000E+00 -0.00000000000E+00 -0.45593999997E+02  0.45594000000E+02  0.51100000000E-03 0. -1.
    9900012    2    1    2    0    0  0.15431629306E+02 -0.21542479194E+02 -0.17733950364E+02  0.59302163201E+02  0.50000399718E+02 0.  0.
         12    1    1    2    0    0 -0.15431629306E+02  0.21542479194E+02  0.17733950364E+02  0.31885836799E+02  0.00000000000E+00 0. -1.
         11    1    3    3    0    0  0.28969313543E+02 -0.90442431656E+01 -0.13908025620E+02  0.33383418617E+02  0.51100000000E-03 0. -1.
        -11    1    3    3    0    0 -0.26468398124E+01 -0.74407473064E+01 -0.97351012941E+01  0.12535656303E+02  0.51100000000E-03 0.  1.
        -12    1    3    3    0    0 -0.10890844425E+02 -0.50574887219E+01  0.59091765505E+01  0.13383088282E+02  0.00000000000E+00 0.  1.
</event>
<event>
 7    1  0.6246445E-012  0.5930194E+02  0.7816164E-02  0.1266605E+00
        -11   -1    0    0    0    0  0.00000000000E+00  0.00000000000E+00  0.45593999997E+02  0.45594000000E+02  0.51100000000E-03 0.  1.
         11   -1    0    0    0    0 -0.00000000000E+00 -0.00000000000E+00 -0.45593999997E+02  0.45594000000E+02  0.51100000000E-03 0. -1.
    9900012    2    1    2    0    0  0.20301069533E+02  0.22123340778E+02  0.10730582774E+02  0.59301936617E+02  0.49999986485E+02 0.  0.
         12    1    1    2    0    0 -0.20301069533E+02 -0.22123340778E+02 -0.10730582774E+02  0.31886063383E+02  0.00000000000E+00 0. -1.
         11    1    3    3    0    0  0.14333801664E+02  0.48503675466E+00 -0.13404517400E+02  0.19630950507E+02  0.51100000000E-03 0. -1.
        -11    1    3    3    0    0  0.38224622710E+01 -0.77295029671E-01 -0.29932202127E+01  0.48555699807E+01  0.51100000000E-03 0.  1.
         12    1    3    3    0    0  0.21448055977E+01  0.21715599053E+02  0.27128320387E+02  0.34815416130E+02  0.00000000000E+00 0. -1.
</event>
<event>
 7    1  0.6246445E-012  0.5930195E+02  0.7816164E-02  0.1266605E+00
        -11   -1    0    0    0    0  0.00000000000E+00  0.00000000000E+00  0.45593999997E+02  0.45594000000E+02  0.51100000000E-03 0. -1.
         11   -1    0    0    0    0 -0.00000000000E+00 -0.00000000000E+00 -0.45593999997E+02  0.45594000000E+02  0.51100000000E-03 0.  1.
    9900012    2    1    2    0    0  0.25967888105E+02  0.63213729397E+01 -0.17390491728E+02  0.59301950213E+02  0.50000011280E+02 0.  0.
         12    1    1    2    0    0 -0.25967888105E+02 -0.63213729397E+01  0.17390491728E+02  0.31886049787E+02  0.00000000000E+00 0. -1.
         11    1    3    3    0    0  0.36293905672E+01 -0.11143527180E+02 -0.50427143215E+01  0.12758512527E+02  0.51100000000E-03 0. -1.
        -11    1    3    3    0    0  0.13918356250E+02  0.39967802420E+01 -0.23170322152E+02  0.27323226784E+02  0.51100000000E-03 0.  1.
        -12    1    3    3    0    0  0.84201412881E+01  0.13468119878E+02  0.10822544746E+02  0.19220210902E+02  0.00000000000E+00 0.  1.
</event>
<event>
 7    1  0.6246445E-012  0.5930190E+02  0.7816164E-02  0.1266605E+00
        -11   -1    0    0    0    0  0.00000000000E+00  0.00000000000E+00  0.45593999997E+02  0.45594000000E+02  0.51100000000E-03 0. -1.
         11   -1    0    0    0    0 -0.00000000000E+00 -0.00000000000E+00 -0.45593999997E+02  0.45594000000E+02  0.51100000000E-03 0.  1.
    9900012    2    1    2    0    0  0.21676913507E+02 -0.50375692184E+01 -0.22835449202E+02  0.59301899218E+02  0.49999918277E+02 0.  0.
         12    1    1    2    0    0 -0.21676913507E+02  0.50375692184E+01  0.22835449202E+02  0.31886100782E+02  0.00000000000E+00 0. -1.
         11    1    3    3    0    0 -0.68920262594E+01 -0.30347826524E+01 -0.31514816890E+01  0.81634409905E+01  0.51100000000E-03 0. -1.
        -11    1    3    3    0    0  0.15713175612E+02  0.17303018113E+02 -0.57123073028E+01  0.24060938856E+02  0.51100000000E-03 0.  1.
         12    1    3    3    0    0  0.12855764154E+02 -0.19305804679E+02 -0.13971660210E+02  0.27077519372E+02  0.00000000000E+00 0. -1.
</event>
<event>
 7    1  0.6246445E-012  0.5930195E+02  0.7816164E-02  0.1266605E+00
        -11   -1    0    0    0    0  0.00000000000E+00  0.00000000000E+00  0.45593999997E+02  0.45594000000E+02  0.51100000000E-03 0. -1.
         11   -1    0    0    0    0 -0.00000000000E+00 -0.00000000000E+00 -0.45593999997E+02  0.45594000000E+02  0.51100000000E-03 0.  1.
    9900012    2    1    2    0    0  0.23042673053E+01 -0.23424226054E+02 -0.21510833230E+02  0.59301953517E+02  0.50000017306E+02 0.  0.
         12    1    1    2    0    0 -0.23042673053E+01  0.23424226054E+02  0.21510833230E+02  0.31886046483E+02  0.00000000000E+00 0. -1.
         11    1    3    3    0    0 -0.52963917404E+00 -0.59347334647E+01  0.45744900158E+01  0.75118265500E+01  0.51100000000E-03 0. -1.
        -11    1    3    3    0    0 -0.17599501882E+02 -0.12692914459E+02 -0.54866988044E+01  0.22382055491E+02  0.51100000000E-03 0.  1.
        -12    1    3    3    0    0  0.20433408362E+02 -0.47965781305E+01 -0.20598624442E+02  0.29408071476E+02  0.00000000000E+00 0.  1.
</event>
<event>
 7    1  0.6246445E-012  0.5930197E+02  0.7816164E-02  0.1266605E+00
        -11   -1    0    0    0    0  0.00000000000E+00  0.00000000000E+00  0.45593999997E+02  0.45594000000E+02  0.51100000000E-03 0. -1.
         11   -1    0    0    0    0 -0.00000000000E+00 -0.00000000000E+00 -0.45593999997E+02  0.45594000000E+02  0.51100000000E-03 0.  1.
    9900012    2    1    2    0    0  0.51485585229E+01 -0.12712668234E+02 -0.28785401794E+02  0.59301969439E+02  0.50000046344E+02 0.  0.
         12    1    1    2    0    0 -0.51485585229E+01  0.12712668234E+02  0.28785401794E+02  0.31886030561E+02  0.00000000000E+00 0. -1.
         11    1    3    3    0    0 -0.77527917374E+01  0.81552232203E+01  0.32327417096E+01  0.11707436300E+02  0.51100000000E-03 0. -1.
        -11    1    3    3    0    0  0.15045095017E+02 -0.96282890234E+00 -0.11835970902E+02  0.19166954140E+02  0.51100000000E-03 0.  1.
        -12    1    3    3    0    0 -0.21437447567E+01 -0.19905062552E+02 -0.20182172602E+02  0.28427578999E+02  0.00000000000E+00 0.  1.
</event>
<event>
 7    1  0.6246445E-012  0.5930194E+02  0.7816164E-02  0.1266605E+00
        -11   -1    0    0    0    0  0.00000000000E+00  0.00000000000E+00  0.45593999997E+02  0.45594000000E+02  0.51100000000E-03 0.  1.
         11   -1    0    0    0    0 -0.00000000000E+00 -0.00000000000E+00 -0.45593999997E+02  0.45594000000E+02  0.51100000000E-03 0. -1.
    9900012    2    1    2    0    0  0.20801528755E+02 -0.22579444985E+02 -0.86131163180E+01  0.59301941807E+02  0.49999995950E+02 0.  0.
         12    1    1    2    0    0 -0.20801528755E+02  0.22579444985E+02  0.86131163180E+01  0.31886058193E+02  0.00000000000E+00 0. -1.
         11    1    3    3    0    0  0.16508168077E+02 -0.86632692470E+01  0.97920627971E+01  0.21058403106E+02  0.51100000000E-03 0. -1.
        -11    1    3    3    0    0 -0.43572521239E-01 -0.63966713110E+01  0.81183226234E+01  0.10335688894E+02  0.51100000000E-03 0.  1.
         12    1    3    3    0    0  0.43369331998E+01 -0.75195044267E+01 -0.26523501738E+02  0.27907849807E+02  0.00000000000E+00 0. -1.
</event>
<event>
 7    1  0.6246445E-012  0.5930192E+02  0.7816164E-02  0.1266605E+00
        -11   -1    0    0    0    0  0.00000000000E+00  0.00000000000E+00  0.45593999997E+02  0.45594000000E+02  0.51100000000E-03 0.  1.
         11   -1    0    0    0    0 -0.00000000000E+00 -0.00000000000E+00 -0.45593999997E+02  0.45594000000E+02  0.51100000000E-03 0. -1.
    9900012    2    1    2    0    0 -0.29326373881E+02  0.85649772208E+00 -0.12488088559E+02  0.59301919193E+02  0.49999954708E+02 0.  0.
         12    1    1    2    0    0  0.29326373881E+02 -0.85649772208E+00  0.12488088559E+02  0.31886080807E+02  0.00000000000E+00 0. -1.
         11    1    3    3    0    0 -0.49581961362E+01  0.87713015558E+01  0.15144219374E+02  0.18189744930E+02  0.51100000000E-03 0. -1.
        -11    1    3    3    0    0 -0.91882412344E+01 -0.35335827855E+01 -0.67673650584E+00  0.98675202986E+01  0.51100000000E-03 0.  1.
         12    1    3    3    0    0 -0.15179936510E+02 -0.43812210482E+01 -0.26955571428E+02  0.31244653964E+02  0.00000000000E+00 0. -1.
</event>
<event>
 7    1  0.6246445E-012  0.5930194E+02  0.7816164E-02  0.1266605E+00
        -11   -1    0    0    0    0  0.00000000000E+00  0.00000000000E+00  0.45593999997E+02  0.45594000000E+02  0.51100000000E-03 0.  1.
         11   -1    0    0    0    0 -0.00000000000E+00 -0.00000000000E+00 -0.45593999997E+02  0.45594000000E+02  0.51100000000E-03 0. -1.
    9900012    2    1    2    0    0 -0.28091470596E+02  0.59905472366E+01  0.13845703818E+02  0.59301938928E+02  0.49999990700E+02 0.  0.
         12    1    1    2    0    0  0.28091470596E+02 -0.59905472366E+01 -0.13845703818E+02  0.31886061072E+02  0.00000000000E+00 0. -1.
         11    1    3    3    0    0  0.47855011070E+01  0.96959068019E+01  0.27489845072E+01  0.11156547210E+02  0.51100000000E-03 0. -1.
        -11    1    3    3    0    0 -0.17016664730E+02  0.70473228909E+01 -0.88948912025E+01  0.20453623841E+02  0.51100000000E-03 0.  1.
         12    1    3    3    0    0 -0.15860306974E+02 -0.10752682456E+02  0.19991610513E+02  0.27691767878E+02  0.00000000000E+00 0. -1.
</event>
<event>
 7    1  0.6246445E-012  0.5930193E+02  0.7816164E-02  0.1266605E+00
        -11   -1    0    0    0    0  0.00000000000E+00  0.00000000000E+00  0.45593999997E+02  0.45594000000E+02  0.51100000000E-03 0.  1.
         11   -1    0    0    0    0 -0.00000000000E+00 -0.00000000000E+00 -0.45593999997E+02  0.45594000000E+02  0.51100000000E-03 0. -1.
    9900012    2    1    2    0    0 -0.21445640603E+02  0.23596629825E+02  0.68798476930E-01  0.59301934498E+02  0.49999982619E+02 0.  0.
         12    1    1    2    0    0  0.21445640603E+02 -0.23596629825E+02 -0.68798476930E-01  0.31886065502E+02  0.00000000000E+00 0. -1.
         11    1    3    3    0    0 -0.11171159564E+02 -0.18061209446E+01  0.65434648832E+01  0.13071871014E+02  0.51100000000E-03 0. -1.
        -11    1    3    3    0    0 -0.14747851542E+02  0.76536540018E+01  0.11788790689E+02  0.20372852791E+02  0.51100000000E-03 0.  1.
         12    1    3    3    0    0  0.44733705029E+01  0.17749096768E+02 -0.18263457095E+02  0.25857210692E+02  0.00000000000E+00 0. -1.
</event>
<event>
 7    1  0.6246445E-012  0.5930200E+02  0.7816164E-02  0.1266605E+00
        -11   -1    0    0    0    0  0.00000000000E+00  0.00000000000E+00  0.45593999997E+02  0.45594000000E+02  0.51100000000E-03 0.  1.
         11   -1    0    0    0    0 -0.00000000000E+00 -0.00000000000E+00 -0.45593999997E+02  0.45594000000E+02  0.51100000000E-03 0. -1.
    9900012    2    1    2    0    0 -0.59339905306E+01  0.23993914567E+02  0.20144399539E+02  0.59301999738E+02  0.50000101603E+02 0.  0.
         12    1    1    2    0    0  0.59339905306E+01 -0.23993914567E+02 -0.20144399539E+02  0.31886000262E+02  0.00000000000E+00 0. -1.
         11    1    3    3    0    0 -0.24796055704E+01 -0.32025135098E+01  0.11581432065E+02  0.12269234105E+02  0.51100000000E-03 0. -1.
        -11    1    3    3    0    0 -0.18276214100E+02  0.10543658420E+02  0.12307885747E+02  0.24426886549E+02  0.51100000000E-03 0.  1.
        -12    1    3    3    0    0  0.14821829140E+02  0.16652769658E+02 -0.37449182725E+01  0.22605879084E+02  0.00000000000E+00 0.  1.
</event>
<event>
 7    1  0.6246445E-012  0.5930196E+02  0.7816164E-02  0.1266605E+00
        -11   -1    0    0    0    0  0.00000000000E+00  0.00000000000E+00  0.45593999997E+02  0.45594000000E+02  0.51100000000E-03 0.  1.
         11   -1    0    0    0    0 -0.00000000000E+00 -0.00000000000E+00 -0.45593999997E+02  0.45594000000E+02  0.51100000000E-03 0. -1.
    9900012    2    1    2    0    0  0.23746447237E+02 -0.19794312008E+02  0.78109736471E+01  0.59301955191E+02  0.50000020359E+02 0.  0.
         12    1    1    2    0    0 -0.23746447237E+02  0.19794312008E+02 -0.78109736471E+01  0.31886044809E+02  0.00000000000E+00 0. -1.
         11    1    3    3    0    0 -0.10461705637E+01  0.73437841407E+01 -0.11197489510E+01  0.75019648312E+01  0.51100000000E-03 0. -1.
        -11    1    3    3    0    0 -0.30647478076E+01 -0.20181566323E+02 -0.31401276922E+01  0.20653055477E+02  0.51100000000E-03 0.  1.
        -12    1    3    3    0    0  0.27857365608E+02 -0.69565298264E+01  0.12070850290E+02  0.31146934883E+02  0.00000000000E+00 0.  1.
</event>
<event>
 7    1  0.6246445E-012  0.5930194E+02  0.7816164E-02  0.1266605E+00
        -11   -1    0    0    0    0  0.00000000000E+00  0.00000000000E+00  0.45593999997E+02  0.45594000000E+02  0.51100000000E-03 0.  1.
         11   -1    0    0    0    0 -0.00000000000E+00 -0.00000000000E+00 -0.45593999997E+02  0.45594000000E+02  0.51100000000E-03 0. -1.
    9900012    2    1    2    0    0 -0.66450077168E+01  0.12176591299E+02  0.28710543810E+02  0.59301939894E+02  0.49999992461E+02 0.  0.
         12    1    1    2    0    0  0.66450077168E+01 -0.12176591299E+02 -0.28710543810E+02  0.31886060106E+02  0.00000000000E+00 0. -1.
         11    1    3    3    0    0 -0.95984335239E+01  0.40345281912E+01  0.11766873352E+02  0.15711990727E+02  0.51100000000E-03 0. -1.
        -11    1    3    3    0    0 -0.15580834546E+02 -0.14309005407E+01  0.16479793534E+02  0.22724292656E+02  0.51100000000E-03 0.  1.
         12    1    3    3    0    0  0.18534260353E+02  0.95729636487E+01  0.46387692291E+00  0.20865656512E+02  0.00000000000E+00 0. -1.
</event>
<event>
 7    1  0.6246445E-012  0.5930187E+02  0.7816164E-02  0.1266605E+00
        -11   -1    0    0    0    0  0.00000000000E+00  0.00000000000E+00  0.45593999997E+02  0.45594000000E+02  0.51100000000E-03 0. -1.
         11   -1    0    0    0    0 -0.00000000000E+00 -0.00000000000E+00 -0.45593999997E+02  0.45594000000E+02  0.51100000000E-03 0.  1.
    9900012    2    1    2    0    0 -0.15952186951E+02 -0.14641179093E+02 -0.23407028952E+02  0.59301868248E+02  0.49999861796E+02 0.  0.
         12    1    1    2    0    0  0.15952186951E+02  0.14641179093E+02  0.23407028952E+02  0.31886131752E+02  0.00000000000E+00 0. -1.
         11    1    3    3    0    0  0.92955022139E+00 -0.35543508676E+01 -0.18950449550E+01  0.41338443786E+01  0.51100000000E-03 0. -1.
        -11    1    3    3    0    0 -0.64333220551E+01 -0.27442370533E+02 -0.29975330263E+01  0.28345308918E+02  0.51100000000E-03 0.  1.
         12    1    3    3    0    0 -0.10448415117E+02  0.16355542308E+02 -0.18514450971E+02  0.26822714952E+02  0.00000000000E+00 0. -1.
</event>
<event>
 7    1  0.6246445E-012  0.5930190E+02  0.7816164E-02  0.1266605E+00
        -11   -1    0    0    0    0  0.00000000000E+00  0.00000000000E+00  0.45593999997E+02  0.45594000000E+02  0.51100000000E-03 0.  1.
         11   -1    0    0    0    0 -0.00000000000E+00 -0.00000000000E+00 -0.45593999997E+02  0.45594000000E+02  0.51100000000E-03 0. -1.
    9900012    2    1    2    0    0  0.15880413639E+02 -0.58322174429E+01  0.27028155467E+02  0.59301898238E+02  0.49999916490E+02 0.  0.
         12    1    1    2    0    0 -0.15880413639E+02  0.58322174429E+01 -0.27028155467E+02  0.31886101762E+02  0.00000000000E+00 0. -1.
         11    1    3    3    0    0 -0.58623500584E+01  0.14586376096E+02  0.25249687774E+00  0.15722381205E+02  0.51100000000E-03 0. -1.
        -11    1    3    3    0    0  0.11731915068E+02 -0.16624770428E+01  0.42069596388E+01  0.12573789037E+02  0.51100000000E-03 0.  1.
        -12    1    3    3    0    0  0.10010848629E+02 -0.18756116496E+02  0.22568698950E+02  0.31005727996E+02  0.00000000000E+00 0.  1.
</event>
<event>
 7    1  0.6246445E-012  0.5930194E+02  0.7816164E-02  0.1266605E+00
        -11   -1    0    0    0    0  0.00000000000E+00  0.00000000000E+00  0.45593999997E+02  0.45594000000E+02  0.51100000000E-03 0.  1.
         11   -1    0    0    0    0 -0.00000000000E+00 -0.00000000000E+00 -0.45593999997E+02  0.45594000000E+02  0.51100000000E-03 0. -1.
    9900012    2    1    2    0    0 -0.12784524527E+02 -0.17858759646E+02  0.23115824784E+02  0.59301941622E+02  0.49999995612E+02 0.  0.
         12    1    1    2    0    0  0.12784524527E+02  0.17858759646E+02 -0.23115824784E+02  0.31886058378E+02  0.00000000000E+00 0. -1.
         11    1    3    3    0    0  0.12411192537E+02  0.36368085654E+01 -0.32832039645E+00  0.12937228114E+02  0.51100000000E-03 0. -1.
        -11    1    3    3    0    0 -0.49639336855E+01 -0.19106328306E+01  0.16537294323E+02  0.17371622239E+02  0.51100000000E-03 0.  1.
        -12    1    3    3    0    0 -0.20231783378E+02 -0.19584935380E+02  0.69068508580E+01  0.28993091268E+02  0.00000000000E+00 0.  1.
</event>
<event>
 7    1  0.6246445E-012  0.5930194E+02  0.7816164E-02  0.1266605E+00
        -11   -1    0    0    0    0  0.00000000000E+00  0.00000000000E+00  0.45593999997E+02  0.45594000000E+02  0.51100000000E-03 0.  1.
         11   -1    0    0    0    0 -0.00000000000E+00 -0.00000000000E+00 -0.45593999997E+02  0.45594000000E+02  0.51100000000E-03 0. -1.
    9900012    2    1    2    0    0 -0.25679118244E+02  0.18680614684E+02 -0.28876554033E+01  0.59301936704E+02  0.49999986644E+02 0.  0.
         12    1    1    2    0    0  0.25679118244E+02 -0.18680614684E+02  0.28876554033E+01  0.31886063296E+02  0.00000000000E+00 0. -1.
         11    1    3    3    0    0  0.66973083248E+01  0.94530263250E+01  0.92662767158E+01  0.14835010277E+02  0.51100000000E-03 0. -1.
        -11    1    3    3    0    0 -0.21031567559E+01  0.12176217380E+02 -0.36225455882E+01  0.12876582421E+02  0.51100000000E-03 0.  1.
        -12    1    3    3    0    0 -0.30273269813E+02 -0.29486290217E+01 -0.85313865309E+01  0.31590344006E+02  0.00000000000E+00 0.  1.
</event>
<event>
 7    1  0.6246445E-012  0.5930196E+02  0.7816164E-02  0.1266605E+00
        -11   -1    0    0    0    0  0.00000000000E+00  0.00000000000E+00  0.45593999997E+02  0.45594000000E+02  0.51100000000E-03 0.  1.
         11   -1    0    0    0    0 -0.00000000000E+00 -0.00000000000E+00 -0.45593999997E+02  0.45594000000E+02  0.51100000000E-03 0. -1.
    9900012    2    1    2    0    0 -0.24310202437E+02 -0.14117294229E+02  0.15047786961E+02  0.59301955540E+02  0.50000020996E+02 0.  0.
         12    1    1    2    0    0  0.24310202437E+02  0.14117294229E+02 -0.15047786961E+02  0.31886044460E+02  0.00000000000E+00 0. -1.
         11    1    3    3    0    0  0.35705992305E+00  0.13988938921E+01 -0.33934165915E+01  0.36877733572E+01  0.51100000000E-03 0. -1.
        -11    1    3    3    0    0 -0.65120877337E+01  0.77750479477E+01 -0.10264890782E+02  0.14430060300E+02  0.51100000000E-03 0.  1.
        -12    1    3    3    0    0 -0.18155174627E+02 -0.23291236068E+02  0.28706094334E+02  0.41184121883E+02  0.00000000000E+00 0.  1.
</event>
<event>
 7    1  0.6246445E-012  0.5930192E+02  0.7816164E-02  0.1266605E+00
        -11   -1    0    0    0    0  0.00000000000E+00  0.00000000000E+00  0.45593999997E+02  0.45594000000E+02  0.51100000000E-03 0.  1.
         11   -1    0    0    0    0 -0.00000000000E+00 -0.00000000000E+00 -0.45593999997E+02  0.45594000000E+02  0.51100000000E-03 0. -1.
    9900012    2    1    2    0    0 -0.17599098050E+02 -0.24370624209E+02 -0.10633271835E+02  0.59301920805E+02  0.49999957648E+02 0.  0.
         12    1    1    2    0    0  0.17599098050E+02  0.24370624209E+02  0.10633271835E+02  0.31886079195E+02  0.00000000000E+00 0. -1.
         11    1    3    3    0    0 -0.66515559607E+01  0.93497869729E+01 -0.14433107582E+02  0.18438446460E+02  0.51100000000E-03 0. -1.
        -11    1    3    3    0    0  0.56232784191E+01 -0.10919912654E+02 -0.78116450913E+00  0.12307557467E+02  0.51100000000E-03 0.  1.
        -12    1    3    3    0    0 -0.16570820508E+02 -0.22800498528E+02  0.45810002561E+01  0.28555916879E+02  0.00000000000E+00 0.  1.
</event>
<event>
 7    1  0.6246445E-012  0.5930194E+02  0.7816164E-02  0.1266605E+00
        -11   -1    0    0    0    0  0.00000000000E+00  0.00000000000E+00  0.45593999997E+02  0.45594000000E+02  0.51100000000E-03 0.  1.
         11   -1    0    0    0    0 -0.00000000000E+00 -0.00000000000E+00 -0.45593999997E+02  0.45594000000E+02  0.51100000000E-03 0. -1.
    9900012    2    1    2    0    0  0.27262896535E+02 -0.13657467586E+02  0.93235536155E+01  0.59301943481E+02  0.49999999003E+02 0.  0.
         12    1    1    2    0    0 -0.27262896535E+02  0.13657467586E+02 -0.93235536155E+01  0.31886056519E+02  0.00000000000E+00 0. -1.
         11    1    3    3    0    0  0.25006453273E+01 -0.81671070267E+01 -0.79035047354E+01  0.11637020736E+02  0.51100000000E-03 0. -1.
        -11    1    3    3    0    0  0.18268920132E+02 -0.18937632759E+02  0.20811338764E+01  0.26395425660E+02  0.51100000000E-03 0.  1.
        -12    1    3    3    0    0  0.64933310753E+01  0.13447272200E+02  0.15145924475E+02  0.21269497085E+02  0.00000000000E+00 0.  1.
</event>
<event>
 7    1  0.6246445E-012  0.5930195E+02  0.7816164E-02  0.1266605E+00
        -11   -1    0    0    0    0  0.00000000000E+00  0.00000000000E+00  0.45593999997E+02  0.45594000000E+02  0.51100000000E-03 0.  1.
         11   -1    0    0    0    0 -0.00000000000E+00 -0.00000000000E+00 -0.45593999997E+02  0.45594000000E+02  0.51100000000E-03 0. -1.
    9900012    2    1    2    0    0  0.18545569378E+02  0.18706321352E+02  0.17968183260E+02  0.59301949575E+02  0.50000010117E+02 0.  0.
         12    1    1    2    0    0 -0.18545569378E+02 -0.18706321352E+02 -0.17968183260E+02  0.31886050425E+02  0.00000000000E+00 0. -1.
         11    1    3    3    0    0 -0.92045607576E+01 -0.88012485493E+01 -0.13746602808E+01  0.12809200050E+02  0.51100000000E-03 0. -1.
        -11    1    3    3    0    0 -0.21605385555E+01  0.22352366468E+01  0.11450157459E+01  0.33128946612E+01  0.51100000000E-03 0.  1.
        -12    1    3    3    0    0  0.29910668691E+02  0.25272333254E+02  0.18197827795E+02  0.43179854864E+02  0.00000000000E+00 0.  1.
</event>
<event>
 7    1  0.6246445E-012  0.5930193E+02  0.7816164E-02  0.1266605E+00
        -11   -1    0    0    0    0  0.00000000000E+00  0.00000000000E+00  0.45593999997E+02  0.45594000000E+02  0.51100000000E-03 0.  1.
         11   -1    0    0    0    0 -0.00000000000E+00 -0.00000000000E+00 -0.45593999997E+02  0.45594000000E+02  0.51100000000E-03 0. -1.
    9900012    2    1    2    0    0  0.25624830831E+01  0.25580345760E+02  0.18862692648E+02  0.59301928077E+02  0.49999970909E+02 0.  0.
         12    1    1    2    0    0 -0.25624830831E+01 -0.25580345760E+02 -0.18862692648E+02  0.31886071923E+02  0.00000000000E+00 0. -1.
         11    1    3    3    0    0  0.64319571520E+01 -0.11619993529E+02  0.66367541983E+01  0.14847249879E+02  0.51100000000E-03 0. -1.
        -11    1    3    3    0    0  0.12693527378E+01 -0.11456823587E+00  0.61743968639E+01  0.63045665313E+01  0.51100000000E-03 0.  1.
         12    1    3    3    0    0 -0.51388268067E+01  0.37314907525E+02  0.60515415857E+01  0.38150111666E+02  0.00000000000E+00 0. -1.
</event>
<event>
 7    1  0.6804689E-012  0.5930196E+02  0.7816164E-02  0.1266605E+00
        -11   -1    0    0    0    0  0.00000000000E+00  0.00000000000E+00  0.45593999997E+02  0.45594000000E+02  0.51100000000E-03 0. -1.
         11   -1    0    0    0    0 -0.00000000000E+00 -0.00000000000E+00 -0.45593999997E+02  0.45594000000E+02  0.51100000000E-03 0.  1.
    9900012    2    1    2    0    0  0.25823083537E+02  0.29367253515E+01 -0.18473325432E+02  0.59301956789E+02  0.50000023274E+02 0.  0.
         12    1    1    2    0    0 -0.25823083537E+02 -0.29367253515E+01  0.18473325432E+02  0.31886043211E+02  0.00000000000E+00 0. -1.
         11    1    3    3    0    0  0.12218904875E+02  0.34693051309E+01  0.11592401971E+01  0.12754667873E+02  0.51100000000E-03 0. -1.
        -11    1    3    3    0    0  0.19720179615E+02  0.15316897615E+02 -0.14125774323E+02  0.28688505312E+02  0.51100000000E-03 0.  1.
         12    1    3    3    0    0 -0.61160009529E+01 -0.15849477394E+02 -0.55067913062E+01  0.17858783604E+02  0.00000000000E+00 0. -1.
</event>
<event>
 7    1  0.6246445E-012  0.5930195E+02  0.7816164E-02  0.1266605E+00
        -11   -1    0    0    0    0  0.00000000000E+00  0.00000000000E+00  0.45593999997E+02  0.45594000000E+02  0.51100000000E-03 0.  1.
         11   -1    0    0    0    0 -0.00000000000E+00 -0.00000000000E+00 -0.45593999997E+02  0.45594000000E+02  0.51100000000E-03 0. -1.
    9900012    2    1    2    0    0  0.25524498707E+02 -0.15225130034E+02  0.11550566247E+02  0.59301949768E+02  0.50000010468E+02 0.  0.
         12    1    1    2    0    0 -0.25524498707E+02  0.15225130034E+02 -0.11550566247E+02  0.31886050232E+02  0.00000000000E+00 0. -1.
         11    1    3    3    0    0  0.55714980095E+01 -0.13379248737E+02 -0.11758591107E+02  0.18663074557E+02  0.51100000000E-03 0.  1.
        -11    1    3    3    0    0  0.91369524993E+01 -0.49941383794E+01 -0.39554817488E+01  0.11138723233E+02  0.51100000000E-03 0. -1.
        -12    1    3    3    0    0  0.10816048198E+02  0.31482570825E+01  0.27264639103E+02  0.29500151977E+02  0.00000000000E+00 0.  1.
</event>
<event>
 7    1  0.6246445E-012  0.5930195E+02  0.7816164E-02  0.1266605E+00
        -11   -1    0    0    0    0  0.00000000000E+00  0.00000000000E+00  0.45593999997E+02  0.45594000000E+02  0.51100000000E-03 0. -1.
         11   -1    0    0    0    0 -0.00000000000E+00 -0.00000000000E+00 -0.45593999997E+02  0.45594000000E+02  0.51100000000E-03 0.  1.
    9900012    2    1    2    0    0  0.24484042797E+02 -0.11611969583E+02 -0.16805186523E+02  0.59301945315E+02  0.50000002347E+02 0.  0.
         12    1    1    2    0    0 -0.24484042797E+02  0.11611969583E+02  0.16805186523E+02  0.31886054685E+02  0.00000000000E+00 0. -1.
         11    1    3    3    0    0 -0.19534957903E-01  0.96416054890E+01 -0.41728772784E+01  0.10505895633E+02  0.51100000000E-03 0. -1.
        -11    1    3    3    0    0 -0.41490074901E+01 -0.13785456970E+02  0.38575849831E+01  0.14904162143E+02  0.51100000000E-03 0.  1.
        -12    1    3    3    0    0  0.28652585245E+02 -0.74681181022E+01 -0.16489894228E+02  0.33891887538E+02  0.00000000000E+00 0.  1.
</event>
<event>
 7    1  0.6246445E-012  0.5930193E+02  0.7816164E-02  0.1266605E+00
        -11   -1    0    0    0    0  0.00000000000E+00  0.00000000000E+00  0.45593999997E+02  0.45594000000E+02  0.51100000000E-03 0. -1.
         11   -1    0    0    0    0 -0.00000000000E+00 -0.00000000000E+00 -0.45593999997E+02  0.45594000000E+02  0.51100000000E-03 0.  1.
    9900012    2    1    2    0    0 -0.12156646185E+02  0.13063195404E+02 -0.26425184329E+02  0.59301929570E+02  0.49999973632E+02 0.  0.
         12    1    1    2    0    0  0.12156646185E+02 -0.13063195404E+02  0.26425184329E+02  0.31886070430E+02  0.00000000000E+00 0. -1.
         11    1    3    3    0    0  0.13785339277E+02  0.98364821582E+01 -0.10967929867E+02  0.20176408156E+02  0.51100000000E-03 0. -1.
        -11    1    3    3    0    0  0.27298091443E+01  0.59728783851E+01 -0.29096091996E+00  0.65735677288E+01  0.51100000000E-03 0.  1.
        -12    1    3    3    0    0 -0.28671794607E+02 -0.27461651390E+01 -0.15166293542E+02  0.32551953685E+02  0.00000000000E+00 0.  1.
</event>
<event>
 7    1  0.6246445E-012  0.5930190E+02  0.7816164E-02  0.1266605E+00
        -11   -1    0    0    0    0  0.00000000000E+00  0.00000000000E+00  0.45593999997E+02  0.45594000000E+02  0.51100000000E-03 0. -1.
         11   -1    0    0    0    0 -0.00000000000E+00 -0.00000000000E+00 -0.45593999997E+02  0.45594000000E+02  0.51100000000E-03 0.  1.
    9900012    2    1    2    0    0 -0.29752108842E+02  0.38242760533E+00  0.11462523642E+02  0.59301895195E+02  0.49999910940E+02 0.  0.
         12    1    1    2    0    0  0.29752108842E+02 -0.38242760533E+00 -0.11462523642E+02  0.31886104805E+02  0.00000000000E+00 0. -1.
         11    1    3    3    0    0  0.60158611761E+01  0.43060665627E+01  0.69813537098E+01  0.10172123417E+02  0.51100000000E-03 0. -1.
        -11    1    3    3    0    0  0.32819169479E+01 -0.45803068313E+01 -0.64586319141E+01  0.85711210459E+01  0.51100000000E-03 0.  1.
         12    1    3    3    0    0 -0.39049886966E+02  0.65666787391E+00  0.10939801846E+02  0.40558650732E+02  0.00000000000E+00 0. -1.
</event>
<event>
 7    1  0.6246445E-012  0.5930193E+02  0.7816164E-02  0.1266605E+00
        -11   -1    0    0    0    0  0.00000000000E+00  0.00000000000E+00  0.45593999997E+02  0.45594000000E+02  0.51100000000E-03 0.  1.
         11   -1    0    0    0    0 -0.00000000000E+00 -0.00000000000E+00 -0.45593999997E+02  0.45594000000E+02  0.51100000000E-03 0. -1.
    9900012    2    1    2    0    0 -0.14940392623E+02 -0.10127404296E+02  0.26285766644E+02  0.59301934429E+02  0.49999982495E+02 0.  0.
         12    1    1    2    0    0  0.14940392623E+02  0.10127404296E+02 -0.26285766644E+02  0.31886065571E+02  0.00000000000E+00 0. -1.
         11    1    3    3    0    0 -0.15642265700E+02  0.60073845934E+01  0.43625537830E+01  0.17314763113E+02  0.51100000000E-03 0. -1.
        -11    1    3    3    0    0 -0.88395288595E+01  0.66213008413E+01  0.54292941430E+01  0.12306751417E+02  0.51100000000E-03 0.  1.
         12    1    3    3    0    0  0.95414019361E+01 -0.22756089731E+02  0.16493918718E+02  0.29680419900E+02  0.00000000000E+00 0. -1.
</event>
<event>
 7    1  0.6246445E-012  0.5930195E+02  0.7816164E-02  0.1266605E+00
        -11   -1    0    0    0    0  0.00000000000E+00  0.00000000000E+00  0.45593999997E+02  0.45594000000E+02  0.51100000000E-03 0. -1.
         11   -1    0    0    0    0 -0.00000000000E+00 -0.00000000000E+00 -0.45593999997E+02  0.45594000000E+02  0.51100000000E-03 0.  1.
    9900012    2    1    2    0    0 -0.19054585707E+01  0.59001451163E+01 -0.31277427438E+02  0.59301953649E+02  0.50000017547E+02 0.  0.
         12    1    1    2    0    0  0.19054585707E+01 -0.59001451163E+01  0.31277427438E+02  0.31886046351E+02  0.00000000000E+00 0. -1.
         11    1    3    3    0    0  0.59397573126E+01  0.15867021623E+02 -0.13236853368E+01  0.16993976440E+02  0.51100000000E-03 0. -1.
        -11    1    3    3    0    0  0.10363673930E+01 -0.58431955965E+01  0.38769886310E+01  0.70885847147E+01  0.51100000000E-03 0.  1.
        -12    1    3    3    0    0 -0.88815832763E+01 -0.41236809103E+01 -0.33830730732E+02  0.35219392494E+02  0.00000000000E+00 0.  1.
</event>
<event>
 7    1  0.6246445E-012  0.5930193E+02  0.7816164E-02  0.1266605E+00
        -11   -1    0    0    0    0  0.00000000000E+00  0.00000000000E+00  0.45593999997E+02  0.45594000000E+02  0.51100000000E-03 0. -1.
         11   -1    0    0    0    0 -0.00000000000E+00 -0.00000000000E+00 -0.45593999997E+02  0.45594000000E+02  0.51100000000E-03 0.  1.
    9900012    2    1    2    0    0 -0.13219579839E+02  0.24868640064E+02 -0.14950414147E+02  0.59301930425E+02  0.49999975192E+02 0.  0.
         12    1    1    2    0    0  0.13219579839E+02 -0.24868640064E+02  0.14950414147E+02  0.31886069575E+02  0.00000000000E+00 0. -1.
         11    1    3    3    0    0 -0.10259873177E+01  0.45107020982E-01  0.90687274892E+01  0.91266917968E+01  0.51100000000E-03 0. -1.
        -11    1    3    3    0    0 -0.10378238908E+02  0.25901554141E+01  0.63911363120E+01  0.12460472363E+02  0.51100000000E-03 0.  1.
        -12    1    3    3    0    0 -0.18153536138E+01  0.22233377629E+02 -0.30410277948E+02  0.37714766265E+02  0.00000000000E+00 0.  1.
</event>
<event>
 7    1  0.6246445E-012  0.5930196E+02  0.7816164E-02  0.1266605E+00
        -11   -1    0    0    0    0  0.00000000000E+00  0.00000000000E+00  0.45593999997E+02  0.45594000000E+02  0.51100000000E-03 0. -1.
         11   -1    0    0    0    0 -0.00000000000E+00 -0.00000000000E+00 -0.45593999997E+02  0.45594000000E+02  0.51100000000E-03 0.  1.
    9900012    2    1    2    0    0  0.28179979140E+02 -0.31393797892E+01 -0.14586045175E+02  0.59301958483E+02  0.50000026362E+02 0.  0.
         12    1    1    2    0    0 -0.28179979140E+02  0.31393797892E+01  0.14586045175E+02  0.31886041517E+02  0.00000000000E+00 0. -1.
         11    1    3    3    0    0 -0.98305204785E+01  0.45684591476E+01 -0.11962238105E+02  0.16143267718E+02  0.51100000000E-03 0. -1.
        -11    1    3    3    0    0  0.10352556080E+02  0.19852131444E+01 -0.81632512721E+01  0.13332485148E+02  0.51100000000E-03 0.  1.
         12    1    3    3    0    0  0.27657943539E+02 -0.96930520813E+01  0.55394442027E+01  0.29826205617E+02  0.00000000000E+00 0. -1.
</event>
<event>
 7    1  0.6246445E-012  0.5930193E+02  0.7816164E-02  0.1266605E+00
        -11   -1    0    0    0    0  0.00000000000E+00  0.00000000000E+00  0.45593999997E+02  0.45594000000E+02  0.51100000000E-03 0.  1.
         11   -1    0    0    0    0 -0.00000000000E+00 -0.00000000000E+00 -0.45593999997E+02  0.45594000000E+02  0.51100000000E-03 0. -1.
    9900012    2    1    2    0    0  0.21039891776E+02  0.16913854523E+02 -0.16969553405E+02  0.59301933081E+02  0.49999980036E+02 0.  0.
         12    1    1    2    0    0 -0.21039891776E+02 -0.16913854523E+02  0.16969553405E+02  0.31886066919E+02  0.00000000000E+00 0. -1.
         11    1    3    3    0    0  0.53662684566E+01  0.14247151668E+02 -0.36283116268E+01  0.15650648974E+02  0.51100000000E-03 0. -1.
        -11    1    3    3    0    0  0.12984703519E+02  0.13476127897E+02  0.73875431911E+01  0.20119253049E+02  0.51100000000E-03 0.  1.
         12    1    3    3    0    0  0.26889198000E+01 -0.10809425041E+02 -0.20728784970E+02  0.23532031058E+02  0.00000000000E+00 0. -1.
</event>
<event>
 7    1  0.6246445E-012  0.5930191E+02  0.7816164E-02  0.1266605E+00
        -11   -1    0    0    0    0  0.00000000000E+00  0.00000000000E+00  0.45593999997E+02  0.45594000000E+02  0.51100000000E-03 0. -1.
         11   -1    0    0    0    0 -0.00000000000E+00 -0.00000000000E+00 -0.45593999997E+02  0.45594000000E+02  0.51100000000E-03 0.  1.
    9900012    2    1    2    0    0 -0.10100187487E+01  0.10229936771E+02 -0.30183624166E+02  0.59301907232E+02  0.49999932893E+02 0.  0.
         12    1    1    2    0    0  0.10100187487E+01 -0.10229936771E+02  0.30183624166E+02  0.31886092768E+02  0.00000000000E+00 0. -1.
         11    1    3    3    0    0 -0.15002209264E+01  0.17355987546E+02 -0.17203704247E+02  0.24483635486E+02  0.51100000000E-03 0. -1.
        -11    1    3    3    0    0 -0.15167797243E+02 -0.16018436827E+00 -0.62974704479E+01  0.16423941870E+02  0.51100000000E-03 0.  1.
         12    1    3    3    0    0  0.15657999421E+02 -0.69658664072E+01 -0.66824494717E+01  0.18394329876E+02  0.00000000000E+00 0. -1.
</event>
<event>
 7    1  0.6359280E-012  0.5930191E+02  0.7816164E-02  0.1266605E+00
        -11   -1    0    0    0    0  0.00000000000E+00  0.00000000000E+00  0.45593999997E+02  0.45594000000E+02  0.51100000000E-03 0.  1.
         11   -1    0    0    0    0 -0.00000000000E+00 -0.00000000000E+00 -0.45593999997E+02  0.45594000000E+02  0.51100000000E-03 0. -1.
    9900012    2    1    2    0    0  0.31766152702E+02  0.27580431062E+01  0.16645100317E+00  0.59301906398E+02  0.49999931373E+02 0.  0.
         12    1    1    2    0    0 -0.31766152702E+02 -0.27580431062E+01 -0.16645100317E+00  0.31886093602E+02  0.00000000000E+00 0. -1.
         11    1    3    3    0    0  0.50698027616E+01  0.99698031068E+01  0.21661065896E+01  0.11392624458E+02  0.51100000000E-03 0. -1.
        -11    1    3    3    0    0  0.28277323104E+02  0.68612868843E+01 -0.11024715172E+02  0.31116371969E+02  0.51100000000E-03 0.  1.
         12    1    3    3    0    0 -0.15809731642E+01 -0.14073046885E+02  0.90250595852E+01  0.16792909971E+02  0.00000000000E+00 0. -1.
</event>
<event>
 7    1  0.6246445E-012  0.5930195E+02  0.7816164E-02  0.1266605E+00
        -11   -1    0    0    0    0  0.00000000000E+00  0.00000000000E+00  0.45593999997E+02  0.45594000000E+02  0.51100000000E-03 0. -1.
         11   -1    0    0    0    0 -0.00000000000E+00 -0.00000000000E+00 -0.45593999997E+02  0.45594000000E+02  0.51100000000E-03 0.  1.
    9900012    2    1    2    0    0 -0.41634349442E+01 -0.29453957440E+02  0.11482618494E+02  0.59301947769E+02  0.50000006823E+02 0.  0.
         12    1    1    2    0    0  0.41634349442E+01  0.29453957440E+02 -0.11482618494E+02  0.31886052231E+02  0.00000000000E+00 0. -1.
         11    1    3    3    0    0  0.66965676277E+01 -0.17130706507E+02  0.12317724268E+02  0.22136654102E+02  0.51100000000E-03 0. -1.
        -11    1    3    3    0    0 -0.89022405974E+01 -0.15261181511E+02  0.13605488773E+02  0.22299391781E+02  0.51100000000E-03 0.  1.
         12    1    3    3    0    0 -0.19577619744E+01  0.29379305785E+01 -0.14440594547E+02  0.14865901886E+02  0.00000000000E+00 0. -1.
</event>
<event>
 7    1  0.6246445E-012  0.5930193E+02  0.7816164E-02  0.1266605E+00
        -11   -1    0    0    0    0  0.00000000000E+00  0.00000000000E+00  0.45593999997E+02  0.45594000000E+02  0.51100000000E-03 0.  1.
         11   -1    0    0    0    0 -0.00000000000E+00 -0.00000000000E+00 -0.45593999997E+02  0.45594000000E+02  0.51100000000E-03 0. -1.
    9900012    2    1    2    0    0  0.17865546782E+02 -0.42684141768E+01  0.26063850964E+02  0.59301930182E+02  0.49999974748E+02 0.  0.
         12    1    1    2    0    0 -0.17865546782E+02  0.42684141768E+01 -0.26063850964E+02  0.31886069818E+02  0.00000000000E+00 0. -1.
         11    1    3    3    0    0  0.14241300671E+02 -0.24610077320E+02  0.10420378179E+02  0.30282913204E+02  0.51100000000E-03 0.  1.
        -11    1    3    3    0    0  0.63286384125E+01  0.86040575115E+01  0.20842005002E+01  0.10882341743E+02  0.51100000000E-03 0. -1.
        -12    1    3    3    0    0 -0.27043923015E+01  0.11737605632E+02  0.13559272285E+02  0.18136675235E+02  0.00000000000E+00 0.  1.
</event>
<event>
 7    1  0.6246445E-012  0.5930194E+02  0.7816164E-02  0.1266605E+00
        -11   -1    0    0    0    0  0.00000000000E+00  0.00000000000E+00  0.45593999997E+02  0.45594000000E+02  0.51100000000E-03 0.  1.
         11   -1    0    0    0    0 -0.00000000000E+00 -0.00000000000E+00 -0.45593999997E+02  0.45594000000E+02  0.51100000000E-03 0. -1.
    9900012    2    1    2    0    0  0.27543211918E+02  0.41546018643E+01  0.15518745390E+02  0.59301941951E+02  0.49999996213E+02 0.  0.
         12    1    1    2    0    0 -0.27543211918E+02 -0.41546018643E+01 -0.15518745390E+02  0.31886058049E+02  0.00000000000E+00 0. -1.
         11    1    3    3    0    0 -0.70597459990E+00  0.69380995269E+00  0.17789831258E+01  0.20358176758E+01  0.51100000000E-03 0. -1.
        -11    1    3    3    0    0 -0.52881707522E+01  0.90240993827E+01 -0.11032328961E+02  0.15202348573E+02  0.51100000000E-03 0.  1.
         12    1    3    3    0    0  0.33537357270E+02 -0.55633074710E+01  0.24772091225E+02  0.42063775702E+02  0.00000000000E+00 0. -1.
</event>
<event>
 7    1  0.6246445E-012  0.5930198E+02  0.7816164E-02  0.1266605E+00
        -11   -1    0    0    0    0  0.00000000000E+00  0.00000000000E+00  0.45593999997E+02  0.45594000000E+02  0.51100000000E-03 0. -1.
         11   -1    0    0    0    0 -0.00000000000E+00 -0.00000000000E+00 -0.45593999997E+02  0.45594000000E+02  0.51100000000E-03 0.  1.
    9900012    2    1    2    0    0 -0.16295423899E+02  0.97744822341E+01 -0.25605403214E+02  0.59301983994E+02  0.50000072888E+02 0.  0.
         12    1    1    2    0    0  0.16295423899E+02 -0.97744822341E+01  0.25605403214E+02  0.31886016006E+02  0.00000000000E+00 0. -1.
         11    1    3    3    0    0 -0.17725484847E+01  0.17980064630E+01 -0.10730151551E+02  0.11023198625E+02  0.51100000000E-03 0. -1.
        -11    1    3    3    0    0 -0.17005756321E+02  0.55078700763E+01 -0.28813250836E+02  0.33907754347E+02  0.51100000000E-03 0.  1.
         12    1    3    3    0    0  0.24828809072E+01  0.24686056948E+01  0.13937999173E+02  0.14371031021E+02  0.00000000000E+00 0. -1.
</event>
<event>
 7    1  0.6246445E-012  0.5930195E+02  0.7816164E-02  0.1266605E+00
        -11   -1    0    0    0    0  0.00000000000E+00  0.00000000000E+00  0.45593999997E+02  0.45594000000E+02  0.51100000000E-03 0. -1.
         11   -1    0    0    0    0 -0.00000000000E+00 -0.00000000000E+00 -0.45593999997E+02  0.45594000000E+02  0.51100000000E-03 0.  1.
    9900012    2    1    2    0    0 -0.21686207813E+01 -0.30049894353E+02  0.10441310727E+02  0.59301952323E+02  0.50000015129E+02 0.  0.
         12    1    1    2    0    0  0.21686207813E+01  0.30049894353E+02 -0.10441310727E+02  0.31886047677E+02  0.00000000000E+00 0. -1.
         11    1    3    3    0    0 -0.16875793910E+02 -0.20435912472E+02  0.17416122361E+02  0.31713408158E+02  0.51100000000E-03 0. -1.
        -11    1    3    3    0    0 -0.87771552822E+00 -0.10882618653E+02 -0.14956899494E+01  0.11019930217E+02  0.51100000000E-03 0.  1.
        -12    1    3    3    0    0  0.15584888657E+02  0.12686367720E+01 -0.54791216846E+01  0.16568613948E+02  0.00000000000E+00 0.  1.
</event>
<event>
 7    1  0.6246445E-012  0.5930194E+02  0.7816164E-02  0.1266605E+00
        -11   -1    0    0    0    0  0.00000000000E+00  0.00000000000E+00  0.45593999997E+02  0.45594000000E+02  0.51100000000E-03 0. -1.
         11   -1    0    0    0    0 -0.00000000000E+00 -0.00000000000E+00 -0.45593999997E+02  0.45594000000E+02  0.51100000000E-03 0.  1.
    9900012    2    1    2    0    0  0.12208554615E+00  0.40076562507E+01 -0.31632966009E+02  0.59301941103E+02  0.49999994665E+02 0.  0.
         12    1    1    2    0    0 -0.12208554615E+00 -0.40076562507E+01  0.31632966009E+02  0.31886058897E+02  0.00000000000E+00 0. -1.
         11    1    3    3    0    0  0.11062938682E+02  0.22496049386E+02 -0.13806450827E+02  0.28619555115E+02  0.51100000000E-03 0. -1.
        -11    1    3    3    0    0 -0.64258022529E+01 -0.14496891764E+01 -0.84581963963E+01  0.10720709857E+02  0.51100000000E-03 0.  1.
        -12    1    3    3    0    0 -0.45150508830E+01 -0.17038703959E+02 -0.93683187850E+01  0.19961676131E+02  0.00000000000E+00 0.  1.
</event>
<event>
 7    1  0.6246445E-012  0.5930201E+02  0.7816164E-02  0.1266605E+00
        -11   -1    0    0    0    0  0.00000000000E+00  0.00000000000E+00  0.45593999997E+02  0.45594000000E+02  0.51100000000E-03 0. -1.
         11   -1    0    0    0    0 -0.00000000000E+00 -0.00000000000E+00 -0.45593999997E+02  0.45594000000E+02  0.51100000000E-03 0.  1.
    9900012    2    1    2    0    0  0.22084613738E+02 -0.79738495611E+01 -0.21573225042E+02  0.59302008099E+02  0.50000116850E+02 0.  0.
         12    1    1    2    0    0 -0.22084613738E+02  0.79738495611E+01  0.21573225042E+02  0.31885991901E+02  0.00000000000E+00 0. -1.
         11    1    3    3    0    0  0.12977309404E+02  0.69393852007E+01  0.21201490161E+01  0.14868108771E+02  0.51100000000E-03 0. -1.
        -11    1    3    3    0    0  0.73437312359E+01 -0.16405457038E+02  0.24926677639E+01  0.18146151160E+02  0.51100000000E-03 0.  1.
        -12    1    3    3    0    0  0.17635730984E+01  0.14922222757E+01 -0.26186041822E+02  0.26287748168E+02  0.00000000000E+00 0.  1.
</event>
<event>
 7    1  0.6246445E-012  0.5930194E+02  0.7816164E-02  0.1266605E+00
        -11   -1    0    0    0    0  0.00000000000E+00  0.00000000000E+00  0.45593999997E+02  0.45594000000E+02  0.51100000000E-03 0. -1.
         11   -1    0    0    0    0 -0.00000000000E+00 -0.00000000000E+00 -0.45593999997E+02  0.45594000000E+02  0.51100000000E-03 0.  1.
    9900012    2    1    2    0    0  0.11323467253E+02  0.12998094716E+02 -0.26824413765E+02  0.59301944259E+02  0.50000000422E+02 0.  0.
         12    1    1    2    0    0 -0.11323467253E+02 -0.12998094716E+02  0.26824413765E+02  0.31886055741E+02  0.00000000000E+00 0. -1.
         11    1    3    3    0    0  0.14225208321E+02 -0.18962086961E+01  0.13101272639E+01  0.14410711048E+02  0.51100000000E-03 0. -1.
        -11    1    3    3    0    0 -0.12817455715E+00 -0.94248860322E+01 -0.13193426794E+02  0.16214543357E+02  0.51100000000E-03 0.  1.
         12    1    3    3    0    0 -0.27735665115E+01  0.24319189444E+02 -0.14941114235E+02  0.28676689854E+02  0.00000000000E+00 0. -1.
</event>
<event>
 7    1  0.6246445E-012  0.5930195E+02  0.7816164E-02  0.1266605E+00
        -11   -1    0    0    0    0  0.00000000000E+00  0.00000000000E+00  0.45593999997E+02  0.45594000000E+02  0.51100000000E-03 0. -1.
         11   -1    0    0    0    0 -0.00000000000E+00 -0.00000000000E+00 -0.45593999997E+02  0.45594000000E+02  0.51100000000E-03 0.  1.
    9900012    2    1    2    0    0 -0.11704725222E+02 -0.29172514766E+02  0.53557357235E+01  0.59301951085E+02  0.50000012871E+02 0.  0.
         12    1    1    2    0    0  0.11704725222E+02  0.29172514766E+02 -0.53557357235E+01  0.31886048915E+02  0.00000000000E+00 0. -1.
         11    1    3    3    0    0  0.50805486249E+00  0.37847075344E+01 -0.11854690296E+01  0.39984331863E+01  0.51100000000E-03 0. -1.
        -11    1    3    3    0    0 -0.62224253620E+01  0.91043288906E+01 -0.36434332531E+01  0.11613870503E+02  0.51100000000E-03 0.  1.
         12    1    3    3    0    0 -0.59903547220E+01 -0.42061551191E+02  0.10184638006E+02  0.43689647396E+02  0.00000000000E+00 0. -1.
</event>
<event>
 7    1  0.6246445E-012  0.5930209E+02  0.7816164E-02  0.1266604E+00
        -11   -1    0    0    0    0  0.00000000000E+00  0.00000000000E+00  0.45593999997E+02  0.45594000000E+02  0.51100000000E-03 0. -1.
         11   -1    0    0    0    0 -0.00000000000E+00 -0.00000000000E+00 -0.45593999997E+02  0.45594000000E+02  0.51100000000E-03 0.  1.
    9900012    2    1    2    0    0 -0.14932273119E+02  0.27510447475E+02 -0.60756597755E+01  0.59302091789E+02  0.50000269479E+02 0.  0.
         12    1    1    2    0    0  0.14932273119E+02 -0.27510447475E+02  0.60756597755E+01  0.31885908211E+02  0.00000000000E+00 0. -1.
         11    1    3    3    0    0  0.57844016418E+01  0.74675030646E+01  0.60868857554E+01  0.11237129653E+02  0.51100000000E-03 0. -1.
        -11    1    3    3    0    0  0.32700206304E+01 -0.14344478153E+01  0.89007199183E+01  0.95902810586E+01  0.51100000000E-03 0.  1.
        -12    1    3    3    0    0 -0.23986695391E+02  0.21477392225E+02 -0.21063265449E+02  0.38474681077E+02  0.00000000000E+00 0.  1.
</event>
<event>
 7    1  0.6246445E-012  0.5930197E+02  0.7816164E-02  0.1266605E+00
        -11   -1    0    0    0    0  0.00000000000E+00  0.00000000000E+00  0.45593999997E+02  0.45594000000E+02  0.51100000000E-03 0. -1.
         11   -1    0    0    0    0 -0.00000000000E+00 -0.00000000000E+00 -0.45593999997E+02  0.45594000000E+02  0.51100000000E-03 0.  1.
    9900012    2    1    2    0    0  0.97563838073E+00  0.21394248346E+02 -0.23623152125E+02  0.59301967810E+02  0.50000043372E+02 0.  0.
         12    1    1    2    0    0 -0.97563838073E+00 -0.21394248346E+02  0.23623152125E+02  0.31886032190E+02  0.00000000000E+00 0. -1.
         11    1    3    3    0    0 -0.20271685892E+02  0.41907502770E+01 -0.11350861802E+02  0.23608170211E+02  0.51100000000E-03 0. -1.
        -11    1    3    3    0    0 -0.32496702682E+01  0.73970016705E-01 -0.29296948321E+01  0.43759502380E+01  0.51100000000E-03 0.  1.
        -12    1    3    3    0    0  0.24496994541E+02  0.17129528052E+02 -0.93425954908E+01  0.31317847361E+02  0.00000000000E+00 0.  1.
</event>
<event>
 7    1  0.6246445E-012  0.5930194E+02  0.7816164E-02  0.1266605E+00
        -11   -1    0    0    0    0  0.00000000000E+00  0.00000000000E+00  0.45593999997E+02  0.45594000000E+02  0.51100000000E-03 0.  1.
         11   -1    0    0    0    0 -0.00000000000E+00 -0.00000000000E+00 -0.45593999997E+02  0.45594000000E+02  0.51100000000E-03 0. -1.
    9900012    2    1    2    0    0 -0.29279887264E+02 -0.78768951850E+01  0.98672975762E+01  0.59301939763E+02  0.49999992223E+02 0.  0.
         12    1    1    2    0    0  0.29279887264E+02  0.78768951850E+01 -0.98672975762E+01  0.31886060237E+02  0.00000000000E+00 0. -1.
         11    1    3    3    0    0 -0.57161671303E+01  0.65471620597E+01 -0.11203340899E+02  0.14179377464E+02  0.51100000000E-03 0. -1.
        -11    1    3    3    0    0 -0.12915414354E+02  0.71912830734E+01  0.13073786977E+02  0.19734396022E+02  0.51100000000E-03 0.  1.
        -12    1    3    3    0    0 -0.10648305780E+02 -0.21615340318E+02  0.79968514988E+01  0.25388166278E+02  0.00000000000E+00 0.  1.
</event>
<event>
 7    1  0.6246445E-012  0.5930197E+02  0.7816164E-02  0.1266605E+00
        -11   -1    0    0    0    0  0.00000000000E+00  0.00000000000E+00  0.45593999997E+02  0.45594000000E+02  0.51100000000E-03 0. -1.
         11   -1    0    0    0    0 -0.00000000000E+00 -0.00000000000E+00 -0.45593999997E+02  0.45594000000E+02  0.51100000000E-03 0.  1.
    9900012    2    1    2    0    0 -0.27310677992E+02  0.15936552558E+02 -0.41075966260E+01  0.59301965599E+02  0.50000039340E+02 0.  0.
         12    1    1    2    0    0  0.27310677992E+02 -0.15936552558E+02  0.41075966260E+01  0.31886034401E+02  0.00000000000E+00 0. -1.
         11    1    3    3    0    0  0.20282741344E+00  0.21759423456E+01  0.11025505064E+02  0.11240001166E+02  0.51100000000E-03 0. -1.
        -11    1    3    3    0    0 -0.20666556882E+02  0.58450708033E+01  0.78030395258E+01  0.22850795438E+02  0.51100000000E-03 0.  1.
        -12    1    3    3    0    0 -0.68469485239E+01  0.79155394086E+01 -0.22936141215E+02  0.25211168995E+02  0.00000000000E+00 0.  1.
</event>
<event>
 7    1  0.6246445E-012  0.5930195E+02  0.7816164E-02  0.1266605E+00
        -11   -1    0    0    0    0  0.00000000000E+00  0.00000000000E+00  0.45593999997E+02  0.45594000000E+02  0.51100000000E-03 0.  1.
         11   -1    0    0    0    0 -0.00000000000E+00 -0.00000000000E+00 -0.45593999997E+02  0.45594000000E+02  0.51100000000E-03 0. -1.
    9900012    2    1    2    0    0 -0.30926287045E+02 -0.77471508958E+01 -0.51654541348E+00  0.59301946676E+02  0.50000004830E+02 0.  0.
         12    1    1    2    0    0  0.30926287045E+02  0.77471508958E+01  0.51654541348E+00  0.31886053324E+02  0.00000000000E+00 0. -1.
         11    1    3    3    0    0  0.21784975472E+01  0.22605192116E+01 -0.49421888093E+01  0.58550003550E+01  0.51100000000E-03 0. -1.
        -11    1    3    3    0    0 -0.26431863139E+02  0.20545473819E+01 -0.14356359021E+02  0.30149122683E+02  0.51100000000E-03 0.  1.
        -12    1    3    3    0    0 -0.66729214534E+01 -0.12062217489E+02  0.18782002417E+02  0.23297823638E+02  0.00000000000E+00 0.  1.
</event>
<event>
 7    1  0.6246445E-012  0.5930194E+02  0.7816164E-02  0.1266605E+00
        -11   -1    0    0    0    0  0.00000000000E+00  0.00000000000E+00  0.45593999997E+02  0.45594000000E+02  0.51100000000E-03 0.  1.
         11   -1    0    0    0    0 -0.00000000000E+00 -0.00000000000E+00 -0.45593999997E+02  0.45594000000E+02  0.51100000000E-03 0. -1.
    9900012    2    1    2    0    0 -0.30110037519E+01  0.15371831909E+02  0.27773395215E+02  0.59301939698E+02  0.49999992103E+02 0.  0.
         12    1    1    2    0    0  0.30110037519E+01 -0.15371831909E+02 -0.27773395215E+02  0.31886060302E+02  0.00000000000E+00 0. -1.
         11    1    3    3    0    0  0.12961801486E+01  0.57651584893E+01 -0.31153471004E+01  0.66800092216E+01  0.51100000000E-03 0. -1.
        -11    1    3    3    0    0  0.14217208433E+02  0.13286572696E+02  0.41682009820E+01  0.19900651480E+02  0.51100000000E-03 0.  1.
         12    1    3    3    0    0 -0.18524392333E+02 -0.36798992766E+01  0.26720541333E+02  0.32721278996E+02  0.00000000000E+00 0. -1.
</event>
<event>
 7    1  0.6246445E-012  0.5930194E+02  0.7816164E-02  0.1266605E+00
        -11   -1    0    0    0    0  0.00000000000E+00  0.00000000000E+00  0.45593999997E+02  0.45594000000E+02  0.51100000000E-03 0.  1.
         11   -1    0    0    0    0 -0.00000000000E+00 -0.00000000000E+00 -0.45593999997E+02  0.45594000000E+02  0.51100000000E-03 0. -1.
    9900012    2    1    2    0    0  0.22033773215E+02  0.20477683384E+02  0.10578184276E+02  0.59301942523E+02  0.49999997256E+02 0.  0.
         12    1    1    2    0    0 -0.22033773215E+02 -0.20477683384E+02 -0.10578184276E+02  0.31886057477E+02  0.00000000000E+00 0. -1.
         11    1    3    3    0    0 -0.18829742025E+01  0.70275392733E+00  0.14466525349E+01  0.24763397884E+01  0.51100000000E-03 0. -1.
        -11    1    3    3    0    0 -0.10612059302E+02  0.15536700977E+02 -0.46929017301E+01  0.19391446742E+02  0.51100000000E-03 0.  1.
        -12    1    3    3    0    0  0.34528806719E+02  0.42382284799E+01  0.13824433471E+02  0.37434155992E+02  0.00000000000E+00 0.  1.
</event>
<event>
 7    1  0.6246445E-012  0.5930197E+02  0.7816164E-02  0.1266605E+00
        -11   -1    0    0    0    0  0.00000000000E+00  0.00000000000E+00  0.45593999997E+02  0.45594000000E+02  0.51100000000E-03 0.  1.
         11   -1    0    0    0    0 -0.00000000000E+00 -0.00000000000E+00 -0.45593999997E+02  0.45594000000E+02  0.51100000000E-03 0. -1.
    9900012    2    1    2    0    0 -0.31259248334E+02  0.46195117762E+01 -0.42706658691E+01  0.59301967283E+02  0.50000042413E+02 0.  0.
         12    1    1    2    0    0  0.31259248334E+02 -0.46195117762E+01  0.42706658691E+01  0.31886032717E+02  0.00000000000E+00 0. -1.
         11    1    3    3    0    0  0.58557039594E+01  0.43215657650E+01 -0.80636806442E+01  0.10862234821E+02  0.51100000000E-03 0. -1.
        -11    1    3    3    0    0  0.12846616214E+01  0.46249872947E+01 -0.68442935760E+01  0.83597379010E+01  0.51100000000E-03 0.  1.
        -12    1    3    3    0    0 -0.38399613915E+02 -0.43270412836E+01  0.10637308351E+02  0.40079994561E+02  0.00000000000E+00 0.  1.
</event>
<event>
 7    1  0.6246445E-012  0.5930191E+02  0.7816164E-02  0.1266605E+00
        -11   -1    0    0    0    0  0.00000000000E+00  0.00000000000E+00  0.45593999997E+02  0.45594000000E+02  0.51100000000E-03 0.  1.
         11   -1    0    0    0    0 -0.00000000000E+00 -0.00000000000E+00 -0.45593999997E+02  0.45594000000E+02  0.51100000000E-03 0. -1.
    9900012    2    1    2    0    0  0.19075128461E+02  0.11097895528E+02  0.23015194013E+02  0.59301906379E+02  0.49999931338E+02 0.  0.
         12    1    1    2    0    0 -0.19075128461E+02 -0.11097895528E+02 -0.23015194013E+02  0.31886093621E+02  0.00000000000E+00 0. -1.
         11    1    3    3    0    0 -0.55813407301E+01 -0.11155495858E+02 -0.28604035274E+01  0.12797591992E+02  0.51100000000E-03 0. -1.
        -11    1    3    3    0    0  0.86819141773E+00  0.48225589117E+01 -0.25675598490E+01  0.55320154224E+01  0.51100000000E-03 0.  1.
        -12    1    3    3    0    0  0.23788277773E+02  0.17430832475E+02  0.28443157389E+02  0.40972298965E+02  0.00000000000E+00 0.  1.
</event>
<event>
 7    1  0.6246445E-012  0.5930194E+02  0.7816164E-02  0.1266605E+00
        -11   -1    0    0    0    0  0.00000000000E+00  0.00000000000E+00  0.45593999997E+02  0.45594000000E+02  0.51100000000E-03 0.  1.
         11   -1    0    0    0    0 -0.00000000000E+00 -0.00000000000E+00 -0.45593999997E+02  0.45594000000E+02  0.51100000000E-03 0. -1.
    9900012    2    1    2    0    0  0.14057546931E+02 -0.26591279966E+02 -0.10583479036E+02  0.59301939967E+02  0.49999992595E+02 0.  0.
         12    1    1    2    0    0 -0.14057546931E+02  0.26591279966E+02  0.10583479036E+02  0.31886060033E+02  0.00000000000E+00 0. -1.
         11    1    3    3    0    0  0.18701356795E+00 -0.16240734829E+01  0.41041147904E+01  0.44177310043E+01  0.51100000000E-03 0. -1.
        -11    1    3    3    0    0  0.33438571769E+01 -0.55300493671E+01  0.15889816637E+02  0.17153690561E+02  0.51100000000E-03 0.  1.
        -12    1    3    3    0    0  0.10526676186E+02 -0.19437157116E+02 -0.30577410464E+02  0.37730518402E+02  0.00000000000E+00 0.  1.
</event>
<event>
 7    1  0.6246445E-012  0.5930194E+02  0.7816164E-02  0.1266605E+00
        -11   -1    0    0    0    0  0.00000000000E+00  0.00000000000E+00  0.45593999997E+02  0.45594000000E+02  0.51100000000E-03 0.  1.
         11   -1    0    0    0    0 -0.00000000000E+00 -0.00000000000E+00 -0.45593999997E+02  0.45594000000E+02  0.51100000000E-03 0. -1.
    9900012    2    1    2    0    0 -0.56646795112E+01  0.63301371223E+01  0.30733723288E+02  0.59301937573E+02  0.49999988228E+02 0.  0.
         12    1    1    2    0    0  0.56646795112E+01 -0.63301371223E+01 -0.30733723288E+02  0.31886062427E+02  0.00000000000E+00 0. -1.
         11    1    3    3    0    0 -0.18888353845E+02  0.23069491718E+01 -0.21605320914E+01  0.19150974509E+02  0.51100000000E-03 0. -1.
        -11    1    3    3    0    0  0.10994503398E+01  0.59510931106E+01  0.24604105189E+02  0.25337448425E+02  0.51100000000E-03 0.  1.
        -12    1    3    3    0    0  0.12124223994E+02 -0.19279051601E+01  0.82901501909E+01  0.14813514639E+02  0.00000000000E+00 0.  1.
</event>
<event>
 7    1  0.6246445E-012  0.5930181E+02  0.7816164E-02  0.1266605E+00
        -11   -1    0    0    0    0  0.00000000000E+00  0.00000000000E+00  0.45593999997E+02  0.45594000000E+02  0.51100000000E-03 0.  1.
         11   -1    0    0    0    0 -0.00000000000E+00 -0.00000000000E+00 -0.45593999997E+02  0.45594000000E+02  0.51100000000E-03 0. -1.
    9900012    2    1    2    0    0 -0.92253068053E+01 -0.47065901928E+01  0.30157429841E+02  0.59301814095E+02  0.49999763034E+02 0.  0.
         12    1    1    2    0    0  0.92253068053E+01  0.47065901928E+01 -0.30157429841E+02  0.31886185905E+02  0.00000000000E+00 0. -1.
         11    1    3    3    0    0  0.63554930849E+00 -0.21660174404E+02  0.24861727684E+02  0.32979881470E+02  0.51100000000E-03 0. -1.
        -11    1    3    3    0    0  0.18696176534E+01  0.47889339588E+01  0.76939192993E+01  0.92534184536E+01  0.51100000000E-03 0.  1.
        -12    1    3    3    0    0 -0.11730473767E+02  0.12164650252E+02 -0.23982171414E+01  0.17068514171E+02  0.00000000000E+00 0.  1.
</event>
<event>
 7    1  0.6246445E-012  0.5930194E+02  0.7816164E-02  0.1266605E+00
        -11   -1    0    0    0    0  0.00000000000E+00  0.00000000000E+00  0.45593999997E+02  0.45594000000E+02  0.51100000000E-03 0.  1.
         11   -1    0    0    0    0 -0.00000000000E+00 -0.00000000000E+00 -0.45593999997E+02  0.45594000000E+02  0.51100000000E-03 0. -1.
    9900012    2    1    2    0    0 -0.12785012409E+02 -0.90816168255E+01  0.27763073773E+02  0.59301943929E+02  0.49999999820E+02 0.  0.
         12    1    1    2    0    0  0.12785012409E+02  0.90816168255E+01 -0.27763073773E+02  0.31886056071E+02  0.00000000000E+00 0. -1.
         11    1    3    3    0    0 -0.40459729073E+01  0.58509270019E+01 -0.12120712404E+01  0.72161181047E+01  0.51100000000E-03 0. -1.
        -11    1    3    3    0    0 -0.87829078334E+01 -0.61993118540E+01 -0.84383007517E+01  0.13666596405E+02  0.51100000000E-03 0.  1.
        -12    1    3    3    0    0  0.43868331331E-01 -0.87332319734E+01  0.37413445765E+02  0.38419229419E+02  0.00000000000E+00 0.  1.
</event>
<event>
 7    1  0.6246445E-012  0.5930193E+02  0.7816164E-02  0.1266605E+00
        -11   -1    0    0    0    0  0.00000000000E+00  0.00000000000E+00  0.45593999997E+02  0.45594000000E+02  0.51100000000E-03 0. -1.
         11   -1    0    0    0    0 -0.00000000000E+00 -0.00000000000E+00 -0.45593999997E+02  0.45594000000E+02  0.51100000000E-03 0.  1.
    9900012    2    1    2    0    0 -0.22108141634E+02 -0.46382214862E+01 -0.22504189385E+02  0.59301928355E+02  0.49999971417E+02 0.  0.
         12    1    1    2    0    0  0.22108141634E+02  0.46382214862E+01  0.22504189385E+02  0.31886071645E+02  0.00000000000E+00 0. -1.
         11    1    3    3    0    0 -0.72689031910E+01 -0.15923149919E+02  0.20307098862E+01  0.17621221293E+02  0.51100000000E-03 0. -1.
        -11    1    3    3    0    0  0.22459732432E+01 -0.27112921046E+00  0.50971406673E+01  0.55766253327E+01  0.51100000000E-03 0.  1.
        -12    1    3    3    0    0 -0.17085211686E+02  0.11556057643E+02 -0.29632039938E+02  0.36104081730E+02  0.00000000000E+00 0.  1.
</event>
<event>
 7    1  0.6246445E-012  0.5930198E+02  0.7816164E-02  0.1266605E+00
        -11   -1    0    0    0    0  0.00000000000E+00  0.00000000000E+00  0.45593999997E+02  0.45594000000E+02  0.51100000000E-03 0.  1.
         11   -1    0    0    0    0 -0.00000000000E+00 -0.00000000000E+00 -0.45593999997E+02  0.45594000000E+02  0.51100000000E-03 0. -1.
    9900012    2    1    2    0    0 -0.20121413806E+02 -0.12711856028E+02  0.21219224050E+02  0.59301983527E+02  0.50000072037E+02 0.  0.
         12    1    1    2    0    0  0.20121413806E+02  0.12711856028E+02 -0.21219224050E+02  0.31886016473E+02  0.00000000000E+00 0. -1.
         11    1    3    3    0    0 -0.17841792863E+02 -0.10444752824E+02 -0.39476757832E+01  0.21047721456E+02  0.51100000000E-03 0. -1.
        -11    1    3    3    0    0 -0.56310102880E+01  0.11999444261E+02  0.72530034169E+01  0.15109632631E+02  0.51100000000E-03 0.  1.
         12    1    3    3    0    0  0.33513893447E+01 -0.14266547464E+02  0.17913896417E+02  0.23144629440E+02  0.00000000000E+00 0. -1.
</event>
<event>
 7    1  0.6246445E-012  0.5930198E+02  0.7816164E-02  0.1266605E+00
        -11   -1    0    0    0    0  0.00000000000E+00  0.00000000000E+00  0.45593999997E+02  0.45594000000E+02  0.51100000000E-03 0. -1.
         11   -1    0    0    0    0 -0.00000000000E+00 -0.00000000000E+00 -0.45593999997E+02  0.45594000000E+02  0.51100000000E-03 0.  1.
    9900012    2    1    2    0    0  0.34507096601E+01 -0.22116339288E+02 -0.22708551786E+02  0.59301981357E+02  0.50000068080E+02 0.  0.
         12    1    1    2    0    0 -0.34507096601E+01  0.22116339288E+02  0.22708551786E+02  0.31886018643E+02  0.00000000000E+00 0. -1.
         11    1    3    3    0    0 -0.13321727227E+02 -0.11243233058E+02 -0.28066055377E+02  0.33039100632E+02  0.51100000000E-03 0.  1.
        -11    1    3    3    0    0  0.69095486996E+01  0.20314205003E+01  0.68667068415E+01  0.99508891859E+01  0.51100000000E-03 0. -1.
        -12    1    3    3    0    0  0.98628881873E+01 -0.12904526730E+02 -0.15092032510E+01  0.16311991539E+02  0.00000000000E+00 0.  1.
</event>
<event>
 7    1  0.6246445E-012  0.5930191E+02  0.7816164E-02  0.1266605E+00
        -11   -1    0    0    0    0  0.00000000000E+00  0.00000000000E+00  0.45593999997E+02  0.45594000000E+02  0.51100000000E-03 0.  1.
         11   -1    0    0    0    0 -0.00000000000E+00 -0.00000000000E+00 -0.45593999997E+02  0.45594000000E+02  0.51100000000E-03 0. -1.
    9900012    2    1    2    0    0 -0.58360606879E+01  0.30097765832E+01  0.31202633824E+02  0.59301910291E+02  0.49999938471E+02 0.  0.
         12    1    1    2    0    0  0.58360606879E+01 -0.30097765832E+01 -0.31202633824E+02  0.31886089709E+02  0.00000000000E+00 0. -1.
         11    1    3    3    0    0 -0.63653016559E+01 -0.10578323509E+02  0.18446083654E+02  0.22196305906E+02  0.51100000000E-03 0. -1.
        -11    1    3    3    0    0  0.63344310988E+01 -0.56663849645E+01  0.14617920722E+02  0.16909066870E+02  0.51100000000E-03 0.  1.
         12    1    3    3    0    0 -0.58051901308E+01  0.19254485056E+02 -0.18613705530E+01  0.20196537515E+02  0.00000000000E+00 0. -1.
</event>
<event>
 7    1  0.6246445E-012  0.5930194E+02  0.7816164E-02  0.1266605E+00
        -11   -1    0    0    0    0  0.00000000000E+00  0.00000000000E+00  0.45593999997E+02  0.45594000000E+02  0.51100000000E-03 0.  1.
         11   -1    0    0    0    0 -0.00000000000E+00 -0.00000000000E+00 -0.45593999997E+02  0.45594000000E+02  0.51100000000E-03 0. -1.
    9900012    2    1    2    0    0 -0.25871539576E+02 -0.37520221736E+01 -0.18256689607E+02  0.59301938063E+02  0.49999989122E+02 0.  0.
         12    1    1    2    0    0  0.25871539576E+02  0.37520221736E+01  0.18256689607E+02  0.31886061937E+02  0.00000000000E+00 0. -1.
         11    1    3    3    0    0 -0.10058925380E+01 -0.10961676792E+02 -0.38003796467E+00  0.11014291036E+02  0.51100000000E-03 0. -1.
        -11    1    3    3    0    0 -0.76865331857E+01 -0.13451751062E+02  0.88061524697E+00  0.15517985775E+02  0.51100000000E-03 0.  1.
        -12    1    3    3    0    0 -0.17179113852E+02  0.20661405681E+02 -0.18757266889E+02  0.32769661253E+02  0.00000000000E+00 0.  1.
</event>
<event>
 7    1  0.6246445E-012  0.5930196E+02  0.7816164E-02  0.1266605E+00
        -11   -1    0    0    0    0  0.00000000000E+00  0.00000000000E+00  0.45593999997E+02  0.45594000000E+02  0.51100000000E-03 0.  1.
         11   -1    0    0    0    0 -0.00000000000E+00 -0.00000000000E+00 -0.45593999997E+02  0.45594000000E+02  0.51100000000E-03 0. -1.
    9900012    2    1    2    0    0  0.81853821341E+01  0.25812120197E+02  0.16836071329E+02  0.59301963439E+02  0.50000035402E+02 0.  0.
         12    1    1    2    0    0 -0.81853821341E+01 -0.25812120197E+02 -0.16836071329E+02  0.31886036561E+02  0.00000000000E+00 0. -1.
         11    1    3    3    0    0  0.19040069953E+01  0.24770769617E+02 -0.17608584994E+01  0.24906161747E+02  0.51100000000E-03 0. -1.
        -11    1    3    3    0    0  0.46183027932E+01  0.72209321203E+01 -0.50158340208E+01  0.99312221081E+01  0.51100000000E-03 0.  1.
        -12    1    3    3    0    0  0.16630723456E+01 -0.61795815397E+01  0.23612763849E+02  0.24464579584E+02  0.00000000000E+00 0.  1.
</event>
<event>
 7    1  0.6246445E-012  0.5930196E+02  0.7816164E-02  0.1266605E+00
        -11   -1    0    0    0    0  0.00000000000E+00  0.00000000000E+00  0.45593999997E+02  0.45594000000E+02  0.51100000000E-03 0.  1.
         11   -1    0    0    0    0 -0.00000000000E+00 -0.00000000000E+00 -0.45593999997E+02  0.45594000000E+02  0.51100000000E-03 0. -1.
    9900012    2    1    2    0    0  0.24672212535E+02 -0.20186524536E+02  0.71119769568E+00  0.59301958440E+02  0.50000026284E+02 0.  0.
         12    1    1    2    0    0 -0.24672212535E+02  0.20186524536E+02 -0.71119769568E+00  0.31886041560E+02  0.00000000000E+00 0. -1.
         11    1    3    3    0    0  0.27717568265E+01  0.32423813105E+01  0.15285124807E+02  0.15869174934E+02  0.51100000000E-03 0. -1.
        -11    1    3    3    0    0 -0.25357788487E+01 -0.14612123625E+02 -0.68094020965E+01  0.16319077436E+02  0.51100000000E-03 0.  1.
        -12    1    3    3    0    0  0.24436234558E+02 -0.88167822214E+01 -0.77645250148E+01  0.27113706069E+02  0.00000000000E+00 0.  1.
</event>
<event>
 7    1  0.6246445E-012  0.5930198E+02  0.7816164E-02  0.1266605E+00
        -11   -1    0    0    0    0  0.00000000000E+00  0.00000000000E+00  0.45593999997E+02  0.45594000000E+02  0.51100000000E-03 0. -1.
         11   -1    0    0    0    0 -0.00000000000E+00 -0.00000000000E+00 -0.45593999997E+02  0.45594000000E+02  0.51100000000E-03 0.  1.
    9900012    2    1    2    0    0 -0.18257798938E+02  0.20399367454E+02  0.16347372977E+02  0.59301983976E+02  0.50000072857E+02 0.  0.
         12    1    1    2    0    0  0.18257798938E+02 -0.20399367454E+02 -0.16347372977E+02  0.31886016024E+02  0.00000000000E+00 0. -1.
         11    1    3    3    0    0  0.78073834886E+01  0.13299238689E+02 -0.37983301623E+01  0.15882452547E+02  0.51100000000E-03 0. -1.
        -11    1    3    3    0    0 -0.36378958816E+01  0.14080164439E+02  0.10912557380E+02  0.18181562802E+02  0.51100000000E-03 0.  1.
        -12    1    3    3    0    0 -0.22427286546E+02 -0.69800356742E+01  0.92331457592E+01  0.25237968627E+02  0.00000000000E+00 0.  1.
</event>
<event>
 7    1  0.6246445E-012  0.5930195E+02  0.7816164E-02  0.1266605E+00
        -11   -1    0    0    0    0  0.00000000000E+00  0.00000000000E+00  0.45593999997E+02  0.45594000000E+02  0.51100000000E-03 0.  1.
         11   -1    0    0    0    0 -0.00000000000E+00 -0.00000000000E+00 -0.45593999997E+02  0.45594000000E+02  0.51100000000E-03 0. -1.
    9900012    2    1    2    0    0 -0.70470062513E+01  0.21692721990E+02  0.22281952632E+02  0.59301954502E+02  0.50000019102E+02 0.  0.
         12    1    1    2    0    0  0.70470062513E+01 -0.21692721990E+02 -0.22281952632E+02  0.31886045498E+02  0.00000000000E+00 0. -1.
         11    1    3    3    0    0 -0.25141702466E+01 -0.27030914225E+00  0.26028188954E+02  0.26150731147E+02  0.51100000000E-03 0. -1.
        -11    1    3    3    0    0 -0.88237620273E+01  0.61776800815E+01  0.76527694373E+01  0.13213152078E+02  0.51100000000E-03 0.  1.
         12    1    3    3    0    0  0.42909260226E+01  0.15785351051E+02 -0.11399005759E+02  0.19938071276E+02  0.00000000000E+00 0. -1.
</event>
<event>
 7    1  0.6246445E-012  0.5930193E+02  0.7816164E-02  0.1266605E+00
        -11   -1    0    0    0    0  0.00000000000E+00  0.00000000000E+00  0.45593999997E+02  0.45594000000E+02  0.51100000000E-03 0.  1.
         11   -1    0    0    0    0 -0.00000000000E+00 -0.00000000000E+00 -0.45593999997E+02  0.45594000000E+02  0.51100000000E-03 0. -1.
    9900012    2    1    2    0    0 -0.11638240277E+02 -0.54680016405E+01  0.29178314731E+02  0.59301925779E+02  0.49999966719E+02 0.  0.
         12    1    1    2    0    0  0.11638240277E+02  0.54680016405E+01 -0.29178314731E+02  0.31886074221E+02  0.00000000000E+00 0. -1.
         11    1    3    3    0    0 -0.29378943563E+00 -0.15947739969E+02  0.11276992071E+02  0.19534258951E+02  0.51100000000E-03 0. -1.
        -11    1    3    3    0    0  0.85382507655E+01 -0.52211283637E+01  0.33628178477E+01  0.10557956794E+02  0.51100000000E-03 0.  1.
        -12    1    3    3    0    0 -0.19882701607E+02  0.15700866692E+02  0.14538504812E+02  0.29209710034E+02  0.00000000000E+00 0.  1.
</event>
<event>
 7    1  0.6246445E-012  0.5930200E+02  0.7816164E-02  0.1266605E+00
        -11   -1    0    0    0    0  0.00000000000E+00  0.00000000000E+00  0.45593999997E+02  0.45594000000E+02  0.51100000000E-03 0.  1.
         11   -1    0    0    0    0 -0.00000000000E+00 -0.00000000000E+00 -0.45593999997E+02  0.45594000000E+02  0.51100000000E-03 0. -1.
    9900012    2    1    2    0    0  0.31799189615E+02  0.54948807449E+00 -0.22861820808E+01  0.59301999532E+02  0.50000101226E+02 0.  0.
         12    1    1    2    0    0 -0.31799189615E+02 -0.54948807449E+00  0.22861820808E+01  0.31886000468E+02  0.00000000000E+00 0. -1.
         11    1    3    3    0    0  0.91665189469E+01 -0.19822953759E+02  0.64641459077E+01  0.22776297941E+02  0.51100000000E-03 0.  1.
        -11    1    3    3    0    0  0.53479569799E+01 -0.21210560071E+01 -0.55229835420E+01  0.79751407456E+01  0.51100000000E-03 0. -1.
        -12    1    3    3    0    0  0.17284713689E+02  0.22493497840E+02 -0.32273444465E+01  0.28550560845E+02  0.00000000000E+00 0.  1.
</event>
<event>
 7    1  0.6246445E-012  0.5930194E+02  0.7816164E-02  0.1266605E+00
        -11   -1    0    0    0    0  0.00000000000E+00  0.00000000000E+00  0.45593999997E+02  0.45594000000E+02  0.51100000000E-03 0. -1.
         11   -1    0    0    0    0 -0.00000000000E+00 -0.00000000000E+00 -0.45593999997E+02  0.45594000000E+02  0.51100000000E-03 0.  1.
    9900012    2    1    2    0    0 -0.56538706424E+01 -0.19781865322E+02 -0.24360462782E+02  0.59301943552E+02  0.49999999132E+02 0.  0.
         12    1    1    2    0    0  0.56538706424E+01  0.19781865322E+02  0.24360462782E+02  0.31886056448E+02  0.00000000000E+00 0. -1.
         11    1    3    3    0    0 -0.15135715534E+02 -0.14055314798E+02  0.28524516250E+01  0.20851336632E+02  0.51100000000E-03 0. -1.
        -11    1    3    3    0    0 -0.68220347562E+01 -0.76910909570E+01 -0.14021641524E+02  0.17386761332E+02  0.51100000000E-03 0.  1.
        -12    1    3    3    0    0  0.16303879648E+02  0.19645404329E+01 -0.13191272883E+02  0.21063845588E+02  0.00000000000E+00 0.  1.
</event>
<event>
 7    1  0.6246445E-012  0.5930191E+02  0.7816164E-02  0.1266605E+00
        -11   -1    0    0    0    0  0.00000000000E+00  0.00000000000E+00  0.45593999997E+02  0.45594000000E+02  0.51100000000E-03 0.  1.
         11   -1    0    0    0    0 -0.00000000000E+00 -0.00000000000E+00 -0.45593999997E+02  0.45594000000E+02  0.51100000000E-03 0. -1.
    9900012    2    1    2    0    0 -0.20471129415E+02 -0.20638160646E+02  0.13104274992E+02  0.59301908401E+02  0.49999935025E+02 0.  0.
         12    1    1    2    0    0  0.20471129415E+02  0.20638160646E+02 -0.13104274992E+02  0.31886091599E+02  0.00000000000E+00 0. -1.
         11    1    3    3    0    0 -0.27346756577E+02 -0.70032431823E+01 -0.32300288389E+01  0.28413440427E+02  0.51100000000E-03 0. -1.
        -11    1    3    3    0    0 -0.25100964350E+01  0.45292065716E+01  0.86480595048E+00  0.52499700831E+01  0.51100000000E-03 0.  1.
         12    1    3    3    0    0  0.93857235967E+01 -0.18164124036E+02  0.15469497881E+02  0.25638497891E+02  0.00000000000E+00 0. -1.
</event>
<event>
 7    1  0.6246445E-012  0.5930194E+02  0.7816164E-02  0.1266605E+00
        -11   -1    0    0    0    0  0.00000000000E+00  0.00000000000E+00  0.45593999997E+02  0.45594000000E+02  0.51100000000E-03 0. -1.
         11   -1    0    0    0    0 -0.00000000000E+00 -0.00000000000E+00 -0.45593999997E+02  0.45594000000E+02  0.51100000000E-03 0.  1.
    9900012    2    1    2    0    0  0.31369810376E+02 -0.40200443304E+01 -0.40613951755E+01  0.59301942071E+02  0.49999996432E+02 0.  0.
         12    1    1    2    0    0 -0.31369810376E+02  0.40200443304E+01  0.40613951755E+01  0.31886057929E+02  0.00000000000E+00 0. -1.
         11    1    3    3    0    0  0.17579726793E+01  0.74622932042E+01 -0.36666947131E+00  0.76753328637E+01  0.51100000000E-03 0. -1.
        -11    1    3    3    0    0  0.27623813829E+02  0.73380108348E+01 -0.11949982427E+02  0.30979405639E+02  0.51100000000E-03 0.  1.
         12    1    3    3    0    0  0.19880238678E+01 -0.18820348369E+02  0.82552567232E+01  0.20647203569E+02  0.00000000000E+00 0. -1.
</event>
<event>
 7    1  0.6246445E-012  0.5930193E+02  0.7816164E-02  0.1266605E+00
        -11   -1    0    0    0    0  0.00000000000E+00  0.00000000000E+00  0.45593999997E+02  0.45594000000E+02  0.51100000000E-03 0.  1.
         11   -1    0    0    0    0 -0.00000000000E+00 -0.00000000000E+00 -0.45593999997E+02  0.45594000000E+02  0.51100000000E-03 0. -1.
    9900012    2    1    2    0    0  0.74603102803E+01  0.24455743625E+02 -0.19052084958E+02  0.59301928323E+02  0.49999971359E+02 0.  0.
         12    1    1    2    0    0 -0.74603102803E+01 -0.24455743625E+02  0.19052084958E+02  0.31886071677E+02  0.00000000000E+00 0. -1.
         11    1    3    3    0    0  0.34526333208E+00 -0.83795049904E+01  0.72836494592E+01  0.11107963826E+02  0.51100000000E-03 0. -1.
        -11    1    3    3    0    0 -0.19806056283E+01 -0.71851631514E-01  0.27180885187E+01  0.33639213381E+01  0.51100000000E-03 0.  1.
        -12    1    3    3    0    0  0.90956525766E+01  0.32907100247E+02 -0.29053822936E+02  0.44830043159E+02  0.00000000000E+00 0.  1.
</event>
<event>
 7    1  0.6246445E-012  0.5930194E+02  0.7816164E-02  0.1266605E+00
        -11   -1    0    0    0    0  0.00000000000E+00  0.00000000000E+00  0.45593999997E+02  0.45594000000E+02  0.51100000000E-03 0.  1.
         11   -1    0    0    0    0 -0.00000000000E+00 -0.00000000000E+00 -0.45593999997E+02  0.45594000000E+02  0.51100000000E-03 0. -1.
    9900012    2    1    2    0    0  0.16261653297E+02 -0.18148898841E+02  0.20564451886E+02  0.59301943824E+02  0.49999999628E+02 0.  0.
         12    1    1    2    0    0 -0.16261653297E+02  0.18148898841E+02 -0.20564451886E+02  0.31886056176E+02  0.00000000000E+00 0. -1.
         11    1    3    3    0    0  0.18581038385E+02 -0.78777829200E+01  0.48268094459E+01  0.20751205769E+02  0.51100000000E-03 0. -1.
        -11    1    3    3    0    0  0.40375693684E+01 -0.20356719620E+02  0.27726860827E+01  0.20937664351E+02  0.51100000000E-03 0.  1.
        -12    1    3    3    0    0 -0.63569544564E+01  0.10085603699E+02  0.12964956358E+02  0.17613073704E+02  0.00000000000E+00 0.  1.
</event>
<event>
 7    1  0.6246445E-012  0.5930193E+02  0.7816164E-02  0.1266605E+00
        -11   -1    0    0    0    0  0.00000000000E+00  0.00000000000E+00  0.45593999997E+02  0.45594000000E+02  0.51100000000E-03 0. -1.
         11   -1    0    0    0    0 -0.00000000000E+00 -0.00000000000E+00 -0.45593999997E+02  0.45594000000E+02  0.51100000000E-03 0.  1.
    9900012    2    1    2    0    0  0.25763449295E+02  0.60985800812E+01 -0.17770008363E+02  0.59301934144E+02  0.49999981974E+02 0.  0.
         12    1    1    2    0    0 -0.25763449295E+02 -0.60985800812E+01  0.17770008363E+02  0.31886065856E+02  0.00000000000E+00 0. -1.
         11    1    3    3    0    0  0.96158964305E+01  0.81383897441E+01 -0.76734119065E+01  0.14750596677E+02  0.51100000000E-03 0. -1.
        -11    1    3    3    0    0  0.14539935278E+02 -0.18812044503E+01 -0.25311458081E+02  0.29250958250E+02  0.51100000000E-03 0.  1.
         12    1    3    3    0    0  0.16076175866E+01 -0.15860521257E+00  0.15214861625E+02  0.15300379217E+02  0.00000000000E+00 0. -1.
</event>
<event>
 7    1  0.6246445E-012  0.5930196E+02  0.7816164E-02  0.1266605E+00
        -11   -1    0    0    0    0  0.00000000000E+00  0.00000000000E+00  0.45593999997E+02  0.45594000000E+02  0.51100000000E-03 0.  1.
         11   -1    0    0    0    0 -0.00000000000E+00 -0.00000000000E+00 -0.45593999997E+02  0.45594000000E+02  0.51100000000E-03 0. -1.
    9900012    2    1    2    0    0  0.12913891022E+02  0.19007016206E+02  0.22106199131E+02  0.59301964085E+02  0.50000036579E+02 0.  0.
         12    1    1    2    0    0 -0.12913891022E+02 -0.19007016206E+02 -0.22106199131E+02  0.31886035915E+02  0.00000000000E+00 0. -1.
         11    1    3    3    0    0 -0.25037400435E+01 -0.41327918890E+01 -0.97766496372E+00  0.49299606536E+01  0.51100000000E-03 0. -1.
        -11    1    3    3    0    0  0.42597242035E+01  0.31187468843E+02  0.25367243363E+02  0.40426482647E+02  0.51100000000E-03 0.  1.
         12    1    3    3    0    0  0.11157906862E+02 -0.80476607480E+01 -0.22833792679E+01  0.13945520784E+02  0.00000000000E+00 0. -1.
</event>
<event>
 7    1  0.6246445E-012  0.5930196E+02  0.7816164E-02  0.1266605E+00
        -11   -1    0    0    0    0  0.00000000000E+00  0.00000000000E+00  0.45593999997E+02  0.45594000000E+02  0.51100000000E-03 0.  1.
         11   -1    0    0    0    0 -0.00000000000E+00 -0.00000000000E+00 -0.45593999997E+02  0.45594000000E+02  0.51100000000E-03 0. -1.
    9900012    2    1    2    0    0 -0.13785859423E+02 -0.47563259473E+01  0.28355726562E+02  0.59301956259E+02  0.50000022307E+02 0.  0.
         12    1    1    2    0    0  0.13785859423E+02  0.47563259473E+01 -0.28355726562E+02  0.31886043741E+02  0.00000000000E+00 0. -1.
         11    1    3    3    0    0 -0.62965505021E+00  0.18370364238E+02  0.40799547890E+01  0.18828509740E+02  0.51100000000E-03 0. -1.
        -11    1    3    3    0    0  0.46443354236E+01 -0.67728236401E+01  0.62271527003E+01  0.10306232221E+02  0.51100000000E-03 0.  1.
        -12    1    3    3    0    0 -0.17800539797E+02 -0.16353866545E+02  0.18048619073E+02  0.30167214297E+02  0.00000000000E+00 0.  1.
</event>
<event>
 7    1  0.6246445E-012  0.5930191E+02  0.7816164E-02  0.1266605E+00
        -11   -1    0    0    0    0  0.00000000000E+00  0.00000000000E+00  0.45593999997E+02  0.45594000000E+02  0.51100000000E-03 0. -1.
         11   -1    0    0    0    0 -0.00000000000E+00 -0.00000000000E+00 -0.45593999997E+02  0.45594000000E+02  0.51100000000E-03 0.  1.
    9900012    2    1    2    0    0 -0.66403218055E+01  0.31850168095E+01 -0.31023935246E+02  0.59301909555E+02  0.49999937129E+02 0.  0.
         12    1    1    2    0    0  0.66403218055E+01 -0.31850168095E+01  0.31023935246E+02  0.31886090445E+02  0.00000000000E+00 0. -1.
         11    1    3    3    0    0  0.18665364304E+02  0.52236670938E+01 -0.19778968353E+02  0.27692780862E+02  0.51100000000E-03 0. -1.
        -11    1    3    3    0    0 -0.62143570044E+01 -0.50366858534E+01 -0.91763912982E+01  0.12173438088E+02  0.51100000000E-03 0.  1.
         12    1    3    3    0    0 -0.19091329105E+02  0.29980355691E+01 -0.20685755949E+01  0.19435690604E+02  0.00000000000E+00 0. -1.
</event>
<event>
 7    1  0.1146617E-011  0.5930198E+02  0.7816164E-02  0.1266605E+00
        -11   -1    0    0    0    0  0.00000000000E+00  0.00000000000E+00  0.45593999997E+02  0.45594000000E+02  0.51100000000E-03 0. -1.
         11   -1    0    0    0    0 -0.00000000000E+00 -0.00000000000E+00 -0.45593999997E+02  0.45594000000E+02  0.51100000000E-03 0.  1.
    9900012    2    1    2    0    0  0.83906394433E-01 -0.90785777712E+01 -0.30566172923E+02  0.59301975760E+02  0.50000057873E+02 0.  0.
         12    1    1    2    0    0 -0.83906394433E-01  0.90785777712E+01  0.30566172923E+02  0.31886024240E+02  0.00000000000E+00 0. -1.
         11    1    3    3    0    0  0.16859153281E+01 -0.14353735454E+02 -0.51112595037E+01  0.15329612061E+02  0.51100000000E-03 0. -1.
        -11    1    3    3    0    0 -0.85280692288E+01 -0.35753685876E+01 -0.30340151969E+02  0.31718071302E+02  0.51100000000E-03 0.  1.
         12    1    3    3    0    0  0.69260602951E+01  0.88505262703E+01  0.48852385498E+01  0.12254292397E+02  0.00000000000E+00 0. -1.
</event>
<event>
 7    1  0.6246445E-012  0.5930196E+02  0.7816164E-02  0.1266605E+00
        -11   -1    0    0    0    0  0.00000000000E+00  0.00000000000E+00  0.45593999997E+02  0.45594000000E+02  0.51100000000E-03 0. -1.
         11   -1    0    0    0    0 -0.00000000000E+00 -0.00000000000E+00 -0.45593999997E+02  0.45594000000E+02  0.51100000000E-03 0.  1.
    9900012    2    1    2    0    0  0.29916601175E+02 -0.10599277524E+02 -0.30613609979E+01  0.59301958523E+02  0.50000026437E+02 0.  0.
         12    1    1    2    0    0 -0.29916601175E+02  0.10599277524E+02  0.30613609979E+01  0.31886041477E+02  0.00000000000E+00 0. -1.
         11    1    3    3    0    0  0.14065524309E+02 -0.13373902056E+02  0.29908581531E+01  0.19637857904E+02  0.51100000000E-03 0. -1.
        -11    1    3    3    0    0 -0.67076099742E+01 -0.74298684824E+01  0.64695316776E+01  0.11918465405E+02  0.51100000000E-03 0.  1.
        -12    1    3    3    0    0  0.22558686840E+02  0.10204493014E+02 -0.12521750829E+02  0.27745635214E+02  0.00000000000E+00 0.  1.
</event>
<event>
 7    1  0.6246445E-012  0.5930193E+02  0.7816164E-02  0.1266605E+00
        -11   -1    0    0    0    0  0.00000000000E+00  0.00000000000E+00  0.45593999997E+02  0.45594000000E+02  0.51100000000E-03 0.  1.
         11   -1    0    0    0    0 -0.00000000000E+00 -0.00000000000E+00 -0.45593999997E+02  0.45594000000E+02  0.51100000000E-03 0. -1.
    9900012    2    1    2    0    0  0.75346724803E+01  0.25895955094E+02 -0.17010281325E+02  0.59301930151E+02  0.49999974693E+02 0.  0.
         12    1    1    2    0    0 -0.75346724803E+01 -0.25895955094E+02  0.17010281325E+02  0.31886069849E+02  0.00000000000E+00 0. -1.
         11    1    3    3    0    0 -0.13129104534E+02  0.11930699101E+02 -0.10593307174E+02  0.20662360079E+02  0.51100000000E-03 0. -1.
        -11    1    3    3    0    0  0.16175209218E+02  0.21555299663E+02 -0.10499466778E+02  0.28922433157E+02  0.51100000000E-03 0.  1.
         12    1    3    3    0    0  0.44885677958E+01 -0.75900436705E+01  0.40824926265E+01  0.97171369149E+01  0.00000000000E+00 0. -1.
</event>
<event>
 7    1  0.6246445E-012  0.5930196E+02  0.7816164E-02  0.1266605E+00
        -11   -1    0    0    0    0  0.00000000000E+00  0.00000000000E+00  0.45593999997E+02  0.45594000000E+02  0.51100000000E-03 0. -1.
         11   -1    0    0    0    0 -0.00000000000E+00 -0.00000000000E+00 -0.45593999997E+02  0.45594000000E+02  0.51100000000E-03 0.  1.
    9900012    2    1    2    0    0  0.28785858733E+02  0.48852292771E+01 -0.12815153870E+02  0.59301963921E+02  0.50000036281E+02 0.  0.
         12    1    1    2    0    0 -0.28785858733E+02 -0.48852292771E+01  0.12815153870E+02  0.31886036079E+02  0.00000000000E+00 0. -1.
         11    1    3    3    0    0 -0.24667436258E+01  0.59976575543E+01 -0.81772375977E+01  0.10436663032E+02  0.51100000000E-03 0. -1.
        -11    1    3    3    0    0 -0.46981735214E+00 -0.14285166885E+02 -0.16149667987E+01  0.14383839518E+02  0.51100000000E-03 0.  1.
         12    1    3    3    0    0  0.31722419711E+02  0.13172738607E+02 -0.30229494734E+01  0.34481461371E+02  0.00000000000E+00 0. -1.
</event>
<event>
 7    1  0.6246445E-012  0.5930190E+02  0.7816164E-02  0.1266605E+00
        -11   -1    0    0    0    0  0.00000000000E+00  0.00000000000E+00  0.45593999997E+02  0.45594000000E+02  0.51100000000E-03 0.  1.
         11   -1    0    0    0    0 -0.00000000000E+00 -0.00000000000E+00 -0.45593999997E+02  0.45594000000E+02  0.51100000000E-03 0. -1.
    9900012    2    1    2    0    0 -0.74881995617E+01 -0.21696573315E+02  0.22133885498E+02  0.59301900936E+02  0.49999921410E+02 0.  0.
         12    1    1    2    0    0  0.74881995617E+01  0.21696573315E+02 -0.22133885498E+02  0.31886099064E+02  0.00000000000E+00 0. -1.
         11    1    3    3    0    0 -0.17542542207E+01 -0.79183372262E+00 -0.10105419139E+02  0.10287074645E+02  0.51100000000E-03 0. -1.
        -11    1    3    3    0    0 -0.14696913521E+02 -0.10896494590E+02  0.55238678699E+01  0.19111409626E+02  0.51100000000E-03 0.  1.
        -12    1    3    3    0    0  0.89629681796E+01 -0.10008245003E+02  0.26715436767E+02  0.29903416665E+02  0.00000000000E+00 0.  1.
</event>
<event>
 7    1  0.6246445E-012  0.5930195E+02  0.7816164E-02  0.1266605E+00
        -11   -1    0    0    0    0  0.00000000000E+00  0.00000000000E+00  0.45593999997E+02  0.45594000000E+02  0.51100000000E-03 0.  1.
         11   -1    0    0    0    0 -0.00000000000E+00 -0.00000000000E+00 -0.45593999997E+02  0.45594000000E+02  0.51100000000E-03 0. -1.
    9900012    2    1    2    0    0 -0.44921603564E+01 -0.25431795630E+02  0.18701987139E+02  0.59301952007E+02  0.50000014553E+02 0.  0.
         12    1    1    2    0    0  0.44921603564E+01  0.25431795630E+02 -0.18701987139E+02  0.31886047993E+02  0.00000000000E+00 0. -1.
         11    1    3    3    0    0  0.20548591577E+02 -0.18736833444E+02  0.13917484179E+02  0.31096782943E+02  0.51100000000E-03 0. -1.
        -11    1    3    3    0    0 -0.39610543484E+01 -0.51000261435E+01  0.25675809613E+01  0.69492942425E+01  0.51100000000E-03 0.  1.
        -12    1    3    3    0    0 -0.21079697585E+02 -0.15949360430E+01  0.22169219993E+01  0.21255874821E+02  0.00000000000E+00 0.  1.
</event>
<event>
 7    1  0.6246445E-012  0.5930195E+02  0.7816164E-02  0.1266605E+00
        -11   -1    0    0    0    0  0.00000000000E+00  0.00000000000E+00  0.45593999997E+02  0.45594000000E+02  0.51100000000E-03 0.  1.
         11   -1    0    0    0    0 -0.00000000000E+00 -0.00000000000E+00 -0.45593999997E+02  0.45594000000E+02  0.51100000000E-03 0. -1.
    9900012    2    1    2    0    0 -0.12661403655E+02  0.13653433220E+02  0.25884213655E+02  0.59301954498E+02  0.50000019096E+02 0.  0.
         12    1    1    2    0    0  0.12661403655E+02 -0.13653433220E+02 -0.25884213655E+02  0.31886045502E+02  0.00000000000E+00 0. -1.
         11    1    3    3    0    0 -0.12274214039E+02  0.64574010166E+01 -0.23984831264E+01  0.14075051677E+02  0.51100000000E-03 0. -1.
        -11    1    3    3    0    0 -0.12595761667E+02 -0.36967890491E+01  0.25430277544E+02  0.28618498868E+02  0.51100000000E-03 0.  1.
         12    1    3    3    0    0  0.12208572051E+02  0.10892821253E+02  0.28524192376E+01  0.16608403953E+02  0.00000000000E+00 0. -1.
</event>
<event>
 7    1  0.6246445E-012  0.5930193E+02  0.7816164E-02  0.1266605E+00
        -11   -1    0    0    0    0  0.00000000000E+00  0.00000000000E+00  0.45593999997E+02  0.45594000000E+02  0.51100000000E-03 0.  1.
         11   -1    0    0    0    0 -0.00000000000E+00 -0.00000000000E+00 -0.45593999997E+02  0.45594000000E+02  0.51100000000E-03 0. -1.
    9900012    2    1    2    0    0  0.25110104000E+02 -0.46299360052E+01  0.19098887747E+02  0.59301934964E+02  0.49999983469E+02 0.  0.
         12    1    1    2    0    0 -0.25110104000E+02  0.46299360052E+01 -0.19098887747E+02  0.31886065036E+02  0.00000000000E+00 0. -1.
         11    1    3    3    0    0 -0.71100211654E+01 -0.61653598549E+01  0.74332818583E+01  0.11992403536E+02  0.51100000000E-03 0. -1.
        -11    1    3    3    0    0 -0.20982018071E+01 -0.73483866073E+00 -0.75788770555E+01  0.78982160242E+01  0.51100000000E-03 0.  1.
        -12    1    3    3    0    0  0.34318326973E+02  0.22702625105E+01  0.19244482944E+02  0.39411315404E+02  0.00000000000E+00 0.  1.
</event>
<event>
 7    1  0.6246445E-012  0.5930195E+02  0.7816164E-02  0.1266605E+00
        -11   -1    0    0    0    0  0.00000000000E+00  0.00000000000E+00  0.45593999997E+02  0.45594000000E+02  0.51100000000E-03 0.  1.
         11   -1    0    0    0    0 -0.00000000000E+00 -0.00000000000E+00 -0.45593999997E+02  0.45594000000E+02  0.51100000000E-03 0. -1.
    9900012    2    1    2    0    0 -0.42628272701E+01 -0.50570395832E+00  0.31595770484E+02  0.59301950616E+02  0.50000012015E+02 0.  0.
         12    1    1    2    0    0  0.42628272701E+01  0.50570395832E+00 -0.31595770484E+02  0.31886049384E+02  0.00000000000E+00 0. -1.
         11    1    3    3    0    0 -0.11123629625E+02 -0.52907183196E+00 -0.18390642013E+01  0.11287037274E+02  0.51100000000E-03 0. -1.
        -11    1    3    3    0    0 -0.77288435196E+01 -0.12854920989E+02  0.14384677101E+02  0.20782274932E+02  0.51100000000E-03 0.  1.
        -12    1    3    3    0    0  0.14589645874E+02  0.12878288862E+02  0.19050157585E+02  0.27232638410E+02  0.00000000000E+00 0.  1.
</event>
<event>
 7    1  0.6246445E-012  0.5930193E+02  0.7816164E-02  0.1266605E+00
        -11   -1    0    0    0    0  0.00000000000E+00  0.00000000000E+00  0.45593999997E+02  0.45594000000E+02  0.51100000000E-03 0.  1.
         11   -1    0    0    0    0 -0.00000000000E+00 -0.00000000000E+00 -0.45593999997E+02  0.45594000000E+02  0.51100000000E-03 0. -1.
    9900012    2    1    2    0    0 -0.82961724425E+01  0.18499375646E+02  0.24610322566E+02  0.59301931674E+02  0.49999977470E+02 0.  0.
         12    1    1    2    0    0  0.82961724425E+01 -0.18499375646E+02 -0.24610322566E+02  0.31886068326E+02  0.00000000000E+00 0. -1.
         11    1    3    3    0    0  0.48976055076E+01  0.10251828366E+02  0.26006957031E+02  0.28380421752E+02  0.51100000000E-03 0. -1.
        -11    1    3    3    0    0 -0.26637104889E+01  0.38904691734E+01  0.12259597289E+02  0.13135023026E+02  0.51100000000E-03 0.  1.
         12    1    3    3    0    0 -0.10530067461E+02  0.43570781061E+01 -0.13656231754E+02  0.17786486896E+02  0.00000000000E+00 0. -1.
</event>
<event>
 7    1  0.6246445E-012  0.5930211E+02  0.7816164E-02  0.1266604E+00
        -11   -1    0    0    0    0  0.00000000000E+00  0.00000000000E+00  0.45593999997E+02  0.45594000000E+02  0.51100000000E-03 0. -1.
         11   -1    0    0    0    0 -0.00000000000E+00 -0.00000000000E+00 -0.45593999997E+02  0.45594000000E+02  0.51100000000E-03 0.  1.
    9900012    2    1    2    0    0 -0.27569026884E+00 -0.22874036505E+02 -0.22212889044E+02  0.59302109848E+02  0.50000302415E+02 0.  0.
         12    1    1    2    0    0  0.27569026884E+00  0.22874036505E+02  0.22212889044E+02  0.31885890152E+02  0.00000000000E+00 0. -1.
         11    1    3    3    0    0 -0.43326964782E+01 -0.21252732435E+01  0.50837969609E+01  0.70095675282E+01  0.51100000000E-03 0. -1.
        -11    1    3    3    0    0 -0.10086113600E+02 -0.27182046077E+02 -0.16341419237E+02  0.33281155320E+02  0.51100000000E-03 0.  1.
        -12    1    3    3    0    0  0.14143119809E+02  0.64332828155E+01 -0.10955266767E+02  0.19011387000E+02  0.00000000000E+00 0.  1.
</event>
<event>
 7    1  0.6246445E-012  0.5930192E+02  0.7816164E-02  0.1266605E+00
        -11   -1    0    0    0    0  0.00000000000E+00  0.00000000000E+00  0.45593999997E+02  0.45594000000E+02  0.51100000000E-03 0.  1.
         11   -1    0    0    0    0 -0.00000000000E+00 -0.00000000000E+00 -0.45593999997E+02  0.45594000000E+02  0.51100000000E-03 0. -1.
    9900012    2    1    2    0    0 -0.13324136082E+02  0.10364070173E+01  0.28950218052E+02  0.59301923617E+02  0.49999962776E+02 0.  0.
         12    1    1    2    0    0  0.13324136082E+02 -0.10364070173E+01 -0.28950218052E+02  0.31886076383E+02  0.00000000000E+00 0. -1.
         11    1    3    3    0    0 -0.21267638425E+01 -0.18649034981E+02  0.11089239013E+02  0.21800936959E+02  0.51100000000E-03 0. -1.
        -11    1    3    3    0    0  0.26453948105E+01  0.15043515364E+02  0.11607285902E+01  0.15318379788E+02  0.51100000000E-03 0.  1.
        -12    1    3    3    0    0 -0.13842767050E+02  0.46419266341E+01  0.16700250449E+02  0.22182606870E+02  0.00000000000E+00 0.  1.
</event>
<event>
 7    1  0.6246445E-012  0.5930195E+02  0.7816164E-02  0.1266605E+00
        -11   -1    0    0    0    0  0.00000000000E+00  0.00000000000E+00  0.45593999997E+02  0.45594000000E+02  0.51100000000E-03 0.  1.
         11   -1    0    0    0    0 -0.00000000000E+00 -0.00000000000E+00 -0.45593999997E+02  0.45594000000E+02  0.51100000000E-03 0. -1.
    9900012    2    1    2    0    0  0.58495644988E+00  0.58065490068E+01  0.31347444545E+02  0.59301945604E+02  0.50000002875E+02 0.  0.
         12    1    1    2    0    0 -0.58495644988E+00 -0.58065490068E+01 -0.31347444545E+02  0.31886054396E+02  0.00000000000E+00 0. -1.
         11    1    3    3    0    0 -0.43999694541E+00 -0.17600201243E+02  0.73643192556E+01  0.19083864374E+02  0.51100000000E-03 0. -1.
        -11    1    3    3    0    0 -0.93664481415E+00 -0.43178959342E+01  0.42573564033E+01  0.61356835490E+01  0.51100000000E-03 0.  1.
        -12    1    3    3    0    0  0.19615982095E+01  0.27724646184E+02  0.19725768886E+02  0.34082397681E+02  0.00000000000E+00 0.  1.
</event>
<event>
 7    1  0.6246445E-012  0.5930194E+02  0.7816164E-02  0.1266605E+00
        -11   -1    0    0    0    0  0.00000000000E+00  0.00000000000E+00  0.45593999997E+02  0.45594000000E+02  0.51100000000E-03 0.  1.
         11   -1    0    0    0    0 -0.00000000000E+00 -0.00000000000E+00 -0.45593999997E+02  0.45594000000E+02  0.51100000000E-03 0. -1.
    9900012    2    1    2    0    0  0.91482211632E+01 -0.15134036120E+02 -0.26532843549E+02  0.59301940561E+02  0.49999993678E+02 0.  0.
         12    1    1    2    0    0 -0.91482211632E+01  0.15134036120E+02  0.26532843549E+02  0.31886059439E+02  0.00000000000E+00 0. -1.
         11    1    3    3    0    0  0.18218572698E+02 -0.12362051485E+02  0.40475517358E+00  0.22020457196E+02  0.51100000000E-03 0. -1.
        -11    1    3    3    0    0  0.50269369474E+01  0.60776565488E+01 -0.37370146927E+01  0.87277307058E+01  0.51100000000E-03 0.  1.
         12    1    3    3    0    0 -0.14097288482E+02 -0.88496411831E+01 -0.23200584030E+02  0.28553752660E+02  0.00000000000E+00 0. -1.
</event>
<event>
 7    1  0.6294136E-012  0.5930194E+02  0.7816164E-02  0.1266605E+00
        -11   -1    0    0    0    0  0.00000000000E+00  0.00000000000E+00  0.45593999997E+02  0.45594000000E+02  0.51100000000E-03 0. -1.
         11   -1    0    0    0    0 -0.00000000000E+00 -0.00000000000E+00 -0.45593999997E+02  0.45594000000E+02  0.51100000000E-03 0.  1.
    9900012    2    1    2    0    0 -0.36610045449E+01 -0.31570329477E+02  0.25752713739E+01  0.59301942229E+02  0.49999996719E+02 0.  0.
         12    1    1    2    0    0  0.36610045449E+01  0.31570329477E+02 -0.25752713739E+01  0.31886057771E+02  0.00000000000E+00 0. -1.
         11    1    3    3    0    0  0.11861066224E+02 -0.10178792998E+02  0.86559425847E+01  0.17866674597E+02  0.51100000000E-03 0. -1.
        -11    1    3    3    0    0  0.21330051739E+01 -0.19336880955E+02 -0.11812597990E+02  0.22759660535E+02  0.51100000000E-03 0.  1.
         12    1    3    3    0    0 -0.17655075943E+02 -0.20546555243E+01  0.57319267788E+01  0.18675607098E+02  0.00000000000E+00 0. -1.
</event>
<event>
 7    1  0.6246445E-012  0.5930177E+02  0.7816164E-02  0.1266605E+00
        -11   -1    0    0    0    0  0.00000000000E+00  0.00000000000E+00  0.45593999997E+02  0.45594000000E+02  0.51100000000E-03 0. -1.
         11   -1    0    0    0    0 -0.00000000000E+00 -0.00000000000E+00 -0.45593999997E+02  0.45594000000E+02  0.51100000000E-03 0.  1.
    9900012    2    1    2    0    0  0.11651881513E+02 -0.21993185304E+02 -0.19931516757E+02  0.59301766248E+02  0.49999675772E+02 0.  0.
         12    1    1    2    0    0 -0.11651881513E+02  0.21993185304E+02  0.19931516757E+02  0.31886233752E+02  0.00000000000E+00 0. -1.
         11    1    3    3    0    0  0.17606075745E+02  0.14247434658E+01  0.53923727440E+01  0.18468391406E+02  0.51100000000E-03 0. -1.
        -11    1    3    3    0    0  0.51454541929E+01 -0.15225106363E+01  0.26627063127E+00  0.53725820421E+01  0.51100000000E-03 0.  1.
         12    1    3    3    0    0 -0.11099648424E+02 -0.21895418134E+02 -0.25590160133E+02  0.35460792800E+02  0.00000000000E+00 0. -1.
</event>
<event>
 7    1  0.6246445E-012  0.5930192E+02  0.7816164E-02  0.1266605E+00
        -11   -1    0    0    0    0  0.00000000000E+00  0.00000000000E+00  0.45593999997E+02  0.45594000000E+02  0.51100000000E-03 0.  1.
         11   -1    0    0    0    0 -0.00000000000E+00 -0.00000000000E+00 -0.45593999997E+02  0.45594000000E+02  0.51100000000E-03 0. -1.
    9900012    2    1    2    0    0  0.16252438987E+02 -0.13254471184E+02  0.24018730922E+02  0.59301918170E+02  0.49999952841E+02 0.  0.
         12    1    1    2    0    0 -0.16252438987E+02  0.13254471184E+02 -0.24018730922E+02  0.31886081830E+02  0.00000000000E+00 0. -1.
         11    1    3    3    0    0  0.25852624444E+01 -0.20774960577E+02  0.20342377083E+01  0.21033798806E+02  0.51100000000E-03 0. -1.
        -11    1    3    3    0    0  0.11489659871E+01 -0.27138509162E+01 -0.55804065663E+01  0.63107881712E+01  0.51100000000E-03 0.  1.
        -12    1    3    3    0    0  0.12518210555E+02  0.10234340309E+02  0.27564899780E+02  0.31957331192E+02  0.00000000000E+00 0.  1.
</event>
<event>
 7    1  0.6246445E-012  0.5930183E+02  0.7816164E-02  0.1266605E+00
        -11   -1    0    0    0    0  0.00000000000E+00  0.00000000000E+00  0.45593999997E+02  0.45594000000E+02  0.51100000000E-03 0. -1.
         11   -1    0    0    0    0 -0.00000000000E+00 -0.00000000000E+00 -0.45593999997E+02  0.45594000000E+02  0.51100000000E-03 0.  1.
    9900012    2    1    2    0    0 -0.16169662438E+02  0.21482812388E+02 -0.17139386593E+02  0.59301830832E+02  0.49999793557E+02 0.  0.
         12    1    1    2    0    0  0.16169662438E+02 -0.21482812388E+02  0.17139386593E+02  0.31886169168E+02  0.00000000000E+00 0. -1.
         11    1    3    3    0    0  0.75706168406E+01  0.17304831177E+02  0.87669873866E+00  0.18908728734E+02  0.51100000000E-03 0. -1.
        -11    1    3    3    0    0 -0.13337123468E+02 -0.68462652444E+00  0.53272971888E+01  0.14378027385E+02  0.51100000000E-03 0.  1.
        -12    1    3    3    0    0 -0.10403155811E+02  0.48626077358E+01 -0.23343382520E+02  0.26015074712E+02  0.00000000000E+00 0.  1.
</event>
<event>
 7    1  0.6246445E-012  0.5930192E+02  0.7816164E-02  0.1266605E+00
        -11   -1    0    0    0    0  0.00000000000E+00  0.00000000000E+00  0.45593999997E+02  0.45594000000E+02  0.51100000000E-03 0.  1.
         11   -1    0    0    0    0 -0.00000000000E+00 -0.00000000000E+00 -0.45593999997E+02  0.45594000000E+02  0.51100000000E-03 0. -1.
    9900012    2    1    2    0    0 -0.13046400988E+02  0.27953523998E+02  0.80693155824E+01  0.59301922527E+02  0.49999960788E+02 0.  0.
         12    1    1    2    0    0  0.13046400988E+02 -0.27953523998E+02 -0.80693155824E+01  0.31886077473E+02  0.00000000000E+00 0. -1.
         11    1    3    3    0    0 -0.30884865282E+01 -0.14884794149E+01  0.43805232627E+01  0.55626706104E+01  0.51100000000E-03 0. -1.
        -11    1    3    3    0    0 -0.10706647181E+02  0.29414197338E+01  0.19811297307E+02  0.22710608648E+02  0.51100000000E-03 0.  1.
         12    1    3    3    0    0  0.74873272128E+00  0.26500583679E+02 -0.16122504987E+02  0.31028643269E+02  0.00000000000E+00 0. -1.
</event>
<event>
 7    1  0.6246445E-012  0.5930198E+02  0.7816164E-02  0.1266605E+00
        -11   -1    0    0    0    0  0.00000000000E+00  0.00000000000E+00  0.45593999997E+02  0.45594000000E+02  0.51100000000E-03 0. -1.
         11   -1    0    0    0    0 -0.00000000000E+00 -0.00000000000E+00 -0.45593999997E+02  0.45594000000E+02  0.51100000000E-03 0.  1.
    9900012    2    1    2    0    0 -0.17310705993E+02 -0.26649675475E+02  0.26177398716E+01  0.59301979443E+02  0.50000064589E+02 0.  0.
         12    1    1    2    0    0  0.17310705993E+02  0.26649675475E+02 -0.26177398716E+01  0.31886020557E+02  0.00000000000E+00 0. -1.
         11    1    3    3    0    0 -0.21418069903E+02 -0.18734784837E+02  0.10106806436E+01  0.28473625636E+02  0.51100000000E-03 0. -1.
        -11    1    3    3    0    0 -0.27304843970E+01 -0.70596564877E+01 -0.12792882938E+02  0.14864459254E+02  0.51100000000E-03 0.  1.
        -12    1    3    3    0    0  0.68378483068E+01 -0.85523415109E+00  0.14399942166E+02  0.15963894553E+02  0.00000000000E+00 0.  1.
</event>
<event>
 7    1  0.6246445E-012  0.5930195E+02  0.7816164E-02  0.1266605E+00
        -11   -1    0    0    0    0  0.00000000000E+00  0.00000000000E+00  0.45593999997E+02  0.45594000000E+02  0.51100000000E-03 0. -1.
         11   -1    0    0    0    0 -0.00000000000E+00 -0.00000000000E+00 -0.45593999997E+02  0.45594000000E+02  0.51100000000E-03 0.  1.
    9900012    2    1    2    0    0 -0.61182014538E+01  0.15492744443E+02 -0.27189383414E+02  0.59301951486E+02  0.50000013603E+02 0.  0.
         12    1    1    2    0    0  0.61182014538E+01 -0.15492744443E+02  0.27189383414E+02  0.31886048514E+02  0.00000000000E+00 0. -1.
         11    1    3    3    0    0  0.80670524918E+01  0.86464074641E+01  0.97450426507E+00  0.11865384813E+02  0.51100000000E-03 0. -1.
        -11    1    3    3    0    0  0.57294094311E+01  0.26524394845E+01 -0.26246245937E+02  0.26994943855E+02  0.51100000000E-03 0.  1.
        -12    1    3    3    0    0 -0.19914663377E+02  0.41938974944E+01 -0.19176417412E+01  0.20441622818E+02  0.00000000000E+00 0.  1.
</event>
<event>
 7    1  0.6246445E-012  0.5930193E+02  0.7816164E-02  0.1266605E+00
        -11   -1    0    0    0    0  0.00000000000E+00  0.00000000000E+00  0.45593999997E+02  0.45594000000E+02  0.51100000000E-03 0.  1.
         11   -1    0    0    0    0 -0.00000000000E+00 -0.00000000000E+00 -0.45593999997E+02  0.45594000000E+02  0.51100000000E-03 0. -1.
    9900012    2    1    2    0    0  0.18729236040E+02  0.25800382823E+02  0.52650473903E+00  0.59301933393E+02  0.49999980604E+02 0.  0.
         12    1    1    2    0    0 -0.18729236040E+02 -0.25800382823E+02 -0.52650473903E+00  0.31886066607E+02  0.00000000000E+00 0. -1.
         11    1    3    3    0    0 -0.42799053880E+01 -0.87371692716E+01 -0.27480330208E+01  0.10109767690E+02  0.51100000000E-03 0. -1.
        -11    1    3    3    0    0  0.11029921487E+02  0.21580040524E+02 -0.10884507984E+02  0.26567458127E+02  0.51100000000E-03 0.  1.
         12    1    3    3    0    0  0.11979219941E+02  0.12957511571E+02  0.14159045743E+02  0.22624707575E+02  0.00000000000E+00 0. -1.
</event>
<event>
 7    1  0.6246445E-012  0.5930192E+02  0.7816164E-02  0.1266605E+00
        -11   -1    0    0    0    0  0.00000000000E+00  0.00000000000E+00  0.45593999997E+02  0.45594000000E+02  0.51100000000E-03 0.  1.
         11   -1    0    0    0    0 -0.00000000000E+00 -0.00000000000E+00 -0.45593999997E+02  0.45594000000E+02  0.51100000000E-03 0. -1.
    9900012    2    1    2    0    0  0.82901258911E+01  0.12450952713E+02  0.28159722669E+02  0.59301915393E+02  0.49999947778E+02 0.  0.
         12    1    1    2    0    0 -0.82901258911E+01 -0.12450952713E+02 -0.28159722669E+02  0.31886084607E+02  0.00000000000E+00 0. -1.
         11    1    3    3    0    0  0.54578376816E+01 -0.16126182252E+01  0.61113047997E+01  0.83508428506E+01  0.51100000000E-03 0. -1.
        -11    1    3    3    0    0  0.86135278117E+01 -0.12224118539E+02  0.18521963321E+02  0.23805147783E+02  0.51100000000E-03 0.  1.
         12    1    3    3    0    0 -0.57812396023E+01  0.26287689477E+02  0.35264545480E+01  0.27145924760E+02  0.00000000000E+00 0. -1.
</event>
<event>
 7    1  0.6246445E-012  0.5930200E+02  0.7816164E-02  0.1266605E+00
        -11   -1    0    0    0    0  0.00000000000E+00  0.00000000000E+00  0.45593999997E+02  0.45594000000E+02  0.51100000000E-03 0.  1.
         11   -1    0    0    0    0 -0.00000000000E+00 -0.00000000000E+00 -0.45593999997E+02  0.45594000000E+02  0.51100000000E-03 0. -1.
    9900012    2    1    2    0    0  0.27544319157E+02  0.11990817277E+01 -0.16018412096E+02  0.59302002432E+02  0.50000106515E+02 0.  0.
         12    1    1    2    0    0 -0.27544319157E+02 -0.11990817277E+01  0.16018412096E+02  0.31885997568E+02  0.00000000000E+00 0. -1.
         11    1    3    3    0    0  0.85806846944E+01 -0.11104514938E+02 -0.23922023226E+02  0.27734483903E+02  0.51100000000E-03 0. -1.
        -11    1    3    3    0    0  0.14045242756E+02 -0.25329128946E+01  0.52119826256E+00  0.14281321357E+02  0.51100000000E-03 0.  1.
        -12    1    3    3    0    0  0.49183917070E+01  0.14836509561E+02  0.73824128676E+01  0.17286197172E+02  0.00000000000E+00 0.  1.
</event>
<event>
 7    1  0.6246445E-012  0.5930193E+02  0.7816164E-02  0.1266605E+00
        -11   -1    0    0    0    0  0.00000000000E+00  0.00000000000E+00  0.45593999997E+02  0.45594000000E+02  0.51100000000E-03 0. -1.
         11   -1    0    0    0    0 -0.00000000000E+00 -0.00000000000E+00 -0.45593999997E+02  0.45594000000E+02  0.51100000000E-03 0.  1.
    9900012    2    1    2    0    0 -0.26604468146E+01  0.28741849297E+02  0.13548055053E+02  0.59301926646E+02  0.49999968299E+02 0.  0.
         12    1    1    2    0    0  0.26604468146E+01 -0.28741849297E+02 -0.13548055053E+02  0.31886073354E+02  0.00000000000E+00 0. -1.
         11    1    3    3    0    0 -0.19349157883E+02  0.14303924088E+02  0.75504619576E+01  0.25219072765E+02  0.51100000000E-03 0. -1.
        -11    1    3    3    0    0 -0.52500798730E+01  0.28653247835E+01 -0.41537906091E+01  0.72819915870E+01  0.51100000000E-03 0.  1.
         12    1    3    3    0    0  0.21938790941E+02  0.11572600425E+02  0.10151383705E+02  0.26800862293E+02  0.00000000000E+00 0. -1.
</event>
<event>
 7    1  0.6246445E-012  0.5930198E+02  0.7816164E-02  0.1266605E+00
        -11   -1    0    0    0    0  0.00000000000E+00  0.00000000000E+00  0.45593999997E+02  0.45594000000E+02  0.51100000000E-03 0. -1.
         11   -1    0    0    0    0 -0.00000000000E+00 -0.00000000000E+00 -0.45593999997E+02  0.45594000000E+02  0.51100000000E-03 0.  1.
    9900012    2    1    2    0    0  0.66277033431E+01 -0.30926817632E+02  0.40402911724E+01  0.59301977150E+02  0.50000060407E+02 0.  0.
         12    1    1    2    0    0 -0.66277033431E+01  0.30926817632E+02 -0.40402911724E+01  0.31886022850E+02  0.00000000000E+00 0. -1.
         11    1    3    3    0    0  0.21505556947E+02 -0.22080167204E+02  0.20767345641E+01  0.30892322510E+02  0.51100000000E-03 0. -1.
        -11    1    3    3    0    0 -0.18745235930E+01 -0.12978859532E+02 -0.37171842890E+01  0.13630190489E+02  0.51100000000E-03 0.  1.
         12    1    3    3    0    0 -0.13003330011E+02  0.41322091043E+01  0.56807408973E+01  0.14779464151E+02  0.00000000000E+00 0. -1.
</event>
<event>
 7    1  0.6246445E-012  0.5930195E+02  0.7816164E-02  0.1266605E+00
        -11   -1    0    0    0    0  0.00000000000E+00  0.00000000000E+00  0.45593999997E+02  0.45594000000E+02  0.51100000000E-03 0.  1.
         11   -1    0    0    0    0 -0.00000000000E+00 -0.00000000000E+00 -0.45593999997E+02  0.45594000000E+02  0.51100000000E-03 0. -1.
    9900012    2    1    2    0    0  0.21902851158E+02  0.29486759845E+01  0.22984573721E+02  0.59301949632E+02  0.50000010221E+02 0.  0.
         12    1    1    2    0    0 -0.21902851158E+02 -0.29486759845E+01 -0.22984573721E+02  0.31886050368E+02  0.00000000000E+00 0. -1.
         11    1    3    3    0    0  0.54558265486E+01 -0.71361615649E+01 -0.58668082012E+01  0.10728946078E+02  0.51100000000E-03 0. -1.
        -11    1    3    3    0    0  0.13129957752E+02 -0.63581655861E+01 -0.68638773278E+00  0.14604560540E+02  0.51100000000E-03 0.  1.
        -12    1    3    3    0    0  0.33170668578E+01  0.16443003136E+02  0.29537769655E+02  0.33968443015E+02  0.00000000000E+00 0.  1.
</event>
<event>
 7    1  0.6246445E-012  0.5930197E+02  0.7816164E-02  0.1266605E+00
        -11   -1    0    0    0    0  0.00000000000E+00  0.00000000000E+00  0.45593999997E+02  0.45594000000E+02  0.51100000000E-03 0.  1.
         11   -1    0    0    0    0 -0.00000000000E+00 -0.00000000000E+00 -0.45593999997E+02  0.45594000000E+02  0.51100000000E-03 0. -1.
    9900012    2    1    2    0    0  0.10493121044E+02  0.27025375430E+02  0.13275629832E+02  0.59301970868E+02  0.50000048951E+02 0.  0.
         12    1    1    2    0    0 -0.10493121044E+02 -0.27025375430E+02 -0.13275629832E+02  0.31886029132E+02  0.00000000000E+00 0. -1.
         11    1    3    3    0    0  0.41882578131E+01  0.66688776002E+01 -0.62408038110E+01  0.10048037840E+02  0.51100000000E-03 0. -1.
        -11    1    3    3    0    0  0.12887172135E+02  0.18765859437E+02 -0.54310643629E+01  0.23403699417E+02  0.51100000000E-03 0.  1.
        -12    1    3    3    0    0 -0.65823089041E+01  0.15906383923E+01  0.24947498006E+02  0.25850233611E+02  0.00000000000E+00 0.  1.
</event>
<event>
 7    1  0.6246445E-012  0.5930196E+02  0.7816164E-02  0.1266605E+00
        -11   -1    0    0    0    0  0.00000000000E+00  0.00000000000E+00  0.45593999997E+02  0.45594000000E+02  0.51100000000E-03 0.  1.
         11   -1    0    0    0    0 -0.00000000000E+00 -0.00000000000E+00 -0.45593999997E+02  0.45594000000E+02  0.51100000000E-03 0. -1.
    9900012    2    1    2    0    0 -0.57582165437E+01 -0.10888691137E+02  0.29410866902E+02  0.59301956904E+02  0.50000023483E+02 0.  0.
         12    1    1    2    0    0  0.57582165437E+01  0.10888691137E+02 -0.29410866902E+02  0.31886043096E+02  0.00000000000E+00 0. -1.
         11    1    3    3    0    0 -0.12630126599E+02  0.42902698532E+01  0.69730493374E+01  0.15051575686E+02  0.51100000000E-03 0. -1.
        -11    1    3    3    0    0  0.81411896893E+01 -0.97887625300E+01 -0.68404361943E+01  0.14453041514E+02  0.51100000000E-03 0.  1.
         12    1    3    3    0    0 -0.12692796340E+01 -0.53901984602E+01  0.29278253758E+02  0.29797339703E+02  0.00000000000E+00 0. -1.
</event>
<event>
 7    1  0.6246445E-012  0.5930197E+02  0.7816164E-02  0.1266605E+00
        -11   -1    0    0    0    0  0.00000000000E+00  0.00000000000E+00  0.45593999997E+02  0.45594000000E+02  0.51100000000E-03 0.  1.
         11   -1    0    0    0    0 -0.00000000000E+00 -0.00000000000E+00 -0.45593999997E+02  0.45594000000E+02  0.51100000000E-03 0. -1.
    9900012    2    1    2    0    0  0.11014042138E+02 -0.24210752263E+02  0.17585489876E+02  0.59301966952E+02  0.50000041807E+02 0.  0.
         12    1    1    2    0    0 -0.11014042138E+02  0.24210752263E+02 -0.17585489876E+02  0.31886033048E+02  0.00000000000E+00 0. -1.
         11    1    3    3    0    0 -0.13473889839E+02 -0.17295008807E+02  0.14441743156E+02  0.26253132817E+02  0.51100000000E-03 0. -1.
        -11    1    3    3    0    0  0.25586513671E+01 -0.92513665999E+01 -0.31716061367E+01  0.10109083368E+02  0.51100000000E-03 0.  1.
        -12    1    3    3    0    0  0.21929280611E+02  0.23356231436E+01  0.63153528566E+01  0.22939750767E+02  0.00000000000E+00 0.  1.
</event>
<event>
 7    1  0.6246445E-012  0.5930187E+02  0.7816164E-02  0.1266605E+00
        -11   -1    0    0    0    0  0.00000000000E+00  0.00000000000E+00  0.45593999997E+02  0.45594000000E+02  0.51100000000E-03 0.  1.
         11   -1    0    0    0    0 -0.00000000000E+00 -0.00000000000E+00 -0.45593999997E+02  0.45594000000E+02  0.51100000000E-03 0. -1.
    9900012    2    1    2    0    0 -0.25896870744E+02 -0.14960554500E+02  0.11057089962E+02  0.59301869101E+02  0.49999863351E+02 0.  0.
         12    1    1    2    0    0  0.25896870744E+02  0.14960554500E+02 -0.11057089962E+02  0.31886130899E+02  0.00000000000E+00 0. -1.
         11    1    3    3    0    0 -0.87527645514E+01  0.14505559572E+02 -0.59669124276E+01  0.17961798072E+02  0.51100000000E-03 0. -1.
        -11    1    3    3    0    0 -0.22692416711E+01 -0.11825169032E+02  0.13343636330E+02  0.17973222059E+02  0.51100000000E-03 0.  1.
        -12    1    3    3    0    0 -0.14874864522E+02 -0.17640945040E+02  0.36803660596E+01  0.23366848970E+02  0.00000000000E+00 0.  1.
</event>
<event>
 7    1  0.6246445E-012  0.5930198E+02  0.7816164E-02  0.1266605E+00
        -11   -1    0    0    0    0  0.00000000000E+00  0.00000000000E+00  0.45593999997E+02  0.45594000000E+02  0.51100000000E-03 0. -1.
         11   -1    0    0    0    0 -0.00000000000E+00 -0.00000000000E+00 -0.45593999997E+02  0.45594000000E+02  0.51100000000E-03 0.  1.
    9900012    2    1    2    0    0 -0.55338381475E+01  0.29933694705E+02 -0.94904644064E+01  0.59301978643E+02  0.50000063130E+02 0.  0.
         12    1    1    2    0    0  0.55338381475E+01 -0.29933694705E+02  0.94904644064E+01  0.31886021357E+02  0.00000000000E+00 0. -1.
         11    1    3    3    0    0  0.11059489594E+02  0.24261666442E+02 -0.11220136746E+01  0.26687069595E+02  0.51100000000E-03 0. -1.
        -11    1    3    3    0    0 -0.12647305178E+02  0.15711858953E+02 -0.83438278186E+01  0.21827420895E+02  0.51100000000E-03 0.  1.
        -12    1    3    3    0    0 -0.39460225637E+01 -0.10039830690E+02 -0.24622913296E-01  0.10787488153E+02  0.00000000000E+00 0.  1.
</event>
<event>
 7    1  0.6246445E-012  0.5930199E+02  0.7816164E-02  0.1266605E+00
        -11   -1    0    0    0    0  0.00000000000E+00  0.00000000000E+00  0.45593999997E+02  0.45594000000E+02  0.51100000000E-03 0. -1.
         11   -1    0    0    0    0 -0.00000000000E+00 -0.00000000000E+00 -0.45593999997E+02  0.45594000000E+02  0.51100000000E-03 0.  1.
    9900012    2    1    2    0    0  0.19994739385E+02 -0.21947301564E+02 -0.11629456797E+02  0.59301985598E+02  0.50000075815E+02 0.  0.
         12    1    1    2    0    0 -0.19994739385E+02  0.21947301564E+02  0.11629456797E+02  0.31886014402E+02  0.00000000000E+00 0. -1.
         11    1    3    3    0    0  0.11789735476E+02 -0.21833061549E+02 -0.13704035077E+02  0.28345740718E+02  0.51100000000E-03 0. -1.
        -11    1    3    3    0    0  0.16252793456E+02 -0.92566761446E+01  0.10558337846E+01  0.18733769872E+02  0.51100000000E-03 0.  1.
         12    1    3    3    0    0 -0.80477895474E+01  0.91424361296E+01  0.10187444951E+01  0.12222475008E+02  0.00000000000E+00 0. -1.
</event>
<event>
 7    1  0.6246445E-012  0.5930190E+02  0.7816164E-02  0.1266605E+00
        -11   -1    0    0    0    0  0.00000000000E+00  0.00000000000E+00  0.45593999997E+02  0.45594000000E+02  0.51100000000E-03 0.  1.
         11   -1    0    0    0    0 -0.00000000000E+00 -0.00000000000E+00 -0.45593999997E+02  0.45594000000E+02  0.51100000000E-03 0. -1.
    9900012    2    1    2    0    0 -0.17134065715E+01 -0.40954953707E+01  0.31575535221E+02  0.59301901635E+02  0.49999922687E+02 0.  0.
         12    1    1    2    0    0  0.17134065715E+01  0.40954953707E+01 -0.31575535221E+02  0.31886098365E+02  0.00000000000E+00 0. -1.
         11    1    3    3    0    0 -0.17388980321E+02 -0.17635810771E+01  0.11327047442E+02  0.20827598489E+02  0.51100000000E-03 0. -1.
        -11    1    3    3    0    0  0.67268431237E+01  0.97254246386E+01  0.20260561394E+02  0.23458999362E+02  0.51100000000E-03 0.  1.
         12    1    3    3    0    0  0.89487306258E+01 -0.12057338932E+02 -0.12073615330E-01  0.15015303783E+02  0.00000000000E+00 0. -1.
</event>
<event>
 7    1  0.6246445E-012  0.5930195E+02  0.7816164E-02  0.1266605E+00
        -11   -1    0    0    0    0  0.00000000000E+00  0.00000000000E+00  0.45593999997E+02  0.45594000000E+02  0.51100000000E-03 0.  1.
         11   -1    0    0    0    0 -0.00000000000E+00 -0.00000000000E+00 -0.45593999997E+02  0.45594000000E+02  0.51100000000E-03 0. -1.
    9900012    2    1    2    0    0  0.30746234607E+02  0.21146543669E+00  0.84465871390E+01  0.59301945141E+02  0.50000002031E+02 0.  0.
         12    1    1    2    0    0 -0.30746234607E+02 -0.21146543669E+00 -0.84465871390E+01  0.31886054859E+02  0.00000000000E+00 0. -1.
         11    1    3    3    0    0  0.13736584683E+00 -0.65733575451E+01 -0.52622135513E+01  0.84213294979E+01  0.51100000000E-03 0. -1.
        -11    1    3    3    0    0  0.29524101517E+02 -0.10748711420E+02  0.93345853681E+01  0.32777154420E+02  0.51100000000E-03 0.  1.
         12    1    3    3    0    0  0.10847672432E+01  0.17533534402E+02  0.43742153222E+01  0.18103461224E+02  0.00000000000E+00 0. -1.
</event>
<event>
 7    1  0.6246445E-012  0.5930194E+02  0.7816164E-02  0.1266605E+00
        -11   -1    0    0    0    0  0.00000000000E+00  0.00000000000E+00  0.45593999997E+02  0.45594000000E+02  0.51100000000E-03 0. -1.
         11   -1    0    0    0    0 -0.00000000000E+00 -0.00000000000E+00 -0.45593999997E+02  0.45594000000E+02  0.51100000000E-03 0.  1.
    9900012    2    1    2    0    0 -0.25210328163E+02 -0.55140157917E+01  0.18728469254E+02  0.59301943849E+02  0.49999999674E+02 0.  0.
         12    1    1    2    0    0  0.25210328163E+02  0.55140157917E+01 -0.18728469254E+02  0.31886056151E+02  0.00000000000E+00 0. -1.
         11    1    3    3    0    0 -0.12980851926E+02  0.96561757127E+01  0.43032031333E+01  0.16741021581E+02  0.51100000000E-03 0. -1.
        -11    1    3    3    0    0 -0.13409644964E+02  0.63150251393E+01 -0.26927823791E+01  0.15064833148E+02  0.51100000000E-03 0.  1.
         12    1    3    3    0    0  0.11801687265E+01 -0.21485216644E+02  0.17118048500E+02  0.27496089120E+02  0.00000000000E+00 0. -1.
</event>
<event>
 7    1  0.6246445E-012  0.5930195E+02  0.7816164E-02  0.1266605E+00
        -11   -1    0    0    0    0  0.00000000000E+00  0.00000000000E+00  0.45593999997E+02  0.45594000000E+02  0.51100000000E-03 0.  1.
         11   -1    0    0    0    0 -0.00000000000E+00 -0.00000000000E+00 -0.45593999997E+02  0.45594000000E+02  0.51100000000E-03 0. -1.
    9900012    2    1    2    0    0 -0.28126024482E+02 -0.98526791961E+00  0.14989198732E+02  0.59301951568E+02  0.50000013751E+02 0.  0.
         12    1    1    2    0    0  0.28126024482E+02  0.98526791961E+00 -0.14989198732E+02  0.31886048432E+02  0.00000000000E+00 0. -1.
         11    1    3    3    0    0 -0.10207769614E+02 -0.16405437024E+02  0.69841980730E+01  0.20545460507E+02  0.51100000000E-03 0.  1.
        -11    1    3    3    0    0 -0.97802199408E+01  0.10582953932E+02  0.19256945698E+02  0.24051643892E+02  0.51100000000E-03 0. -1.
         12    1    3    3    0    0 -0.81380349271E+01  0.48372151725E+01 -0.11251945039E+02  0.14704847169E+02  0.00000000000E+00 0. -1.
</event>
<event>
 7    1  0.6246445E-012  0.5930195E+02  0.7816164E-02  0.1266605E+00
        -11   -1    0    0    0    0  0.00000000000E+00  0.00000000000E+00  0.45593999997E+02  0.45594000000E+02  0.51100000000E-03 0. -1.
         11   -1    0    0    0    0 -0.00000000000E+00 -0.00000000000E+00 -0.45593999997E+02  0.45594000000E+02  0.51100000000E-03 0.  1.
    9900012    2    1    2    0    0  0.19330990049E+02 -0.12714618684E+02 -0.21940179601E+02  0.59301949986E+02  0.50000010867E+02 0.  0.
         12    1    1    2    0    0 -0.19330990049E+02  0.12714618684E+02  0.21940179601E+02  0.31886050014E+02  0.00000000000E+00 0. -1.
         11    1    3    3    0    0  0.46031195059E+01 -0.26969538533E+02 -0.17186420713E+02  0.32309716419E+02  0.51100000000E-03 0. -1.
        -11    1    3    3    0    0  0.18182460060E+01 -0.18086947099E+01 -0.58163259545E+01  0.63566534405E+01  0.51100000000E-03 0.  1.
        -12    1    3    3    0    0  0.12909624538E+02  0.16063614559E+02  0.10625670666E+01  0.20635580127E+02  0.00000000000E+00 0.  1.
</event>
<event>
 7    1  0.6246445E-012  0.5930197E+02  0.7816164E-02  0.1266605E+00
        -11   -1    0    0    0    0  0.00000000000E+00  0.00000000000E+00  0.45593999997E+02  0.45594000000E+02  0.51100000000E-03 0.  1.
         11   -1    0    0    0    0 -0.00000000000E+00 -0.00000000000E+00 -0.45593999997E+02  0.45594000000E+02  0.51100000000E-03 0. -1.
    9900012    2    1    2    0    0 -0.16467940964E+02  0.94760674845E+01  0.25607229523E+02  0.59301966405E+02  0.50000040811E+02 0.  0.
         12    1    1    2    0    0  0.16467940964E+02 -0.94760674845E+01 -0.25607229523E+02  0.31886033595E+02  0.00000000000E+00 0. -1.
         11    1    3    3    0    0 -0.20566894427E+02 -0.23657273095E+01  0.22605034149E+01  0.20825553727E+02  0.51100000000E-03 0. -1.
        -11    1    3    3    0    0 -0.11344532703E+02  0.46115233555E+00  0.76699420996E+01  0.13701791700E+02  0.51100000000E-03 0.  1.
         12    1    3    3    0    0  0.15443486166E+02  0.11380642458E+02  0.15676784009E+02  0.24774620978E+02  0.00000000000E+00 0. -1.
</event>
<event>
 7    1  0.6246445E-012  0.5930196E+02  0.7816164E-02  0.1266605E+00
        -11   -1    0    0    0    0  0.00000000000E+00  0.00000000000E+00  0.45593999997E+02  0.45594000000E+02  0.51100000000E-03 0. -1.
         11   -1    0    0    0    0 -0.00000000000E+00 -0.00000000000E+00 -0.45593999997E+02  0.45594000000E+02  0.51100000000E-03 0.  1.
    9900012    2    1    2    0    0  0.24865419502E+02 -0.29749130640E+01 -0.19737791814E+02  0.59301958847E+02  0.50000027026E+02 0.  0.
         12    1    1    2    0    0 -0.24865419502E+02  0.29749130640E+01  0.19737791814E+02  0.31886041153E+02  0.00000000000E+00 0. -1.
         11    1    3    3    0    0  0.61528621030E+01 -0.18034304472E+01  0.11727077848E+02  0.13365419131E+02  0.51100000000E-03 0. -1.
        -11    1    3    3    0    0  0.55766306852E+01 -0.22778541409E+01  0.45731676712E+01  0.75631535814E+01  0.51100000000E-03 0.  1.
        -12    1    3    3    0    0  0.13135926714E+02  0.11063715242E+01 -0.36038037333E+02  0.38373386134E+02  0.00000000000E+00 0.  1.
</event>
<event>
 7    1  0.6246445E-012  0.5930197E+02  0.7816164E-02  0.1266605E+00
        -11   -1    0    0    0    0  0.00000000000E+00  0.00000000000E+00  0.45593999997E+02  0.45594000000E+02  0.51100000000E-03 0. -1.
         11   -1    0    0    0    0 -0.00000000000E+00 -0.00000000000E+00 -0.45593999997E+02  0.45594000000E+02  0.51100000000E-03 0.  1.
    9900012    2    1    2    0    0  0.26815031202E+02  0.16010591529E+02 -0.64291276313E+01  0.59301974510E+02  0.50000055591E+02 0.  0.
         12    1    1    2    0    0 -0.26815031202E+02 -0.16010591529E+02  0.64291276313E+01  0.31886025490E+02  0.00000000000E+00 0. -1.
         11    1    3    3    0    0 -0.17145242364E+01  0.20635330514E+01  0.22282986250E+00  0.26921024163E+01  0.51100000000E-03 0. -1.
        -11    1    3    3    0    0  0.11161831210E+02  0.30208466568E+02 -0.13436622710E+01  0.32232644274E+02  0.51100000000E-03 0.  1.
        -12    1    3    3    0    0  0.17367724229E+02 -0.16261408090E+02 -0.53082952227E+01  0.24377227819E+02  0.00000000000E+00 0.  1.
</event>
<event>
 7    1  0.6246445E-012  0.5930195E+02  0.7816164E-02  0.1266605E+00
        -11   -1    0    0    0    0  0.00000000000E+00  0.00000000000E+00  0.45593999997E+02  0.45594000000E+02  0.51100000000E-03 0.  1.
         11   -1    0    0    0    0 -0.00000000000E+00 -0.00000000000E+00 -0.45593999997E+02  0.45594000000E+02  0.51100000000E-03 0. -1.
    9900012    2    1    2    0    0  0.46628120579E+01  0.29003606521E+02  0.12400372056E+02  0.59301949215E+02  0.50000009461E+02 0.  0.
         12    1    1    2    0    0 -0.46628120579E+01 -0.29003606521E+02 -0.12400372056E+02  0.31886050785E+02  0.00000000000E+00 0. -1.
         11    1    3    3    0    0 -0.13758745669E+02  0.24605355373E+01 -0.84446869431E+01  0.16330035375E+02  0.51100000000E-03 0. -1.
        -11    1    3    3    0    0  0.52510071156E+01 -0.13843174318E+01  0.76783506531E+01  0.94045988481E+01  0.51100000000E-03 0.  1.
        -12    1    3    3    0    0  0.13170550611E+02  0.27927388416E+02  0.13166708346E+02  0.33567314992E+02  0.00000000000E+00 0.  1.
</event>
<event>
 7    1  0.6246445E-012  0.5930195E+02  0.7816164E-02  0.1266605E+00
        -11   -1    0    0    0    0  0.00000000000E+00  0.00000000000E+00  0.45593999997E+02  0.45594000000E+02  0.51100000000E-03 0. -1.
         11   -1    0    0    0    0 -0.00000000000E+00 -0.00000000000E+00 -0.45593999997E+02  0.45594000000E+02  0.51100000000E-03 0.  1.
    9900012    2    1    2    0    0 -0.19672011386E+02  0.18753316521E+02 -0.16674692182E+02  0.59301948632E+02  0.50000008396E+02 0.  0.
         12    1    1    2    0    0  0.19672011386E+02 -0.18753316521E+02  0.16674692182E+02  0.31886051368E+02  0.00000000000E+00 0. -1.
         11    1    3    3    0    0 -0.92374777827E+01 -0.11522110890E+02 -0.83026010900E+01  0.16941759657E+02  0.51100000000E-03 0. -1.
        -11    1    3    3    0    0 -0.12698199678E+02  0.20169715115E+01 -0.50645911625E+01  0.13818919387E+02  0.51100000000E-03 0.  1.
        -12    1    3    3    0    0  0.22636660744E+01  0.28258455899E+02 -0.33074999297E+01  0.28541269588E+02  0.00000000000E+00 0.  1.
</event>
<event>
 7    1  0.6246445E-012  0.5930208E+02  0.7816164E-02  0.1266604E+00
        -11   -1    0    0    0    0  0.00000000000E+00  0.00000000000E+00  0.45593999997E+02  0.45594000000E+02  0.51100000000E-03 0. -1.
         11   -1    0    0    0    0 -0.00000000000E+00 -0.00000000000E+00 -0.45593999997E+02  0.45594000000E+02  0.51100000000E-03 0.  1.
    9900012    2    1    2    0    0  0.22867865295E+02  0.21712394746E+02 -0.47269794250E+01  0.59302083309E+02  0.50000254015E+02 0.  0.
         12    1    1    2    0    0 -0.22867865295E+02 -0.21712394746E+02  0.47269794250E+01  0.31885916691E+02  0.00000000000E+00 0. -1.
         11    1    3    3    0    0  0.49860563296E+01 -0.50335885785E+01  0.67008149267E+01  0.97518558564E+01  0.51100000000E-03 0. -1.
        -11    1    3    3    0    0 -0.56030625691E+01 -0.53812361874E+01 -0.50003933349E+01  0.92388282170E+01  0.51100000000E-03 0.  1.
        -12    1    3    3    0    0  0.23484871534E+02  0.32127219512E+02 -0.64274010168E+01  0.40311399236E+02  0.00000000000E+00 0.  1.
</event>
<event>
 7    1  0.6246445E-012  0.5930195E+02  0.7816164E-02  0.1266605E+00
        -11   -1    0    0    0    0  0.00000000000E+00  0.00000000000E+00  0.45593999997E+02  0.45594000000E+02  0.51100000000E-03 0. -1.
         11   -1    0    0    0    0 -0.00000000000E+00 -0.00000000000E+00 -0.45593999997E+02  0.45594000000E+02  0.51100000000E-03 0.  1.
    9900012    2    1    2    0    0  0.22747613772E+02 -0.21307252109E+02 -0.67280859449E+01  0.59301951872E+02  0.50000014306E+02 0.  0.
         12    1    1    2    0    0 -0.22747613772E+02  0.21307252109E+02  0.67280859449E+01  0.31886048128E+02  0.00000000000E+00 0. -1.
         11    1    3    3    0    0  0.11592992981E+02 -0.99976625367E+01 -0.91218613779E+01  0.17820187926E+02  0.51100000000E-03 0. -1.
        -11    1    3    3    0    0  0.22143090928E+02  0.37735072688E+01  0.37415320766E+01  0.22771800445E+02  0.51100000000E-03 0.  1.
         12    1    3    3    0    0 -0.10988470137E+02 -0.15083096841E+02 -0.13477566436E+01  0.18709963501E+02  0.00000000000E+00 0. -1.
</event>
<event>
 7    1  0.6246445E-012  0.5930195E+02  0.7816164E-02  0.1266605E+00
        -11   -1    0    0    0    0  0.00000000000E+00  0.00000000000E+00  0.45593999997E+02  0.45594000000E+02  0.51100000000E-03 0. -1.
         11   -1    0    0    0    0 -0.00000000000E+00 -0.00000000000E+00 -0.45593999997E+02  0.45594000000E+02  0.51100000000E-03 0.  1.
    9900012    2    1    2    0    0  0.11055334157E+02  0.27277023741E+02 -0.12266375531E+02  0.59301946526E+02  0.50000004556E+02 0.  0.
         12    1    1    2    0    0 -0.11055334157E+02 -0.27277023741E+02  0.12266375531E+02  0.31886053474E+02  0.00000000000E+00 0. -1.
         11    1    3    3    0    0  0.17971044051E+02  0.88252482386E+01 -0.79610557761E+01  0.21545807947E+02  0.51100000000E-03 0. -1.
        -11    1    3    3    0    0  0.98338106773E+01 -0.23326439995E+01 -0.44970550108E+01  0.11062032566E+02  0.51100000000E-03 0.  1.
         12    1    3    3    0    0 -0.16749520571E+02  0.20784419502E+02  0.19173525561E+00  0.26694106013E+02  0.00000000000E+00 0. -1.
</event>
<event>
 7    1  0.6246445E-012  0.5930195E+02  0.7816164E-02  0.1266605E+00
        -11   -1    0    0    0    0  0.00000000000E+00  0.00000000000E+00  0.45593999997E+02  0.45594000000E+02  0.51100000000E-03 0. -1.
         11   -1    0    0    0    0 -0.00000000000E+00 -0.00000000000E+00 -0.45593999997E+02  0.45594000000E+02  0.51100000000E-03 0.  1.
    9900012    2    1    2    0    0 -0.87144833582E+01 -0.30639380291E+02 -0.14163923318E+01  0.59301952705E+02  0.50000015826E+02 0.  0.
         12    1    1    2    0    0  0.87144833582E+01  0.30639380291E+02  0.14163923318E+01  0.31886047295E+02  0.00000000000E+00 0. -1.
         11    1    3    3    0    0  0.81654516865E+01 -0.18143797061E+02 -0.62522929447E+01  0.20855769954E+02  0.51100000000E-03 0. -1.
        -11    1    3    3    0    0 -0.33279374749E+01  0.18813296981E+01 -0.11933955705E+02  0.12531315505E+02  0.51100000000E-03 0.  1.
         12    1    3    3    0    0 -0.13551997570E+02 -0.14376912928E+02  0.16769856318E+02  0.25914867246E+02  0.00000000000E+00 0. -1.
</event>
<event>
 7    1  0.6246445E-012  0.5930190E+02  0.7816164E-02  0.1266605E+00
        -11   -1    0    0    0    0  0.00000000000E+00  0.00000000000E+00  0.45593999997E+02  0.45594000000E+02  0.51100000000E-03 0. -1.
         11   -1    0    0    0    0 -0.00000000000E+00 -0.00000000000E+00 -0.45593999997E+02  0.45594000000E+02  0.51100000000E-03 0.  1.
    9900012    2    1    2    0    0  0.89247232422E+01 -0.17653229093E+02 -0.25008728223E+02  0.59301895351E+02  0.49999911224E+02 0.  0.
         12    1    1    2    0    0 -0.89247232422E+01  0.17653229093E+02  0.25008728223E+02  0.31886104649E+02  0.00000000000E+00 0. -1.
         11    1    3    3    0    0  0.67436791304E+01  0.27586713813E+01 -0.21104744834E+02  0.22327062744E+02  0.51100000000E-03 0. -1.
        -11    1    3    3    0    0  0.44068533567E+01  0.67707179757E+01  0.33616224564E+01  0.87500562406E+01  0.51100000000E-03 0.  1.
        -12    1    3    3    0    0 -0.22258092448E+01 -0.27182618450E+02 -0.72656058457E+01  0.28224776366E+02  0.00000000000E+00 0.  1.
</event>
<event>
 7    1  0.6246445E-012  0.5930185E+02  0.7816164E-02  0.1266605E+00
        -11   -1    0    0    0    0  0.00000000000E+00  0.00000000000E+00  0.45593999997E+02  0.45594000000E+02  0.51100000000E-03 0. -1.
         11   -1    0    0    0    0 -0.00000000000E+00 -0.00000000000E+00 -0.45593999997E+02  0.45594000000E+02  0.51100000000E-03 0.  1.
    9900012    2    1    2    0    0 -0.27575701021E+02  0.69188671723E+01 -0.14437342527E+02  0.59301845183E+02  0.49999819731E+02 0.  0.
         12    1    1    2    0    0  0.27575701021E+02 -0.69188671723E+01  0.14437342527E+02  0.31886154817E+02  0.00000000000E+00 0. -1.
         11    1    3    3    0    0 -0.95399843264E+01 -0.56642907754E+01  0.15240086997E+02  0.18850881753E+02  0.51100000000E-03 0. -1.
        -11    1    3    3    0    0 -0.24853289098E+01 -0.14450602570E+01  0.12212782923E+01  0.31235524430E+01  0.51100000000E-03 0.  1.
        -12    1    3    3    0    0 -0.15550387785E+02  0.14028218205E+02 -0.30898707816E+02  0.37327410987E+02  0.00000000000E+00 0.  1.
</event>
<event>
 7    1  0.6246445E-012  0.5930192E+02  0.7816164E-02  0.1266605E+00
        -11   -1    0    0    0    0  0.00000000000E+00  0.00000000000E+00  0.45593999997E+02  0.45594000000E+02  0.51100000000E-03 0.  1.
         11   -1    0    0    0    0 -0.00000000000E+00 -0.00000000000E+00 -0.45593999997E+02  0.45594000000E+02  0.51100000000E-03 0. -1.
    9900012    2    1    2    0    0 -0.16099189425E+02 -0.17704345309E+02  0.21073549574E+02  0.59301917854E+02  0.49999952266E+02 0.  0.
         12    1    1    2    0    0  0.16099189425E+02  0.17704345309E+02 -0.21073549574E+02  0.31886082146E+02  0.00000000000E+00 0. -1.
         11    1    3    3    0    0  0.30649518953E+01 -0.92368803563E+01  0.25133870936E+02  0.26952279260E+02  0.51100000000E-03 0. -1.
        -11    1    3    3    0    0 -0.10653196444E+02 -0.73631852991E+01  0.96669364825E+01  0.16160345090E+02  0.51100000000E-03 0.  1.
         12    1    3    3    0    0 -0.85109448764E+01 -0.11042796537E+01 -0.13727257844E+02  0.16189293504E+02  0.00000000000E+00 0. -1.
</event>
<event>
 7    1  0.6246445E-012  0.5930197E+02  0.7816164E-02  0.1266605E+00
        -11   -1    0    0    0    0  0.00000000000E+00  0.00000000000E+00  0.45593999997E+02  0.45594000000E+02  0.51100000000E-03 0.  1.
         11   -1    0    0    0    0 -0.00000000000E+00 -0.00000000000E+00 -0.45593999997E+02  0.45594000000E+02  0.51100000000E-03 0. -1.
    9900012    2    1    2    0    0 -0.20452986343E+02  0.41546403957E+01  0.24106710659E+02  0.59301965659E+02  0.50000039451E+02 0.  0.
         12    1    1    2    0    0  0.20452986343E+02 -0.41546403957E+01 -0.24106710659E+02  0.31886034341E+02  0.00000000000E+00 0. -1.
         11    1    3    3    0    0 -0.10904703575E+02  0.14869147373E+02  0.18859554161E+00  0.18440164647E+02  0.51100000000E-03 0. -1.
        -11    1    3    3    0    0  0.52793041139E+01  0.56768004835E+01 -0.69224010709E+00  0.77830785865E+01  0.51100000000E-03 0.  1.
        -12    1    3    3    0    0 -0.14827586882E+02 -0.16391307461E+02  0.24610355225E+02  0.33078722426E+02  0.00000000000E+00 0.  1.
</event>
<event>
 7    1  0.6246445E-012  0.5930197E+02  0.7816164E-02  0.1266605E+00
        -11   -1    0    0    0    0  0.00000000000E+00  0.00000000000E+00  0.45593999997E+02  0.45594000000E+02  0.51100000000E-03 0. -1.
         11   -1    0    0    0    0 -0.00000000000E+00 -0.00000000000E+00 -0.45593999997E+02  0.45594000000E+02  0.51100000000E-03 0.  1.
    9900012    2    1    2    0    0 -0.28303261437E+00  0.18654451882E+02 -0.25858269505E+02  0.59301971959E+02  0.50000050939E+02 0.  0.
         12    1    1    2    0    0  0.28303261437E+00 -0.18654451882E+02  0.25858269505E+02  0.31886028041E+02  0.00000000000E+00 0. -1.
         11    1    3    3    0    0  0.71926398442E+00 -0.87474448730E+01 -0.79473572509E+01  0.11840423135E+02  0.51100000000E-03 0. -1.
        -11    1    3    3    0    0  0.10714000910E+02  0.50076152225E+01  0.54709660084E+01  0.13030636786E+02  0.51100000000E-03 0.  1.
        -12    1    3    3    0    0 -0.11716297509E+02  0.22394281532E+02 -0.23381878262E+02  0.34430912038E+02  0.00000000000E+00 0.  1.
</event>
<event>
 7    1  0.6246445E-012  0.5930190E+02  0.7816164E-02  0.1266605E+00
        -11   -1    0    0    0    0  0.00000000000E+00  0.00000000000E+00  0.45593999997E+02  0.45594000000E+02  0.51100000000E-03 0.  1.
         11   -1    0    0    0    0 -0.00000000000E+00 -0.00000000000E+00 -0.45593999997E+02  0.45594000000E+02  0.51100000000E-03 0. -1.
    9900012    2    1    2    0    0 -0.23782714693E+02 -0.20899996771E+02 -0.37809912672E+01  0.59301901490E+02  0.49999922422E+02 0.  0.
         12    1    1    2    0    0  0.23782714693E+02  0.20899996771E+02  0.37809912672E+01  0.31886098510E+02  0.00000000000E+00 0. -1.
         11    1    3    3    0    0 -0.16272352191E+00 -0.82814868632E+01  0.20083428831E+01  0.85230830693E+01  0.51100000000E-03 0.  1.
        -11    1    3    3    0    0 -0.83874611691E+00 -0.22602745796E+02 -0.11328099358E+02  0.25296510587E+02  0.51100000000E-03 0. -1.
        -12    1    3    3    0    0 -0.22781245054E+02  0.99842358886E+01  0.55387652075E+01  0.25482307834E+02  0.00000000000E+00 0.  1.
</event>
<event>
 7    1  0.6246445E-012  0.5930194E+02  0.7816164E-02  0.1266605E+00
        -11   -1    0    0    0    0  0.00000000000E+00  0.00000000000E+00  0.45593999997E+02  0.45594000000E+02  0.51100000000E-03 0.  1.
         11   -1    0    0    0    0 -0.00000000000E+00 -0.00000000000E+00 -0.45593999997E+02  0.45594000000E+02  0.51100000000E-03 0. -1.
    9900012    2    1    2    0    0 -0.29901240518E+02  0.10485911162E+02  0.35612351127E+01  0.59301938579E+02  0.49999990064E+02 0.  0.
         12    1    1    2    0    0  0.29901240518E+02 -0.10485911162E+02 -0.35612351127E+01  0.31886061421E+02  0.00000000000E+00 0. -1.
         11    1    3    3    0    0 -0.36840322613E+00 -0.22049552536E+01 -0.72367766954E+01  0.75741986908E+01  0.51100000000E-03 0. -1.
        -11    1    3    3    0    0 -0.16179049790E+02 -0.77029953797E+01  0.18895538842E+02  0.26041105551E+02  0.51100000000E-03 0.  1.
         12    1    3    3    0    0 -0.13353787501E+02  0.20393861795E+02 -0.80975270335E+01  0.25686634338E+02  0.00000000000E+00 0. -1.
</event>
<event>
 7    1  0.7668154E-012  0.5930197E+02  0.7816164E-02  0.1266605E+00
        -11   -1    0    0    0    0  0.00000000000E+00  0.00000000000E+00  0.45593999997E+02  0.45594000000E+02  0.51100000000E-03 0. -1.
         11   -1    0    0    0    0 -0.00000000000E+00 -0.00000000000E+00 -0.45593999997E+02  0.45594000000E+02  0.51100000000E-03 0.  1.
    9900012    2    1    2    0    0  0.14910517153E+01 -0.21822420104E+02 -0.23200817280E+02  0.59301965803E+02  0.50000039712E+02 0.  0.
         12    1    1    2    0    0 -0.14910517153E+01  0.21822420104E+02  0.23200817280E+02  0.31886034197E+02  0.00000000000E+00 0. -1.
         11    1    3    3    0    0  0.77186519551E+01 -0.19273593156E+02  0.32394010727E+01  0.21012917473E+02  0.51100000000E-03 0. -1.
        -11    1    3    3    0    0  0.64567227866E+01 -0.10098986812E+02 -0.16877405616E+02  0.20700860474E+02  0.51100000000E-03 0.  1.
         12    1    3    3    0    0 -0.12684323026E+02  0.75501598646E+01 -0.95628127361E+01  0.17588187856E+02  0.00000000000E+00 0. -1.
</event>
<event>
 7    1  0.6246445E-012  0.5930192E+02  0.7816164E-02  0.1266605E+00
        -11   -1    0    0    0    0  0.00000000000E+00  0.00000000000E+00  0.45593999997E+02  0.45594000000E+02  0.51100000000E-03 0. -1.
         11   -1    0    0    0    0 -0.00000000000E+00 -0.00000000000E+00 -0.45593999997E+02  0.45594000000E+02  0.51100000000E-03 0.  1.
    9900012    2    1    2    0    0 -0.68550813909E+01  0.21265464733E+02 -0.22748839744E+02  0.59301924028E+02  0.49999963525E+02 0.  0.
         12    1    1    2    0    0  0.68550813909E+01 -0.21265464733E+02  0.22748839744E+02  0.31886075972E+02  0.00000000000E+00 0. -1.
         11    1    3    3    0    0 -0.10689073662E+01  0.16765267976E+01  0.23883652980E+01  0.31076669896E+01  0.51100000000E-03 0.  1.
        -11    1    3    3    0    0 -0.62070681608E+01  0.27375698089E+02  0.18222367804E+01  0.28129647849E+02  0.51100000000E-03 0. -1.
        -12    1    3    3    0    0  0.42089413615E+00 -0.77867601531E+01 -0.26959441822E+02  0.28064609189E+02  0.00000000000E+00 0.  1.
</event>
<event>
 7    1  0.6246445E-012  0.5930194E+02  0.7816164E-02  0.1266605E+00
        -11   -1    0    0    0    0  0.00000000000E+00  0.00000000000E+00  0.45593999997E+02  0.45594000000E+02  0.51100000000E-03 0.  1.
         11   -1    0    0    0    0 -0.00000000000E+00 -0.00000000000E+00 -0.45593999997E+02  0.45594000000E+02  0.51100000000E-03 0. -1.
    9900012    2    1    2    0    0  0.13306727850E+02 -0.21357668925E+02  0.19583208703E+02  0.59301935786E+02  0.49999984968E+02 0.  0.
         12    1    1    2    0    0 -0.13306727850E+02  0.21357668925E+02 -0.19583208703E+02  0.31886064214E+02  0.00000000000E+00 0. -1.
         11    1    3    3    0    0  0.62401026079E+00 -0.53161313967E+01  0.28048089929E+01  0.60429790319E+01  0.51100000000E-03 0. -1.
        -11    1    3    3    0    0 -0.99239392403E+01  0.40425878238E+01  0.20159914142E+02  0.22830883137E+02  0.51100000000E-03 0.  1.
         12    1    3    3    0    0  0.22606656829E+02 -0.20084125352E+02 -0.33815144318E+01  0.30428073617E+02  0.00000000000E+00 0. -1.
</event>
<event>
 7    1  0.6246445E-012  0.5930195E+02  0.7816164E-02  0.1266605E+00
        -11   -1    0    0    0    0  0.00000000000E+00  0.00000000000E+00  0.45593999997E+02  0.45594000000E+02  0.51100000000E-03 0. -1.
         11   -1    0    0    0    0 -0.00000000000E+00 -0.00000000000E+00 -0.45593999997E+02  0.45594000000E+02  0.51100000000E-03 0.  1.
    9900012    2    1    2    0    0  0.29739470683E+02 -0.11501299111E+02 -0.64000412637E-01  0.59301951424E+02  0.50000013489E+02 0.  0.
         12    1    1    2    0    0 -0.29739470683E+02  0.11501299111E+02  0.64000412637E-01  0.31886048576E+02  0.00000000000E+00 0. -1.
         11    1    3    3    0    0 -0.77110951508E+01  0.87776005624E+00 -0.81312485637E+01  0.11240491742E+02  0.51100000000E-03 0. -1.
        -11    1    3    3    0    0  0.28466505066E+01  0.16477860424E+01 -0.70492170206E+01  0.77788224567E+01  0.51100000000E-03 0.  1.
         12    1    3    3    0    0  0.34603915327E+02 -0.14026845209E+02  0.15116465172E+02  0.40282637225E+02  0.00000000000E+00 0. -1.
</event>
<event>
 7    1  0.6246445E-012  0.5930195E+02  0.7816164E-02  0.1266605E+00
        -11   -1    0    0    0    0  0.00000000000E+00  0.00000000000E+00  0.45593999997E+02  0.45594000000E+02  0.51100000000E-03 0.  1.
         11   -1    0    0    0    0 -0.00000000000E+00 -0.00000000000E+00 -0.45593999997E+02  0.45594000000E+02  0.51100000000E-03 0. -1.
    9900012    2    1    2    0    0 -0.12655534942E+02 -0.18900431031E+02  0.22345716825E+02  0.59301954177E+02  0.50000018510E+02 0.  0.
         12    1    1    2    0    0  0.12655534942E+02  0.18900431031E+02 -0.22345716825E+02  0.31886045823E+02  0.00000000000E+00 0. -1.
         11    1    3    3    0    0  0.14837561516E+01  0.63388116017E+01  0.16127332687E+02  0.17391748754E+02  0.51100000000E-03 0. -1.
        -11    1    3    3    0    0  0.86679117335E+01 -0.34391773342E+01  0.43905544232E+01  0.10307162702E+02  0.51100000000E-03 0.  1.
        -12    1    3    3    0    0 -0.22807202827E+02 -0.21800065298E+02  0.18278297143E+01  0.31603042722E+02  0.00000000000E+00 0.  1.
</event>
<event>
 7    1  0.6246445E-012  0.5930194E+02  0.7816164E-02  0.1266605E+00
        -11   -1    0    0    0    0  0.00000000000E+00  0.00000000000E+00  0.45593999997E+02  0.45594000000E+02  0.51100000000E-03 0.  1.
         11   -1    0    0    0    0 -0.00000000000E+00 -0.00000000000E+00 -0.45593999997E+02  0.45594000000E+02  0.51100000000E-03 0. -1.
    9900012    2    1    2    0    0 -0.14863460615E+01 -0.30386678452E+02  0.95478500736E+01  0.59301938892E+02  0.49999990634E+02 0.  0.
         12    1    1    2    0    0  0.14863460615E+01  0.30386678452E+02 -0.95478500736E+01  0.31886061108E+02  0.00000000000E+00 0. -1.
         11    1    3    3    0    0  0.11372457225E+02  0.41451543683E+01  0.11406617093E+02  0.16632077496E+02  0.51100000000E-03 0. -1.
        -11    1    3    3    0    0  0.83206569959E+00  0.27261180534E+01 -0.80640256402E+00  0.29621509627E+01  0.51100000000E-03 0.  1.
        -12    1    3    3    0    0 -0.13690868986E+02 -0.37257950873E+02 -0.10523644556E+01  0.39707710433E+02  0.00000000000E+00 0.  1.
</event>
<event>
 7    1  0.6246445E-012  0.5930196E+02  0.7816164E-02  0.1266605E+00
        -11   -1    0    0    0    0  0.00000000000E+00  0.00000000000E+00  0.45593999997E+02  0.45594000000E+02  0.51100000000E-03 0.  1.
         11   -1    0    0    0    0 -0.00000000000E+00 -0.00000000000E+00 -0.45593999997E+02  0.45594000000E+02  0.51100000000E-03 0. -1.
    9900012    2    1    2    0    0  0.15176289073E+00 -0.31881984941E+02  0.48504757677E+00  0.59301964390E+02  0.50000037136E+02 0.  0.
         12    1    1    2    0    0 -0.15176289073E+00  0.31881984941E+02 -0.48504757677E+00  0.31886035610E+02  0.00000000000E+00 0. -1.
         11    1    3    3    0    0 -0.16815815818E+02 -0.14677749013E+02 -0.27732116232E+01  0.22492191549E+02  0.51100000000E-03 0. -1.
        -11    1    3    3    0    0  0.82036951137E+01 -0.18354788528E+02  0.12775987150E+02  0.23820678482E+02  0.51100000000E-03 0.  1.
        -12    1    3    3    0    0  0.87638835949E+01  0.11505525990E+01 -0.95177279498E+01  0.12989094359E+02  0.00000000000E+00 0.  1.
</event>
<event>
 7    1  0.6246445E-012  0.5930201E+02  0.7816164E-02  0.1266605E+00
        -11   -1    0    0    0    0  0.00000000000E+00  0.00000000000E+00  0.45593999997E+02  0.45594000000E+02  0.51100000000E-03 0.  1.
         11   -1    0    0    0    0 -0.00000000000E+00 -0.00000000000E+00 -0.45593999997E+02  0.45594000000E+02  0.51100000000E-03 0. -1.
    9900012    2    1    2    0    0  0.25878369632E+02 -0.15911721520E+02 -0.96872942538E+01  0.59302006735E+02  0.50000114363E+02 0.  0.
         12    1    1    2    0    0 -0.25878369632E+02  0.15911721520E+02  0.96872942538E+01  0.31885993265E+02  0.00000000000E+00 0. -1.
         11    1    3    3    0    0 -0.59732485527E+00  0.88635894957E+01 -0.14344303773E+02  0.16872435115E+02  0.51100000000E-03 0. -1.
        -11    1    3    3    0    0  0.20473655319E-01  0.28953846366E+00  0.59559081775E+01  0.59629769555E+01  0.51100000000E-03 0.  1.
        -12    1    3    3    0    0  0.26455220832E+02 -0.25064849479E+02 -0.12988986587E+01  0.36466594664E+02  0.00000000000E+00 0.  1.
</event>
<event>
 7    1  0.6246445E-012  0.5930195E+02  0.7816164E-02  0.1266605E+00
        -11   -1    0    0    0    0  0.00000000000E+00  0.00000000000E+00  0.45593999997E+02  0.45594000000E+02  0.51100000000E-03 0. -1.
         11   -1    0    0    0    0 -0.00000000000E+00 -0.00000000000E+00 -0.45593999997E+02  0.45594000000E+02  0.51100000000E-03 0.  1.
    9900012    2    1    2    0    0  0.29645019411E+01 -0.26923939338E+02  0.16823588069E+02  0.59301954514E+02  0.50000019125E+02 0.  0.
         12    1    1    2    0    0 -0.29645019411E+01  0.26923939338E+02 -0.16823588069E+02  0.31886045486E+02  0.00000000000E+00 0. -1.
         11    1    3    3    0    0 -0.13829484705E+01  0.41663597815E+01  0.42708194403E+01  0.61246223764E+01  0.51100000000E-03 0. -1.
        -11    1    3    3    0    0 -0.72772913288E+01 -0.17149742162E+01  0.19453326847E+02  0.20840634139E+02  0.51100000000E-03 0.  1.
        -12    1    3    3    0    0  0.11624741740E+02 -0.29375324903E+02 -0.69005582189E+01  0.32336697998E+02  0.00000000000E+00 0.  1.
</event>
<event>
 7    1  0.6246445E-012  0.5930195E+02  0.7816164E-02  0.1266605E+00
        -11   -1    0    0    0    0  0.00000000000E+00  0.00000000000E+00  0.45593999997E+02  0.45594000000E+02  0.51100000000E-03 0. -1.
         11   -1    0    0    0    0 -0.00000000000E+00 -0.00000000000E+00 -0.45593999997E+02  0.45594000000E+02  0.51100000000E-03 0.  1.
    9900012    2    1    2    0    0  0.12955626677E+02  0.13386375716E+02 -0.25878118371E+02  0.59301947754E+02  0.50000006796E+02 0.  0.
         12    1    1    2    0    0 -0.12955626677E+02 -0.13386375716E+02  0.25878118371E+02  0.31886052246E+02  0.00000000000E+00 0. -1.
         11    1    3    3    0    0 -0.37447289211E+01 -0.82259463089E+01  0.81431388152E+01  0.12165520844E+02  0.51100000000E-03 0. -1.
        -11    1    3    3    0    0  0.33123358055E+01 -0.29782812406E+01 -0.64714431984E+01  0.78562907894E+01  0.51100000000E-03 0.  1.
        -12    1    3    3    0    0  0.13388019793E+02  0.24590603266E+02 -0.27549813987E+02  0.39280136121E+02  0.00000000000E+00 0.  1.
</event>
<event>
 7    1  0.6246445E-012  0.5930194E+02  0.7816164E-02  0.1266605E+00
        -11   -1    0    0    0    0  0.00000000000E+00  0.00000000000E+00  0.45593999997E+02  0.45594000000E+02  0.51100000000E-03 0.  1.
         11   -1    0    0    0    0 -0.00000000000E+00 -0.00000000000E+00 -0.45593999997E+02  0.45594000000E+02  0.51100000000E-03 0. -1.
    9900012    2    1    2    0    0 -0.23147497192E+02 -0.14423249860E+02  0.16519195489E+02  0.59301943763E+02  0.49999999516E+02 0.  0.
         12    1    1    2    0    0  0.23147497192E+02  0.14423249860E+02 -0.16519195489E+02  0.31886056237E+02  0.00000000000E+00 0. -1.
         11    1    3    3    0    0 -0.26592432822E+02 -0.15688133853E+02  0.14289449164E+02  0.34021513559E+02  0.51100000000E-03 0. -1.
        -11    1    3    3    0    0 -0.45167935095E+00  0.28633007157E+01 -0.11010903529E+02  0.11386066135E+02  0.51100000000E-03 0.  1.
        -12    1    3    3    0    0  0.38966149807E+01 -0.15984167234E+01  0.13240649854E+02  0.13894364069E+02  0.00000000000E+00 0.  1.
</event>
<event>
 7    1  0.6246445E-012  0.5930196E+02  0.7816164E-02  0.1266605E+00
        -11   -1    0    0    0    0  0.00000000000E+00  0.00000000000E+00  0.45593999997E+02  0.45594000000E+02  0.51100000000E-03 0.  1.
         11   -1    0    0    0    0 -0.00000000000E+00 -0.00000000000E+00 -0.45593999997E+02  0.45594000000E+02  0.51100000000E-03 0. -1.
    9900012    2    1    2    0    0  0.17668289984E+01  0.18107881068E+02  0.26185926349E+02  0.59301956341E+02  0.50000022456E+02 0.  0.
         12    1    1    2    0    0 -0.17668289984E+01 -0.18107881068E+02 -0.26185926349E+02  0.31886043659E+02  0.00000000000E+00 0. -1.
         11    1    3    3    0    0 -0.75776015665E-01  0.25019837791E+02  0.33692409774E+02  0.41966373464E+02  0.51100000000E-03 0. -1.
        -11    1    3    3    0    0 -0.21341534246E+01  0.35949408063E+01 -0.81484878239E+00  0.42593648634E+01  0.51100000000E-03 0.  1.
        -12    1    3    3    0    0  0.39767584387E+01 -0.10506897529E+02 -0.66916346425E+01  0.13076218014E+02  0.00000000000E+00 0.  1.
</event>
<event>
 7    1  0.6246445E-012  0.5930194E+02  0.7816164E-02  0.1266605E+00
        -11   -1    0    0    0    0  0.00000000000E+00  0.00000000000E+00  0.45593999997E+02  0.45594000000E+02  0.51100000000E-03 0.  1.
         11   -1    0    0    0    0 -0.00000000000E+00 -0.00000000000E+00 -0.45593999997E+02  0.45594000000E+02  0.51100000000E-03 0. -1.
    9900012    2    1    2    0    0  0.17037189894E+02 -0.20802774435E+02  0.17137667647E+02  0.59301938530E+02  0.49999989974E+02 0.  0.
         12    1    1    2    0    0 -0.17037189894E+02  0.20802774435E+02 -0.17137667647E+02  0.31886061470E+02  0.00000000000E+00 0. -1.
         11    1    3    3    0    0 -0.86155471214E+01  0.10295645069E+01  0.90350316324E+01  0.12526749464E+02  0.51100000000E-03 0. -1.
        -11    1    3    3    0    0  0.55268330780E+01 -0.12036320837E+01  0.15935551957E+02  0.16909654949E+02  0.51100000000E-03 0.  1.
        -12    1    3    3    0    0  0.20125903937E+02 -0.20628706858E+02 -0.78329159429E+01  0.29865534117E+02  0.00000000000E+00 0.  1.
</event>
<event>
 7    1  0.6246445E-012  0.5930195E+02  0.7816164E-02  0.1266605E+00
        -11   -1    0    0    0    0  0.00000000000E+00  0.00000000000E+00  0.45593999997E+02  0.45594000000E+02  0.51100000000E-03 0. -1.
         11   -1    0    0    0    0 -0.00000000000E+00 -0.00000000000E+00 -0.45593999997E+02  0.45594000000E+02  0.51100000000E-03 0.  1.
    9900012    2    1    2    0    0  0.44946323376E+01  0.27946068203E+02 -0.14681141361E+02  0.59301947257E+02  0.50000005890E+02 0.  0.
         12    1    1    2    0    0 -0.44946323376E+01 -0.27946068203E+02  0.14681141361E+02  0.31886052743E+02  0.00000000000E+00 0. -1.
         11    1    3    3    0    0 -0.10859573375E+01  0.11077629945E+02  0.69483794358E+01  0.13121477264E+02  0.51100000000E-03 0. -1.
        -11    1    3    3    0    0 -0.11153175596E+02 -0.56726390385E+01 -0.45206457762E+01  0.13304450309E+02  0.51100000000E-03 0.  1.
        -12    1    3    3    0    0  0.16733765271E+02  0.22541077296E+02 -0.17108875020E+02  0.32876019684E+02  0.00000000000E+00 0.  1.
</event>
<event>
 7    1  0.6246445E-012  0.5930193E+02  0.7816164E-02  0.1266605E+00
        -11   -1    0    0    0    0  0.00000000000E+00  0.00000000000E+00  0.45593999997E+02  0.45594000000E+02  0.51100000000E-03 0.  1.
         11   -1    0    0    0    0 -0.00000000000E+00 -0.00000000000E+00 -0.45593999997E+02  0.45594000000E+02  0.51100000000E-03 0. -1.
    9900012    2    1    2    0    0  0.24486614521E+02 -0.19384414626E+02 -0.64320997861E+01  0.59301925787E+02  0.49999966733E+02 0.  0.
         12    1    1    2    0    0 -0.24486614521E+02  0.19384414626E+02  0.64320997861E+01  0.31886074213E+02  0.00000000000E+00 0. -1.
         11    1    3    3    0    0 -0.75861568264E+01 -0.64194822645E+01 -0.84382090609E+01  0.13036982026E+02  0.51100000000E-03 0. -1.
        -11    1    3    3    0    0 -0.45406734216E+01 -0.70752125883E+01 -0.28218055531E+01  0.88678596703E+01  0.51100000000E-03 0.  1.
        -12    1    3    3    0    0  0.36613444769E+02 -0.58897197727E+01  0.48279148279E+01  0.37397084090E+02  0.00000000000E+00 0.  1.
</event>
<event>
 7    1  0.6246445E-012  0.5930200E+02  0.7816164E-02  0.1266605E+00
        -11   -1    0    0    0    0  0.00000000000E+00  0.00000000000E+00  0.45593999997E+02  0.45594000000E+02  0.51100000000E-03 0. -1.
         11   -1    0    0    0    0 -0.00000000000E+00 -0.00000000000E+00 -0.45593999997E+02  0.45594000000E+02  0.51100000000E-03 0.  1.
    9900012    2    1    2    0    0  0.15291765478E+02 -0.16933300105E+01 -0.27928685527E+02  0.59302000985E+02  0.50000103875E+02 0.  0.
         12    1    1    2    0    0 -0.15291765478E+02  0.16933300105E+01  0.27928685527E+02  0.31885999015E+02  0.00000000000E+00 0. -1.
         11    1    3    3    0    0  0.12611868583E+02  0.14937194726E+02 -0.32773849714E+02  0.38161554486E+02  0.51100000000E-03 0.  1.
        -11    1    3    3    0    0 -0.31905995449E+01 -0.71984856645E+00  0.22832316507E+01  0.39888913807E+01  0.51100000000E-03 0. -1.
        -12    1    3    3    0    0  0.58704964395E+01 -0.15910676170E+02  0.25619325368E+01  0.17151555118E+02  0.00000000000E+00 0.  1.
</event>
<event>
 7    1  0.6246445E-012  0.5930194E+02  0.7816164E-02  0.1266605E+00
        -11   -1    0    0    0    0  0.00000000000E+00  0.00000000000E+00  0.45593999997E+02  0.45594000000E+02  0.51100000000E-03 0. -1.
         11   -1    0    0    0    0 -0.00000000000E+00 -0.00000000000E+00 -0.45593999997E+02  0.45594000000E+02  0.51100000000E-03 0.  1.
    9900012    2    1    2    0    0  0.23069426944E+02 -0.20275601529E+02  0.85686823806E+01  0.59301940435E+02  0.49999993447E+02 0.  0.
         12    1    1    2    0    0 -0.23069426944E+02  0.20275601529E+02 -0.85686823806E+01  0.31886059565E+02  0.00000000000E+00 0. -1.
         11    1    3    3    0    0  0.17163348456E+01  0.77286192728E+01  0.12154691417E+02  0.14505650102E+02  0.51100000000E-03 0. -1.
        -11    1    3    3    0    0  0.70146508619E+01 -0.90311231635E+00 -0.11161724566E+02  0.13213819815E+02  0.51100000000E-03 0.  1.
         12    1    3    3    0    0  0.14338441236E+02 -0.27101108485E+02  0.75757155292E+01  0.31582470518E+02  0.00000000000E+00 0. -1.
</event>
<event>
 7    1  0.6246445E-012  0.5930196E+02  0.7816164E-02  0.1266605E+00
        -11   -1    0    0    0    0  0.00000000000E+00  0.00000000000E+00  0.45593999997E+02  0.45594000000E+02  0.51100000000E-03 0. -1.
         11   -1    0    0    0    0 -0.00000000000E+00 -0.00000000000E+00 -0.45593999997E+02  0.45594000000E+02  0.51100000000E-03 0.  1.
    9900012    2    1    2    0    0 -0.29358767469E+02  0.97379392809E+01  0.77430594528E+01  0.59301958251E+02  0.50000025940E+02 0.  0.
         12    1    1    2    0    0  0.29358767469E+02 -0.97379392809E+01 -0.77430594528E+01  0.31886041749E+02  0.00000000000E+00 0. -1.
         11    1    3    3    0    0  0.85112933678E+01  0.48963177337E+01 -0.14533063993E+01  0.99261342875E+01  0.51100000000E-03 0.  1.
        -11    1    3    3    0    0 -0.21754502035E+02  0.10921041381E+02 -0.74153869001E+01  0.25446325212E+02  0.51100000000E-03 0. -1.
         12    1    3    3    0    0 -0.16115558802E+02 -0.60794198336E+01  0.16611752752E+02  0.23929498752E+02  0.00000000000E+00 0. -1.
</event>
<event>
 7    1  0.6246445E-012  0.5930190E+02  0.7816164E-02  0.1266605E+00
        -11   -1    0    0    0    0  0.00000000000E+00  0.00000000000E+00  0.45593999997E+02  0.45594000000E+02  0.51100000000E-03 0. -1.
         11   -1    0    0    0    0 -0.00000000000E+00 -0.00000000000E+00 -0.45593999997E+02  0.45594000000E+02  0.51100000000E-03 0.  1.
    9900012    2    1    2    0    0 -0.81644172759E+01  0.26249420098E+02 -0.16156536873E+02  0.59301898817E+02  0.49999917547E+02 0.  0.
         12    1    1    2    0    0  0.81644172759E+01 -0.26249420098E+02  0.16156536873E+02  0.31886101183E+02  0.00000000000E+00 0. -1.
         11    1    3    3    0    0 -0.23114547025E+02  0.80230063262E+01 -0.36431274599E+01  0.24737083349E+02  0.51100000000E-03 0. -1.
        -11    1    3    3    0    0 -0.62955069893E+00  0.15285849185E+02 -0.10561655799E+02  0.18590376351E+02  0.51100000000E-03 0.  1.
         12    1    3    3    0    0  0.15579680448E+02  0.29405645869E+01 -0.19517536136E+01  0.15974439117E+02  0.00000000000E+00 0. -1.
</event>
<event>
 7    1  0.6246445E-012  0.5930195E+02  0.7816164E-02  0.1266605E+00
        -11   -1    0    0    0    0  0.00000000000E+00  0.00000000000E+00  0.45593999997E+02  0.45594000000E+02  0.51100000000E-03 0.  1.
         11   -1    0    0    0    0 -0.00000000000E+00 -0.00000000000E+00 -0.45593999997E+02  0.45594000000E+02  0.51100000000E-03 0. -1.
    9900012    2    1    2    0    0  0.26545961444E+02 -0.25790737373E+01  0.17475142514E+02  0.59301948250E+02  0.50000007700E+02 0.  0.
         12    1    1    2    0    0 -0.26545961444E+02  0.25790737373E+01 -0.17475142514E+02  0.31886051750E+02  0.00000000000E+00 0. -1.
         11    1    3    3    0    0  0.15480041197E+02  0.15793582799E+02  0.13342301415E+02  0.25828006899E+02  0.51100000000E-03 0.  1.
        -11    1    3    3    0    0  0.17477703973E+02 -0.65064953009E+01 -0.18058550101E+01  0.18736748113E+02  0.51100000000E-03 0. -1.
         12    1    3    3    0    0 -0.64117837266E+01 -0.11866161235E+02  0.59386961098E+01  0.14737193237E+02  0.00000000000E+00 0. -1.
</event>
<event>
 7    1  0.6246445E-012  0.5930195E+02  0.7816164E-02  0.1266605E+00
        -11   -1    0    0    0    0  0.00000000000E+00  0.00000000000E+00  0.45593999997E+02  0.45594000000E+02  0.51100000000E-03 0.  1.
         11   -1    0    0    0    0 -0.00000000000E+00 -0.00000000000E+00 -0.45593999997E+02  0.45594000000E+02  0.51100000000E-03 0. -1.
    9900012    2    1    2    0    0  0.52843716885E+01 -0.14335517647E+02  0.27987287612E+02  0.59301954177E+02  0.50000018510E+02 0.  0.
         12    1    1    2    0    0 -0.52843716885E+01  0.14335517647E+02 -0.27987287612E+02  0.31886045823E+02  0.00000000000E+00 0. -1.
         11    1    3    3    0    0 -0.88277236721E+01  0.50448926964E+01  0.10342172353E+02  0.14503109211E+02  0.51100000000E-03 0. -1.
        -11    1    3    3    0    0 -0.16997786347E+01  0.75382831236E+01  0.10035092497E+02  0.12665624404E+02  0.51100000000E-03 0.  1.
        -12    1    3    3    0    0  0.15811873995E+02 -0.26918693467E+02  0.76100227621E+01  0.32133220562E+02  0.00000000000E+00 0.  1.
</event>
<event>
 7    1  0.6246445E-012  0.5930197E+02  0.7816164E-02  0.1266605E+00
        -11   -1    0    0    0    0  0.00000000000E+00  0.00000000000E+00  0.45593999997E+02  0.45594000000E+02  0.51100000000E-03 0.  1.
         11   -1    0    0    0    0 -0.00000000000E+00 -0.00000000000E+00 -0.45593999997E+02  0.45594000000E+02  0.51100000000E-03 0. -1.
    9900012    2    1    2    0    0  0.26409610041E+00  0.28098254362E+02  0.15071076429E+02  0.59301968738E+02  0.50000045065E+02 0.  0.
         12    1    1    2    0    0 -0.26409610041E+00 -0.28098254362E+02 -0.15071076429E+02  0.31886031262E+02  0.00000000000E+00 0. -1.
         11    1    3    3    0    0  0.28437281875E+01  0.19925670203E+02 -0.55062808952E+01  0.20867157271E+02  0.51100000000E-03 0. -1.
        -11    1    3    3    0    0  0.12450237364E+01  0.84309749360E+01 -0.67302533698E+01  0.10859453631E+02  0.51100000000E-03 0.  1.
        -12    1    3    3    0    0 -0.38246558235E+01 -0.25839077654E+00  0.27307610694E+02  0.27575357836E+02  0.00000000000E+00 0.  1.
</event>
<event>
 7    1  0.6246445E-012  0.5930191E+02  0.7816164E-02  0.1266605E+00
        -11   -1    0    0    0    0  0.00000000000E+00  0.00000000000E+00  0.45593999997E+02  0.45594000000E+02  0.51100000000E-03 0. -1.
         11   -1    0    0    0    0 -0.00000000000E+00 -0.00000000000E+00 -0.45593999997E+02  0.45594000000E+02  0.51100000000E-03 0.  1.
    9900012    2    1    2    0    0 -0.69356761621E+01 -0.77575791798E+01 -0.30140318322E+02  0.59301914836E+02  0.49999946761E+02 0.  0.
         12    1    1    2    0    0  0.69356761621E+01  0.77575791798E+01  0.30140318322E+02  0.31886085164E+02  0.00000000000E+00 0. -1.
         11    1    3    3    0    0 -0.13410454927E+02 -0.29805083809E+00 -0.16427619167E+02  0.21208390024E+02  0.51100000000E-03 0. -1.
        -11    1    3    3    0    0  0.16222331719E+02 -0.78067880743E+01 -0.19669575989E+02  0.26664624623E+02  0.51100000000E-03 0.  1.
         12    1    3    3    0    0 -0.97475529540E+01  0.34725973260E+00  0.59568768341E+01  0.11428900189E+02  0.00000000000E+00 0. -1.
</event>
<event>
 7    1  0.6246445E-012  0.5930194E+02  0.7816164E-02  0.1266605E+00
        -11   -1    0    0    0    0  0.00000000000E+00  0.00000000000E+00  0.45593999997E+02  0.45594000000E+02  0.51100000000E-03 0.  1.
         11   -1    0    0    0    0 -0.00000000000E+00 -0.00000000000E+00 -0.45593999997E+02  0.45594000000E+02  0.51100000000E-03 0. -1.
    9900012    2    1    2    0    0 -0.12344409352E+01  0.25785500285E+01  0.31757641587E+02  0.59301944053E+02  0.50000000046E+02 0.  0.
         12    1    1    2    0    0  0.12344409352E+01 -0.25785500285E+01 -0.31757641587E+02  0.31886055947E+02  0.00000000000E+00 0. -1.
         11    1    3    3    0    0 -0.16452371872E+02  0.12502966731E+02  0.26750664081E+02  0.33802407404E+02  0.51100000000E-03 0. -1.
        -11    1    3    3    0    0  0.80002998196E+00  0.40671532313E+01  0.33700091372E+01  0.53421667163E+01  0.51100000000E-03 0.  1.
         12    1    3    3    0    0  0.14417900955E+02 -0.13991569934E+02  0.16369683689E+01  0.20157369932E+02  0.00000000000E+00 0. -1.
</event>
<event>
 7    1  0.6246445E-012  0.5930194E+02  0.7816164E-02  0.1266605E+00
        -11   -1    0    0    0    0  0.00000000000E+00  0.00000000000E+00  0.45593999997E+02  0.45594000000E+02  0.51100000000E-03 0.  1.
         11   -1    0    0    0    0 -0.00000000000E+00 -0.00000000000E+00 -0.45593999997E+02  0.45594000000E+02  0.51100000000E-03 0. -1.
    9900012    2    1    2    0    0 -0.30868093071E+02 -0.25843773829E+01 -0.75632372461E+01  0.59301941386E+02  0.49999995182E+02 0.  0.
         12    1    1    2    0    0  0.30868093071E+02  0.25843773829E+01  0.75632372461E+01  0.31886058614E+02  0.00000000000E+00 0. -1.
         11    1    3    3    0    0 -0.92862309060E+01 -0.23792179812E+02  0.43968803900E+01  0.25915911369E+02  0.51100000000E-03 0.  1.
        -11    1    3    3    0    0 -0.10922268910E+02  0.94648330969E+01 -0.96034210927E+01  0.17352369309E+02  0.51100000000E-03 0. -1.
        -12    1    3    3    0    0 -0.10659593255E+02  0.11742969332E+02 -0.23566965434E+01  0.16033660708E+02  0.00000000000E+00 0.  1.
</event>
<event>
 7    1  0.6246445E-012  0.5930195E+02  0.7816164E-02  0.1266605E+00
        -11   -1    0    0    0    0  0.00000000000E+00  0.00000000000E+00  0.45593999997E+02  0.45594000000E+02  0.51100000000E-03 0.  1.
         11   -1    0    0    0    0 -0.00000000000E+00 -0.00000000000E+00 -0.45593999997E+02  0.45594000000E+02  0.51100000000E-03 0. -1.
    9900012    2    1    2    0    0 -0.14522163355E+02 -0.11417160260E+02  0.25989908830E+02  0.59301950732E+02  0.50000012227E+02 0.  0.
         12    1    1    2    0    0  0.14522163355E+02  0.11417160260E+02 -0.25989908830E+02  0.31886049268E+02  0.00000000000E+00 0. -1.
         11    1    3    3    0    0 -0.78778466035E+01 -0.18138347840E+02  0.17405299856E+01  0.19851689459E+02  0.51100000000E-03 0. -1.
        -11    1    3    3    0    0  0.98090903877E+01 -0.30357650911E+01  0.26629181544E+01  0.10607792291E+02  0.51100000000E-03 0.  1.
         12    1    3    3    0    0 -0.16453407139E+02  0.97569526709E+01  0.21586460690E+02  0.28842468983E+02  0.00000000000E+00 0. -1.
</event>
<event>
 7    1  0.6246445E-012  0.5930214E+02  0.7816164E-02  0.1266604E+00
        -11   -1    0    0    0    0  0.00000000000E+00  0.00000000000E+00  0.45593999997E+02  0.45594000000E+02  0.51100000000E-03 0. -1.
         11   -1    0    0    0    0 -0.00000000000E+00 -0.00000000000E+00 -0.45593999997E+02  0.45594000000E+02  0.51100000000E-03 0.  1.
    9900012    2    1    2    0    0  0.79968789106E+01 -0.27063041419E+02  0.14844191414E+02  0.59302136331E+02  0.50000350714E+02 0.  0.
         12    1    1    2    0    0 -0.79968789106E+01  0.27063041419E+02 -0.14844191414E+02  0.31885863669E+02  0.00000000000E+00 0. -1.
         11    1    3    3    0    0 -0.46373743896E+01 -0.24532423219E+02  0.15538193026E+02  0.29407150032E+02  0.51100000000E-03 0. -1.
        -11    1    3    3    0    0  0.13139637121E+02 -0.10960113927E+02 -0.78506389128E+01  0.18825692353E+02  0.51100000000E-03 0.  1.
         12    1    3    3    0    0 -0.50538382115E+00  0.84294957267E+01  0.71566373002E+01  0.11069293946E+02  0.00000000000E+00 0. -1.
</event>
<event>
 7    1  0.6246445E-012  0.5930195E+02  0.7816164E-02  0.1266605E+00
        -11   -1    0    0    0    0  0.00000000000E+00  0.00000000000E+00  0.45593999997E+02  0.45594000000E+02  0.51100000000E-03 0. -1.
         11   -1    0    0    0    0 -0.00000000000E+00 -0.00000000000E+00 -0.45593999997E+02  0.45594000000E+02  0.51100000000E-03 0.  1.
    9900012    2    1    2    0    0 -0.19449832909E+02 -0.82436848922E+01 -0.23884424337E+02  0.59301951849E+02  0.50000014265E+02 0.  0.
         12    1    1    2    0    0  0.19449832909E+02  0.82436848922E+01  0.23884424337E+02  0.31886048151E+02  0.00000000000E+00 0. -1.
         11    1    3    3    0    0 -0.13549467407E+01 -0.98966895140E+01 -0.12663339074E+02  0.16128871652E+02  0.51100000000E-03 0. -1.
        -11    1    3    3    0    0 -0.13122917535E+02 -0.70464308678E+01  0.11185993147E+02  0.18627656738E+02  0.51100000000E-03 0.  1.
        -12    1    3    3    0    0 -0.49719686324E+01  0.86994354897E+01 -0.22407078410E+02  0.24545423459E+02  0.00000000000E+00 0.  1.
</event>
<event>
 7    1  0.6246445E-012  0.5930194E+02  0.7816164E-02  0.1266605E+00
        -11   -1    0    0    0    0  0.00000000000E+00  0.00000000000E+00  0.45593999997E+02  0.45594000000E+02  0.51100000000E-03 0.  1.
         11   -1    0    0    0    0 -0.00000000000E+00 -0.00000000000E+00 -0.45593999997E+02  0.45594000000E+02  0.51100000000E-03 0. -1.
    9900012    2    1    2    0    0 -0.11141908827E+02  0.15095788823E+02  0.25781696551E+02  0.59301939573E+02  0.49999991875E+02 0.  0.
         12    1    1    2    0    0  0.11141908827E+02 -0.15095788823E+02 -0.25781696551E+02  0.31886060427E+02  0.00000000000E+00 0. -1.
         11    1    3    3    0    0 -0.21252189585E+02  0.35035272612E+00  0.87692117111E+01  0.22992985528E+02  0.51100000000E-03 0. -1.
        -11    1    3    3    0    0  0.35735814546E+01  0.21030693172E+02  0.62364575019E+01  0.22225074626E+02  0.51100000000E-03 0.  1.
         12    1    3    3    0    0  0.65366993035E+01 -0.62852570747E+01  0.10776027338E+02  0.14083879419E+02  0.00000000000E+00 0. -1.
</event>
<event>
 7    1  0.6246445E-012  0.5930193E+02  0.7816164E-02  0.1266605E+00
        -11   -1    0    0    0    0  0.00000000000E+00  0.00000000000E+00  0.45593999997E+02  0.45594000000E+02  0.51100000000E-03 0.  1.
         11   -1    0    0    0    0 -0.00000000000E+00 -0.00000000000E+00 -0.45593999997E+02  0.45594000000E+02  0.51100000000E-03 0. -1.
    9900012    2    1    2    0    0  0.18052739644E+02 -0.25103418505E+02  0.77870562613E+01  0.59301932909E+02  0.49999979723E+02 0.  0.
         12    1    1    2    0    0 -0.18052739644E+02  0.25103418505E+02 -0.77870562613E+01  0.31886067091E+02  0.00000000000E+00 0. -1.
         11    1    3    3    0    0  0.15137266809E+02 -0.62814957851E+01  0.16057687755E+02  0.22944353817E+02  0.51100000000E-03 0.  1.
        -11    1    3    3    0    0  0.54962030042E+01 -0.14552855633E+02  0.92785720125E+01  0.18113137591E+02  0.51100000000E-03 0. -1.
        -12    1    3    3    0    0 -0.25807301690E+01 -0.42690670866E+01 -0.17549203507E+02  0.18244441502E+02  0.00000000000E+00 0.  1.
</event>
<event>
 7    1  0.6246445E-012  0.5930197E+02  0.7816164E-02  0.1266605E+00
        -11   -1    0    0    0    0  0.00000000000E+00  0.00000000000E+00  0.45593999997E+02  0.45594000000E+02  0.51100000000E-03 0.  1.
         11   -1    0    0    0    0 -0.00000000000E+00 -0.00000000000E+00 -0.45593999997E+02  0.45594000000E+02  0.51100000000E-03 0. -1.
    9900012    2    1    2    0    0  0.19644700309E+02 -0.24494401379E+02  0.55523966509E+01  0.59301967671E+02  0.50000043119E+02 0.  0.
         12    1    1    2    0    0 -0.19644700309E+02  0.24494401379E+02 -0.55523966509E+01  0.31886032329E+02  0.00000000000E+00 0. -1.
         11    1    3    3    0    0  0.27041100300E+01  0.47971613792E+00 -0.27352608492E+00  0.27599194567E+01  0.51100000000E-03 0. -1.
        -11    1    3    3    0    0  0.14355845818E+02 -0.19010832245E+02 -0.19256075381E+02  0.30631658315E+02  0.51100000000E-03 0.  1.
         12    1    3    3    0    0  0.25847444611E+01 -0.59632852718E+01  0.25081998117E+02  0.25910389899E+02  0.00000000000E+00 0. -1.
</event>
<event>
 7    1  0.6246445E-012  0.5930191E+02  0.7816164E-02  0.1266605E+00
        -11   -1    0    0    0    0  0.00000000000E+00  0.00000000000E+00  0.45593999997E+02  0.45594000000E+02  0.51100000000E-03 0. -1.
         11   -1    0    0    0    0 -0.00000000000E+00 -0.00000000000E+00 -0.45593999997E+02  0.45594000000E+02  0.51100000000E-03 0.  1.
    9900012    2    1    2    0    0 -0.12195334131E+02 -0.20649129180E+02 -0.21014517816E+02  0.59301911035E+02  0.49999939829E+02 0.  0.
         12    1    1    2    0    0  0.12195334131E+02  0.20649129180E+02  0.21014517816E+02  0.31886088965E+02  0.00000000000E+00 0. -1.
         11    1    3    3    0    0  0.54924232475E+01 -0.11439064607E+02  0.24638195670E+01  0.12926303390E+02  0.51100000000E-03 0. -1.
        -11    1    3    3    0    0  0.70522788377E+01  0.52135827761E+01 -0.13402951457E+02  0.16017340297E+02  0.51100000000E-03 0.  1.
        -12    1    3    3    0    0 -0.24740036216E+02 -0.14423647349E+02 -0.10075385926E+02  0.30358267348E+02  0.00000000000E+00 0.  1.
</event>
<event>
 7    1  0.6246445E-012  0.5930193E+02  0.7816164E-02  0.1266605E+00
        -11   -1    0    0    0    0  0.00000000000E+00  0.00000000000E+00  0.45593999997E+02  0.45594000000E+02  0.51100000000E-03 0.  1.
         11   -1    0    0    0    0 -0.00000000000E+00 -0.00000000000E+00 -0.45593999997E+02  0.45594000000E+02  0.51100000000E-03 0. -1.
    9900012    2    1    2    0    0 -0.13496643353E+02 -0.17357802824E+02  0.23092611155E+02  0.59301931088E+02  0.49999976402E+02 0.  0.
         12    1    1    2    0    0  0.13496643353E+02  0.17357802824E+02 -0.23092611155E+02  0.31886068912E+02  0.00000000000E+00 0. -1.
         11    1    3    3    0    0  0.15763992090E+02 -0.65129742607E+01  0.92348634734E+01  0.19396004330E+02  0.51100000000E-03 0. -1.
        -11    1    3    3    0    0 -0.81806521522E+01 -0.99845741830E+01  0.13678907834E+02  0.18807639699E+02  0.51100000000E-03 0.  1.
        -12    1    3    3    0    0 -0.21079983291E+02 -0.86025438063E+00  0.17883984764E+00  0.21098287060E+02  0.00000000000E+00 0.  1.
</event>
<event>
 7    1  0.6246445E-012  0.5930194E+02  0.7816164E-02  0.1266605E+00
        -11   -1    0    0    0    0  0.00000000000E+00  0.00000000000E+00  0.45593999997E+02  0.45594000000E+02  0.51100000000E-03 0.  1.
         11   -1    0    0    0    0 -0.00000000000E+00 -0.00000000000E+00 -0.45593999997E+02  0.45594000000E+02  0.51100000000E-03 0. -1.
    9900012    2    1    2    0    0 -0.14240281807E+02  0.28175991892E+02  0.44775732918E+01  0.59301940230E+02  0.49999993075E+02 0.  0.
         12    1    1    2    0    0  0.14240281807E+02 -0.28175991892E+02 -0.44775732918E+01  0.31886059770E+02  0.00000000000E+00 0. -1.
         11    1    3    3    0    0  0.25630303832E+00  0.17621422767E+02 -0.75989789638E+01  0.19191787648E+02  0.51100000000E-03 0. -1.
        -11    1    3    3    0    0 -0.14683320810E+02  0.15674438120E+02  0.20860850553E+02  0.29940992075E+02  0.51100000000E-03 0.  1.
         12    1    3    3    0    0  0.18673596467E+00 -0.51198689944E+01 -0.87842982975E+01  0.10169160507E+02  0.00000000000E+00 0. -1.
</event>
<event>
 7    1  0.6246445E-012  0.5930195E+02  0.7816164E-02  0.1266605E+00
        -11   -1    0    0    0    0  0.00000000000E+00  0.00000000000E+00  0.45593999997E+02  0.45594000000E+02  0.51100000000E-03 0.  1.
         11   -1    0    0    0    0 -0.00000000000E+00 -0.00000000000E+00 -0.45593999997E+02  0.45594000000E+02  0.51100000000E-03 0. -1.
    9900012    2    1    2    0    0  0.18295496211E+02 -0.18518858293E+02  0.18413227028E+02  0.59301949388E+02  0.50000009775E+02 0.  0.
         12    1    1    2    0    0 -0.18295496211E+02  0.18518858293E+02 -0.18413227028E+02  0.31886050612E+02  0.00000000000E+00 0. -1.
         11    1    3    3    0    0  0.18480008935E+02 -0.17994511796E+02  0.84205357725E+01  0.27133348632E+02  0.51100000000E-03 0. -1.
        -11    1    3    3    0    0  0.14422383193E+02 -0.47535875560E+01  0.32272887652E+01  0.15524726234E+02  0.51100000000E-03 0.  1.
         12    1    3    3    0    0 -0.14606895916E+02  0.42292410592E+01  0.67654024900E+01  0.16643874522E+02  0.00000000000E+00 0. -1.
</event>
<event>
 7    1  0.6246445E-012  0.5930195E+02  0.7816164E-02  0.1266605E+00
        -11   -1    0    0    0    0  0.00000000000E+00  0.00000000000E+00  0.45593999997E+02  0.45594000000E+02  0.51100000000E-03 0. -1.
         11   -1    0    0    0    0 -0.00000000000E+00 -0.00000000000E+00 -0.45593999997E+02  0.45594000000E+02  0.51100000000E-03 0.  1.
    9900012    2    1    2    0    0 -0.18285840371E+02 -0.57674482029E+01 -0.25477140485E+02  0.59301951261E+02  0.50000013193E+02 0.  0.
         12    1    1    2    0    0  0.18285840371E+02  0.57674482029E+01  0.25477140485E+02  0.31886048739E+02  0.00000000000E+00 0. -1.
         11    1    3    3    0    0 -0.25154030310E+02  0.26746789373E+01 -0.22418574361E+02  0.33800467821E+02  0.51100000000E-03 0. -1.
        -11    1    3    3    0    0  0.48865674384E+01 -0.65790372004E+01 -0.12904445404E+02  0.15286823845E+02  0.51100000000E-03 0.  1.
        -12    1    3    3    0    0  0.19816225002E+01 -0.18630899397E+01  0.98458792802E+01  0.10214659596E+02  0.00000000000E+00 0.  1.
</event>
<event>
 7    1  0.6246445E-012  0.5930195E+02  0.7816164E-02  0.1266605E+00
        -11   -1    0    0    0    0  0.00000000000E+00  0.00000000000E+00  0.45593999997E+02  0.45594000000E+02  0.51100000000E-03 0. -1.
         11   -1    0    0    0    0 -0.00000000000E+00 -0.00000000000E+00 -0.45593999997E+02  0.45594000000E+02  0.51100000000E-03 0.  1.
    9900012    2    1    2    0    0  0.23557085934E+01 -0.28513887650E+02 -0.14075835168E+02  0.59301948385E+02  0.50000007947E+02 0.  0.
         12    1    1    2    0    0 -0.23557085934E+01  0.28513887650E+02  0.14075835168E+02  0.31886051615E+02  0.00000000000E+00 0. -1.
         11    1    3    3    0    0  0.83022988132E+01  0.33923636811E+01 -0.53311106129E+01  0.10433457603E+02  0.51100000000E-03 0. -1.
        -11    1    3    3    0    0 -0.92875873406E+01  0.53136276741E+01 -0.15328148959E+01  0.10809414389E+02  0.51100000000E-03 0.  1.
        -12    1    3    3    0    0  0.33409971208E+01 -0.37219879006E+02 -0.72119096588E+01  0.38059076393E+02  0.00000000000E+00 0.  1.
</event>
<event>
 7    1  0.6246445E-012  0.5930194E+02  0.7816164E-02  0.1266605E+00
        -11   -1    0    0    0    0  0.00000000000E+00  0.00000000000E+00  0.45593999997E+02  0.45594000000E+02  0.51100000000E-03 0. -1.
         11   -1    0    0    0    0 -0.00000000000E+00 -0.00000000000E+00 -0.45593999997E+02  0.45594000000E+02  0.51100000000E-03 0.  1.
    9900012    2    1    2    0    0  0.12352200921E+02  0.29032420663E+02 -0.46111162182E+01  0.59301941763E+02  0.49999995869E+02 0.  0.
         12    1    1    2    0    0 -0.12352200921E+02 -0.29032420663E+02  0.46111162182E+01  0.31886058237E+02  0.00000000000E+00 0. -1.
         11    1    3    3    0    0  0.12200643628E+02  0.22119190712E+02  0.16936166245E+02  0.30412958258E+02  0.51100000000E-03 0. -1.
        -11    1    3    3    0    0  0.20535432990E+01  0.66130569620E+01  0.32492597537E+00  0.69321814470E+01  0.51100000000E-03 0.  1.
        -12    1    3    3    0    0 -0.19019860055E+01  0.30017298880E+00 -0.21872208439E+02  0.21956802057E+02  0.00000000000E+00 0.  1.
</event>
<event>
 7    1  0.6246445E-012  0.5930194E+02  0.7816164E-02  0.1266605E+00
        -11   -1    0    0    0    0  0.00000000000E+00  0.00000000000E+00  0.45593999997E+02  0.45594000000E+02  0.51100000000E-03 0. -1.
         11   -1    0    0    0    0 -0.00000000000E+00 -0.00000000000E+00 -0.45593999997E+02  0.45594000000E+02  0.51100000000E-03 0.  1.
    9900012    2    1    2    0    0  0.13286203253E+02 -0.16593790745E+02 -0.23766446418E+02  0.59301936218E+02  0.49999985758E+02 0.  0.
         12    1    1    2    0    0 -0.13286203253E+02  0.16593790745E+02  0.23766446418E+02  0.31886063782E+02  0.00000000000E+00 0. -1.
         11    1    3    3    0    0 -0.58380791281E+01 -0.35342659651E+01  0.54090483239E+01  0.87081575462E+01  0.51100000000E-03 0. -1.
        -11    1    3    3    0    0  0.29544487134E+01 -0.19918607769E+02 -0.50649040129E+01  0.20763741368E+02  0.51100000000E-03 0.  1.
        -12    1    3    3    0    0  0.16169833667E+02  0.68590829894E+01 -0.24110590729E+02  0.29830037304E+02  0.00000000000E+00 0.  1.
</event>
<event>
 7    1  0.6246445E-012  0.5930187E+02  0.7816164E-02  0.1266605E+00
        -11   -1    0    0    0    0  0.00000000000E+00  0.00000000000E+00  0.45593999997E+02  0.45594000000E+02  0.51100000000E-03 0.  1.
         11   -1    0    0    0    0 -0.00000000000E+00 -0.00000000000E+00 -0.45593999997E+02  0.45594000000E+02  0.51100000000E-03 0. -1.
    9900012    2    1    2    0    0 -0.18803795987E+02 -0.23010490913E+02  0.11561129854E+02  0.59301871996E+02  0.49999868632E+02 0.  0.
         12    1    1    2    0    0  0.18803795987E+02  0.23010490913E+02 -0.11561129854E+02  0.31886128004E+02  0.00000000000E+00 0. -1.
         11    1    3    3    0    0 -0.15303967267E+02  0.97794488564E+01 -0.33848830397E+01  0.18474481522E+02  0.51100000000E-03 0. -1.
        -11    1    3    3    0    0  0.48921174059E+01 -0.24592284061E+01 -0.97095908722E+00  0.55608793259E+01  0.51100000000E-03 0.  1.
        -12    1    3    3    0    0 -0.83919461256E+01 -0.30330711363E+02  0.15916971981E+02  0.35266511149E+02  0.00000000000E+00 0.  1.
</event>
<event>
 7    1  0.6246445E-012  0.5930195E+02  0.7816164E-02  0.1266605E+00
        -11   -1    0    0    0    0  0.00000000000E+00  0.00000000000E+00  0.45593999997E+02  0.45594000000E+02  0.51100000000E-03 0.  1.
         11   -1    0    0    0    0 -0.00000000000E+00 -0.00000000000E+00 -0.45593999997E+02  0.45594000000E+02  0.51100000000E-03 0. -1.
    9900012    2    1    2    0    0  0.82294123242E+01  0.18578877071E+02  0.24572800434E+02  0.59301946284E+02  0.50000004115E+02 0.  0.
         12    1    1    2    0    0 -0.82294123242E+01 -0.18578877071E+02 -0.24572800434E+02  0.31886053716E+02  0.00000000000E+00 0. -1.
         11    1    3    3    0    0  0.33713662101E+01  0.16037287652E+02  0.10256830682E+02  0.19332958420E+02  0.51100000000E-03 0. -1.
        -11    1    3    3    0    0 -0.58429392813E+01  0.37515612931E+00  0.24408421126E+02  0.25100830737E+02  0.51100000000E-03 0.  1.
         12    1    3    3    0    0  0.10700985395E+02  0.21664332895E+01 -0.10092451374E+02  0.14868157127E+02  0.00000000000E+00 0. -1.
</event>
<event>
 7    1  0.6246445E-012  0.5930183E+02  0.7816164E-02  0.1266605E+00
        -11   -1    0    0    0    0  0.00000000000E+00  0.00000000000E+00  0.45593999997E+02  0.45594000000E+02  0.51100000000E-03 0.  1.
         11   -1    0    0    0    0 -0.00000000000E+00 -0.00000000000E+00 -0.45593999997E+02  0.45594000000E+02  0.51100000000E-03 0. -1.
    9900012    2    1    2    0    0 -0.95406396439E+01  0.22784568854E+02  0.20163512531E+02  0.59301833403E+02  0.49999798247E+02 0.  0.
         12    1    1    2    0    0  0.95406396439E+01 -0.22784568854E+02 -0.20163512531E+02  0.31886166597E+02  0.00000000000E+00 0. -1.
         11    1    3    3    0    0 -0.13437849204E+02 -0.90028006757E+01 -0.21979220637E+01  0.16323512884E+02  0.51100000000E-03 0. -1.
        -11    1    3    3    0    0  0.36600968578E+01  0.93132403993E+01  0.17229365947E+02  0.19924452488E+02  0.51100000000E-03 0.  1.
        -12    1    3    3    0    0  0.23711270179E+00  0.22474129130E+02  0.51320686476E+01  0.23053868031E+02  0.00000000000E+00 0.  1.
</event>
<event>
 7    1  0.6246445E-012  0.5930193E+02  0.7816164E-02  0.1266605E+00
        -11   -1    0    0    0    0  0.00000000000E+00  0.00000000000E+00  0.45593999997E+02  0.45594000000E+02  0.51100000000E-03 0. -1.
         11   -1    0    0    0    0 -0.00000000000E+00 -0.00000000000E+00 -0.45593999997E+02  0.45594000000E+02  0.51100000000E-03 0.  1.
    9900012    2    1    2    0    0  0.31128873128E+02  0.62147602944E+01  0.30152080016E+01  0.59301929890E+02  0.49999974216E+02 0.  0.
         12    1    1    2    0    0 -0.31128873128E+02 -0.62147602944E+01 -0.30152080016E+01  0.31886070110E+02  0.00000000000E+00 0. -1.
         11    1    3    3    0    0  0.29450368260E+02  0.77118388721E+01  0.55811534484E+01  0.30950701503E+02  0.51100000000E-03 0. -1.
        -11    1    3    3    0    0  0.54913356922E+01  0.87601740612E+01 -0.10575836065E+02  0.14789987356E+02  0.51100000000E-03 0.  1.
         12    1    3    3    0    0 -0.38128308240E+01 -0.10257252639E+02  0.80098906177E+01  0.13561241031E+02  0.00000000000E+00 0. -1.
</event>
<event>
 7    1  0.6246445E-012  0.5930195E+02  0.7816164E-02  0.1266605E+00
        -11   -1    0    0    0    0  0.00000000000E+00  0.00000000000E+00  0.45593999997E+02  0.45594000000E+02  0.51100000000E-03 0.  1.
         11   -1    0    0    0    0 -0.00000000000E+00 -0.00000000000E+00 -0.45593999997E+02  0.45594000000E+02  0.51100000000E-03 0. -1.
    9900012    2    1    2    0    0  0.26633391216E+02 -0.16946663956E+02  0.44937105929E+01  0.59301946908E+02  0.50000005253E+02 0.  0.
         12    1    1    2    0    0 -0.26633391216E+02  0.16946663956E+02 -0.44937105929E+01  0.31886053092E+02  0.00000000000E+00 0. -1.
         11    1    3    3    0    0  0.81208803358E+01 -0.73465983937E+01  0.10173527636E+02  0.14947303108E+02  0.51100000000E-03 0. -1.
        -11    1    3    3    0    0  0.11245865201E+02 -0.23883020610E+02  0.22136051088E+01  0.26490907976E+02  0.51100000000E-03 0.  1.
         12    1    3    3    0    0  0.72666456795E+01  0.14282955047E+02 -0.78934221516E+01  0.17863735824E+02  0.00000000000E+00 0. -1.
</event>
<event>
 7    1  0.6246445E-012  0.5930195E+02  0.7816164E-02  0.1266605E+00
        -11   -1    0    0    0    0  0.00000000000E+00  0.00000000000E+00  0.45593999997E+02  0.45594000000E+02  0.51100000000E-03 0.  1.
         11   -1    0    0    0    0 -0.00000000000E+00 -0.00000000000E+00 -0.45593999997E+02  0.45594000000E+02  0.51100000000E-03 0. -1.
    9900012    2    1    2    0    0  0.13814506412E+02  0.23132026565E+02  0.17052532006E+02  0.59301951511E+02  0.50000013648E+02 0.  0.
         12    1    1    2    0    0 -0.13814506412E+02 -0.23132026565E+02 -0.17052532006E+02  0.31886048489E+02  0.00000000000E+00 0. -1.
         11    1    3    3    0    0  0.50215244171E+00  0.24457775978E+02 -0.67569761149E+01  0.25378961550E+02  0.51100000000E-03 0. -1.
        -11    1    3    3    0    0  0.46059386133E+01  0.87861324409E+01  0.14820007144E+02  0.17833771497E+02  0.51100000000E-03 0.  1.
        -12    1    3    3    0    0  0.87064153570E+01 -0.10111881854E+02  0.89895009767E+01  0.16089218465E+02  0.00000000000E+00 0.  1.
</event>
<event>
 7    1  0.6246445E-012  0.5930194E+02  0.7816164E-02  0.1266605E+00
        -11   -1    0    0    0    0  0.00000000000E+00  0.00000000000E+00  0.45593999997E+02  0.45594000000E+02  0.51100000000E-03 0.  1.
         11   -1    0    0    0    0 -0.00000000000E+00 -0.00000000000E+00 -0.45593999997E+02  0.45594000000E+02  0.51100000000E-03 0. -1.
    9900012    2    1    2    0    0  0.13297007235E+02  0.23002350089E+02  0.17629583575E+02  0.59301941478E+02  0.49999995350E+02 0.  0.
         12    1    1    2    0    0 -0.13297007235E+02 -0.23002350089E+02 -0.17629583575E+02  0.31886058522E+02  0.00000000000E+00 0. -1.
         11    1    3    3    0    0  0.19908727971E+01 -0.94656283791E+01  0.21527377897E+01  0.99093882433E+01  0.51100000000E-03 0. -1.
        -11    1    3    3    0    0  0.59668438567E+01  0.57548196543E+01  0.20117516094E+02  0.21758575985E+02  0.51100000000E-03 0.  1.
         12    1    3    3    0    0  0.53392905815E+01  0.26713158814E+02 -0.46406703082E+01  0.27633977250E+02  0.00000000000E+00 0. -1.
</event>
<event>
 7    1  0.6246445E-012  0.5930200E+02  0.7816164E-02  0.1266605E+00
        -11   -1    0    0    0    0  0.00000000000E+00  0.00000000000E+00  0.45593999997E+02  0.45594000000E+02  0.51100000000E-03 0.  1.
         11   -1    0    0    0    0 -0.00000000000E+00 -0.00000000000E+00 -0.45593999997E+02  0.45594000000E+02  0.51100000000E-03 0. -1.
    9900012    2    1    2    0    0 -0.30162586464E+02  0.32342267693E+01 -0.98221857670E+01  0.59301997142E+02  0.50000096868E+02 0.  0.
         12    1    1    2    0    0  0.30162586464E+02 -0.32342267693E+01  0.98221857670E+01  0.31886002858E+02  0.00000000000E+00 0. -1.
         11    1    3    3    0    0 -0.18936794243E+02  0.48444877839E+01 -0.11206895246E+02  0.22531438911E+02  0.51100000000E-03 0. -1.
        -11    1    3    3    0    0 -0.19314351510E+02  0.92525452856E+01  0.63624329072E+01  0.22341314224E+02  0.51100000000E-03 0.  1.
         12    1    3    3    0    0  0.80885592882E+01 -0.10862806300E+02 -0.49777234279E+01  0.14429244007E+02  0.00000000000E+00 0. -1.
</event>
<event>
 7    1  0.6325899E-012  0.5930195E+02  0.7816164E-02  0.1266605E+00
        -11   -1    0    0    0    0  0.00000000000E+00  0.00000000000E+00  0.45593999997E+02  0.45594000000E+02  0.51100000000E-03 0.  1.
         11   -1    0    0    0    0 -0.00000000000E+00 -0.00000000000E+00 -0.45593999997E+02  0.45594000000E+02  0.51100000000E-03 0. -1.
    9900012    2    1    2    0    0  0.19677585620E+02 -0.60475513713E+01  0.24350351581E+02  0.59301954847E+02  0.50000019731E+02 0.  0.
         12    1    1    2    0    0 -0.19677585620E+02  0.60475513713E+01 -0.24350351581E+02  0.31886045153E+02  0.00000000000E+00 0. -1.
         11    1    3    3    0    0 -0.32647324669E+01  0.68400358476E+01  0.10644492525E+02  0.13067126305E+02  0.51100000000E-03 0. -1.
        -11    1    3    3    0    0  0.15018133515E+02 -0.21896876378E+02  0.19468126651E+02  0.32924542289E+02  0.51100000000E-03 0.  1.
         12    1    3    3    0    0  0.79241845718E+01  0.90092891595E+01 -0.57622675955E+01  0.13310286253E+02  0.00000000000E+00 0. -1.
</event>
<event>
 7    1  0.6246445E-012  0.5930193E+02  0.7816164E-02  0.1266605E+00
        -11   -1    0    0    0    0  0.00000000000E+00  0.00000000000E+00  0.45593999997E+02  0.45594000000E+02  0.51100000000E-03 0. -1.
         11   -1    0    0    0    0 -0.00000000000E+00 -0.00000000000E+00 -0.45593999997E+02  0.45594000000E+02  0.51100000000E-03 0.  1.
    9900012    2    1    2    0    0  0.21057004081E+02 -0.16607205732E+02 -0.17248897785E+02  0.59301934425E+02  0.49999982487E+02 0.  0.
         12    1    1    2    0    0 -0.21057004081E+02  0.16607205732E+02  0.17248897785E+02  0.31886065575E+02  0.00000000000E+00 0. -1.
         11    1    3    3    0    0  0.22353406914E+01 -0.37684092261E+01 -0.61668162835E+01  0.75648714092E+01  0.51100000000E-03 0. -1.
        -11    1    3    3    0    0 -0.77349925208E+01  0.37618370453E+00 -0.19434499406E+02  0.20920597288E+02  0.51100000000E-03 0.  1.
         12    1    3    3    0    0  0.26556655910E+02 -0.13214980210E+02  0.83524179045E+01  0.30816465727E+02  0.00000000000E+00 0. -1.
</event>
<event>
 7    1  0.6246445E-012  0.5930194E+02  0.7816164E-02  0.1266605E+00
        -11   -1    0    0    0    0  0.00000000000E+00  0.00000000000E+00  0.45593999997E+02  0.45594000000E+02  0.51100000000E-03 0. -1.
         11   -1    0    0    0    0 -0.00000000000E+00 -0.00000000000E+00 -0.45593999997E+02  0.45594000000E+02  0.51100000000E-03 0.  1.
    9900012    2    1    2    0    0  0.12656940517E+02  0.27891858153E+02  0.88638164154E+01  0.59301935082E+02  0.49999983686E+02 0.  0.
         12    1    1    2    0    0 -0.12656940517E+02 -0.27891858153E+02 -0.88638164154E+01  0.31886064918E+02  0.00000000000E+00 0. -1.
         11    1    3    3    0    0 -0.60554656995E+01  0.41871549033E+01  0.17143452681E+01  0.75590945874E+01  0.51100000000E-03 0. -1.
        -11    1    3    3    0    0  0.18891179027E+02  0.15860847503E+02 -0.14570925943E+02  0.28648822169E+02  0.51100000000E-03 0.  1.
         12    1    3    3    0    0 -0.17877281016E+00  0.78438557463E+01  0.21720397091E+02  0.23094018327E+02  0.00000000000E+00 0. -1.
</event>
<event>
 7    1  0.6246445E-012  0.5930203E+02  0.7816164E-02  0.1266604E+00
        -11   -1    0    0    0    0  0.00000000000E+00  0.00000000000E+00  0.45593999997E+02  0.45594000000E+02  0.51100000000E-03 0.  1.
         11   -1    0    0    0    0 -0.00000000000E+00 -0.00000000000E+00 -0.45593999997E+02  0.45594000000E+02  0.51100000000E-03 0. -1.
    9900012    2    1    2    0    0  0.13555001613E+02  0.38152700178E+01  0.28608059071E+02  0.59302025060E+02  0.50000147784E+02 0.  0.
         12    1    1    2    0    0 -0.13555001613E+02 -0.38152700178E+01 -0.28608059071E+02  0.31885974940E+02  0.00000000000E+00 0. -1.
         11    1    3    3    0    0  0.20307245689E+02  0.61667852671E+01  0.75113920637E+01  0.22512984675E+02  0.51100000000E-03 0. -1.
        -11    1    3    3    0    0  0.11445074131E+02 -0.28536771493E+01  0.65892391652E+01  0.13511153473E+02  0.51100000000E-03 0.  1.
         12    1    3    3    0    0 -0.18197318207E+02  0.50216190001E+00  0.14507427842E+02  0.23277886912E+02  0.00000000000E+00 0. -1.
</event>
<event>
 7    1  0.6246445E-012  0.5930196E+02  0.7816164E-02  0.1266605E+00
        -11   -1    0    0    0    0  0.00000000000E+00  0.00000000000E+00  0.45593999997E+02  0.45594000000E+02  0.51100000000E-03 0. -1.
         11   -1    0    0    0    0 -0.00000000000E+00 -0.00000000000E+00 -0.45593999997E+02  0.45594000000E+02  0.51100000000E-03 0.  1.
    9900012    2    1    2    0    0  0.12987323230E+02  0.22033176185E+02 -0.19041753228E+02  0.59301956290E+02  0.50000022363E+02 0.  0.
         12    1    1    2    0    0 -0.12987323230E+02 -0.22033176185E+02  0.19041753228E+02  0.31886043710E+02  0.00000000000E+00 0. -1.
         11    1    3    3    0    0  0.76350572832E+01  0.15838372615E+02  0.13319153895E+02  0.22057833247E+02  0.51100000000E-03 0. -1.
        -11    1    3    3    0    0 -0.48014097281E+01 -0.21298634344E+01 -0.80033634855E+01  0.95730706133E+01  0.51100000000E-03 0.  1.
        -12    1    3    3    0    0  0.10153675675E+02  0.83246670042E+01 -0.24357543638E+02  0.27671052429E+02  0.00000000000E+00 0.  1.
</event>
<event>
 7    1  0.6246445E-012  0.5930194E+02  0.7816164E-02  0.1266605E+00
        -11   -1    0    0    0    0  0.00000000000E+00  0.00000000000E+00  0.45593999997E+02  0.45594000000E+02  0.51100000000E-03 0.  1.
         11   -1    0    0    0    0 -0.00000000000E+00 -0.00000000000E+00 -0.45593999997E+02  0.45594000000E+02  0.51100000000E-03 0. -1.
    9900012    2    1    2    0    0 -0.23992151007E+02 -0.20881852191E+02  0.22463173742E+01  0.59301937173E+02  0.49999987499E+02 0.  0.
         12    1    1    2    0    0  0.23992151007E+02  0.20881852191E+02 -0.22463173742E+01  0.31886062827E+02  0.00000000000E+00 0. -1.
         11    1    3    3    0    0 -0.98339670072E+01  0.12023362514E+02  0.64655233078E+00  0.15546259467E+02  0.51100000000E-03 0. -1.
        -11    1    3    3    0    0  0.47456962478E+01  0.87302044123E+00 -0.11146777915E+01  0.49524039018E+01  0.51100000000E-03 0.  1.
        -12    1    3    3    0    0 -0.18903880247E+02 -0.33778235146E+02  0.27144428349E+01  0.38803273804E+02  0.00000000000E+00 0.  1.
</event>
<event>
 7    1  0.6246445E-012  0.5930195E+02  0.7816164E-02  0.1266605E+00
        -11   -1    0    0    0    0  0.00000000000E+00  0.00000000000E+00  0.45593999997E+02  0.45594000000E+02  0.51100000000E-03 0. -1.
         11   -1    0    0    0    0 -0.00000000000E+00 -0.00000000000E+00 -0.45593999997E+02  0.45594000000E+02  0.51100000000E-03 0.  1.
    9900012    2    1    2    0    0 -0.26360789830E+02 -0.56303488090E+01 -0.17033142717E+02  0.59301952597E+02  0.50000015628E+02 0.  0.
         12    1    1    2    0    0  0.26360789830E+02  0.56303488090E+01  0.17033142717E+02  0.31886047403E+02  0.00000000000E+00 0. -1.
         11    1    3    3    0    0 -0.19793913347E+02 -0.43846181638E+01 -0.10575925368E+02  0.22866440031E+02  0.51100000000E-03 0. -1.
        -11    1    3    3    0    0  0.95246734703E+01 -0.24806611316E+01 -0.15178956442E+02  0.18090710414E+02  0.51100000000E-03 0.  1.
         12    1    3    3    0    0 -0.16091549953E+02  0.12349304864E+01  0.87217390927E+01  0.18344802152E+02  0.00000000000E+00 0. -1.
</event>
<event>
 7    1  0.6246445E-012  0.5930188E+02  0.7816164E-02  0.1266605E+00
        -11   -1    0    0    0    0  0.00000000000E+00  0.00000000000E+00  0.45593999997E+02  0.45594000000E+02  0.51100000000E-03 0.  1.
         11   -1    0    0    0    0 -0.00000000000E+00 -0.00000000000E+00 -0.45593999997E+02  0.45594000000E+02  0.51100000000E-03 0. -1.
    9900012    2    1    2    0    0 -0.10683803943E+02  0.15178111297E+02  0.25926931031E+02  0.59301882615E+02  0.49999887997E+02 0.  0.
         12    1    1    2    0    0  0.10683803943E+02 -0.15178111297E+02 -0.25926931031E+02  0.31886117385E+02  0.00000000000E+00 0. -1.
         11    1    3    3    0    0 -0.19944134438E+02  0.13124352743E+02  0.15164034450E+02  0.28283653839E+02  0.51100000000E-03 0. -1.
        -11    1    3    3    0    0 -0.16626950328E+01  0.11585125923E+02  0.11624568534E+02  0.16495765859E+02  0.51100000000E-03 0.  1.
         12    1    3    3    0    0  0.10923025528E+02 -0.95313673690E+01 -0.86167195277E+00  0.14522462917E+02  0.00000000000E+00 0. -1.
</event>
<event>
 7    1  0.6246445E-012  0.5930202E+02  0.7816164E-02  0.1266605E+00
        -11   -1    0    0    0    0  0.00000000000E+00  0.00000000000E+00  0.45593999997E+02  0.45594000000E+02  0.51100000000E-03 0.  1.
         11   -1    0    0    0    0 -0.00000000000E+00 -0.00000000000E+00 -0.45593999997E+02  0.45594000000E+02  0.51100000000E-03 0. -1.
    9900012    2    1    2    0    0 -0.74704311083E+01  0.14039802864E+02  0.27636797436E+02  0.59302015964E+02  0.50000131194E+02 0.  0.
         12    1    1    2    0    0  0.74704311083E+01 -0.14039802864E+02 -0.27636797436E+02  0.31885984036E+02  0.00000000000E+00 0. -1.
         11    1    3    3    0    0  0.85589361031E+01  0.20747191632E+01  0.13832341859E+02  0.16397973302E+02  0.51100000000E-03 0. -1.
        -11    1    3    3    0    0  0.20664875629E+01  0.14674335620E+01  0.20716840739E+02  0.20871301410E+02  0.51100000000E-03 0.  1.
         12    1    3    3    0    0 -0.18095854774E+02  0.10497650139E+02 -0.69123851619E+01  0.22032741252E+02  0.00000000000E+00 0. -1.
</event>
<event>
 7    1  0.6246445E-012  0.5930194E+02  0.7816164E-02  0.1266605E+00
        -11   -1    0    0    0    0  0.00000000000E+00  0.00000000000E+00  0.45593999997E+02  0.45594000000E+02  0.51100000000E-03 0. -1.
         11   -1    0    0    0    0 -0.00000000000E+00 -0.00000000000E+00 -0.45593999997E+02  0.45594000000E+02  0.51100000000E-03 0.  1.
    9900012    2    1    2    0    0  0.30082192536E+02  0.87138883691E+01  0.59875609935E+01  0.59301936509E+02  0.49999986288E+02 0.  0.
         12    1    1    2    0    0 -0.30082192536E+02 -0.87138883691E+01 -0.59875609935E+01  0.31886063491E+02  0.00000000000E+00 0. -1.
         11    1    3    3    0    0  0.24952514703E+02 -0.76240808692E+01  0.15279543093E+01  0.26135976043E+02  0.51100000000E-03 0. -1.
        -11    1    3    3    0    0  0.10505604922E+02 -0.24796257515E+01  0.77933147832E+01  0.13313603352E+02  0.51100000000E-03 0.  1.
        -12    1    3    3    0    0 -0.53759270890E+01  0.18817594990E+02 -0.33337080990E+01  0.19852357113E+02  0.00000000000E+00 0.  1.
</event>
<event>
 7    1  0.6246445E-012  0.5930194E+02  0.7816164E-02  0.1266605E+00
        -11   -1    0    0    0    0  0.00000000000E+00  0.00000000000E+00  0.45593999997E+02  0.45594000000E+02  0.51100000000E-03 0. -1.
         11   -1    0    0    0    0 -0.00000000000E+00 -0.00000000000E+00 -0.45593999997E+02  0.45594000000E+02  0.51100000000E-03 0.  1.
    9900012    2    1    2    0    0 -0.25046060305E+02 -0.97430888490E+01 -0.17160655037E+02  0.59301937238E+02  0.49999987618E+02 0.  0.
         12    1    1    2    0    0  0.25046060305E+02  0.97430888490E+01  0.17160655037E+02  0.31886062762E+02  0.00000000000E+00 0. -1.
         11    1    3    3    0    0 -0.30284740996E+01 -0.17947534488E+02  0.56140080762E+01  0.19047381356E+02  0.51100000000E-03 0. -1.
        -11    1    3    3    0    0 -0.17903386338E+02 -0.44803964229E+01 -0.18787661054E+02  0.26335933676E+02  0.51100000000E-03 0.  1.
         12    1    3    3    0    0 -0.41141998683E+01  0.12684842062E+02 -0.39870020594E+01  0.13918622206E+02  0.00000000000E+00 0. -1.
</event>
<event>
 7    1  0.6246445E-012  0.5930194E+02  0.7816164E-02  0.1266605E+00
        -11   -1    0    0    0    0  0.00000000000E+00  0.00000000000E+00  0.45593999997E+02  0.45594000000E+02  0.51100000000E-03 0. -1.
         11   -1    0    0    0    0 -0.00000000000E+00 -0.00000000000E+00 -0.45593999997E+02  0.45594000000E+02  0.51100000000E-03 0.  1.
    9900012    2    1    2    0    0 -0.11955627017E+02 -0.16650951585E+02 -0.24423950531E+02  0.59301944026E+02  0.49999999996E+02 0.  0.
         12    1    1    2    0    0  0.11955627017E+02  0.16650951585E+02  0.24423950531E+02  0.31886055974E+02  0.00000000000E+00 0. -1.
         11    1    3    3    0    0 -0.95897667945E+01 -0.24461440801E+01  0.12807190710E+01  0.99793531671E+01  0.51100000000E-03 0. -1.
        -11    1    3    3    0    0 -0.18257979322E+02 -0.22033903947E+00 -0.20637620756E+02  0.27555648222E+02  0.51100000000E-03 0.  1.
        -12    1    3    3    0    0  0.15892119099E+02 -0.13984468466E+02 -0.50670488459E+01  0.21766942637E+02  0.00000000000E+00 0.  1.
</event>
<event>
 7    1  0.6246445E-012  0.5930195E+02  0.7816164E-02  0.1266605E+00
        -11   -1    0    0    0    0  0.00000000000E+00  0.00000000000E+00  0.45593999997E+02  0.45594000000E+02  0.51100000000E-03 0.  1.
         11   -1    0    0    0    0 -0.00000000000E+00 -0.00000000000E+00 -0.45593999997E+02  0.45594000000E+02  0.51100000000E-03 0. -1.
    9900012    2    1    2    0    0 -0.28889477970E+02 -0.36915681795E+01  0.12980382141E+02  0.59301953937E+02  0.50000018072E+02 0.  0.
         12    1    1    2    0    0  0.28889477970E+02  0.36915681795E+01 -0.12980382141E+02  0.31886046063E+02  0.00000000000E+00 0. -1.
         11    1    3    3    0    0 -0.25479840302E+02  0.85207570081E+01  0.98909058120E+01  0.28629627658E+02  0.51100000000E-03 0. -1.
        -11    1    3    3    0    0 -0.12080085311E+02  0.30587685050E+01 -0.14193599323E+01  0.12541894146E+02  0.51100000000E-03 0.  1.
        -12    1    3    3    0    0  0.86704476429E+01 -0.15271093693E+02  0.45088362613E+01  0.18130432133E+02  0.00000000000E+00 0.  1.
</event>
<event>
 7    1  0.6246445E-012  0.5930173E+02  0.7816164E-02  0.1266606E+00
        -11   -1    0    0    0    0  0.00000000000E+00  0.00000000000E+00  0.45593999997E+02  0.45594000000E+02  0.51100000000E-03 0.  1.
         11   -1    0    0    0    0 -0.00000000000E+00 -0.00000000000E+00 -0.45593999997E+02  0.45594000000E+02  0.51100000000E-03 0. -1.
    9900012    2    1    2    0    0 -0.10013234530E+02  0.25819221060E+02  0.15806241713E+02  0.59301728362E+02  0.49999606675E+02 0.  0.
         12    1    1    2    0    0  0.10013234530E+02 -0.25819221060E+02 -0.15806241713E+02  0.31886271638E+02  0.00000000000E+00 0. -1.
         11    1    3    3    0    0  0.15195965730E+02  0.17629912314E+02  0.43288825004E+00  0.23279144640E+02  0.51100000000E-03 0. -1.
        -11    1    3    3    0    0 -0.66575602303E+01  0.56066548282E+01  0.14935867874E+02  0.17286926737E+02  0.51100000000E-03 0.  1.
        -12    1    3    3    0    0 -0.18551640029E+02  0.25826539179E+01  0.43748558894E+00  0.18735656985E+02  0.00000000000E+00 0.  1.
</event>
<event>
 7    1  0.6246445E-012  0.5930208E+02  0.7816164E-02  0.1266604E+00
        -11   -1    0    0    0    0  0.00000000000E+00  0.00000000000E+00  0.45593999997E+02  0.45594000000E+02  0.51100000000E-03 0.  1.
         11   -1    0    0    0    0 -0.00000000000E+00 -0.00000000000E+00 -0.45593999997E+02  0.45594000000E+02  0.51100000000E-03 0. -1.
    9900012    2    1    2    0    0 -0.22292722956E+02  0.13591694915E+02  0.18303346201E+02  0.59302075996E+02  0.50000240678E+02 0.  0.
         12    1    1    2    0    0  0.22292722956E+02 -0.13591694915E+02 -0.18303346201E+02  0.31885924004E+02  0.00000000000E+00 0. -1.
         11    1    3    3    0    0 -0.73198008213E+01  0.24382851449E+02  0.47522910277E+01  0.25897629218E+02  0.51100000000E-03 0. -1.
        -11    1    3    3    0    0  0.25194999355E+01  0.52629100548E+01 -0.43061547138E+00  0.58507719247E+01  0.51100000000E-03 0.  1.
        -12    1    3    3    0    0 -0.17492422070E+02 -0.16054066589E+02  0.13981670645E+02  0.27553674853E+02  0.00000000000E+00 0.  1.
</event>
<event>
 7    1  0.6246445E-012  0.5930235E+02  0.7816164E-02  0.1266603E+00
        -11   -1    0    0    0    0  0.00000000000E+00  0.00000000000E+00  0.45593999997E+02  0.45594000000E+02  0.51100000000E-03 0.  1.
         11   -1    0    0    0    0 -0.00000000000E+00 -0.00000000000E+00 -0.45593999997E+02  0.45594000000E+02  0.51100000000E-03 0. -1.
    9900012    2    1    2    0    0  0.29226892673E+02  0.56510235378E+00  0.12734368612E+02  0.59302348996E+02  0.50000738559E+02 0.  0.
         12    1    1    2    0    0 -0.29226892673E+02 -0.56510235378E+00 -0.12734368612E+02  0.31885651004E+02  0.00000000000E+00 0. -1.
         11    1    3    3    0    0  0.18209711394E+01 -0.16369820282E+01  0.15010725567E+02  0.15209126483E+02  0.51100000000E-03 0. -1.
        -11    1    3    3    0    0  0.18486005583E+02  0.12983858151E+01  0.15516088289E+02  0.24169551179E+02  0.51100000000E-03 0.  1.
        -12    1    3    3    0    0  0.89199159511E+01  0.90369856688E+00 -0.17792445244E+02  0.19923671334E+02  0.00000000000E+00 0.  1.
</event>
<event>
 7    1  0.6246445E-012  0.5930195E+02  0.7816164E-02  0.1266605E+00
        -11   -1    0    0    0    0  0.00000000000E+00  0.00000000000E+00  0.45593999997E+02  0.45594000000E+02  0.51100000000E-03 0.  1.
         11   -1    0    0    0    0 -0.00000000000E+00 -0.00000000000E+00 -0.45593999997E+02  0.45594000000E+02  0.51100000000E-03 0. -1.
    9900012    2    1    2    0    0 -0.28565409448E+02 -0.10457176098E+02 -0.95595477225E+01  0.59301951303E+02  0.50000013268E+02 0.  0.
         12    1    1    2    0    0  0.28565409448E+02  0.10457176098E+02  0.95595477225E+01  0.31886048697E+02  0.00000000000E+00 0. -1.
         11    1    3    3    0    0 -0.16080015751E+02 -0.12405212163E+02 -0.19266350511E+02  0.27993721754E+02  0.51100000000E-03 0. -1.
        -11    1    3    3    0    0 -0.40207120793E+01  0.28828909088E+01 -0.92702881198E+01  0.10507874557E+02  0.51100000000E-03 0.  1.
        -12    1    3    3    0    0 -0.84646816178E+01 -0.93485484338E+00  0.18977090908E+02  0.20800354992E+02  0.00000000000E+00 0.  1.
</event>
<event>
 7    1  0.6246445E-012  0.5930196E+02  0.7816164E-02  0.1266605E+00
        -11   -1    0    0    0    0  0.00000000000E+00  0.00000000000E+00  0.45593999997E+02  0.45594000000E+02  0.51100000000E-03 0. -1.
         11   -1    0    0    0    0 -0.00000000000E+00 -0.00000000000E+00 -0.45593999997E+02  0.45594000000E+02  0.51100000000E-03 0.  1.
    9900012    2    1    2    0    0  0.87516570119E+01 -0.29892838426E+02 -0.68224906743E+01  0.59301958091E+02  0.50000025648E+02 0.  0.
         12    1    1    2    0    0 -0.87516570119E+01  0.29892838426E+02  0.68224906743E+01  0.31886041909E+02  0.00000000000E+00 0. -1.
         11    1    3    3    0    0  0.76801740281E+01 -0.12323864094E+02  0.17147545925E+02  0.22470002911E+02  0.51100000000E-03 0. -1.
        -11    1    3    3    0    0  0.23173450383E+01  0.15293664333E+01  0.27873708105E+01  0.39342707088E+01  0.51100000000E-03 0.  1.
        -12    1    3    3    0    0 -0.12458620544E+01 -0.19098340766E+02 -0.26757407410E+02  0.32897684471E+02  0.00000000000E+00 0.  1.
</event>
<event>
 7    1  0.7912740E-012  0.5930194E+02  0.7816164E-02  0.1266605E+00
        -11   -1    0    0    0    0  0.00000000000E+00  0.00000000000E+00  0.45593999997E+02  0.45594000000E+02  0.51100000000E-03 0.  1.
         11   -1    0    0    0    0 -0.00000000000E+00 -0.00000000000E+00 -0.45593999997E+02  0.45594000000E+02  0.51100000000E-03 0. -1.
    9900012    2    1    2    0    0 -0.28570393241E+02  0.11787508249E+02 -0.78427084827E+01  0.59301940397E+02  0.49999993379E+02 0.  0.
         12    1    1    2    0    0  0.28570393241E+02 -0.11787508249E+02  0.78427084827E+01  0.31886059603E+02  0.00000000000E+00 0. -1.
         11    1    3    3    0    0  0.28421034198E+01  0.16067214429E+01 -0.94029447291E+01  0.99536162014E+01  0.51100000000E-03 0. -1.
        -11    1    3    3    0    0 -0.17166230377E+02  0.21520366600E+02 -0.81543477643E+01  0.28710608348E+02  0.51100000000E-03 0.  1.
         12    1    3    3    0    0 -0.14246266284E+02 -0.11339579794E+02  0.97145840107E+01  0.20637715848E+02  0.00000000000E+00 0. -1.
</event>
<event>
 7    1  0.6246445E-012  0.5930193E+02  0.7816164E-02  0.1266605E+00
        -11   -1    0    0    0    0  0.00000000000E+00  0.00000000000E+00  0.45593999997E+02  0.45594000000E+02  0.51100000000E-03 0.  1.
         11   -1    0    0    0    0 -0.00000000000E+00 -0.00000000000E+00 -0.45593999997E+02  0.45594000000E+02  0.51100000000E-03 0. -1.
    9900012    2    1    2    0    0 -0.88468477241E+01 -0.27220269182E+02  0.14053885214E+02  0.59301930022E+02  0.49999974458E+02 0.  0.
         12    1    1    2    0    0  0.88468477241E+01  0.27220269182E+02 -0.14053885214E+02  0.31886069978E+02  0.00000000000E+00 0. -1.
         11    1    3    3    0    0  0.32834046598E+01 -0.59129655482E+01  0.40163804388E+01  0.78660803343E+01  0.51100000000E-03 0. -1.
        -11    1    3    3    0    0  0.14982499023E+02 -0.60770926065E+01 -0.49585346661E+01  0.16911339326E+02  0.51100000000E-03 0.  1.
        -12    1    3    3    0    0 -0.27112751407E+02 -0.15230211027E+02  0.14996039442E+02  0.34524510362E+02  0.00000000000E+00 0.  1.
</event>
<event>
 7    1  0.6246445E-012  0.5930194E+02  0.7816164E-02  0.1266605E+00
        -11   -1    0    0    0    0  0.00000000000E+00  0.00000000000E+00  0.45593999997E+02  0.45594000000E+02  0.51100000000E-03 0.  1.
         11   -1    0    0    0    0 -0.00000000000E+00 -0.00000000000E+00 -0.45593999997E+02  0.45594000000E+02  0.51100000000E-03 0. -1.
    9900012    2    1    2    0    0  0.26158317599E+02  0.11007398481E+02  0.14536174983E+02  0.59301940600E+02  0.49999993748E+02 0.  0.
         12    1    1    2    0    0 -0.26158317599E+02 -0.11007398481E+02 -0.14536174983E+02  0.31886059400E+02  0.00000000000E+00 0. -1.
         11    1    3    3    0    0  0.13000657879E+02 -0.13155675875E+02 -0.40041086502E+01  0.18924106302E+02  0.51100000000E-03 0. -1.
        -11    1    3    3    0    0  0.10794431105E+02  0.63275232003E+01 -0.24313357530E+01  0.12746320510E+02  0.51100000000E-03 0.  1.
        -12    1    3    3    0    0  0.23632286151E+01  0.17835551155E+02  0.20971619387E+02  0.27631513788E+02  0.00000000000E+00 0.  1.
</event>
<event>
 7    1  0.6246445E-012  0.5930212E+02  0.7816164E-02  0.1266604E+00
        -11   -1    0    0    0    0  0.00000000000E+00  0.00000000000E+00  0.45593999997E+02  0.45594000000E+02  0.51100000000E-03 0.  1.
         11   -1    0    0    0    0 -0.00000000000E+00 -0.00000000000E+00 -0.45593999997E+02  0.45594000000E+02  0.51100000000E-03 0. -1.
    9900012    2    1    2    0    0 -0.54320580976E+01 -0.24900191191E+02  0.19162009668E+02  0.59302119252E+02  0.50000319567E+02 0.  0.
         12    1    1    2    0    0  0.54320580976E+01  0.24900191191E+02 -0.19162009668E+02  0.31885880748E+02  0.00000000000E+00 0. -1.
         11    1    3    3    0    0 -0.86806644881E+01  0.11137352261E+02 -0.11744774715E+01  0.14169472430E+02  0.51100000000E-03 0. -1.
        -11    1    3    3    0    0  0.61930316255E+00 -0.20113297563E+02  0.12853299835E+01  0.20163837648E+02  0.51100000000E-03 0.  1.
        -12    1    3    3    0    0  0.26293032279E+01 -0.15924245889E+02  0.19051157156E+02  0.24968809175E+02  0.00000000000E+00 0.  1.
</event>
<event>
 7    1  0.6246445E-012  0.5930195E+02  0.7816164E-02  0.1266605E+00
        -11   -1    0    0    0    0  0.00000000000E+00  0.00000000000E+00  0.45593999997E+02  0.45594000000E+02  0.51100000000E-03 0.  1.
         11   -1    0    0    0    0 -0.00000000000E+00 -0.00000000000E+00 -0.45593999997E+02  0.45594000000E+02  0.51100000000E-03 0. -1.
    9900012    2    1    2    0    0 -0.19584872982E+02  0.11318955161E+02  0.22472967527E+02  0.59301948737E+02  0.50000008589E+02 0.  0.
         12    1    1    2    0    0  0.19584872982E+02 -0.11318955161E+02 -0.22472967527E+02  0.31886051263E+02  0.00000000000E+00 0. -1.
         11    1    3    3    0    0  0.49644600096E+00 -0.24168318769E+01 -0.40450664483E+00  0.25002321572E+01  0.51100000000E-03 0. -1.
        -11    1    3    3    0    0 -0.27075348213E+02  0.22675845911E+02  0.50621555390E+01  0.35677638481E+02  0.51100000000E-03 0.  1.
         12    1    3    3    0    0  0.69940292306E+01 -0.89400588730E+01  0.17815318633E+02  0.21124078099E+02  0.00000000000E+00 0. -1.
</event>
<event>
 7    1  0.6246445E-012  0.5930192E+02  0.7816164E-02  0.1266605E+00
        -11   -1    0    0    0    0  0.00000000000E+00  0.00000000000E+00  0.45593999997E+02  0.45594000000E+02  0.51100000000E-03 0.  1.
         11   -1    0    0    0    0 -0.00000000000E+00 -0.00000000000E+00 -0.45593999997E+02  0.45594000000E+02  0.51100000000E-03 0. -1.
    9900012    2    1    2    0    0  0.21185575821E+02 -0.95854847687E+01  0.21817692961E+02  0.59301923614E+02  0.49999962771E+02 0.  0.
         12    1    1    2    0    0 -0.21185575821E+02  0.95854847687E+01 -0.21817692961E+02  0.31886076386E+02  0.00000000000E+00 0. -1.
         11    1    3    3    0    0  0.21949708998E+02  0.12781164203E+02  0.38866242349E+01  0.25695402929E+02  0.51100000000E-03 0. -1.
        -11    1    3    3    0    0  0.34014285304E+01  0.13922239137E+01  0.22110279100E+00  0.36819682478E+01  0.51100000000E-03 0.  1.
        -12    1    3    3    0    0 -0.41655617073E+01 -0.23758872886E+02  0.17709965935E+02  0.29924552437E+02  0.00000000000E+00 0.  1.
</event>
<event>
 7    1  0.6246445E-012  0.5930197E+02  0.7816164E-02  0.1266605E+00
        -11   -1    0    0    0    0  0.00000000000E+00  0.00000000000E+00  0.45593999997E+02  0.45594000000E+02  0.51100000000E-03 0.  1.
         11   -1    0    0    0    0 -0.00000000000E+00 -0.00000000000E+00 -0.45593999997E+02  0.45594000000E+02  0.51100000000E-03 0. -1.
    9900012    2    1    2    0    0 -0.13085243258E+02 -0.28861585504E+02  0.35360957212E+01  0.59301973564E+02  0.50000053866E+02 0.  0.
         12    1    1    2    0    0  0.13085243258E+02  0.28861585504E+02 -0.35360957212E+01  0.31886026436E+02  0.00000000000E+00 0. -1.
         11    1    3    3    0    0  0.40382674803E+01 -0.40078544247E+01 -0.13866767056E+02  0.14988586664E+02  0.51100000000E-03 0. -1.
        -11    1    3    3    0    0  0.49251927175E+01 -0.12065084532E+02  0.13073622246E+02  0.18459235817E+02  0.51100000000E-03 0.  1.
        -12    1    3    3    0    0 -0.22048703456E+02 -0.12788646548E+02  0.43292405317E+01  0.25854151083E+02  0.00000000000E+00 0.  1.
</event>
<event>
 7    1  0.6246445E-012  0.5930192E+02  0.7816164E-02  0.1266605E+00
        -11   -1    0    0    0    0  0.00000000000E+00  0.00000000000E+00  0.45593999997E+02  0.45594000000E+02  0.51100000000E-03 0. -1.
         11   -1    0    0    0    0 -0.00000000000E+00 -0.00000000000E+00 -0.45593999997E+02  0.45594000000E+02  0.51100000000E-03 0.  1.
    9900012    2    1    2    0    0 -0.15218456899E+02 -0.87522650936E+00 -0.28006329228E+02  0.59301922652E+02  0.49999961016E+02 0.  0.
         12    1    1    2    0    0  0.15218456899E+02  0.87522650936E+00  0.28006329228E+02  0.31886077348E+02  0.00000000000E+00 0. -1.
         11    1    3    3    0    0 -0.15558180890E+02  0.73646849340E+01 -0.90306018582E+01  0.19438295887E+02  0.51100000000E-03 0.  1.
        -11    1    3    3    0    0 -0.15279390708E+02 -0.64986459775E+00 -0.16198698010E+02  0.22277340996E+02  0.51100000000E-03 0. -1.
         12    1    3    3    0    0  0.15619114699E+02 -0.75900468456E+01 -0.27770293600E+01  0.17586285769E+02  0.00000000000E+00 0. -1.
</event>
<event>
 7    1  0.8192718E-012  0.5930193E+02  0.7816164E-02  0.1266605E+00
        -11   -1    0    0    0    0  0.00000000000E+00  0.00000000000E+00  0.45593999997E+02  0.45594000000E+02  0.51100000000E-03 0. -1.
         11   -1    0    0    0    0 -0.00000000000E+00 -0.00000000000E+00 -0.45593999997E+02  0.45594000000E+02  0.51100000000E-03 0.  1.
    9900012    2    1    2    0    0 -0.24168009514E+02 -0.20769836933E+02 -0.11145991294E+01  0.59301934998E+02  0.49999983532E+02 0.  0.
         12    1    1    2    0    0  0.24168009514E+02  0.20769836933E+02  0.11145991294E+01  0.31886065002E+02  0.00000000000E+00 0. -1.
         11    1    3    3    0    0 -0.45573834103E+01 -0.13188495771E+02 -0.85289132820E+01  0.16353853561E+02  0.51100000000E-03 0. -1.
        -11    1    3    3    0    0 -0.26752600513E+02 -0.15162480090E+02  0.97779704233E+01  0.32267803497E+02  0.51100000000E-03 0.  1.
         12    1    3    3    0    0  0.71419744094E+01  0.75811389276E+01 -0.23636562707E+01  0.10680277940E+02  0.00000000000E+00 0. -1.
</event>
<event>
 7    1  0.6246445E-012  0.5930199E+02  0.7816164E-02  0.1266605E+00
        -11   -1    0    0    0    0  0.00000000000E+00  0.00000000000E+00  0.45593999997E+02  0.45594000000E+02  0.51100000000E-03 0.  1.
         11   -1    0    0    0    0 -0.00000000000E+00 -0.00000000000E+00 -0.45593999997E+02  0.45594000000E+02  0.51100000000E-03 0. -1.
    9900012    2    1    2    0    0  0.28559229389E+02 -0.40585457690E+01  0.13587356109E+02  0.59301990167E+02  0.50000084146E+02 0.  0.
         12    1    1    2    0    0 -0.28559229389E+02  0.40585457690E+01 -0.13587356109E+02  0.31886009833E+02  0.00000000000E+00 0. -1.
         11    1    3    3    0    0 -0.63803477333E+01 -0.16821397883E+01  0.39225824203E+01  0.76762676198E+01  0.51100000000E-03 0. -1.
        -11    1    3    3    0    0  0.18925806800E+02 -0.92046618605E+00  0.23657381661E+02  0.30310148932E+02  0.51100000000E-03 0.  1.
         12    1    3    3    0    0  0.16013770323E+02 -0.14559397946E+01 -0.13992607972E+02  0.21315573614E+02  0.00000000000E+00 0. -1.
</event>
<event>
 7    1  0.6246445E-012  0.5930192E+02  0.7816164E-02  0.1266605E+00
        -11   -1    0    0    0    0  0.00000000000E+00  0.00000000000E+00  0.45593999997E+02  0.45594000000E+02  0.51100000000E-03 0. -1.
         11   -1    0    0    0    0 -0.00000000000E+00 -0.00000000000E+00 -0.45593999997E+02  0.45594000000E+02  0.51100000000E-03 0.  1.
    9900012    2    1    2    0    0  0.12924819921E+02  0.29142673914E+02  0.61295667616E+00  0.59301919515E+02  0.49999955294E+02 0.  0.
         12    1    1    2    0    0 -0.12924819921E+02 -0.29142673914E+02 -0.61295667616E+00  0.31886080485E+02  0.00000000000E+00 0. -1.
         11    1    3    3    0    0  0.20333870415E+02  0.95730584811E+01  0.11584742331E+02  0.25284698730E+02  0.51100000000E-03 0. -1.
        -11    1    3    3    0    0  0.72580708413E+01  0.25303776295E+01  0.21553508827E+01  0.79829782020E+01  0.51100000000E-03 0.  1.
         12    1    3    3    0    0 -0.14667121335E+02  0.17039237803E+02 -0.13127136538E+02  0.26034242582E+02  0.00000000000E+00 0. -1.
</event>
<event>
 7    1  0.6246445E-012  0.5930199E+02  0.7816164E-02  0.1266605E+00
        -11   -1    0    0    0    0  0.00000000000E+00  0.00000000000E+00  0.45593999997E+02  0.45594000000E+02  0.51100000000E-03 0.  1.
         11   -1    0    0    0    0 -0.00000000000E+00 -0.00000000000E+00 -0.45593999997E+02  0.45594000000E+02  0.51100000000E-03 0. -1.
    9900012    2    1    2    0    0  0.21450893369E+02  0.58005867102E+01  0.22867661107E+02  0.59301991202E+02  0.50000086035E+02 0.  0.
         12    1    1    2    0    0 -0.21450893369E+02 -0.58005867102E+01 -0.22867661107E+02  0.31886008798E+02  0.00000000000E+00 0. -1.
         11    1    3    3    0    0 -0.60173880949E+01  0.55889268929E+01  0.11727289167E+02  0.14316926163E+02  0.51100000000E-03 0.  1.
        -11    1    3    3    0    0  0.14470566641E+02  0.14044547354E+02  0.15590113574E+02  0.25489179093E+02  0.51100000000E-03 0. -1.
         12    1    3    3    0    0  0.12997714823E+02 -0.13832887537E+02 -0.44497416340E+01  0.19495885946E+02  0.00000000000E+00 0. -1.
</event>
<event>
 7    1  0.6246445E-012  0.5930194E+02  0.7816164E-02  0.1266605E+00
        -11   -1    0    0    0    0  0.00000000000E+00  0.00000000000E+00  0.45593999997E+02  0.45594000000E+02  0.51100000000E-03 0. -1.
         11   -1    0    0    0    0 -0.00000000000E+00 -0.00000000000E+00 -0.45593999997E+02  0.45594000000E+02  0.51100000000E-03 0.  1.
    9900012    2    1    2    0    0  0.80638429368E+01 -0.29437149546E+02 -0.92276558445E+01  0.59301937705E+02  0.49999988469E+02 0.  0.
         12    1    1    2    0    0 -0.80638429368E+01  0.29437149546E+02  0.92276558445E+01  0.31886062295E+02  0.00000000000E+00 0. -1.
         11    1    3    3    0    0  0.97552731023E+00  0.85900985881E+01  0.29006197596E+00  0.86501782350E+01  0.51100000000E-03 0. -1.
        -11    1    3    3    0    0  0.10859013063E+00 -0.67738447551E+01  0.10783959722E+02  0.12735405456E+02  0.51100000000E-03 0.  1.
        -12    1    3    3    0    0  0.69797254959E+01 -0.31253403379E+02 -0.20301677542E+02  0.37916354015E+02  0.00000000000E+00 0.  1.
</event>
<event>
 7    1  0.6246445E-012  0.5930202E+02  0.7816164E-02  0.1266604E+00
        -11   -1    0    0    0    0  0.00000000000E+00  0.00000000000E+00  0.45593999997E+02  0.45594000000E+02  0.51100000000E-03 0. -1.
         11   -1    0    0    0    0 -0.00000000000E+00 -0.00000000000E+00 -0.45593999997E+02  0.45594000000E+02  0.51100000000E-03 0.  1.
    9900012    2    1    2    0    0  0.24355068594E+02  0.16391762355E+02 -0.12444133770E+02  0.59302020250E+02  0.50000139011E+02 0.  0.
         12    1    1    2    0    0 -0.24355068594E+02 -0.16391762355E+02  0.12444133770E+02  0.31885979750E+02  0.00000000000E+00 0. -1.
         11    1    3    3    0    0  0.49565352477E+01  0.13031492784E+02  0.83329846740E+01  0.16242711587E+02  0.51100000000E-03 0. -1.
        -11    1    3    3    0    0  0.73386290412E+01  0.14685328972E+02  0.10593350452E+00  0.16417234402E+02  0.51100000000E-03 0.  1.
        -12    1    3    3    0    0  0.12059904305E+02 -0.11325059402E+02 -0.20883051948E+02  0.26642074262E+02  0.00000000000E+00 0.  1.
</event>
<event>
 7    1  0.6246445E-012  0.5930196E+02  0.7816164E-02  0.1266605E+00
        -11   -1    0    0    0    0  0.00000000000E+00  0.00000000000E+00  0.45593999997E+02  0.45594000000E+02  0.51100000000E-03 0. -1.
         11   -1    0    0    0    0 -0.00000000000E+00 -0.00000000000E+00 -0.45593999997E+02  0.45594000000E+02  0.51100000000E-03 0.  1.
    9900012    2    1    2    0    0 -0.10305013177E+02 -0.21541276974E+01 -0.30097942359E+02  0.59301957647E+02  0.50000024838E+02 0.  0.
         12    1    1    2    0    0  0.10305013177E+02  0.21541276974E+01  0.30097942359E+02  0.31886042353E+02  0.00000000000E+00 0. -1.
         11    1    3    3    0    0  0.85916208765E+01 -0.25122663647E+01  0.27802083526E+01  0.93732059786E+01  0.51100000000E-03 0. -1.
        -11    1    3    3    0    0 -0.27380835619E+01  0.13421530338E+02 -0.38472577224E+01  0.14227999524E+02  0.51100000000E-03 0.  1.
         12    1    3    3    0    0 -0.16158550492E+02 -0.13063391671E+02 -0.29030892989E+02  0.35700752144E+02  0.00000000000E+00 0. -1.
</event>
<event>
 7    1  0.6246445E-012  0.5930197E+02  0.7816164E-02  0.1266605E+00
        -11   -1    0    0    0    0  0.00000000000E+00  0.00000000000E+00  0.45593999997E+02  0.45594000000E+02  0.51100000000E-03 0. -1.
         11   -1    0    0    0    0 -0.00000000000E+00 -0.00000000000E+00 -0.45593999997E+02  0.45594000000E+02  0.51100000000E-03 0.  1.
    9900012    2    1    2    0    0 -0.11446714304E+02  0.17252194760E+02 -0.24249811389E+02  0.59301971009E+02  0.50000049208E+02 0.  0.
         12    1    1    2    0    0  0.11446714304E+02 -0.17252194760E+02  0.24249811389E+02  0.31886028991E+02  0.00000000000E+00 0. -1.
         11    1    3    3    0    0  0.68415960599E+01  0.98137376311E+01 -0.71511480538E+01  0.13937567998E+02  0.51100000000E-03 0. -1.
        -11    1    3    3    0    0  0.10974975138E+02  0.72705373036E+00 -0.91489286732E+01  0.14306697122E+02  0.51100000000E-03 0.  1.
        -12    1    3    3    0    0 -0.29263285502E+02  0.67114033982E+01 -0.79497346623E+01  0.31057705890E+02  0.00000000000E+00 0.  1.
</event>
<event>
 7    1  0.6246445E-012  0.5930197E+02  0.7816164E-02  0.1266605E+00
        -11   -1    0    0    0    0  0.00000000000E+00  0.00000000000E+00  0.45593999997E+02  0.45594000000E+02  0.51100000000E-03 0.  1.
         11   -1    0    0    0    0 -0.00000000000E+00 -0.00000000000E+00 -0.45593999997E+02  0.45594000000E+02  0.51100000000E-03 0. -1.
    9900012    2    1    2    0    0 -0.13876350527E+02 -0.21837194260E+02  0.18636068503E+02  0.59301965339E+02  0.50000038867E+02 0.  0.
         12    1    1    2    0    0  0.13876350527E+02  0.21837194260E+02 -0.18636068503E+02  0.31886034661E+02  0.00000000000E+00 0. -1.
         11    1    3    3    0    0 -0.17367076241E+02 -0.15731891470E+02 -0.25638776080E+01  0.23572891529E+02  0.51100000000E-03 0. -1.
        -11    1    3    3    0    0 -0.65181213603E+01  0.66232260843E+01  0.16383791843E+02  0.18835648788E+02  0.51100000000E-03 0.  1.
        -12    1    3    3    0    0  0.10008847074E+02 -0.12728528875E+02  0.48161542679E+01  0.16893425023E+02  0.00000000000E+00 0.  1.
</event>
<event>
 7    1  0.6246445E-012  0.5930194E+02  0.7816164E-02  0.1266605E+00
        -11   -1    0    0    0    0  0.00000000000E+00  0.00000000000E+00  0.45593999997E+02  0.45594000000E+02  0.51100000000E-03 0.  1.
         11   -1    0    0    0    0 -0.00000000000E+00 -0.00000000000E+00 -0.45593999997E+02  0.45594000000E+02  0.51100000000E-03 0. -1.
    9900012    2    1    2    0    0  0.10814403799E+02  0.25047094814E+02  0.16504918460E+02  0.59301943149E+02  0.49999998397E+02 0.  0.
         12    1    1    2    0    0 -0.10814403799E+02 -0.25047094814E+02 -0.16504918460E+02  0.31886056851E+02  0.00000000000E+00 0. -1.
         11    1    3    3    0    0 -0.51298609770E+01  0.81653305722E+00 -0.17324028057E+01  0.54757117912E+01  0.51100000000E-03 0. -1.
        -11    1    3    3    0    0  0.25151542007E+02  0.30037349076E+02  0.10785856017E+02  0.40634678479E+02  0.51100000000E-03 0.  1.
         12    1    3    3    0    0 -0.92072772310E+01 -0.58067873193E+01  0.74514652490E+01  0.13191552878E+02  0.00000000000E+00 0. -1.
</event>
<event>
 7    1  0.6246445E-012  0.5930195E+02  0.7816164E-02  0.1266605E+00
        -11   -1    0    0    0    0  0.00000000000E+00  0.00000000000E+00  0.45593999997E+02  0.45594000000E+02  0.51100000000E-03 0. -1.
         11   -1    0    0    0    0 -0.00000000000E+00 -0.00000000000E+00 -0.45593999997E+02  0.45594000000E+02  0.51100000000E-03 0.  1.
    9900012    2    1    2    0    0 -0.29282239796E+01  0.30750013999E+02 -0.79109078394E+01  0.59301947886E+02  0.50000007036E+02 0.  0.
         12    1    1    2    0    0  0.29282239796E+01 -0.30750013999E+02  0.79109078394E+01  0.31886052114E+02  0.00000000000E+00 0. -1.
         11    1    3    3    0    0  0.57445390742E+01 -0.15153923446E+01  0.22105131676E+00  0.59451666990E+01  0.51100000000E-03 0. -1.
        -11    1    3    3    0    0  0.81376349580E+01 -0.63956002756E+01 -0.35908194208E+01  0.10955308757E+02  0.51100000000E-03 0.  1.
         12    1    3    3    0    0 -0.16810398012E+02  0.38661006619E+02 -0.45411397353E+01  0.42401472429E+02  0.00000000000E+00 0. -1.
</event>
<event>
 7    1  0.6246445E-012  0.5930196E+02  0.7816164E-02  0.1266605E+00
        -11   -1    0    0    0    0  0.00000000000E+00  0.00000000000E+00  0.45593999997E+02  0.45594000000E+02  0.51100000000E-03 0. -1.
         11   -1    0    0    0    0 -0.00000000000E+00 -0.00000000000E+00 -0.45593999997E+02  0.45594000000E+02  0.51100000000E-03 0.  1.
    9900012    2    1    2    0    0  0.55382166892E+01 -0.10167148383E+02 -0.29709876973E+02  0.59301960106E+02  0.50000029324E+02 0.  0.
         12    1    1    2    0    0 -0.55382166892E+01  0.10167148383E+02  0.29709876973E+02  0.31886039894E+02  0.00000000000E+00 0. -1.
         11    1    3    3    0    0  0.94972265675E+01 -0.81325916781E+01 -0.13466289835E+02  0.18375998532E+02  0.51100000000E-03 0. -1.
        -11    1    3    3    0    0  0.15616187480E+02  0.54961391412E+01 -0.80495263916E+01  0.18408360390E+02  0.51100000000E-03 0.  1.
         12    1    3    3    0    0 -0.19575197358E+02 -0.75306958465E+01 -0.81940607467E+01  0.22517601184E+02  0.00000000000E+00 0. -1.
</event>
<event>
 7    1  0.6246445E-012  0.5930195E+02  0.7816164E-02  0.1266605E+00
        -11   -1    0    0    0    0  0.00000000000E+00  0.00000000000E+00  0.45593999997E+02  0.45594000000E+02  0.51100000000E-03 0.  1.
         11   -1    0    0    0    0 -0.00000000000E+00 -0.00000000000E+00 -0.45593999997E+02  0.45594000000E+02  0.51100000000E-03 0. -1.
    9900012    2    1    2    0    0 -0.25022538824E+02  0.18816608919E+02  0.60438352002E+01  0.59301950318E+02  0.50000011472E+02 0.  0.
         12    1    1    2    0    0  0.25022538824E+02 -0.18816608919E+02 -0.60438352002E+01  0.31886049682E+02  0.00000000000E+00 0. -1.
         11    1    3    3    0    0 -0.58776244084E+01  0.21665292513E+02  0.20201282352E+02  0.30199721477E+02  0.51100000000E-03 0.  1.
        -11    1    3    3    0    0 -0.13721057160E+01 -0.69615410160E+01 -0.28957921925E+01  0.76636375238E+01  0.51100000000E-03 0. -1.
        -12    1    3    3    0    0 -0.17772808699E+02  0.41128574226E+01 -0.11261654960E+02  0.21438591317E+02  0.00000000000E+00 0.  1.
</event>
<event>
 7    1  0.6246445E-012  0.5930189E+02  0.7816164E-02  0.1266605E+00
        -11   -1    0    0    0    0  0.00000000000E+00  0.00000000000E+00  0.45593999997E+02  0.45594000000E+02  0.51100000000E-03 0. -1.
         11   -1    0    0    0    0 -0.00000000000E+00 -0.00000000000E+00 -0.45593999997E+02  0.45594000000E+02  0.51100000000E-03 0.  1.
    9900012    2    1    2    0    0 -0.57607417648E+01  0.29545084719E+01 -0.31221924725E+02  0.59301892531E+02  0.49999906083E+02 0.  0.
         12    1    1    2    0    0  0.57607417648E+01 -0.29545084719E+01  0.31221924725E+02  0.31886107469E+02  0.00000000000E+00 0. -1.
         11    1    3    3    0    0  0.12282287274E+02 -0.31384627911E+01 -0.45863538499E+00  0.12685222743E+02  0.51100000000E-03 0. -1.
        -11    1    3    3    0    0 -0.25918065873E+00  0.12725063924E+02 -0.31541238953E+01  0.13112700877E+02  0.51100000000E-03 0.  1.
        -12    1    3    3    0    0 -0.17783848380E+02 -0.66320926615E+01 -0.27609165444E+02  0.33503968911E+02  0.00000000000E+00 0.  1.
</event>
<event>
 7    1  0.6246445E-012  0.5930193E+02  0.7816164E-02  0.1266605E+00
        -11   -1    0    0    0    0  0.00000000000E+00  0.00000000000E+00  0.45593999997E+02  0.45594000000E+02  0.51100000000E-03 0. -1.
         11   -1    0    0    0    0 -0.00000000000E+00 -0.00000000000E+00 -0.45593999997E+02  0.45594000000E+02  0.51100000000E-03 0.  1.
    9900012    2    1    2    0    0 -0.28184391391E+02  0.74087269216E+01 -0.12941098728E+02  0.59301934251E+02  0.49999982170E+02 0.  0.
         12    1    1    2    0    0  0.28184391391E+02 -0.74087269216E+01  0.12941098728E+02  0.31886065749E+02  0.00000000000E+00 0. -1.
         11    1    3    3    0    0 -0.25937886211E+02  0.15758150529E+01  0.48542291616E+01  0.26435216571E+02  0.51100000000E-03 0. -1.
        -11    1    3    3    0    0 -0.13169961546E+02  0.84737216975E+01 -0.65705994989E+01  0.16983068761E+02  0.51100000000E-03 0.  1.
         12    1    3    3    0    0  0.10923456366E+02 -0.26408098287E+01 -0.11224728390E+02  0.15883648918E+02  0.00000000000E+00 0. -1.
</event>
<event>
 7    1  0.6246445E-012  0.5930192E+02  0.7816164E-02  0.1266605E+00
        -11   -1    0    0    0    0  0.00000000000E+00  0.00000000000E+00  0.45593999997E+02  0.45594000000E+02  0.51100000000E-03 0.  1.
         11   -1    0    0    0    0 -0.00000000000E+00 -0.00000000000E+00 -0.45593999997E+02  0.45594000000E+02  0.51100000000E-03 0. -1.
    9900012    2    1    2    0    0 -0.28901511507E+02 -0.10878442140E+02  0.79425430285E+01  0.59301923720E+02  0.49999962963E+02 0.  0.
         12    1    1    2    0    0  0.28901511507E+02  0.10878442140E+02 -0.79425430285E+01  0.31886076280E+02  0.00000000000E+00 0. -1.
         11    1    3    3    0    0 -0.18636306056E+01  0.15289754923E+02 -0.16348059248E+01  0.15489425920E+02  0.51100000000E-03 0. -1.
        -11    1    3    3    0    0 -0.26620202320E+01 -0.43627482407E+01  0.98597588046E+01  0.11105618752E+02  0.51100000000E-03 0.  1.
        -12    1    3    3    0    0 -0.24375860669E+02 -0.21805448823E+02 -0.28240985132E+00  0.32706879048E+02  0.00000000000E+00 0.  1.
</event>
<event>
 7    1  0.6246445E-012  0.5930227E+02  0.7816164E-02  0.1266604E+00
        -11   -1    0    0    0    0  0.00000000000E+00  0.00000000000E+00  0.45593999997E+02  0.45594000000E+02  0.51100000000E-03 0. -1.
         11   -1    0    0    0    0 -0.00000000000E+00 -0.00000000000E+00 -0.45593999997E+02  0.45594000000E+02  0.51100000000E-03 0.  1.
    9900012    2    1    2    0    0 -0.23777193435E+02 -0.35079213592E+01 -0.20953267758E+02  0.59302268557E+02  0.50000591859E+02 0.  0.
         12    1    1    2    0    0  0.23777193435E+02  0.35079213592E+01  0.20953267758E+02  0.31885731443E+02  0.00000000000E+00 0. -1.
         11    1    3    3    0    0 -0.28522022200E+01  0.12261385808E+02  0.28446249406E+01  0.12906143140E+02  0.51100000000E-03 0. -1.
        -11    1    3    3    0    0 -0.19918211587E+02 -0.10936088977E+02 -0.65489769440E+00  0.22732401681E+02  0.51100000000E-03 0.  1.
        -12    1    3    3    0    0 -0.10067796287E+01 -0.48332181900E+01 -0.23142995004E+02  0.23663723736E+02  0.00000000000E+00 0.  1.
</event>
<event>
 7    1  0.6246445E-012  0.5930196E+02  0.7816164E-02  0.1266605E+00
        -11   -1    0    0    0    0  0.00000000000E+00  0.00000000000E+00  0.45593999997E+02  0.45594000000E+02  0.51100000000E-03 0.  1.
         11   -1    0    0    0    0 -0.00000000000E+00 -0.00000000000E+00 -0.45593999997E+02  0.45594000000E+02  0.51100000000E-03 0. -1.
    9900012    2    1    2    0    0 -0.77443473206E+01 -0.26773705722E+02  0.15489141653E+02  0.59301956930E+02  0.50000023531E+02 0.  0.
         12    1    1    2    0    0  0.77443473206E+01  0.26773705722E+02 -0.15489141653E+02  0.31886043070E+02  0.00000000000E+00 0. -1.
         11    1    3    3    0    0 -0.98822863004E+01  0.10632925728E+01 -0.11469580891E+02  0.15177004306E+02  0.51100000000E-03 0. -1.
        -11    1    3    3    0    0 -0.22074497304E+01 -0.11043463598E+02 -0.90994428042E+00  0.11298624757E+02  0.51100000000E-03 0.  1.
         12    1    3    3    0    0  0.43453887102E+01 -0.16793534697E+02  0.27868666824E+02  0.32826327867E+02  0.00000000000E+00 0. -1.
</event>
<event>
 7    1  0.6246445E-012  0.5930194E+02  0.7816164E-02  0.1266605E+00
        -11   -1    0    0    0    0  0.00000000000E+00  0.00000000000E+00  0.45593999997E+02  0.45594000000E+02  0.51100000000E-03 0.  1.
         11   -1    0    0    0    0 -0.00000000000E+00 -0.00000000000E+00 -0.45593999997E+02  0.45594000000E+02  0.51100000000E-03 0. -1.
    9900012    2    1    2    0    0  0.21714009674E+02 -0.10085232822E+02  0.21059691221E+02  0.59301941424E+02  0.49999995251E+02 0.  0.
         12    1    1    2    0    0 -0.21714009674E+02  0.10085232822E+02 -0.21059691221E+02  0.31886058576E+02  0.00000000000E+00 0. -1.
         11    1    3    3    0    0 -0.25872180927E+01 -0.11573324074E+02  0.21754623439E+02  0.24776988695E+02  0.51100000000E-03 0. -1.
        -11    1    3    3    0    0  0.15396477322E+02 -0.53710889232E+01  0.99016490986E+01  0.19077284012E+02  0.51100000000E-03 0.  1.
         12    1    3    3    0    0  0.89047504444E+01  0.68591801754E+01 -0.10596581316E+02  0.15447668716E+02  0.00000000000E+00 0. -1.
</event>
<event>
 7    1  0.6246445E-012  0.5930195E+02  0.7816164E-02  0.1266605E+00
        -11   -1    0    0    0    0  0.00000000000E+00  0.00000000000E+00  0.45593999997E+02  0.45594000000E+02  0.51100000000E-03 0.  1.
         11   -1    0    0    0    0 -0.00000000000E+00 -0.00000000000E+00 -0.45593999997E+02  0.45594000000E+02  0.51100000000E-03 0. -1.
    9900012    2    1    2    0    0  0.13193266798E+02  0.31024857693E+01  0.28862299858E+02  0.59301951956E+02  0.50000014459E+02 0.  0.
         12    1    1    2    0    0 -0.13193266798E+02 -0.31024857693E+01 -0.28862299858E+02  0.31886048044E+02  0.00000000000E+00 0. -1.
         11    1    3    3    0    0  0.80420677346E+01  0.15190758304E+02 -0.41252908822E+01  0.17676312297E+02  0.51100000000E-03 0. -1.
        -11    1    3    3    0    0  0.79933848314E+01 -0.96763985317E+01  0.51940850951E+01  0.13583276845E+02  0.51100000000E-03 0.  1.
        -12    1    3    3    0    0 -0.28421857679E+01 -0.24118740031E+01  0.27793505645E+02  0.28042362814E+02  0.00000000000E+00 0.  1.
</event>
<event>
 7    1  0.6246445E-012  0.5930196E+02  0.7816164E-02  0.1266605E+00
        -11   -1    0    0    0    0  0.00000000000E+00  0.00000000000E+00  0.45593999997E+02  0.45594000000E+02  0.51100000000E-03 0.  1.
         11   -1    0    0    0    0 -0.00000000000E+00 -0.00000000000E+00 -0.45593999997E+02  0.45594000000E+02  0.51100000000E-03 0. -1.
    9900012    2    1    2    0    0  0.19538546300E+02  0.18619846936E+02  0.16978406892E+02  0.59301956155E+02  0.50000022118E+02 0.  0.
         12    1    1    2    0    0 -0.19538546300E+02 -0.18619846936E+02 -0.16978406892E+02  0.31886043845E+02  0.00000000000E+00 0. -1.
         11    1    3    3    0    0 -0.36009254575E+01 -0.68292227437E+01  0.18920365856E+02  0.20434901317E+02  0.51100000000E-03 0. -1.
        -11    1    3    3    0    0  0.24223832504E+01  0.20517156108E+01  0.58529761254E+01  0.66584388069E+01  0.51100000000E-03 0.  1.
         12    1    3    3    0    0  0.20717088507E+02  0.23397354069E+02 -0.77949350888E+01  0.32208616032E+02  0.00000000000E+00 0. -1.
</event>
<event>
 7    1  0.6246445E-012  0.5930193E+02  0.7816164E-02  0.1266605E+00
        -11   -1    0    0    0    0  0.00000000000E+00  0.00000000000E+00  0.45593999997E+02  0.45594000000E+02  0.51100000000E-03 0. -1.
         11   -1    0    0    0    0 -0.00000000000E+00 -0.00000000000E+00 -0.45593999997E+02  0.45594000000E+02  0.51100000000E-03 0.  1.
    9900012    2    1    2    0    0  0.95138616057E+01  0.21509510093E+02 -0.21530179677E+02  0.59301933701E+02  0.49999981166E+02 0.  0.
         12    1    1    2    0    0 -0.95138616057E+01 -0.21509510093E+02  0.21530179677E+02  0.31886066299E+02  0.00000000000E+00 0. -1.
         11    1    3    3    0    0  0.42019689121E+01  0.12136070615E+02 -0.34140257318E+02  0.36475991045E+02  0.51100000000E-03 0. -1.
        -11    1    3    3    0    0 -0.16436530404E+01  0.48643187223E+00 -0.30645572272E+01  0.35113704651E+01  0.51100000000E-03 0.  1.
         12    1    3    3    0    0  0.69555457339E+01  0.88870076065E+01  0.15674634868E+02  0.19314572191E+02  0.00000000000E+00 0. -1.
</event>
<event>
 7    1  0.6246445E-012  0.5930192E+02  0.7816164E-02  0.1266605E+00
        -11   -1    0    0    0    0  0.00000000000E+00  0.00000000000E+00  0.45593999997E+02  0.45594000000E+02  0.51100000000E-03 0. -1.
         11   -1    0    0    0    0 -0.00000000000E+00 -0.00000000000E+00 -0.45593999997E+02  0.45594000000E+02  0.51100000000E-03 0.  1.
    9900012    2    1    2    0    0 -0.19074005420E+02  0.24626776306E+02  0.68137009134E+01  0.59301916608E+02  0.49999949993E+02 0.  0.
         12    1    1    2    0    0  0.19074005420E+02 -0.24626776306E+02 -0.68137009134E+01  0.31886083392E+02  0.00000000000E+00 0. -1.
         11    1    3    3    0    0 -0.95665131114E+01  0.11013932206E+01  0.66507001015E+01  0.11703121474E+02  0.51100000000E-03 0. -1.
        -11    1    3    3    0    0  0.81683368253E+01 -0.53419776709E+01 -0.81823544942E+01  0.12736144521E+02  0.51100000000E-03 0.  1.
         12    1    3    3    0    0 -0.17675829134E+02  0.28867360756E+02  0.83453553061E+01  0.34862650613E+02  0.00000000000E+00 0. -1.
</event>
<event>
 7    1  0.6246445E-012  0.5930192E+02  0.7816164E-02  0.1266605E+00
        -11   -1    0    0    0    0  0.00000000000E+00  0.00000000000E+00  0.45593999997E+02  0.45594000000E+02  0.51100000000E-03 0.  1.
         11   -1    0    0    0    0 -0.00000000000E+00 -0.00000000000E+00 -0.45593999997E+02  0.45594000000E+02  0.51100000000E-03 0. -1.
    9900012    2    1    2    0    0  0.19021428925E+01 -0.14208434631E+02  0.28481997493E+02  0.59301922420E+02  0.49999960593E+02 0.  0.
         12    1    1    2    0    0 -0.19021428925E+01  0.14208434631E+02 -0.28481997493E+02  0.31886077580E+02  0.00000000000E+00 0. -1.
         11    1    3    3    0    0  0.17183847290E+01  0.82587969564E+01  0.52030756164E+00  0.84517035836E+01  0.51100000000E-03 0. -1.
        -11    1    3    3    0    0  0.17187758213E+02 -0.48294188332E+01  0.99184016738E+01  0.20423442675E+02  0.51100000000E-03 0.  1.
        -12    1    3    3    0    0 -0.17004000050E+02 -0.17637812754E+02  0.18043288257E+02  0.30426776162E+02  0.00000000000E+00 0.  1.
</event>
<event>
 7    1  0.6246445E-012  0.5930195E+02  0.7816164E-02  0.1266605E+00
        -11   -1    0    0    0    0  0.00000000000E+00  0.00000000000E+00  0.45593999997E+02  0.45594000000E+02  0.51100000000E-03 0. -1.
         11   -1    0    0    0    0 -0.00000000000E+00 -0.00000000000E+00 -0.45593999997E+02  0.45594000000E+02  0.51100000000E-03 0.  1.
    9900012    2    1    2    0    0 -0.19261896221E+02 -0.12585680365E+02  0.22074870351E+02  0.59301954505E+02  0.50000019108E+02 0.  0.
         12    1    1    2    0    0  0.19261896221E+02  0.12585680365E+02 -0.22074870351E+02  0.31886045495E+02  0.00000000000E+00 0. -1.
         11    1    3    3    0    0 -0.19912473277E+02 -0.98131168230E+01  0.68626216795E+01  0.23235736063E+02  0.51100000000E-03 0. -1.
        -11    1    3    3    0    0 -0.80803071228E+01 -0.15083670896E+02  0.49436188922E+01  0.17811453027E+02  0.51100000000E-03 0.  1.
         12    1    3    3    0    0  0.87308841789E+01  0.12311107354E+02  0.10268629779E+02  0.18254765415E+02  0.00000000000E+00 0. -1.
</event>
<event>
 7    1  0.6246445E-012  0.5930195E+02  0.7816164E-02  0.1266605E+00
        -11   -1    0    0    0    0  0.00000000000E+00  0.00000000000E+00  0.45593999997E+02  0.45594000000E+02  0.51100000000E-03 0. -1.
         11   -1    0    0    0    0 -0.00000000000E+00 -0.00000000000E+00 -0.45593999997E+02  0.45594000000E+02  0.51100000000E-03 0.  1.
    9900012    2    1    2    0    0  0.28405926596E+02  0.12179874393E+02 -0.78405392680E+01  0.59301951923E+02  0.50000014398E+02 0.  0.
         12    1    1    2    0    0 -0.28405926596E+02 -0.12179874393E+02  0.78405392680E+01  0.31886048077E+02  0.00000000000E+00 0. -1.
         11    1    3    3    0    0  0.11302636369E+01  0.45203067220E+01 -0.11245885903E+02  0.12172946183E+02  0.51100000000E-03 0. -1.
        -11    1    3    3    0    0 -0.18968562846E+01  0.15569722710E+02  0.59969269235E+01  0.16792184546E+02  0.51100000000E-03 0.  1.
         12    1    3    3    0    0  0.29172519243E+02 -0.79101550398E+01 -0.25915802880E+01  0.30336821194E+02  0.00000000000E+00 0. -1.
</event>
<event>
 7    1  0.6246445E-012  0.5930196E+02  0.7816164E-02  0.1266605E+00
        -11   -1    0    0    0    0  0.00000000000E+00  0.00000000000E+00  0.45593999997E+02  0.45594000000E+02  0.51100000000E-03 0. -1.
         11   -1    0    0    0    0 -0.00000000000E+00 -0.00000000000E+00 -0.45593999997E+02  0.45594000000E+02  0.51100000000E-03 0.  1.
    9900012    2    1    2    0    0  0.36153601898E+01 -0.52812374041E+01 -0.31237109712E+02  0.59301963543E+02  0.50000035591E+02 0.  0.
         12    1    1    2    0    0 -0.36153601898E+01  0.52812374041E+01  0.31237109712E+02  0.31886036457E+02  0.00000000000E+00 0. -1.
         11    1    3    3    0    0 -0.14811551971E+02  0.75733091893E+01 -0.31501834909E+02  0.35624467530E+02  0.51100000000E-03 0.  1.
        -11    1    3    3    0    0  0.75269769511E+01 -0.32444736343E+01 -0.30974312771E+01  0.87621956131E+01  0.51100000000E-03 0. -1.
        -12    1    3    3    0    0  0.10899935210E+02 -0.96100729591E+01  0.33621564750E+01  0.14915300400E+02  0.00000000000E+00 0.  1.
</event>
<event>
 7    1  0.6246445E-012  0.5930194E+02  0.7816164E-02  0.1266605E+00
        -11   -1    0    0    0    0  0.00000000000E+00  0.00000000000E+00  0.45593999997E+02  0.45594000000E+02  0.51100000000E-03 0.  1.
         11   -1    0    0    0    0 -0.00000000000E+00 -0.00000000000E+00 -0.45593999997E+02  0.45594000000E+02  0.51100000000E-03 0. -1.
    9900012    2    1    2    0    0  0.19527357380E+02 -0.22279756886E+02  0.11790481568E+02  0.59301941781E+02  0.49999995903E+02 0.  0.
         12    1    1    2    0    0 -0.19527357380E+02  0.22279756886E+02 -0.11790481568E+02  0.31886058219E+02  0.00000000000E+00 0. -1.
         11    1    3    3    0    0  0.17696167800E+02  0.90686690454E+01 -0.37866622260E+01  0.20241885390E+02  0.51100000000E-03 0.  1.
        -11    1    3    3    0    0 -0.60324419805E+01 -0.37311062467E+01  0.26947168206E+01  0.75876879928E+01  0.51100000000E-03 0. -1.
        -12    1    3    3    0    0  0.78636315601E+01 -0.27617319685E+02  0.12882426973E+02  0.31472368399E+02  0.00000000000E+00 0.  1.
</event>
<event>
 7    1  0.7019105E-012  0.5930194E+02  0.7816164E-02  0.1266605E+00
        -11   -1    0    0    0    0  0.00000000000E+00  0.00000000000E+00  0.45593999997E+02  0.45594000000E+02  0.51100000000E-03 0. -1.
         11   -1    0    0    0    0 -0.00000000000E+00 -0.00000000000E+00 -0.45593999997E+02  0.45594000000E+02  0.51100000000E-03 0.  1.
    9900012    2    1    2    0    0 -0.24756924747E+02  0.13773454469E+02 -0.14632402168E+02  0.59301944048E+02  0.50000000038E+02 0.  0.
         12    1    1    2    0    0  0.24756924747E+02 -0.13773454469E+02  0.14632402168E+02  0.31886055952E+02  0.00000000000E+00 0. -1.
         11    1    3    3    0    0 -0.53322168072E+01  0.20202981710E+02 -0.70557736725E+01  0.22053955392E+02  0.51100000000E-03 0. -1.
        -11    1    3    3    0    0 -0.12588922473E+02 -0.11801854829E+00 -0.18827288769E+02  0.22648657798E+02  0.51100000000E-03 0.  1.
         12    1    3    3    0    0 -0.68357854670E+01 -0.63115086927E+01  0.11250660273E+02  0.14599330858E+02  0.00000000000E+00 0. -1.
</event>
<event>
 7    1  0.6246445E-012  0.5930191E+02  0.7816164E-02  0.1266605E+00
        -11   -1    0    0    0    0  0.00000000000E+00  0.00000000000E+00  0.45593999997E+02  0.45594000000E+02  0.51100000000E-03 0.  1.
         11   -1    0    0    0    0 -0.00000000000E+00 -0.00000000000E+00 -0.45593999997E+02  0.45594000000E+02  0.51100000000E-03 0. -1.
    9900012    2    1    2    0    0 -0.18862902477E+01  0.22880854917E+01  0.31747902267E+02  0.59301910173E+02  0.49999938257E+02 0.  0.
         12    1    1    2    0    0  0.18862902477E+01 -0.22880854917E+01 -0.31747902267E+02  0.31886089827E+02  0.00000000000E+00 0. -1.
         11    1    3    3    0    0  0.12818187661E+02  0.49693706169E+01  0.87868831019E+01  0.16315939879E+02  0.51100000000E-03 0. -1.
        -11    1    3    3    0    0  0.69329250206E+01 -0.24490554169E+01  0.19795582244E+02  0.21117016797E+02  0.51100000000E-03 0.  1.
        -12    1    3    3    0    0 -0.21637402929E+02 -0.23222970828E+00  0.31654369210E+01  0.21868953497E+02  0.00000000000E+00 0.  1.
</event>
<event>
 7    1  0.6246445E-012  0.5930194E+02  0.7816164E-02  0.1266605E+00
        -11   -1    0    0    0    0  0.00000000000E+00  0.00000000000E+00  0.45593999997E+02  0.45594000000E+02  0.51100000000E-03 0. -1.
         11   -1    0    0    0    0 -0.00000000000E+00 -0.00000000000E+00 -0.45593999997E+02  0.45594000000E+02  0.51100000000E-03 0.  1.
    9900012    2    1    2    0    0 -0.19784340263E+02  0.23919688634E+02 -0.72903350070E+01  0.59301943353E+02  0.49999998769E+02 0.  0.
         12    1    1    2    0    0  0.19784340263E+02 -0.23919688634E+02  0.72903350070E+01  0.31886056647E+02  0.00000000000E+00 0. -1.
         11    1    3    3    0    0 -0.21135654074E+01  0.61109297689E+01 -0.17910112777E+01  0.67095710019E+01  0.51100000000E-03 0. -1.
        -11    1    3    3    0    0 -0.23287140120E+02  0.15603323039E+02 -0.21606562363E+02  0.35392062983E+02  0.51100000000E-03 0.  1.
         12    1    3    3    0    0  0.56163652639E+01  0.22054358259E+01  0.16107238633E+02  0.17200309368E+02  0.00000000000E+00 0. -1.
</event>
<event>
 7    1  0.6246445E-012  0.5930193E+02  0.7816164E-02  0.1266605E+00
        -11   -1    0    0    0    0  0.00000000000E+00  0.00000000000E+00  0.45593999997E+02  0.45594000000E+02  0.51100000000E-03 0.  1.
         11   -1    0    0    0    0 -0.00000000000E+00 -0.00000000000E+00 -0.45593999997E+02  0.45594000000E+02  0.51100000000E-03 0. -1.
    9900012    2    1    2    0    0  0.31525956796E+02  0.44503815704E+01  0.17405959477E+01  0.59301929025E+02  0.49999972638E+02 0.  0.
         12    1    1    2    0    0 -0.31525956796E+02 -0.44503815704E+01 -0.17405959477E+01  0.31886070975E+02  0.00000000000E+00 0. -1.
         11    1    3    3    0    0 -0.92831009190E+00 -0.60260563785E+01  0.21591065265E+01  0.64681416463E+01  0.51100000000E-03 0. -1.
        -11    1    3    3    0    0 -0.16206418511E+01 -0.65851209453E+01  0.11113676102E+02  0.13019373819E+02  0.51100000000E-03 0.  1.
         12    1    3    3    0    0  0.34074908739E+02  0.17061558894E+02 -0.11532186681E+02  0.39814413559E+02  0.00000000000E+00 0. -1.
</event>
<event>
 7    1  0.6246445E-012  0.5930194E+02  0.7816164E-02  0.1266605E+00
        -11   -1    0    0    0    0  0.00000000000E+00  0.00000000000E+00  0.45593999997E+02  0.45594000000E+02  0.51100000000E-03 0.  1.
         11   -1    0    0    0    0 -0.00000000000E+00 -0.00000000000E+00 -0.45593999997E+02  0.45594000000E+02  0.51100000000E-03 0. -1.
    9900012    2    1    2    0    0  0.23338530000E+02  0.20406879172E+02  0.74560815718E+01  0.59301939526E+02  0.49999991791E+02 0.  0.
         12    1    1    2    0    0 -0.23338530000E+02 -0.20406879172E+02 -0.74560815718E+01  0.31886060474E+02  0.00000000000E+00 0. -1.
         11    1    3    3    0    0  0.98210084195E+01  0.31028121221E+01 -0.20284167520E+02  0.22749222002E+02  0.51100000000E-03 0. -1.
        -11    1    3    3    0    0  0.16682329698E+01 -0.57233915283E-02 -0.12653708578E+00  0.16730349350E+01  0.51100000000E-03 0.  1.
        -12    1    3    3    0    0  0.11849288611E+02  0.17309790441E+02  0.27866786177E+02  0.34879682590E+02  0.00000000000E+00 0.  1.
</event>
<event>
 7    1  0.6246445E-012  0.5930196E+02  0.7816164E-02  0.1266605E+00
        -11   -1    0    0    0    0  0.00000000000E+00  0.00000000000E+00  0.45593999997E+02  0.45594000000E+02  0.51100000000E-03 0. -1.
         11   -1    0    0    0    0 -0.00000000000E+00 -0.00000000000E+00 -0.45593999997E+02  0.45594000000E+02  0.51100000000E-03 0.  1.
    9900012    2    1    2    0    0 -0.25432951663E+02  0.15788701750E+02  0.10981858559E+02  0.59301963077E+02  0.50000034741E+02 0.  0.
         12    1    1    2    0    0  0.25432951663E+02 -0.15788701750E+02 -0.10981858559E+02  0.31886036923E+02  0.00000000000E+00 0. -1.
         11    1    3    3    0    0 -0.17468868281E+01  0.20216371670E+02 -0.49340435207E+01  0.20882961543E+02  0.51100000000E-03 0. -1.
        -11    1    3    3    0    0  0.41262963441E+01  0.39537118103E+01  0.42244355580E+01  0.71066176655E+01  0.51100000000E-03 0.  1.
         12    1    3    3    0    0 -0.27812361179E+02 -0.83813817298E+01  0.11691466521E+02  0.31312383868E+02  0.00000000000E+00 0. -1.
</event>
<event>
 7    1  0.6246445E-012  0.5930200E+02  0.7816164E-02  0.1266605E+00
        -11   -1    0    0    0    0  0.00000000000E+00  0.00000000000E+00  0.45593999997E+02  0.45594000000E+02  0.51100000000E-03 0. -1.
         11   -1    0    0    0    0 -0.00000000000E+00 -0.00000000000E+00 -0.45593999997E+02  0.45594000000E+02  0.51100000000E-03 0.  1.
    9900012    2    1    2    0    0 -0.22630933136E+02 -0.21912395948E+02 -0.49401228450E+01  0.59301999239E+02  0.50000100693E+02 0.  0.
         12    1    1    2    0    0  0.22630933136E+02  0.21912395948E+02  0.49401228450E+01  0.31886000761E+02  0.00000000000E+00 0. -1.
         11    1    3    3    0    0  0.36862669479E+00 -0.11078660018E+02  0.11094242713E+01  0.11140171270E+02  0.51100000000E-03 0. -1.
        -11    1    3    3    0    0  0.24418654848E+01 -0.31062048645E+01  0.14200292843E+02  0.14739726348E+02  0.51100000000E-03 0.  1.
        -12    1    3    3    0    0 -0.25441425315E+02 -0.77275310657E+01 -0.20249839960E+02  0.33422101622E+02  0.00000000000E+00 0.  1.
</event>
<event>
 7    1  0.6246445E-012  0.5930199E+02  0.7816164E-02  0.1266605E+00
        -11   -1    0    0    0    0  0.00000000000E+00  0.00000000000E+00  0.45593999997E+02  0.45594000000E+02  0.51100000000E-03 0. -1.
         11   -1    0    0    0    0 -0.00000000000E+00 -0.00000000000E+00 -0.45593999997E+02  0.45594000000E+02  0.51100000000E-03 0.  1.
    9900012    2    1    2    0    0 -0.27500590347E+01 -0.21874434376E+02 -0.23036144273E+02  0.59301989793E+02  0.50000083464E+02 0.  0.
         12    1    1    2    0    0  0.27500590347E+01  0.21874434376E+02  0.23036144273E+02  0.31886010207E+02  0.00000000000E+00 0. -1.
         11    1    3    3    0    0  0.21388717968E+01 -0.50114186764E+01  0.13294527040E+02  0.14367795210E+02  0.51100000000E-03 0. -1.
        -11    1    3    3    0    0  0.40558561899E+01 -0.23928107084E+01  0.11851480663E+00  0.47105794272E+01  0.51100000000E-03 0.  1.
        -12    1    3    3    0    0 -0.89447870213E+01 -0.14470204991E+02 -0.36449186120E+02  0.40223615155E+02  0.00000000000E+00 0.  1.
</event>
<event>
 7    1  0.6246445E-012  0.5930196E+02  0.7816164E-02  0.1266605E+00
        -11   -1    0    0    0    0  0.00000000000E+00  0.00000000000E+00  0.45593999997E+02  0.45594000000E+02  0.51100000000E-03 0. -1.
         11   -1    0    0    0    0 -0.00000000000E+00 -0.00000000000E+00 -0.45593999997E+02  0.45594000000E+02  0.51100000000E-03 0.  1.
    9900012    2    1    2    0    0  0.30920373297E+02  0.75716225196E+01  0.18223133292E+01  0.59301956372E+02  0.50000022513E+02 0.  0.
         12    1    1    2    0    0 -0.30920373297E+02 -0.75716225196E+01 -0.18223133292E+01  0.31886043628E+02  0.00000000000E+00 0. -1.
         11    1    3    3    0    0 -0.11520761666E+01 -0.14098764838E+02  0.64559889309E+01  0.15549348629E+02  0.51100000000E-03 0. -1.
        -11    1    3    3    0    0  0.12771174027E+02  0.99483357456E+01  0.78045118844E+01  0.17971718787E+02  0.51100000000E-03 0.  1.
        -12    1    3    3    0    0  0.19301275436E+02  0.11722051612E+02 -0.12438187486E+02  0.25780888957E+02  0.00000000000E+00 0.  1.
</event>
<event>
 7    1  0.6246445E-012  0.5930194E+02  0.7816164E-02  0.1266605E+00
        -11   -1    0    0    0    0  0.00000000000E+00  0.00000000000E+00  0.45593999997E+02  0.45594000000E+02  0.51100000000E-03 0.  1.
         11   -1    0    0    0    0 -0.00000000000E+00 -0.00000000000E+00 -0.45593999997E+02  0.45594000000E+02  0.51100000000E-03 0. -1.
    9900012    2    1    2    0    0  0.92218253197E+01 -0.13357971246E+00  0.30523118417E+02  0.59301942488E+02  0.49999997191E+02 0.  0.
         12    1    1    2    0    0 -0.92218253197E+01  0.13357971246E+00 -0.30523118417E+02  0.31886057512E+02  0.00000000000E+00 0. -1.
         11    1    3    3    0    0  0.11807840425E+02  0.11352318590E+02  0.60854906841E+01  0.17473792662E+02  0.51100000000E-03 0.  1.
        -11    1    3    3    0    0  0.10908943785E+02 -0.11041092161E+02  0.20116308505E+01  0.15651115920E+02  0.51100000000E-03 0. -1.
        -12    1    3    3    0    0 -0.13494958890E+02 -0.44480614122E+00  0.22425996883E+02  0.26177033906E+02  0.00000000000E+00 0.  1.
</event>
<event>
 7    1  0.6246445E-012  0.5930200E+02  0.7816164E-02  0.1266605E+00
        -11   -1    0    0    0    0  0.00000000000E+00  0.00000000000E+00  0.45593999997E+02  0.45594000000E+02  0.51100000000E-03 0.  1.
         11   -1    0    0    0    0 -0.00000000000E+00 -0.00000000000E+00 -0.45593999997E+02  0.45594000000E+02  0.51100000000E-03 0. -1.
    9900012    2    1    2    0    0 -0.97660931259E+00 -0.35683002162E+00  0.31869040005E+02  0.59302003007E+02  0.50000107564E+02 0.  0.
         12    1    1    2    0    0  0.97660931259E+00  0.35683002162E+00 -0.31869040005E+02  0.31885996993E+02  0.00000000000E+00 0. -1.
         11    1    3    3    0    0  0.16715188091E+02  0.96362788091E+01  0.13909972059E+02  0.23785346437E+02  0.51100000000E-03 0. -1.
        -11    1    3    3    0    0 -0.43982279613E+01  0.24758827319E+01 -0.43820241185E+01  0.66840511771E+01  0.51100000000E-03 0.  1.
        -12    1    3    3    0    0 -0.13293569442E+02 -0.12468991563E+02  0.22341092064E+02  0.28832605393E+02  0.00000000000E+00 0.  1.
</event>
<event>
 7    1  0.6246445E-012  0.5930196E+02  0.7816164E-02  0.1266605E+00
        -11   -1    0    0    0    0  0.00000000000E+00  0.00000000000E+00  0.45593999997E+02  0.45594000000E+02  0.51100000000E-03 0.  1.
         11   -1    0    0    0    0 -0.00000000000E+00 -0.00000000000E+00 -0.45593999997E+02  0.45594000000E+02  0.51100000000E-03 0. -1.
    9900012    2    1    2    0    0  0.96717624110E+01  0.17102487153E+02  0.25113375825E+02  0.59301957595E+02  0.50000024743E+02 0.  0.
         12    1    1    2    0    0 -0.96717624110E+01 -0.17102487153E+02 -0.25113375825E+02  0.31886042405E+02  0.00000000000E+00 0. -1.
         11    1    3    3    0    0 -0.33729336363E+01  0.38857632345E+01  0.15487545107E+02  0.16319923128E+02  0.51100000000E-03 0. -1.
        -11    1    3    3    0    0 -0.42445652902E+01 -0.49778231220E+01  0.15829265304E+02  0.17127775625E+02  0.51100000000E-03 0.  1.
         12    1    3    3    0    0  0.17289261338E+02  0.18194547040E+02 -0.62034345852E+01  0.25854258842E+02  0.00000000000E+00 0. -1.
</event>
<event>
 7    1  0.6246445E-012  0.5930193E+02  0.7816164E-02  0.1266605E+00
        -11   -1    0    0    0    0  0.00000000000E+00  0.00000000000E+00  0.45593999997E+02  0.45594000000E+02  0.51100000000E-03 0.  1.
         11   -1    0    0    0    0 -0.00000000000E+00 -0.00000000000E+00 -0.45593999997E+02  0.45594000000E+02  0.51100000000E-03 0. -1.
    9900012    2    1    2    0    0 -0.80798708285E+01 -0.30515499062E+02 -0.44990618714E+01  0.59301928537E+02  0.49999971749E+02 0.  0.
         12    1    1    2    0    0  0.80798708285E+01  0.30515499062E+02  0.44990618714E+01  0.31886071463E+02  0.00000000000E+00 0. -1.
         11    1    3    3    0    0  0.69747617124E+01 -0.77330726847E+01 -0.10985023295E+02  0.15136659181E+02  0.51100000000E-03 0. -1.
        -11    1    3    3    0    0 -0.34411022284E+01 -0.17126981746E+02 -0.12301257070E+02  0.21365757979E+02  0.51100000000E-03 0.  1.
        -12    1    3    3    0    0 -0.11613530312E+02 -0.56554446314E+01  0.18787218494E+02  0.22799511377E+02  0.00000000000E+00 0.  1.
</event>
<event>
 7    1  0.6246445E-012  0.5930192E+02  0.7816164E-02  0.1266605E+00
        -11   -1    0    0    0    0  0.00000000000E+00  0.00000000000E+00  0.45593999997E+02  0.45594000000E+02  0.51100000000E-03 0. -1.
         11   -1    0    0    0    0 -0.00000000000E+00 -0.00000000000E+00 -0.45593999997E+02  0.45594000000E+02  0.51100000000E-03 0.  1.
    9900012    2    1    2    0    0 -0.20453547608E+01  0.26224965134E+02 -0.18021918762E+02  0.59301924226E+02  0.49999963887E+02 0.  0.
         12    1    1    2    0    0  0.20453547608E+01 -0.26224965134E+02  0.18021918762E+02  0.31886075774E+02  0.00000000000E+00 0. -1.
         11    1    3    3    0    0  0.97309462675E+01 -0.33621047876E+01  0.17032646728E+01  0.10435332993E+02  0.51100000000E-03 0. -1.
        -11    1    3    3    0    0  0.23560825044E+01  0.41540821763E+00  0.66562664909E+01  0.70731586024E+01  0.51100000000E-03 0.  1.
        -12    1    3    3    0    0 -0.14132383533E+02  0.29171661704E+02 -0.26381449926E+02  0.41793432631E+02  0.00000000000E+00 0.  1.
</event>
<event>
 7    1  0.6246445E-012  0.5930196E+02  0.7816164E-02  0.1266605E+00
        -11   -1    0    0    0    0  0.00000000000E+00  0.00000000000E+00  0.45593999997E+02  0.45594000000E+02  0.51100000000E-03 0.  1.
         11   -1    0    0    0    0 -0.00000000000E+00 -0.00000000000E+00 -0.45593999997E+02  0.45594000000E+02  0.51100000000E-03 0. -1.
    9900012    2    1    2    0    0  0.15635679972E+02 -0.12124219578E+02  0.25004971755E+02  0.59301956015E+02  0.50000021861E+02 0.  0.
         12    1    1    2    0    0 -0.15635679972E+02  0.12124219578E+02 -0.25004971755E+02  0.31886043985E+02  0.00000000000E+00 0. -1.
         11    1    3    3    0    0  0.17716485485E+02 -0.15018506698E+02  0.81857606017E+01  0.24625922892E+02  0.51100000000E-03 0. -1.
        -11    1    3    3    0    0  0.11268300891E+02  0.41635122164E+01  0.17526323282E+02  0.21248092785E+02  0.51100000000E-03 0.  1.
        -12    1    3    3    0    0 -0.13349106405E+02 -0.12692250972E+01 -0.70711212812E+00  0.13427940338E+02  0.00000000000E+00 0.  1.
</event>
<event>
 7    1  0.6246445E-012  0.5930195E+02  0.7816164E-02  0.1266605E+00
        -11   -1    0    0    0    0  0.00000000000E+00  0.00000000000E+00  0.45593999997E+02  0.45594000000E+02  0.51100000000E-03 0.  1.
         11   -1    0    0    0    0 -0.00000000000E+00 -0.00000000000E+00 -0.45593999997E+02  0.45594000000E+02  0.51100000000E-03 0. -1.
    9900012    2    1    2    0    0  0.22374934796E+01  0.29447728370E+02  0.12022682551E+02  0.59301953225E+02  0.50000016774E+02 0.  0.
         12    1    1    2    0    0 -0.22374934796E+01 -0.29447728370E+02 -0.12022682551E+02  0.31886046775E+02  0.00000000000E+00 0. -1.
         11    1    3    3    0    0  0.93236054291E+01  0.11152111019E+02 -0.15316960932E+02  0.21116545428E+02  0.51100000000E-03 0. -1.
        -11    1    3    3    0    0 -0.87711302942E+01  0.86423106907E+00  0.64247201513E+01  0.10906725048E+02  0.51100000000E-03 0.  1.
        -12    1    3    3    0    0  0.16850183447E+01  0.17431386282E+02  0.20914923332E+02  0.27278682749E+02  0.00000000000E+00 0.  1.
</event>
<event>
 7    1  0.6246445E-012  0.5930193E+02  0.7816164E-02  0.1266605E+00
        -11   -1    0    0    0    0  0.00000000000E+00  0.00000000000E+00  0.45593999997E+02  0.45594000000E+02  0.51100000000E-03 0.  1.
         11   -1    0    0    0    0 -0.00000000000E+00 -0.00000000000E+00 -0.45593999997E+02  0.45594000000E+02  0.51100000000E-03 0. -1.
    9900012    2    1    2    0    0  0.11948989528E+02 -0.27553028266E+02 -0.10713242119E+02  0.59301932916E+02  0.49999979736E+02 0.  0.
         12    1    1    2    0    0 -0.11948989528E+02  0.27553028266E+02  0.10713242119E+02  0.31886067084E+02  0.00000000000E+00 0. -1.
         11    1    3    3    0    0  0.20656620247E+02 -0.24463592962E+02 -0.24509198589E+01  0.32111841259E+02  0.51100000000E-03 0. -1.
        -11    1    3    3    0    0  0.70907712735E+01 -0.50157867726E+01  0.10528382490E+01  0.87490355377E+01  0.51100000000E-03 0.  1.
        -12    1    3    3    0    0 -0.15798401992E+02  0.19263514689E+01 -0.93151605092E+01  0.18441056119E+02  0.00000000000E+00 0.  1.
</event>
<event>
 7    1  0.6481055E-012  0.5930193E+02  0.7816164E-02  0.1266605E+00
        -11   -1    0    0    0    0  0.00000000000E+00  0.00000000000E+00  0.45593999997E+02  0.45594000000E+02  0.51100000000E-03 0.  1.
         11   -1    0    0    0    0 -0.00000000000E+00 -0.00000000000E+00 -0.45593999997E+02  0.45594000000E+02  0.51100000000E-03 0. -1.
    9900012    2    1    2    0    0  0.26795758414E+02 -0.92368238006E+01  0.14607873133E+02  0.59301928740E+02  0.49999972119E+02 0.  0.
         12    1    1    2    0    0 -0.26795758414E+02  0.92368238006E+01 -0.14607873133E+02  0.31886071260E+02  0.00000000000E+00 0. -1.
         11    1    3    3    0    0  0.80484561604E+00  0.97402368770E+01  0.43810415904E+01  0.10710439606E+02  0.51100000000E-03 0. -1.
        -11    1    3    3    0    0  0.29035846897E+02 -0.15744708035E+01  0.10517543735E+02  0.30922129452E+02  0.51100000000E-03 0.  1.
         12    1    3    3    0    0 -0.30449340991E+01 -0.17402589874E+02 -0.29071219275E+00  0.17669359682E+02  0.00000000000E+00 0. -1.
</event>
<event>
 7    1  0.6246445E-012  0.5930192E+02  0.7816164E-02  0.1266605E+00
        -11   -1    0    0    0    0  0.00000000000E+00  0.00000000000E+00  0.45593999997E+02  0.45594000000E+02  0.51100000000E-03 0.  1.
         11   -1    0    0    0    0 -0.00000000000E+00 -0.00000000000E+00 -0.45593999997E+02  0.45594000000E+02  0.51100000000E-03 0. -1.
    9900012    2    1    2    0    0 -0.28980081880E+02 -0.92318112275E+00  0.13267422668E+02  0.59301922891E+02  0.49999961452E+02 0.  0.
         12    1    1    2    0    0  0.28980081880E+02  0.92318112275E+00 -0.13267422668E+02  0.31886077109E+02  0.00000000000E+00 0. -1.
         11    1    3    3    0    0 -0.46151499462E+01  0.33032956114E+01  0.22480431680E+02  0.23185796940E+02  0.51100000000E-03 0. -1.
        -11    1    3    3    0    0 -0.23006130464E+02 -0.35223071053E+01  0.33025432493E+01  0.23507349456E+02  0.51100000000E-03 0.  1.
         12    1    3    3    0    0 -0.13588014689E+01 -0.70416962886E+00 -0.12515552261E+02  0.12608776495E+02  0.00000000000E+00 0. -1.
</event>
<event>
 7    1  0.6246445E-012  0.5930194E+02  0.7816164E-02  0.1266605E+00
        -11   -1    0    0    0    0  0.00000000000E+00  0.00000000000E+00  0.45593999997E+02  0.45594000000E+02  0.51100000000E-03 0.  1.
         11   -1    0    0    0    0 -0.00000000000E+00 -0.00000000000E+00 -0.45593999997E+02  0.45594000000E+02  0.51100000000E-03 0. -1.
    9900012    2    1    2    0    0 -0.22951494809E+02  0.70315429803E+01  0.20988260909E+02  0.59301940246E+02  0.49999993103E+02 0.  0.
         12    1    1    2    0    0  0.22951494809E+02 -0.70315429803E+01 -0.20988260909E+02  0.31886059754E+02  0.00000000000E+00 0. -1.
         11    1    3    3    0    0 -0.11405121947E+01 -0.78056433779E+00  0.44831543958E+01  0.46913454732E+01  0.51100000000E-03 0.  1.
        -11    1    3    3    0    0 -0.17270300473E+02  0.20609135974E+02 -0.67124318906E+01  0.27713832398E+02  0.51100000000E-03 0. -1.
         12    1    3    3    0    0 -0.45406821409E+01 -0.12797028656E+02  0.23217538404E+02  0.26896762375E+02  0.00000000000E+00 0. -1.
</event>
<event>
 7    1  0.6246445E-012  0.5930197E+02  0.7816164E-02  0.1266605E+00
        -11   -1    0    0    0    0  0.00000000000E+00  0.00000000000E+00  0.45593999997E+02  0.45594000000E+02  0.51100000000E-03 0. -1.
         11   -1    0    0    0    0 -0.00000000000E+00 -0.00000000000E+00 -0.45593999997E+02  0.45594000000E+02  0.51100000000E-03 0.  1.
    9900012    2    1    2    0    0  0.86700440246E+01 -0.22947708658E+02 -0.20370361445E+02  0.59301974512E+02  0.50000055595E+02 0.  0.
         12    1    1    2    0    0 -0.86700440246E+01  0.22947708658E+02  0.20370361445E+02  0.31886025488E+02  0.00000000000E+00 0. -1.
         11    1    3    3    0    0 -0.18137643498E+01  0.82402236551E+01 -0.22940097343E+01  0.87437696633E+01  0.51100000000E-03 0. -1.
        -11    1    3    3    0    0  0.37314118427E+01 -0.14758871516E+02  0.93624583516E+01  0.17871859148E+02  0.51100000000E-03 0.  1.
        -12    1    3    3    0    0  0.67523965317E+01 -0.16429060798E+02 -0.27438810062E+02  0.32686345700E+02  0.00000000000E+00 0.  1.
</event>
<event>
 7    1  0.6246445E-012  0.5930196E+02  0.7816164E-02  0.1266605E+00
        -11   -1    0    0    0    0  0.00000000000E+00  0.00000000000E+00  0.45593999997E+02  0.45594000000E+02  0.51100000000E-03 0.  1.
         11   -1    0    0    0    0 -0.00000000000E+00 -0.00000000000E+00 -0.45593999997E+02  0.45594000000E+02  0.51100000000E-03 0. -1.
    9900012    2    1    2    0    0 -0.77074036239E+01  0.28110980083E+02 -0.12926259346E+02  0.59301961479E+02  0.50000031828E+02 0.  0.
         12    1    1    2    0    0  0.77074036239E+01 -0.28110980083E+02  0.12926259346E+02  0.31886038521E+02  0.00000000000E+00 0. -1.
         11    1    3    3    0    0  0.14763835722E+02  0.86239916184E+01 -0.74213170278E+01  0.18639206618E+02  0.51100000000E-03 0. -1.
        -11    1    3    3    0    0  0.29359963927E+01  0.55126871500E+01  0.67378915719E+01  0.91874358516E+01  0.51100000000E-03 0.  1.
         12    1    3    3    0    0 -0.25407235739E+02  0.13974301315E+02 -0.12242833890E+02  0.31475319010E+02  0.00000000000E+00 0. -1.
</event>
<event>
 7    1  0.6246445E-012  0.5930196E+02  0.7816164E-02  0.1266605E+00
        -11   -1    0    0    0    0  0.00000000000E+00  0.00000000000E+00  0.45593999997E+02  0.45594000000E+02  0.51100000000E-03 0.  1.
         11   -1    0    0    0    0 -0.00000000000E+00 -0.00000000000E+00 -0.45593999997E+02  0.45594000000E+02  0.51100000000E-03 0. -1.
    9900012    2    1    2    0    0 -0.19691331492E+02 -0.26977398581E+01  0.24933770553E+02  0.59301964651E+02  0.50000037612E+02 0.  0.
         12    1    1    2    0    0  0.19691331492E+02  0.26977398581E+01 -0.24933770553E+02  0.31886035349E+02  0.00000000000E+00 0. -1.
         11    1    3    3    0    0  0.56938540340E+01 -0.10835217731E+02  0.14511096162E+01  0.12325892926E+02  0.51100000000E-03 0. -1.
        -11    1    3    3    0    0 -0.15112769551E+02 -0.81171129288E+01  0.21704870936E+02  0.27665587801E+02  0.51100000000E-03 0.  1.
        -12    1    3    3    0    0 -0.10272415975E+02  0.16254590801E+02  0.17777900015E+01  0.19310483924E+02  0.00000000000E+00 0.  1.
</event>
<event>
 7    1  0.6246445E-012  0.5930202E+02  0.7816164E-02  0.1266604E+00
        -11   -1    0    0    0    0  0.00000000000E+00  0.00000000000E+00  0.45593999997E+02  0.45594000000E+02  0.51100000000E-03 0. -1.
         11   -1    0    0    0    0 -0.00000000000E+00 -0.00000000000E+00 -0.45593999997E+02  0.45594000000E+02  0.51100000000E-03 0.  1.
    9900012    2    1    2    0    0  0.76116387596E+00 -0.23486914349E+02 -0.21552288663E+02  0.59302020907E+02  0.50000140209E+02 0.  0.
         12    1    1    2    0    0 -0.76116387596E+00  0.23486914349E+02  0.21552288663E+02  0.31885979093E+02  0.00000000000E+00 0. -1.
         11    1    3    3    0    0 -0.72743705552E+01 -0.25841067589E+02  0.56164646961E+01  0.27426664345E+02  0.51100000000E-03 0. -1.
        -11    1    3    3    0    0 -0.28630034011E+01 -0.19072788570E+01 -0.16794148794E+01  0.38281765517E+01  0.51100000000E-03 0.  1.
        -12    1    3    3    0    0  0.10898537832E+02  0.42614320968E+01 -0.25489338480E+02  0.28047180011E+02  0.00000000000E+00 0.  1.
</event>
<event>
 7    1  0.6246445E-012  0.5930192E+02  0.7816164E-02  0.1266605E+00
        -11   -1    0    0    0    0  0.00000000000E+00  0.00000000000E+00  0.45593999997E+02  0.45594000000E+02  0.51100000000E-03 0.  1.
         11   -1    0    0    0    0 -0.00000000000E+00 -0.00000000000E+00 -0.45593999997E+02  0.45594000000E+02  0.51100000000E-03 0. -1.
    9900012    2    1    2    0    0  0.50118241142E+01 -0.29050579067E+02  0.12151844244E+02  0.59301923985E+02  0.49999963447E+02 0.  0.
         12    1    1    2    0    0 -0.50118241142E+01  0.29050579067E+02 -0.12151844244E+02  0.31886076015E+02  0.00000000000E+00 0. -1.
         11    1    3    3    0    0 -0.71759847613E+01  0.44485840343E+01 -0.69467771608E+01  0.10933543359E+02  0.51100000000E-03 0. -1.
        -11    1    3    3    0    0  0.36527918821E+01 -0.98248252437E+01  0.20646590743E+02  0.23154951720E+02  0.51100000000E-03 0.  1.
         12    1    3    3    0    0  0.85350169934E+01 -0.23674337858E+02 -0.15479693376E+01  0.25213428905E+02  0.00000000000E+00 0. -1.
</event>
<event>
 7    1  0.6246445E-012  0.5930193E+02  0.7816164E-02  0.1266605E+00
        -11   -1    0    0    0    0  0.00000000000E+00  0.00000000000E+00  0.45593999997E+02  0.45594000000E+02  0.51100000000E-03 0.  1.
         11   -1    0    0    0    0 -0.00000000000E+00 -0.00000000000E+00 -0.45593999997E+02  0.45594000000E+02  0.51100000000E-03 0. -1.
    9900012    2    1    2    0    0 -0.31333616908E+02 -0.53885133280E+01  0.24268774118E+01  0.59301931594E+02  0.49999977324E+02 0.  0.
         12    1    1    2    0    0  0.31333616908E+02  0.53885133280E+01 -0.24268774118E+01  0.31886068406E+02  0.00000000000E+00 0. -1.
         11    1    3    3    0    0 -0.11425283822E+02 -0.56856267331E+01 -0.81000164291E+01  0.15115347438E+02  0.51100000000E-03 0. -1.
        -11    1    3    3    0    0 -0.18187384886E+02 -0.62734826334E+01 -0.10620116039E+02  0.21975541365E+02  0.51100000000E-03 0.  1.
        -12    1    3    3    0    0 -0.17209481996E+01  0.65705960385E+01  0.21147009880E+02  0.22211042791E+02  0.00000000000E+00 0.  1.
</event>
<event>
 7    1  0.6246445E-012  0.5930195E+02  0.7816164E-02  0.1266605E+00
        -11   -1    0    0    0    0  0.00000000000E+00  0.00000000000E+00  0.45593999997E+02  0.45594000000E+02  0.51100000000E-03 0.  1.
         11   -1    0    0    0    0 -0.00000000000E+00 -0.00000000000E+00 -0.45593999997E+02  0.45594000000E+02  0.51100000000E-03 0. -1.
    9900012    2    1    2    0    0 -0.10838423861E+02  0.18024031414E+02 -0.23966294011E+02  0.59301946798E+02  0.50000005052E+02 0.  0.
         12    1    1    2    0    0  0.10838423861E+02 -0.18024031414E+02  0.23966294011E+02  0.31886053202E+02  0.00000000000E+00 0. -1.
         11    1    3    3    0    0  0.11389974471E+02  0.15139276919E+02 -0.63296144883E+01  0.19974815241E+02  0.51100000000E-03 0. -1.
        -11    1    3    3    0    0  0.20727135604E+01  0.11721447706E+01  0.53355587356E+01  0.58427948919E+01  0.51100000000E-03 0.  1.
         12    1    3    3    0    0 -0.24301111892E+02  0.17126097243E+01 -0.22972238258E+02  0.33484336665E+02  0.00000000000E+00 0. -1.
</event>
<event>
 7    1  0.6246445E-012  0.5930202E+02  0.7816164E-02  0.1266604E+00
        -11   -1    0    0    0    0  0.00000000000E+00  0.00000000000E+00  0.45593999997E+02  0.45594000000E+02  0.51100000000E-03 0.  1.
         11   -1    0    0    0    0 -0.00000000000E+00 -0.00000000000E+00 -0.45593999997E+02  0.45594000000E+02  0.51100000000E-03 0. -1.
    9900012    2    1    2    0    0 -0.30534620766E+02  0.14260347003E+01  0.90729885499E+01  0.59302019358E+02  0.50000137384E+02 0.  0.
         12    1    1    2    0    0  0.30534620766E+02 -0.14260347003E+01 -0.90729885499E+01  0.31885980642E+02  0.00000000000E+00 0. -1.
         11    1    3    3    0    0 -0.17087669916E+01 -0.45640118451E+01 -0.11932287879E+02  0.12889126543E+02  0.51100000000E-03 0. -1.
        -11    1    3    3    0    0  0.38041989939E+01  0.66940948780E+01  0.84810590843E+01  0.11454745727E+02  0.51100000000E-03 0.  1.
         12    1    3    3    0    0 -0.32630052768E+02 -0.70404833259E+00  0.12524217345E+02  0.34958147088E+02  0.00000000000E+00 0. -1.
</event>
<event>
 7    1  0.6246445E-012  0.5930195E+02  0.7816164E-02  0.1266605E+00
        -11   -1    0    0    0    0  0.00000000000E+00  0.00000000000E+00  0.45593999997E+02  0.45594000000E+02  0.51100000000E-03 0.  1.
         11   -1    0    0    0    0 -0.00000000000E+00 -0.00000000000E+00 -0.45593999997E+02  0.45594000000E+02  0.51100000000E-03 0. -1.
    9900012    2    1    2    0    0  0.39682318063E+01 -0.63054355645E+01  0.31003465497E+02  0.59301948909E+02  0.50000008902E+02 0.  0.
         12    1    1    2    0    0 -0.39682318063E+01  0.63054355645E+01 -0.31003465497E+02  0.31886051091E+02  0.00000000000E+00 0. -1.
         11    1    3    3    0    0  0.13408262159E+02  0.74817250627E+01  0.11185008860E+02  0.18996371430E+02  0.51100000000E-03 0. -1.
        -11    1    3    3    0    0  0.73645528492E+01  0.49517282310E+01  0.97831777740E+01  0.13208588826E+02  0.51100000000E-03 0.  1.
         12    1    3    3    0    0 -0.16804583202E+02 -0.18738888858E+02  0.10035278863E+02  0.27096988654E+02  0.00000000000E+00 0. -1.
</event>
<event>
 7    1  0.6246445E-012  0.5930191E+02  0.7816164E-02  0.1266605E+00
        -11   -1    0    0    0    0  0.00000000000E+00  0.00000000000E+00  0.45593999997E+02  0.45594000000E+02  0.51100000000E-03 0.  1.
         11   -1    0    0    0    0 -0.00000000000E+00 -0.00000000000E+00 -0.45593999997E+02  0.45594000000E+02  0.51100000000E-03 0. -1.
    9900012    2    1    2    0    0 -0.19684550739E+01  0.64533909552E+00  0.31818725540E+02  0.59301912550E+02  0.49999942592E+02 0.  0.
         12    1    1    2    0    0  0.19684550739E+01 -0.64533909552E+00 -0.31818725540E+02  0.31886087450E+02  0.00000000000E+00 0. -1.
         11    1    3    3    0    0 -0.21615598494E+01  0.13704953331E+02  0.85751434034E+01  0.16310462024E+02  0.51100000000E-03 0. -1.
        -11    1    3    3    0    0 -0.16424213028E+02 -0.86724618987E+01  0.15273145949E+02  0.24046524830E+02  0.51100000000E-03 0.  1.
         12    1    3    3    0    0  0.16617317804E+02 -0.43871523363E+01  0.79704361873E+01  0.18944925696E+02  0.00000000000E+00 0. -1.
</event>
<event>
 7    1  0.6246445E-012  0.5930198E+02  0.7816164E-02  0.1266605E+00
        -11   -1    0    0    0    0  0.00000000000E+00  0.00000000000E+00  0.45593999997E+02  0.45594000000E+02  0.51100000000E-03 0. -1.
         11   -1    0    0    0    0 -0.00000000000E+00 -0.00000000000E+00 -0.45593999997E+02  0.45594000000E+02  0.51100000000E-03 0.  1.
    9900012    2    1    2    0    0  0.24380503075E+02  0.10959192642E+02 -0.17384052290E+02  0.59301982569E+02  0.50000070291E+02 0.  0.
         12    1    1    2    0    0 -0.24380503075E+02 -0.10959192642E+02  0.17384052290E+02  0.31886017431E+02  0.00000000000E+00 0. -1.
         11    1    3    3    0    0  0.34781233923E+01  0.23965100362E+01  0.84162695946E+01  0.94166977671E+01  0.51100000000E-03 0.  1.
        -11    1    3    3    0    0  0.73816826674E+01 -0.90012424326E+00  0.88176947673E+01  0.11534782353E+02  0.51100000000E-03 0. -1.
         12    1    3    3    0    0  0.13520697016E+02  0.94628068495E+01 -0.34618016651E+02  0.38350502450E+02  0.00000000000E+00 0. -1.
</event>
<event>
 7    1  0.6246445E-012  0.5930194E+02  0.7816164E-02  0.1266605E+00
        -11   -1    0    0    0    0  0.00000000000E+00  0.00000000000E+00  0.45593999997E+02  0.45594000000E+02  0.51100000000E-03 0.  1.
         11   -1    0    0    0    0 -0.00000000000E+00 -0.00000000000E+00 -0.45593999997E+02  0.45594000000E+02  0.51100000000E-03 0. -1.
    9900012    2    1    2    0    0  0.18163451137E+02  0.21865747526E+01  0.26115683731E+02  0.59301937166E+02  0.49999987485E+02 0.  0.
         12    1    1    2    0    0 -0.18163451137E+02 -0.21865747526E+01 -0.26115683731E+02  0.31886062834E+02  0.00000000000E+00 0. -1.
         11    1    3    3    0    0  0.10909547326E+02  0.72490520239E+01 -0.51725008928E+01  0.14082675309E+02  0.51100000000E-03 0. -1.
        -11    1    3    3    0    0 -0.74838188705E+01  0.90656786225E+01  0.78469879063E+01  0.14133976554E+02  0.51100000000E-03 0.  1.
        -12    1    3    3    0    0  0.14737722682E+02 -0.14128155894E+02  0.23441196717E+02  0.31085285302E+02  0.00000000000E+00 0.  1.
</event>
<event>
 7    1  0.6246445E-012  0.5930195E+02  0.7816164E-02  0.1266605E+00
        -11   -1    0    0    0    0  0.00000000000E+00  0.00000000000E+00  0.45593999997E+02  0.45594000000E+02  0.51100000000E-03 0.  1.
         11   -1    0    0    0    0 -0.00000000000E+00 -0.00000000000E+00 -0.45593999997E+02  0.45594000000E+02  0.51100000000E-03 0. -1.
    9900012    2    1    2    0    0  0.24603112794E+02  0.16448159903E+02 -0.11868666746E+02  0.59301947036E+02  0.50000005486E+02 0.  0.
         12    1    1    2    0    0 -0.24603112794E+02 -0.16448159903E+02  0.11868666746E+02  0.31886052964E+02  0.00000000000E+00 0. -1.
         11    1    3    3    0    0  0.23240984586E+00  0.11423636311E+02 -0.87310393262E+01  0.14380004481E+02  0.51100000000E-03 0. -1.
        -11    1    3    3    0    0  0.14112044740E+02  0.13848749324E+02  0.13150673255E+02  0.23746112775E+02  0.51100000000E-03 0.  1.
         12    1    3    3    0    0  0.10258658208E+02 -0.88242257323E+01 -0.16288300675E+02  0.21175829780E+02  0.00000000000E+00 0. -1.
</event>
<event>
 7    1  0.6246445E-012  0.5930199E+02  0.7816164E-02  0.1266605E+00
        -11   -1    0    0    0    0  0.00000000000E+00  0.00000000000E+00  0.45593999997E+02  0.45594000000E+02  0.51100000000E-03 0. -1.
         11   -1    0    0    0    0 -0.00000000000E+00 -0.00000000000E+00 -0.45593999997E+02  0.45594000000E+02  0.51100000000E-03 0.  1.
    9900012    2    1    2    0    0  0.28302371859E+02 -0.76179838448E+01 -0.12556249687E+02  0.59301994655E+02  0.50000092331E+02 0.  0.
         12    1    1    2    0    0 -0.28302371859E+02  0.76179838448E+01  0.12556249687E+02  0.31886005345E+02  0.00000000000E+00 0. -1.
         11    1    3    3    0    0  0.13876382120E+01 -0.60756612772E+01  0.14562730408E+02  0.15840212024E+02  0.51100000000E-03 0. -1.
        -11    1    3    3    0    0 -0.27092871528E+01  0.13534348495E+01  0.23341117983E+00  0.30375160589E+01  0.51100000000E-03 0.  1.
        -12    1    3    3    0    0  0.29624020799E+02 -0.28957574170E+01 -0.27352391275E+02  0.40424266571E+02  0.00000000000E+00 0.  1.
</event>
<event>
 7    1  0.6246445E-012  0.5930195E+02  0.7816164E-02  0.1266605E+00
        -11   -1    0    0    0    0  0.00000000000E+00  0.00000000000E+00  0.45593999997E+02  0.45594000000E+02  0.51100000000E-03 0.  1.
         11   -1    0    0    0    0 -0.00000000000E+00 -0.00000000000E+00 -0.45593999997E+02  0.45594000000E+02  0.51100000000E-03 0. -1.
    9900012    2    1    2    0    0  0.77064460131E+01 -0.94279013423E+01  0.29469396522E+02  0.59301953440E+02  0.50000017166E+02 0.  0.
         12    1    1    2    0    0 -0.77064460131E+01  0.94279013423E+01 -0.29469396522E+02  0.31886046560E+02  0.00000000000E+00 0. -1.
         11    1    3    3    0    0 -0.63121768968E+01 -0.12614497124E+02  0.36677258112E+01  0.14574681051E+02  0.51100000000E-03 0. -1.
        -11    1    3    3    0    0 -0.60569334943E+01  0.54860921116E+01  0.22898376360E+02  0.24312944910E+02  0.51100000000E-03 0.  1.
         12    1    3    3    0    0  0.20075556404E+02 -0.22994963301E+01  0.29032943499E+01  0.20414327478E+02  0.00000000000E+00 0. -1.
</event>
<event>
 7    1  0.6246445E-012  0.5930190E+02  0.7816164E-02  0.1266605E+00
        -11   -1    0    0    0    0  0.00000000000E+00  0.00000000000E+00  0.45593999997E+02  0.45594000000E+02  0.51100000000E-03 0. -1.
         11   -1    0    0    0    0 -0.00000000000E+00 -0.00000000000E+00 -0.45593999997E+02  0.45594000000E+02  0.51100000000E-03 0.  1.
    9900012    2    1    2    0    0  0.18029374588E+02 -0.12336496284E+01 -0.26270575396E+02  0.59301900033E+02  0.49999919765E+02 0.  0.
         12    1    1    2    0    0 -0.18029374588E+02  0.12336496284E+01  0.26270575396E+02  0.31886099967E+02  0.00000000000E+00 0. -1.
         11    1    3    3    0    0  0.64143523537E+01 -0.35494069216E+01  0.32570208790E+01  0.80218695377E+01  0.51100000000E-03 0. -1.
        -11    1    3    3    0    0  0.54353672560E+01 -0.16436774732E+02 -0.25979423962E+02  0.31219244873E+02  0.51100000000E-03 0.  1.
         12    1    3    3    0    0  0.61796549784E+01  0.18752532026E+02 -0.35481723135E+01  0.20060785622E+02  0.00000000000E+00 0. -1.
</event>
<event>
 7    1  0.6246445E-012  0.5930197E+02  0.7816164E-02  0.1266605E+00
        -11   -1    0    0    0    0  0.00000000000E+00  0.00000000000E+00  0.45593999997E+02  0.45594000000E+02  0.51100000000E-03 0.  1.
         11   -1    0    0    0    0 -0.00000000000E+00 -0.00000000000E+00 -0.45593999997E+02  0.45594000000E+02  0.51100000000E-03 0. -1.
    9900012    2    1    2    0    0  0.14736139161E+02  0.20693052229E+02  0.19270769887E+02  0.59301972026E+02  0.50000051063E+02 0.  0.
         12    1    1    2    0    0 -0.14736139161E+02 -0.20693052229E+02 -0.19270769887E+02  0.31886027974E+02  0.00000000000E+00 0. -1.
         11    1    3    3    0    0  0.88767581390E+01  0.42292418280E+01 -0.30500719168E+01  0.10294962868E+02  0.51100000000E-03 0. -1.
        -11    1    3    3    0    0  0.18806843767E+01 -0.12057648071E+02  0.14917090443E+02  0.19272867930E+02  0.51100000000E-03 0.  1.
         12    1    3    3    0    0  0.39786966450E+01  0.28521458471E+02  0.74037513610E+01  0.29734141228E+02  0.00000000000E+00 0. -1.
</event>
<event>
 7    1  0.6246445E-012  0.5930206E+02  0.7816164E-02  0.1266604E+00
        -11   -1    0    0    0    0  0.00000000000E+00  0.00000000000E+00  0.45593999997E+02  0.45594000000E+02  0.51100000000E-03 0.  1.
         11   -1    0    0    0    0 -0.00000000000E+00 -0.00000000000E+00 -0.45593999997E+02  0.45594000000E+02  0.51100000000E-03 0. -1.
    9900012    2    1    2    0    0 -0.11858259100E+02 -0.62605574483E+00  0.29592275387E+02  0.59302062390E+02  0.50000215865E+02 0.  0.
         12    1    1    2    0    0  0.11858259100E+02  0.62605574483E+00 -0.29592275387E+02  0.31885937610E+02  0.00000000000E+00 0. -1.
         11    1    3    3    0    0 -0.13855316378E+02 -0.82082187558E-01 -0.72950497745E+01  0.15658680688E+02  0.51100000000E-03 0. -1.
        -11    1    3    3    0    0 -0.88040088776E+01 -0.61426629179E+01  0.13197394943E+02  0.17012175451E+02  0.51100000000E-03 0.  1.
        -12    1    3    3    0    0  0.10801066155E+02  0.55986893606E+01  0.23689930218E+02  0.26631206251E+02  0.00000000000E+00 0.  1.
</event>
<event>
 7    1  0.6246445E-012  0.5930194E+02  0.7816164E-02  0.1266605E+00
        -11   -1    0    0    0    0  0.00000000000E+00  0.00000000000E+00  0.45593999997E+02  0.45594000000E+02  0.51100000000E-03 0. -1.
         11   -1    0    0    0    0 -0.00000000000E+00 -0.00000000000E+00 -0.45593999997E+02  0.45594000000E+02  0.51100000000E-03 0.  1.
    9900012    2    1    2    0    0  0.28172597530E+02 -0.67824347501E+01  0.13305033851E+02  0.59301943510E+02  0.49999999055E+02 0.  0.
         12    1    1    2    0    0 -0.28172597530E+02  0.67824347501E+01 -0.13305033851E+02  0.31886056490E+02  0.00000000000E+00 0. -1.
         11    1    3    3    0    0  0.25782324101E+02 -0.11353532134E+01  0.13851889343E+02  0.29289795179E+02  0.51100000000E-03 0. -1.
        -11    1    3    3    0    0  0.61794005659E+01  0.12683271974E+01  0.12936306182E+02  0.14392416862E+02  0.51100000000E-03 0.  1.
        -12    1    3    3    0    0 -0.37891271372E+01 -0.69154087341E+01 -0.13483161674E+02  0.15619731469E+02  0.00000000000E+00 0.  1.
</event>
<event>
 7    1  0.6246445E-012  0.5930194E+02  0.7816164E-02  0.1266605E+00
        -11   -1    0    0    0    0  0.00000000000E+00  0.00000000000E+00  0.45593999997E+02  0.45594000000E+02  0.51100000000E-03 0. -1.
         11   -1    0    0    0    0 -0.00000000000E+00 -0.00000000000E+00 -0.45593999997E+02  0.45594000000E+02  0.51100000000E-03 0.  1.
    9900012    2    1    2    0    0 -0.13161318155E+02 -0.28373437035E+02  0.62007045777E+01  0.59301937810E+02  0.49999988660E+02 0.  0.
         12    1    1    2    0    0  0.13161318155E+02  0.28373437035E+02 -0.62007045777E+01  0.31886062190E+02  0.00000000000E+00 0. -1.
         11    1    3    3    0    0  0.20245318937E+01 -0.12624046172E+02  0.12197170458E+02  0.17670207656E+02  0.51100000000E-03 0. -1.
        -11    1    3    3    0    0 -0.19293482118E+02 -0.11908259782E+02  0.99223740588E+01  0.24748709269E+02  0.51100000000E-03 0.  1.
        -12    1    3    3    0    0  0.41076320692E+01 -0.38411310808E+01 -0.15918839939E+02  0.16883020885E+02  0.00000000000E+00 0.  1.
</event>
<event>
 7    1  0.6246445E-012  0.5930197E+02  0.7816164E-02  0.1266605E+00
        -11   -1    0    0    0    0  0.00000000000E+00  0.00000000000E+00  0.45593999997E+02  0.45594000000E+02  0.51100000000E-03 0. -1.
         11   -1    0    0    0    0 -0.00000000000E+00 -0.00000000000E+00 -0.45593999997E+02  0.45594000000E+02  0.51100000000E-03 0.  1.
    9900012    2    1    2    0    0 -0.25744914399E+02  0.18776134639E+02 -0.11725860581E+01  0.59301971595E+02  0.50000050276E+02 0.  0.
         12    1    1    2    0    0  0.25744914399E+02 -0.18776134639E+02  0.11725860581E+01  0.31886028405E+02  0.00000000000E+00 0. -1.
         11    1    3    3    0    0 -0.20650311353E+02 -0.43645017855E+01  0.14979129578E+01  0.21159583604E+02  0.51100000000E-03 0. -1.
        -11    1    3    3    0    0 -0.34314069834E+01  0.97641959053E+01 -0.16084006730E+02  0.19126143059E+02  0.51100000000E-03 0.  1.
        -12    1    3    3    0    0 -0.16631960630E+01  0.13376440519E+02  0.13413507714E+02  0.19016244932E+02  0.00000000000E+00 0.  1.
</event>
<event>
 7    1  0.6246445E-012  0.5930191E+02  0.7816164E-02  0.1266605E+00
        -11   -1    0    0    0    0  0.00000000000E+00  0.00000000000E+00  0.45593999997E+02  0.45594000000E+02  0.51100000000E-03 0.  1.
         11   -1    0    0    0    0 -0.00000000000E+00 -0.00000000000E+00 -0.45593999997E+02  0.45594000000E+02  0.51100000000E-03 0. -1.
    9900012    2    1    2    0    0 -0.30840075614E+02  0.66280889910E+01  0.46562702800E+01  0.59301910863E+02  0.49999939515E+02 0.  0.
         12    1    1    2    0    0  0.30840075614E+02 -0.66280889910E+01 -0.46562702800E+01  0.31886089137E+02  0.00000000000E+00 0. -1.
         11    1    3    3    0    0  0.63550097016E+01 -0.55627493345E+01 -0.11949231268E+02  0.14632650362E+02  0.51100000000E-03 0. -1.
        -11    1    3    3    0    0 -0.10520557040E+02 -0.24023775881E+01  0.21542905975E+01  0.11004294923E+02  0.51100000000E-03 0.  1.
        -12    1    3    3    0    0 -0.26674528276E+02  0.14593215914E+02  0.14451210950E+02  0.33664965578E+02  0.00000000000E+00 0.  1.
</event>
<event>
 7    1  0.1174908E-011  0.5930195E+02  0.7816164E-02  0.1266605E+00
        -11   -1    0    0    0    0  0.00000000000E+00  0.00000000000E+00  0.45593999997E+02  0.45594000000E+02  0.51100000000E-03 0. -1.
         11   -1    0    0    0    0 -0.00000000000E+00 -0.00000000000E+00 -0.45593999997E+02  0.45594000000E+02  0.51100000000E-03 0.  1.
    9900012    2    1    2    0    0 -0.23013620995E+01 -0.10655090657E+02 -0.29964858639E+02  0.59301953244E+02  0.50000016809E+02 0.  0.
         12    1    1    2    0    0  0.23013620995E+01  0.10655090657E+02  0.29964858639E+02  0.31886046756E+02  0.00000000000E+00 0. -1.
         11    1    3    3    0    0 -0.10161551331E+02  0.12145552817E+01  0.25208764249E+01  0.10539785966E+02  0.51100000000E-03 0. -1.
        -11    1    3    3    0    0  0.71211150165E+01  0.80053835833E+01 -0.25538485889E+02  0.27694958154E+02  0.51100000000E-03 0.  1.
         12    1    3    3    0    0  0.73907421527E+00 -0.19875029522E+02 -0.69472491748E+01  0.21067209124E+02  0.00000000000E+00 0. -1.
</event>
<event>
 7    1  0.6246445E-012  0.5930196E+02  0.7816164E-02  0.1266605E+00
        -11   -1    0    0    0    0  0.00000000000E+00  0.00000000000E+00  0.45593999997E+02  0.45594000000E+02  0.51100000000E-03 0.  1.
         11   -1    0    0    0    0 -0.00000000000E+00 -0.00000000000E+00 -0.45593999997E+02  0.45594000000E+02  0.51100000000E-03 0. -1.
    9900012    2    1    2    0    0 -0.49250621086E+01 -0.13016721383E+02  0.28688473328E+02  0.59301956435E+02  0.50000022628E+02 0.  0.
         12    1    1    2    0    0  0.49250621086E+01  0.13016721383E+02 -0.28688473328E+02  0.31886043565E+02  0.00000000000E+00 0. -1.
         11    1    3    3    0    0 -0.11866484735E+02 -0.15367730640E+02  0.61198892073E+01  0.20357643507E+02  0.51100000000E-03 0. -1.
        -11    1    3    3    0    0 -0.71412598944E+01  0.99210248298E+00  0.23679385365E+02  0.24752679688E+02  0.51100000000E-03 0.  1.
         12    1    3    3    0    0  0.14082682521E+02  0.13589067739E+01 -0.11108012445E+01  0.14191633239E+02  0.00000000000E+00 0. -1.
</event>
<event>
 7    1  0.6246445E-012  0.5930200E+02  0.7816164E-02  0.1266605E+00
        -11   -1    0    0    0    0  0.00000000000E+00  0.00000000000E+00  0.45593999997E+02  0.45594000000E+02  0.51100000000E-03 0.  1.
         11   -1    0    0    0    0 -0.00000000000E+00 -0.00000000000E+00 -0.45593999997E+02  0.45594000000E+02  0.51100000000E-03 0. -1.
    9900012    2    1    2    0    0  0.19854279572E+02  0.10152363125E+02  0.22791538838E+02  0.59301997789E+02  0.50000098048E+02 0.  0.
         12    1    1    2    0    0 -0.19854279572E+02 -0.10152363125E+02 -0.22791538838E+02  0.31886002211E+02  0.00000000000E+00 0. -1.
         11    1    3    3    0    0  0.99770951281E+01  0.16175643813E+01 -0.71570320748E+01  0.12384750708E+02  0.51100000000E-03 0. -1.
        -11    1    3    3    0    0  0.46667135962E+01  0.60966459982E+01 -0.64741634445E+01  0.10043012535E+02  0.51100000000E-03 0.  1.
        -12    1    3    3    0    0  0.52104708480E+01  0.24381527460E+01  0.36422734357E+02  0.36874234546E+02  0.00000000000E+00 0.  1.
</event>
<event>
 7    1  0.6246445E-012  0.5930180E+02  0.7816164E-02  0.1266605E+00
        -11   -1    0    0    0    0  0.00000000000E+00  0.00000000000E+00  0.45593999997E+02  0.45594000000E+02  0.51100000000E-03 0.  1.
         11   -1    0    0    0    0 -0.00000000000E+00 -0.00000000000E+00 -0.45593999997E+02  0.45594000000E+02  0.51100000000E-03 0. -1.
    9900012    2    1    2    0    0 -0.18705270499E+02 -0.38644544114E+01  0.25532494644E+02  0.59301804945E+02  0.49999746346E+02 0.  0.
         12    1    1    2    0    0  0.18705270499E+02  0.38644544114E+01 -0.25532494644E+02  0.31886195055E+02  0.00000000000E+00 0. -1.
         11    1    3    3    0    0 -0.33731333688E+00  0.81765460613E+01 -0.39921521160E+01  0.91053261643E+01  0.51100000000E-03 0. -1.
        -11    1    3    3    0    0 -0.17730452788E+02  0.72366398658E+01  0.66430488980E+01  0.20269879416E+02  0.51100000000E-03 0.  1.
        -12    1    3    3    0    0 -0.63750437458E+00 -0.19277640338E+02  0.22881597862E+02  0.29926599365E+02  0.00000000000E+00 0.  1.
</event>
<event>
 7    1  0.6246445E-012  0.5930195E+02  0.7816164E-02  0.1266605E+00
        -11   -1    0    0    0    0  0.00000000000E+00  0.00000000000E+00  0.45593999997E+02  0.45594000000E+02  0.51100000000E-03 0.  1.
         11   -1    0    0    0    0 -0.00000000000E+00 -0.00000000000E+00 -0.45593999997E+02  0.45594000000E+02  0.51100000000E-03 0. -1.
    9900012    2    1    2    0    0 -0.20082629821E+02 -0.23755018692E+02  0.70076766250E+01  0.59301945599E+02  0.50000002865E+02 0.  0.
         12    1    1    2    0    0  0.20082629821E+02  0.23755018692E+02 -0.70076766250E+01  0.31886054401E+02  0.00000000000E+00 0. -1.
         11    1    3    3    0    0 -0.12397302881E+02  0.14288827712E+01  0.19662878492E+01  0.12633333403E+02  0.51100000000E-03 0. -1.
        -11    1    3    3    0    0  0.36665964431E+01  0.36035738634E+01 -0.10758356261E+02  0.11923586028E+02  0.51100000000E-03 0.  1.
        -12    1    3    3    0    0 -0.11351923383E+02 -0.28787475327E+02  0.15799745037E+02  0.34745026168E+02  0.00000000000E+00 0.  1.
</event>
<event>
 7    1  0.6246445E-012  0.5930195E+02  0.7816164E-02  0.1266605E+00
        -11   -1    0    0    0    0  0.00000000000E+00  0.00000000000E+00  0.45593999997E+02  0.45594000000E+02  0.51100000000E-03 0.  1.
         11   -1    0    0    0    0 -0.00000000000E+00 -0.00000000000E+00 -0.45593999997E+02  0.45594000000E+02  0.51100000000E-03 0. -1.
    9900012    2    1    2    0    0  0.83888832447E+00 -0.23725479773E+02  0.21286574604E+02  0.59301946898E+02  0.50000005234E+02 0.  0.
         12    1    1    2    0    0 -0.83888832447E+00  0.23725479773E+02 -0.21286574604E+02  0.31886053102E+02  0.00000000000E+00 0. -1.
         11    1    3    3    0    0  0.18723658865E+01  0.20716835271E+00 -0.11766114460E+02  0.11915960829E+02  0.51100000000E-03 0. -1.
        -11    1    3    3    0    0 -0.11450288807E+02 -0.12936120456E+02  0.10492322284E+02  0.20212400981E+02  0.51100000000E-03 0.  1.
        -12    1    3    3    0    0  0.10416811245E+02 -0.10996527669E+02  0.22560366780E+02  0.27173585088E+02  0.00000000000E+00 0.  1.
</event>
<event>
 7    1  0.6246445E-012  0.5930195E+02  0.7816164E-02  0.1266605E+00
        -11   -1    0    0    0    0  0.00000000000E+00  0.00000000000E+00  0.45593999997E+02  0.45594000000E+02  0.51100000000E-03 0.  1.
         11   -1    0    0    0    0 -0.00000000000E+00 -0.00000000000E+00 -0.45593999997E+02  0.45594000000E+02  0.51100000000E-03 0. -1.
    9900012    2    1    2    0    0 -0.87238580472E+01  0.25852884868E+02 -0.16499784832E+02  0.59301948900E+02  0.50000008886E+02 0.  0.
         12    1    1    2    0    0  0.87238580472E+01 -0.25852884868E+02  0.16499784832E+02  0.31886051100E+02  0.00000000000E+00 0. -1.
         11    1    3    3    0    0 -0.14014253799E+02 -0.97690561423E+01 -0.21121198692E+01  0.17213216377E+02  0.51100000000E-03 0. -1.
        -11    1    3    3    0    0  0.14445174420E+01 -0.13906321989E+01  0.40296249804E+00  0.20452060016E+01  0.51100000000E-03 0.  1.
        -12    1    3    3    0    0  0.38458783097E+01  0.37012573209E+02 -0.14790627461E+02  0.40043526521E+02  0.00000000000E+00 0.  1.
</event>
<event>
 7    1  0.6246445E-012  0.5930193E+02  0.7816164E-02  0.1266605E+00
        -11   -1    0    0    0    0  0.00000000000E+00  0.00000000000E+00  0.45593999997E+02  0.45594000000E+02  0.51100000000E-03 0.  1.
         11   -1    0    0    0    0 -0.00000000000E+00 -0.00000000000E+00 -0.45593999997E+02  0.45594000000E+02  0.51100000000E-03 0. -1.
    9900012    2    1    2    0    0  0.14768726067E+01  0.10905245418E+02  0.29926845489E+02  0.59301927629E+02  0.49999970092E+02 0.  0.
         12    1    1    2    0    0 -0.14768726067E+01 -0.10905245418E+02 -0.29926845489E+02  0.31886072371E+02  0.00000000000E+00 0. -1.
         11    1    3    3    0    0 -0.62023074520E+00 -0.77347030418E+01 -0.75724747916E+01  0.10842171925E+02  0.51100000000E-03 0. -1.
        -11    1    3    3    0    0 -0.35774914249E+01 -0.48808038188E+01  0.45034484089E+01  0.75433241111E+01  0.51100000000E-03 0.  1.
        -12    1    3    3    0    0  0.56745947768E+01  0.23520752279E+02  0.32995871872E+02  0.40916431592E+02  0.00000000000E+00 0.  1.
</event>
<event>
 7    1  0.6246445E-012  0.5930191E+02  0.7816164E-02  0.1266605E+00
        -11   -1    0    0    0    0  0.00000000000E+00  0.00000000000E+00  0.45593999997E+02  0.45594000000E+02  0.51100000000E-03 0. -1.
         11   -1    0    0    0    0 -0.00000000000E+00 -0.00000000000E+00 -0.45593999997E+02  0.45594000000E+02  0.51100000000E-03 0.  1.
    9900012    2    1    2    0    0  0.14463355056E+02 -0.74661663453E+01 -0.27418792758E+02  0.59301914074E+02  0.49999945372E+02 0.  0.
         12    1    1    2    0    0 -0.14463355056E+02  0.74661663453E+01  0.27418792758E+02  0.31886085926E+02  0.00000000000E+00 0. -1.
         11    1    3    3    0    0 -0.52596697525E+01  0.27403165547E+01  0.16514824305E+01  0.61563670460E+01  0.51100000000E-03 0. -1.
        -11    1    3    3    0    0 -0.98374085632E+01 -0.58878386841E+01 -0.17888764073E+02  0.21247332348E+02  0.51100000000E-03 0.  1.
        -12    1    3    3    0    0  0.29560433371E+02 -0.43186442159E+01 -0.11181511116E+02  0.31898214680E+02  0.00000000000E+00 0.  1.
</event>
<event>
 7    1  0.6246445E-012  0.5930195E+02  0.7816164E-02  0.1266605E+00
        -11   -1    0    0    0    0  0.00000000000E+00  0.00000000000E+00  0.45593999997E+02  0.45594000000E+02  0.51100000000E-03 0. -1.
         11   -1    0    0    0    0 -0.00000000000E+00 -0.00000000000E+00 -0.45593999997E+02  0.45594000000E+02  0.51100000000E-03 0.  1.
    9900012    2    1    2    0    0 -0.63317381772E+00 -0.13699893335E+02 -0.28785975889E+02  0.59301946711E+02  0.50000004893E+02 0.  0.
         12    1    1    2    0    0  0.63317381772E+00  0.13699893335E+02  0.28785975889E+02  0.31886053289E+02  0.00000000000E+00 0. -1.
         11    1    3    3    0    0 -0.22292468009E+01  0.50209439230E+01 -0.22824609380E+02  0.23476418228E+02  0.51100000000E-03 0. -1.
        -11    1    3    3    0    0  0.11351812233E+02  0.15181262819E+01 -0.68415989356E+01  0.13340758024E+02  0.51100000000E-03 0.  1.
         12    1    3    3    0    0 -0.97557392503E+01 -0.20238963539E+02  0.88023242664E+00  0.22484770459E+02  0.00000000000E+00 0. -1.
</event>
<event>
 7    1  0.6246445E-012  0.5930195E+02  0.7816164E-02  0.1266605E+00
        -11   -1    0    0    0    0  0.00000000000E+00  0.00000000000E+00  0.45593999997E+02  0.45594000000E+02  0.51100000000E-03 0. -1.
         11   -1    0    0    0    0 -0.00000000000E+00 -0.00000000000E+00 -0.45593999997E+02  0.45594000000E+02  0.51100000000E-03 0.  1.
    9900012    2    1    2    0    0  0.13683207850E+02  0.28527944975E+02 -0.39555253978E+01  0.59301952852E+02  0.50000016094E+02 0.  0.
         12    1    1    2    0    0 -0.13683207850E+02 -0.28527944975E+02  0.39555253978E+01  0.31886047148E+02  0.00000000000E+00 0. -1.
         11    1    3    3    0    0  0.80786304969E+01  0.21385208962E+02 -0.57655350112E+01  0.23576107127E+02  0.51100000000E-03 0. -1.
        -11    1    3    3    0    0 -0.28970846824E+01 -0.10546375546E+02 -0.82234918904E+01  0.13683747877E+02  0.51100000000E-03 0.  1.
         12    1    3    3    0    0  0.85016620356E+01  0.17689111559E+02  0.10033501504E+02  0.22042097848E+02  0.00000000000E+00 0. -1.
</event>
<event>
 7    1  0.6246445E-012  0.5930193E+02  0.7816164E-02  0.1266605E+00
        -11   -1    0    0    0    0  0.00000000000E+00  0.00000000000E+00  0.45593999997E+02  0.45594000000E+02  0.51100000000E-03 0. -1.
         11   -1    0    0    0    0 -0.00000000000E+00 -0.00000000000E+00 -0.45593999997E+02  0.45594000000E+02  0.51100000000E-03 0.  1.
    9900012    2    1    2    0    0  0.12306973203E+02  0.23630830090E+02 -0.17516962012E+02  0.59301926578E+02  0.49999968176E+02 0.  0.
         12    1    1    2    0    0 -0.12306973203E+02 -0.23630830090E+02  0.17516962012E+02  0.31886073422E+02  0.00000000000E+00 0. -1.
         11    1    3    3    0    0  0.72003600958E+01 -0.10694650039E+02 -0.62645613407E+01  0.14334066207E+02  0.51100000000E-03 0. -1.
        -11    1    3    3    0    0 -0.60561768543E+01 -0.12284147382E+01 -0.26440770356E+01  0.67214153637E+01  0.51100000000E-03 0.  1.
         12    1    3    3    0    0  0.11162789961E+02  0.35553894867E+02 -0.86083236355E+01  0.38246445008E+02  0.00000000000E+00 0. -1.
</event>
<event>
 7    1  0.6246445E-012  0.5930194E+02  0.7816164E-02  0.1266605E+00
        -11   -1    0    0    0    0  0.00000000000E+00  0.00000000000E+00  0.45593999997E+02  0.45594000000E+02  0.51100000000E-03 0. -1.
         11   -1    0    0    0    0 -0.00000000000E+00 -0.00000000000E+00 -0.45593999997E+02  0.45594000000E+02  0.51100000000E-03 0.  1.
    9900012    2    1    2    0    0  0.77130307167E+01  0.24143086499E+02 -0.19347895983E+02  0.59301944309E+02  0.50000000514E+02 0.  0.
         12    1    1    2    0    0 -0.77130307167E+01 -0.24143086499E+02  0.19347895983E+02  0.31886055691E+02  0.00000000000E+00 0. -1.
         11    1    3    3    0    0  0.12254424251E+02  0.53490036788E+01 -0.10867597125E+02  0.17230421400E+02  0.51100000000E-03 0. -1.
        -11    1    3    3    0    0  0.45677196659E+01  0.23815484825E+02 -0.16161179330E+02  0.29141466984E+02  0.51100000000E-03 0.  1.
        -12    1    3    3    0    0 -0.91091132003E+01 -0.50214020042E+01  0.76808804732E+01  0.12930055925E+02  0.00000000000E+00 0.  1.
</event>
<event>
 7    1  0.6246445E-012  0.5930193E+02  0.7816164E-02  0.1266605E+00
        -11   -1    0    0    0    0  0.00000000000E+00  0.00000000000E+00  0.45593999997E+02  0.45594000000E+02  0.51100000000E-03 0.  1.
         11   -1    0    0    0    0 -0.00000000000E+00 -0.00000000000E+00 -0.45593999997E+02  0.45594000000E+02  0.51100000000E-03 0. -1.
    9900012    2    1    2    0    0 -0.30124915543E+02  0.10170529570E+02  0.24023700776E+01  0.59301927959E+02  0.49999970695E+02 0.  0.
         12    1    1    2    0    0  0.30124915543E+02 -0.10170529570E+02 -0.24023700776E+01  0.31886072041E+02  0.00000000000E+00 0. -1.
         11    1    3    3    0    0 -0.77878231939E+01  0.15958245471E+02 -0.16519043392E+02  0.24252723217E+02  0.51100000000E-03 0. -1.
        -11    1    3    3    0    0 -0.10760943847E+01  0.53789417894E+01  0.36928054211E+01  0.66127003589E+01  0.51100000000E-03 0.  1.
        -12    1    3    3    0    0 -0.21260997964E+02 -0.11166657691E+02  0.15228608048E+02  0.28436504383E+02  0.00000000000E+00 0.  1.
</event>
<event>
 7    1  0.6246445E-012  0.5930197E+02  0.7816164E-02  0.1266605E+00
        -11   -1    0    0    0    0  0.00000000000E+00  0.00000000000E+00  0.45593999997E+02  0.45594000000E+02  0.51100000000E-03 0.  1.
         11   -1    0    0    0    0 -0.00000000000E+00 -0.00000000000E+00 -0.45593999997E+02  0.45594000000E+02  0.51100000000E-03 0. -1.
    9900012    2    1    2    0    0 -0.39900672168E+01  0.26735837606E+02  0.16911328970E+02  0.59301973336E+02  0.50000053451E+02 0.  0.
         12    1    1    2    0    0  0.39900672168E+01 -0.26735837606E+02 -0.16911328970E+02  0.31886026664E+02  0.00000000000E+00 0. -1.
         11    1    3    3    0    0 -0.11810336848E+02  0.45125545248E+01  0.13121691556E+02  0.18221580457E+02  0.51100000000E-03 0. -1.
        -11    1    3    3    0    0  0.40817583758E+01  0.53514193780E+00  0.15578904476E+02  0.16113639976E+02  0.51100000000E-03 0.  1.
        -12    1    3    3    0    0  0.37385112555E+01  0.21688141144E+02 -0.11789267062E+02  0.24966752903E+02  0.00000000000E+00 0.  1.
</event>
<event>
 7    1  0.6246445E-012  0.5930195E+02  0.7816164E-02  0.1266605E+00
        -11   -1    0    0    0    0  0.00000000000E+00  0.00000000000E+00  0.45593999997E+02  0.45594000000E+02  0.51100000000E-03 0. -1.
         11   -1    0    0    0    0 -0.00000000000E+00 -0.00000000000E+00 -0.45593999997E+02  0.45594000000E+02  0.51100000000E-03 0.  1.
    9900012    2    1    2    0    0  0.20919593701E+02 -0.22445721498E+02  0.86764189315E+01  0.59301951960E+02  0.50000014466E+02 0.  0.
         12    1    1    2    0    0 -0.20919593701E+02  0.22445721498E+02 -0.86764189315E+01  0.31886048040E+02  0.00000000000E+00 0. -1.
         11    1    3    3    0    0 -0.36863425820E+01  0.65665905897E+01  0.90843313301E+01  0.11799758878E+02  0.51100000000E-03 0. -1.
        -11    1    3    3    0    0  0.75156645349E+01 -0.12053631619E+02 -0.13924267014E+02  0.19891215668E+02  0.51100000000E-03 0.  1.
         12    1    3    3    0    0  0.17090271748E+02 -0.16958680468E+02  0.13516354615E+02  0.27610977414E+02  0.00000000000E+00 0. -1.
</event>
<event>
 7    1  0.6246445E-012  0.5930193E+02  0.7816164E-02  0.1266605E+00
        -11   -1    0    0    0    0  0.00000000000E+00  0.00000000000E+00  0.45593999997E+02  0.45594000000E+02  0.51100000000E-03 0.  1.
         11   -1    0    0    0    0 -0.00000000000E+00 -0.00000000000E+00 -0.45593999997E+02  0.45594000000E+02  0.51100000000E-03 0. -1.
    9900012    2    1    2    0    0 -0.39635371181E+01  0.26623574170E+02  0.17093777618E+02  0.59301928412E+02  0.49999971521E+02 0.  0.
         12    1    1    2    0    0  0.39635371181E+01 -0.26623574170E+02 -0.17093777618E+02  0.31886071588E+02  0.00000000000E+00 0. -1.
         11    1    3    3    0    0  0.13219341027E+01 -0.38520089041E+01 -0.52864175434E+01  0.66732071055E+01  0.51100000000E-03 0. -1.
        -11    1    3    3    0    0  0.15552184628E+02  0.12450212650E+02  0.72823533313E+01  0.21211103508E+02  0.51100000000E-03 0.  1.
        -12    1    3    3    0    0 -0.20837655849E+02  0.18025370424E+02  0.15097841830E+02  0.31417617798E+02  0.00000000000E+00 0.  1.
</event>
<event>
 7    1  0.6246445E-012  0.5930192E+02  0.7816164E-02  0.1266605E+00
        -11   -1    0    0    0    0  0.00000000000E+00  0.00000000000E+00  0.45593999997E+02  0.45594000000E+02  0.51100000000E-03 0.  1.
         11   -1    0    0    0    0 -0.00000000000E+00 -0.00000000000E+00 -0.45593999997E+02  0.45594000000E+02  0.51100000000E-03 0. -1.
    9900012    2    1    2    0    0  0.19361921239E+02  0.17090526940E+02  0.18701654641E+02  0.59301921666E+02  0.49999959218E+02 0.  0.
         12    1    1    2    0    0 -0.19361921239E+02 -0.17090526940E+02 -0.18701654641E+02  0.31886078334E+02  0.00000000000E+00 0. -1.
         11    1    3    3    0    0  0.62625003528E+01  0.21693866887E+02  0.84811181915E+01  0.24119953093E+02  0.51100000000E-03 0. -1.
        -11    1    3    3    0    0  0.56904630801E+01  0.47471841267E+01  0.18984010148E+02  0.20379150345E+02  0.51100000000E-03 0.  1.
         12    1    3    3    0    0  0.74089578065E+01 -0.93505240740E+01 -0.87634736984E+01  0.14802818228E+02  0.00000000000E+00 0. -1.
</event>
<event>
 7    1  0.6432601E-012  0.5930194E+02  0.7816164E-02  0.1266605E+00
        -11   -1    0    0    0    0  0.00000000000E+00  0.00000000000E+00  0.45593999997E+02  0.45594000000E+02  0.51100000000E-03 0. -1.
         11   -1    0    0    0    0 -0.00000000000E+00 -0.00000000000E+00 -0.45593999997E+02  0.45594000000E+02  0.51100000000E-03 0.  1.
    9900012    2    1    2    0    0  0.54711912395E+01  0.72848934075E+01 -0.30556782161E+02  0.59301944402E+02  0.50000000683E+02 0.  0.
         12    1    1    2    0    0 -0.54711912395E+01 -0.72848934075E+01  0.30556782161E+02  0.31886055598E+02  0.00000000000E+00 0. -1.
         11    1    3    3    0    0  0.11113674975E+02 -0.25156583979E+01  0.48239657172E+01  0.12373881934E+02  0.51100000000E-03 0. -1.
        -11    1    3    3    0    0  0.18776192496E+01 -0.84999656254E+01 -0.20180688664E+02  0.21978058715E+02  0.51100000000E-03 0.  1.
         12    1    3    3    0    0 -0.75201029851E+01  0.18300517431E+02 -0.15200059214E+02  0.24950003753E+02  0.00000000000E+00 0. -1.
</event>
<event>
 7    1  0.6246445E-012  0.5930194E+02  0.7816164E-02  0.1266605E+00
        -11   -1    0    0    0    0  0.00000000000E+00  0.00000000000E+00  0.45593999997E+02  0.45594000000E+02  0.51100000000E-03 0.  1.
         11   -1    0    0    0    0 -0.00000000000E+00 -0.00000000000E+00 -0.45593999997E+02  0.45594000000E+02  0.51100000000E-03 0. -1.
    9900012    2    1    2    0    0  0.13244893882E+02 -0.62211260917E+01  0.28330044056E+02  0.59301936900E+02  0.49999987002E+02 0.  0.
         12    1    1    2    0    0 -0.13244893882E+02  0.62211260917E+01 -0.28330044056E+02  0.31886063100E+02  0.00000000000E+00 0. -1.
         11    1    3    3    0    0  0.93406327643E+00  0.43656030770E+00 -0.49384641992E+01  0.50449467802E+01  0.51100000000E-03 0. -1.
        -11    1    3    3    0    0 -0.14570016747E+02 -0.38254922527E+01  0.71671177382E+01  0.16681947006E+02  0.51100000000E-03 0.  1.
        -12    1    3    3    0    0  0.26880847353E+02 -0.28321941466E+01  0.26101390517E+02  0.37575043114E+02  0.00000000000E+00 0.  1.
</event>
<event>
 7    1  0.6246445E-012  0.5930200E+02  0.7816164E-02  0.1266605E+00
        -11   -1    0    0    0    0  0.00000000000E+00  0.00000000000E+00  0.45593999997E+02  0.45594000000E+02  0.51100000000E-03 0.  1.
         11   -1    0    0    0    0 -0.00000000000E+00 -0.00000000000E+00 -0.45593999997E+02  0.45594000000E+02  0.51100000000E-03 0. -1.
    9900012    2    1    2    0    0 -0.19376939634E+02  0.22026331465E+02  0.12493676473E+02  0.59301999636E+02  0.50000101417E+02 0.  0.
         12    1    1    2    0    0  0.19376939634E+02 -0.22026331465E+02 -0.12493676473E+02  0.31886000364E+02  0.00000000000E+00 0. -1.
         11    1    3    3    0    0  0.79772894161E+01  0.13385314823E+02 -0.25789292240E+01  0.15794134213E+02  0.51100000000E-03 0. -1.
        -11    1    3    3    0    0 -0.11571570667E+00  0.13187297165E+02  0.44114003604E+01  0.13906065225E+02  0.51100000000E-03 0.  1.
        -12    1    3    3    0    0 -0.27238513344E+02 -0.45462805230E+01  0.10661205337E+02  0.29601800199E+02  0.00000000000E+00 0.  1.
</event>
<event>
 7    1  0.6246445E-012  0.5930194E+02  0.7816164E-02  0.1266605E+00
        -11   -1    0    0    0    0  0.00000000000E+00  0.00000000000E+00  0.45593999997E+02  0.45594000000E+02  0.51100000000E-03 0.  1.
         11   -1    0    0    0    0 -0.00000000000E+00 -0.00000000000E+00 -0.45593999997E+02  0.45594000000E+02  0.51100000000E-03 0. -1.
    9900012    2    1    2    0    0 -0.13965769510E+02 -0.23301720293E+02  0.16694554012E+02  0.59301936895E+02  0.49999986992E+02 0.  0.
         12    1    1    2    0    0  0.13965769510E+02  0.23301720293E+02 -0.16694554012E+02  0.31886063105E+02  0.00000000000E+00 0. -1.
         11    1    3    3    0    0 -0.40541735621E+01  0.10111785324E+02  0.65042501291E+01  0.12688175429E+02  0.51100000000E-03 0. -1.
        -11    1    3    3    0    0 -0.15199840539E+02 -0.10345314664E+02 -0.42745910525E+01  0.18876779832E+02  0.51100000000E-03 0.  1.
        -12    1    3    3    0    0  0.52882445911E+01 -0.23068190952E+02  0.14464894936E+02  0.27736981634E+02  0.00000000000E+00 0.  1.
</event>
<event>
 7    1  0.6246445E-012  0.5930196E+02  0.7816164E-02  0.1266605E+00
        -11   -1    0    0    0    0  0.00000000000E+00  0.00000000000E+00  0.45593999997E+02  0.45594000000E+02  0.51100000000E-03 0.  1.
         11   -1    0    0    0    0 -0.00000000000E+00 -0.00000000000E+00 -0.45593999997E+02  0.45594000000E+02  0.51100000000E-03 0. -1.
    9900012    2    1    2    0    0 -0.10524004909E+02 -0.23831206174E+02 -0.18385815613E+02  0.59301964141E+02  0.50000036683E+02 0.  0.
         12    1    1    2    0    0  0.10524004909E+02  0.23831206174E+02  0.18385815613E+02  0.31886035859E+02  0.00000000000E+00 0. -1.
         11    1    3    3    0    0 -0.18686501895E+02 -0.29444533236E+01 -0.15072171877E+02  0.24187300878E+02  0.51100000000E-03 0. -1.
        -11    1    3    3    0    0 -0.67434395574E+01 -0.26414898753E+01 -0.83178975355E+01  0.11029001111E+02  0.51100000000E-03 0.  1.
        -12    1    3    3    0    0  0.14905936543E+02 -0.18245262975E+02  0.50042537990E+01  0.24085662153E+02  0.00000000000E+00 0.  1.
</event>
<event>
 7    1  0.6246445E-012  0.5930195E+02  0.7816164E-02  0.1266605E+00
        -11   -1    0    0    0    0  0.00000000000E+00  0.00000000000E+00  0.45593999997E+02  0.45594000000E+02  0.51100000000E-03 0. -1.
         11   -1    0    0    0    0 -0.00000000000E+00 -0.00000000000E+00 -0.45593999997E+02  0.45594000000E+02  0.51100000000E-03 0.  1.
    9900012    2    1    2    0    0  0.26091540024E+02  0.47636919813E+01 -0.17699130900E+02  0.59301945733E+02  0.50000003110E+02 0.  0.
         12    1    1    2    0    0 -0.26091540024E+02 -0.47636919813E+01  0.17699130900E+02  0.31886054267E+02  0.00000000000E+00 0. -1.
         11    1    3    3    0    0 -0.15592124891E+01  0.55635570728E+01  0.41949580104E+01  0.71401669349E+01  0.51100000000E-03 0. -1.
        -11    1    3    3    0    0  0.28986054558E+02  0.14113133094E+02 -0.16744070164E+02  0.36328167728E+02  0.51100000000E-03 0.  1.
        -12    1    3    3    0    0 -0.13353020443E+01 -0.14912998185E+02 -0.51500187456E+01  0.15833611070E+02  0.00000000000E+00 0.  1.
</event>
<event>
 7    1  0.6246445E-012  0.5930194E+02  0.7816164E-02  0.1266605E+00
        -11   -1    0    0    0    0  0.00000000000E+00  0.00000000000E+00  0.45593999997E+02  0.45594000000E+02  0.51100000000E-03 0.  1.
         11   -1    0    0    0    0 -0.00000000000E+00 -0.00000000000E+00 -0.45593999997E+02  0.45594000000E+02  0.51100000000E-03 0. -1.
    9900012    2    1    2    0    0 -0.24976848528E+02 -0.88979468737E+01  0.17711698614E+02  0.59301942094E+02  0.49999996473E+02 0.  0.
         12    1    1    2    0    0  0.24976848528E+02  0.88979468737E+01 -0.17711698614E+02  0.31886057906E+02  0.00000000000E+00 0. -1.
         11    1    3    3    0    0 -0.12329763008E+02 -0.22338718591E+02  0.27525423965E+01  0.25663551859E+02  0.51100000000E-03 0. -1.
        -11    1    3    3    0    0  0.32580773209E+01 -0.48294086542E+01  0.38948676657E+01  0.70077278894E+01  0.51100000000E-03 0.  1.
        -12    1    3    3    0    0 -0.15905162842E+02  0.18270180371E+02  0.11064288552E+02  0.26630662346E+02  0.00000000000E+00 0.  1.
</event>
<event>
 7    1  0.6246445E-012  0.5930194E+02  0.7816164E-02  0.1266605E+00
        -11   -1    0    0    0    0  0.00000000000E+00  0.00000000000E+00  0.45593999997E+02  0.45594000000E+02  0.51100000000E-03 0.  1.
         11   -1    0    0    0    0 -0.00000000000E+00 -0.00000000000E+00 -0.45593999997E+02  0.45594000000E+02  0.51100000000E-03 0. -1.
    9900012    2    1    2    0    0 -0.19040632516E+02  0.11609254391E+02  0.22790359259E+02  0.59301938010E+02  0.49999989024E+02 0.  0.
         12    1    1    2    0    0  0.19040632516E+02 -0.11609254391E+02 -0.22790359259E+02  0.31886061990E+02  0.00000000000E+00 0. -1.
         11    1    3    3    0    0  0.11668918480E+02  0.36526243567E+01  0.68682691188E+01  0.14024209216E+02  0.51100000000E-03 0. -1.
        -11    1    3    3    0    0  0.53832932888E+01  0.18279680533E+01  0.11502478690E+01  0.58003779410E+01  0.51100000000E-03 0.  1.
        -12    1    3    3    0    0 -0.36092844285E+02  0.61286619810E+01  0.14771842271E+02  0.39477350852E+02  0.00000000000E+00 0.  1.
</event>
<event>
 7    1  0.6246445E-012  0.5930195E+02  0.7816164E-02  0.1266605E+00
        -11   -1    0    0    0    0  0.00000000000E+00  0.00000000000E+00  0.45593999997E+02  0.45594000000E+02  0.51100000000E-03 0.  1.
         11   -1    0    0    0    0 -0.00000000000E+00 -0.00000000000E+00 -0.45593999997E+02  0.45594000000E+02  0.51100000000E-03 0. -1.
    9900012    2    1    2    0    0 -0.12157349205E+02  0.24735917763E+02  0.16032881289E+02  0.59301952115E+02  0.50000014749E+02 0.  0.
         12    1    1    2    0    0  0.12157349205E+02 -0.24735917763E+02 -0.16032881289E+02  0.31886047885E+02  0.00000000000E+00 0. -1.
         11    1    3    3    0    0  0.15675608916E+01  0.55715214682E+01  0.16001292153E+02  0.17015888148E+02  0.51100000000E-03 0. -1.
        -11    1    3    3    0    0 -0.10693658247E+02  0.10110267504E+00  0.14603574172E+02  0.18100522847E+02  0.51100000000E-03 0.  1.
         12    1    3    3    0    0 -0.30312518491E+01  0.19063293620E+02 -0.14571985036E+02  0.24185541121E+02  0.00000000000E+00 0. -1.
</event>
<event>
 7    1  0.6246445E-012  0.5930192E+02  0.7816164E-02  0.1266605E+00
        -11   -1    0    0    0    0  0.00000000000E+00  0.00000000000E+00  0.45593999997E+02  0.45594000000E+02  0.51100000000E-03 0.  1.
         11   -1    0    0    0    0 -0.00000000000E+00 -0.00000000000E+00 -0.45593999997E+02  0.45594000000E+02  0.51100000000E-03 0. -1.
    9900012    2    1    2    0    0  0.12956647626E+02  0.29049437476E+02  0.22310443835E+01  0.59301920053E+02  0.49999956275E+02 0.  0.
         12    1    1    2    0    0 -0.12956647626E+02 -0.29049437476E+02 -0.22310443835E+01  0.31886079947E+02  0.00000000000E+00 0. -1.
         11    1    3    3    0    0 -0.43849912944E+01  0.16847235952E+02 -0.71982308185E+01  0.18838047538E+02  0.51100000000E-03 0. -1.
        -11    1    3    3    0    0 -0.30900477485E+01  0.15017370025E+02  0.12279404834E+02  0.19643156083E+02  0.51100000000E-03 0.  1.
        -12    1    3    3    0    0  0.20431686668E+02 -0.28151685011E+01 -0.28501296315E+01  0.20820716432E+02  0.00000000000E+00 0.  1.
</event>
<event>
 7    1  0.6246445E-012  0.5930194E+02  0.7816164E-02  0.1266605E+00
        -11   -1    0    0    0    0  0.00000000000E+00  0.00000000000E+00  0.45593999997E+02  0.45594000000E+02  0.51100000000E-03 0. -1.
         11   -1    0    0    0    0 -0.00000000000E+00 -0.00000000000E+00 -0.45593999997E+02  0.45594000000E+02  0.51100000000E-03 0.  1.
    9900012    2    1    2    0    0  0.28862639021E+02 -0.71309876250E+00 -0.13533685578E+02  0.59301935858E+02  0.49999985101E+02 0.  0.
         12    1    1    2    0    0 -0.28862639021E+02  0.71309876250E+00  0.13533685578E+02  0.31886064142E+02  0.00000000000E+00 0. -1.
         11    1    3    3    0    0  0.18490504185E+02  0.85622495657E+01 -0.60312565014E+01  0.21250574530E+02  0.51100000000E-03 0. -1.
        -11    1    3    3    0    0  0.20361232386E+02  0.19809157372E+01 -0.10041998791E+02  0.22789154250E+02  0.51100000000E-03 0.  1.
        -12    1    3    3    0    0 -0.99890975493E+01 -0.11256264065E+02  0.25395697145E+01  0.15262207078E+02  0.00000000000E+00 0.  1.
</event>
<event>
 7    1  0.6246445E-012  0.5930195E+02  0.7816164E-02  0.1266605E+00
        -11   -1    0    0    0    0  0.00000000000E+00  0.00000000000E+00  0.45593999997E+02  0.45594000000E+02  0.51100000000E-03 0. -1.
         11   -1    0    0    0    0 -0.00000000000E+00 -0.00000000000E+00 -0.45593999997E+02  0.45594000000E+02  0.51100000000E-03 0.  1.
    9900012    2    1    2    0    0  0.47807442119E+01  0.85017872340E+01 -0.30357603285E+02  0.59301953230E+02  0.50000016783E+02 0.  0.
         12    1    1    2    0    0 -0.47807442119E+01 -0.85017872340E+01  0.30357603285E+02  0.31886046770E+02  0.00000000000E+00 0. -1.
         11    1    3    3    0    0 -0.10671071765E+02  0.59989633582E+01  0.15101558411E+01  0.12334500595E+02  0.51100000000E-03 0. -1.
        -11    1    3    3    0    0  0.79939681572E+01 -0.13769598941E+01  0.47479569329E+01  0.93990765901E+01  0.51100000000E-03 0.  1.
        -12    1    3    3    0    0  0.74578478201E+01  0.38797837699E+01 -0.36615716059E+02  0.37568376046E+02  0.00000000000E+00 0.  1.
</event>
<event>
 7    1  0.6246445E-012  0.5930194E+02  0.7816164E-02  0.1266605E+00
        -11   -1    0    0    0    0  0.00000000000E+00  0.00000000000E+00  0.45593999997E+02  0.45594000000E+02  0.51100000000E-03 0.  1.
         11   -1    0    0    0    0 -0.00000000000E+00 -0.00000000000E+00 -0.45593999997E+02  0.45594000000E+02  0.51100000000E-03 0. -1.
    9900012    2    1    2    0    0 -0.73745312529E+01  0.31006539142E+02 -0.96507768303E+00  0.59301944181E+02  0.50000000280E+02 0.  0.
         12    1    1    2    0    0  0.73745312529E+01 -0.31006539142E+02  0.96507768303E+00  0.31886055819E+02  0.00000000000E+00 0. -1.
         11    1    3    3    0    0  0.15329057941E+02 -0.26758130098E+01 -0.56745018880E+01  0.16563211179E+02  0.51100000000E-03 0. -1.
        -11    1    3    3    0    0 -0.48348731060E+01  0.84612504102E+01 -0.41389355669E+01  0.10587707228E+02  0.51100000000E-03 0.  1.
        -12    1    3    3    0    0 -0.17868716088E+02  0.25221101742E+02  0.88483597719E+01  0.32151025774E+02  0.00000000000E+00 0.  1.
</event>
<event>
 7    1  0.6246445E-012  0.5930193E+02  0.7816164E-02  0.1266605E+00
        -11   -1    0    0    0    0  0.00000000000E+00  0.00000000000E+00  0.45593999997E+02  0.45594000000E+02  0.51100000000E-03 0. -1.
         11   -1    0    0    0    0 -0.00000000000E+00 -0.00000000000E+00 -0.45593999997E+02  0.45594000000E+02  0.51100000000E-03 0.  1.
    9900012    2    1    2    0    0 -0.11984810045E+02 -0.20978690533E+00 -0.29547276106E+02  0.59301933958E+02  0.49999981635E+02 0.  0.
         12    1    1    2    0    0  0.11984810045E+02  0.20978690533E+00  0.29547276106E+02  0.31886066042E+02  0.00000000000E+00 0. -1.
         11    1    3    3    0    0  0.32167157040E+01  0.20377272682E+02 -0.84276245534E+01  0.22284643990E+02  0.51100000000E-03 0. -1.
        -11    1    3    3    0    0 -0.22045046423E+01 -0.37876979925E+01 -0.13914579636E+02  0.14588420871E+02  0.51100000000E-03 0.  1.
        -12    1    3    3    0    0 -0.12997021107E+02 -0.16799361595E+02 -0.72050719164E+01  0.22428869097E+02  0.00000000000E+00 0.  1.
</event>
<event>
 7    1  0.6246445E-012  0.5930197E+02  0.7816164E-02  0.1266605E+00
        -11   -1    0    0    0    0  0.00000000000E+00  0.00000000000E+00  0.45593999997E+02  0.45594000000E+02  0.51100000000E-03 0. -1.
         11   -1    0    0    0    0 -0.00000000000E+00 -0.00000000000E+00 -0.45593999997E+02  0.45594000000E+02  0.51100000000E-03 0.  1.
    9900012    2    1    2    0    0 -0.25893906464E+02  0.36922358556E+01 -0.18237103277E+02  0.59301969618E+02  0.50000046671E+02 0.  0.
         12    1    1    2    0    0  0.25893906464E+02 -0.36922358556E+01  0.18237103277E+02  0.31886030382E+02  0.00000000000E+00 0. -1.
         11    1    3    3    0    0 -0.55607243738E+01  0.20899077788E+02 -0.15104653046E+02  0.26378848570E+02  0.51100000000E-03 0. -1.
        -11    1    3    3    0    0  0.23453063681E+01 -0.84887361112E+00  0.33913270318E+01  0.42097681250E+01  0.51100000000E-03 0.  1.
        -12    1    3    3    0    0 -0.22678488458E+02 -0.16357968321E+02 -0.65237772627E+01  0.28713352924E+02  0.00000000000E+00 0.  1.
</event>
<event>
 7    1  0.6246445E-012  0.5930196E+02  0.7816164E-02  0.1266605E+00
        -11   -1    0    0    0    0  0.00000000000E+00  0.00000000000E+00  0.45593999997E+02  0.45594000000E+02  0.51100000000E-03 0.  1.
         11   -1    0    0    0    0 -0.00000000000E+00 -0.00000000000E+00 -0.45593999997E+02  0.45594000000E+02  0.51100000000E-03 0. -1.
    9900012    2    1    2    0    0  0.24592439056E+02  0.14563366537E+02  0.14136481679E+02  0.59301955751E+02  0.50000021380E+02 0.  0.
         12    1    1    2    0    0 -0.24592439056E+02 -0.14563366537E+02 -0.14136481679E+02  0.31886044249E+02  0.00000000000E+00 0. -1.
         11    1    3    3    0    0 -0.14180685101E+01 -0.51180307402E+01 -0.80388509073E+01  0.96347434386E+01  0.51100000000E-03 0. -1.
        -11    1    3    3    0    0  0.29330069171E+02  0.12869968437E+02  0.71181295841E+01  0.32810925226E+02  0.51100000000E-03 0.  1.
         12    1    3    3    0    0 -0.33195616043E+01  0.68114288398E+01  0.15057203002E+02  0.16856287086E+02  0.00000000000E+00 0. -1.
</event>
<event>
 7    1  0.6246445E-012  0.5930189E+02  0.7816164E-02  0.1266605E+00
        -11   -1    0    0    0    0  0.00000000000E+00  0.00000000000E+00  0.45593999997E+02  0.45594000000E+02  0.51100000000E-03 0. -1.
         11   -1    0    0    0    0 -0.00000000000E+00 -0.00000000000E+00 -0.45593999997E+02  0.45594000000E+02  0.51100000000E-03 0.  1.
    9900012    2    1    2    0    0  0.19954576193E+02 -0.21760646992E+02  0.12042134456E+02  0.59301892197E+02  0.49999905473E+02 0.  0.
         12    1    1    2    0    0 -0.19954576193E+02  0.21760646992E+02 -0.12042134456E+02  0.31886107803E+02  0.00000000000E+00 0. -1.
         11    1    3    3    0    0  0.20504152052E+01 -0.55003065804E+00  0.13127253748E+02  0.13297801603E+02  0.51100000000E-03 0. -1.
        -11    1    3    3    0    0  0.13613672783E+02 -0.20631910270E+02  0.15290687386E+02  0.29065665811E+02  0.51100000000E-03 0.  1.
         12    1    3    3    0    0  0.42904882047E+01 -0.57870606384E+00 -0.16375806678E+02  0.16938424782E+02  0.00000000000E+00 0. -1.
</event>
<event>
 7    1  0.6246445E-012  0.5930200E+02  0.7816164E-02  0.1266605E+00
        -11   -1    0    0    0    0  0.00000000000E+00  0.00000000000E+00  0.45593999997E+02  0.45594000000E+02  0.51100000000E-03 0.  1.
         11   -1    0    0    0    0 -0.00000000000E+00 -0.00000000000E+00 -0.45593999997E+02  0.45594000000E+02  0.51100000000E-03 0. -1.
    9900012    2    1    2    0    0  0.10051290037E+02 -0.45478235646E+01  0.29916647216E+02  0.59302001330E+02  0.50000104505E+02 0.  0.
         12    1    1    2    0    0 -0.10051290037E+02  0.45478235646E+01 -0.29916647216E+02  0.31885998670E+02  0.00000000000E+00 0. -1.
         11    1    3    3    0    0 -0.15079885795E+01  0.89185676016E+01 -0.50636156576E+01  0.10366054284E+02  0.51100000000E-03 0. -1.
        -11    1    3    3    0    0 -0.44426854466E+01  0.43248216554E+01 -0.41173412749E+00  0.62137799753E+01  0.51100000000E-03 0.  1.
        -12    1    3    3    0    0  0.16001964063E+02 -0.17791212822E+02  0.35391997001E+02  0.42722167071E+02  0.00000000000E+00 0.  1.
</event>
<event>
 7    1  0.6246445E-012  0.5930196E+02  0.7816164E-02  0.1266605E+00
        -11   -1    0    0    0    0  0.00000000000E+00  0.00000000000E+00  0.45593999997E+02  0.45594000000E+02  0.51100000000E-03 0.  1.
         11   -1    0    0    0    0 -0.00000000000E+00 -0.00000000000E+00 -0.45593999997E+02  0.45594000000E+02  0.51100000000E-03 0. -1.
    9900012    2    1    2    0    0  0.11557049303E+02  0.26054881370E+02 -0.14293271526E+02  0.59301955361E+02  0.50000020669E+02 0.  0.
         12    1    1    2    0    0 -0.11557049303E+02 -0.26054881370E+02  0.14293271526E+02  0.31886044639E+02  0.00000000000E+00 0. -1.
         11    1    3    3    0    0 -0.74526520426E+01 -0.21682671838E+01 -0.10730073893E+02  0.13243031792E+02  0.51100000000E-03 0. -1.
        -11    1    3    3    0    0 -0.73382496651E+01  0.39931467574E+01  0.43208927909E+01  0.94055964162E+01  0.51100000000E-03 0.  1.
         12    1    3    3    0    0  0.26347951011E+02  0.24230001796E+02 -0.78840904245E+01  0.36653327152E+02  0.00000000000E+00 0. -1.
</event>
<event>
 7    1  0.6246445E-012  0.5930193E+02  0.7816164E-02  0.1266605E+00
        -11   -1    0    0    0    0  0.00000000000E+00  0.00000000000E+00  0.45593999997E+02  0.45594000000E+02  0.51100000000E-03 0. -1.
         11   -1    0    0    0    0 -0.00000000000E+00 -0.00000000000E+00 -0.45593999997E+02  0.45594000000E+02  0.51100000000E-03 0.  1.
    9900012    2    1    2    0    0 -0.25158850724E+02 -0.17991225641E+02  0.77504343260E+01  0.59301934045E+02  0.49999981795E+02 0.  0.
         12    1    1    2    0    0  0.25158850724E+02  0.17991225641E+02 -0.77504343260E+01  0.31886065955E+02  0.00000000000E+00 0. -1.
         11    1    3    3    0    0  0.12367288369E+02 -0.48158431009E+01  0.24826735423E+01  0.13502067788E+02  0.51100000000E-03 0. -1.
        -11    1    3    3    0    0  0.17802885102E+01  0.82687245043E+00 -0.26817242146E+01  0.33233703154E+01  0.51100000000E-03 0.  1.
        -12    1    3    3    0    0 -0.39306427603E+02 -0.14002254991E+02  0.79494849983E+01  0.42476495942E+02  0.00000000000E+00 0.  1.
</event>
<event>
 7    1  0.6246445E-012  0.5930193E+02  0.7816164E-02  0.1266605E+00
        -11   -1    0    0    0    0  0.00000000000E+00  0.00000000000E+00  0.45593999997E+02  0.45594000000E+02  0.51100000000E-03 0.  1.
         11   -1    0    0    0    0 -0.00000000000E+00 -0.00000000000E+00 -0.45593999997E+02  0.45594000000E+02  0.51100000000E-03 0. -1.
    9900012    2    1    2    0    0 -0.65046261534E+01 -0.43356178553E+01  0.30912999357E+02  0.59301932935E+02  0.49999979770E+02 0.  0.
         12    1    1    2    0    0  0.65046261534E+01  0.43356178553E+01 -0.30912999357E+02  0.31886067065E+02  0.00000000000E+00 0. -1.
         11    1    3    3    0    0 -0.62562905087E+01 -0.13431001308E+02  0.96875254149E+01  0.17702573711E+02  0.51100000000E-03 0. -1.
        -11    1    3    3    0    0 -0.13133459534E+02  0.23401836790E+01  0.23354357191E+02  0.26895914542E+02  0.51100000000E-03 0.  1.
         12    1    3    3    0    0  0.12885123889E+02  0.67551997738E+01 -0.21288832491E+01  0.14703444682E+02  0.00000000000E+00 0. -1.
</event>
<event>
 7    1  0.6246445E-012  0.5930195E+02  0.7816164E-02  0.1266605E+00
        -11   -1    0    0    0    0  0.00000000000E+00  0.00000000000E+00  0.45593999997E+02  0.45594000000E+02  0.51100000000E-03 0.  1.
         11   -1    0    0    0    0 -0.00000000000E+00 -0.00000000000E+00 -0.45593999997E+02  0.45594000000E+02  0.51100000000E-03 0. -1.
    9900012    2    1    2    0    0  0.18860532782E+02 -0.16006217343E+01  0.25660051276E+02  0.59301954177E+02  0.50000018510E+02 0.  0.
         12    1    1    2    0    0 -0.18860532782E+02  0.16006217343E+01 -0.25660051276E+02  0.31886045823E+02  0.00000000000E+00 0. -1.
         11    1    3    3    0    0 -0.24834895815E+00 -0.52841267103E+01 -0.83330838308E+01  0.98703575765E+01  0.51100000000E-03 0. -1.
        -11    1    3    3    0    0 -0.52705067903E+01  0.63077257803E+01  0.18972049714E+02  0.20676177523E+02  0.51100000000E-03 0.  1.
         12    1    3    3    0    0  0.24379388530E+02 -0.26242208043E+01  0.15021085393E+02  0.28755419077E+02  0.00000000000E+00 0. -1.
</event>
<event>
 7    1  0.6246445E-012  0.5930195E+02  0.7816164E-02  0.1266605E+00
        -11   -1    0    0    0    0  0.00000000000E+00  0.00000000000E+00  0.45593999997E+02  0.45594000000E+02  0.51100000000E-03 0. -1.
         11   -1    0    0    0    0 -0.00000000000E+00 -0.00000000000E+00 -0.45593999997E+02  0.45594000000E+02  0.51100000000E-03 0.  1.
    9900012    2    1    2    0    0 -0.24488671397E+02 -0.69289775745E+01 -0.19209754864E+02  0.59301946011E+02  0.50000003618E+02 0.  0.
         12    1    1    2    0    0  0.24488671397E+02  0.69289775745E+01  0.19209754864E+02  0.31886053989E+02  0.00000000000E+00 0. -1.
         11    1    3    3    0    0  0.48762142279E+01 -0.70892727314E+01 -0.14991308907E+00  0.86056799413E+01  0.51100000000E-03 0. -1.
        -11    1    3    3    0    0  0.13784215644E+01  0.13279305957E+02 -0.33579005263E+01  0.13766463196E+02  0.51100000000E-03 0.  1.
        -12    1    3    3    0    0 -0.30743307190E+02 -0.13119010801E+02 -0.15701941249E+02  0.36929802874E+02  0.00000000000E+00 0.  1.
</event>
<event>
 7    1  0.6246445E-012  0.5930190E+02  0.7816164E-02  0.1266605E+00
        -11   -1    0    0    0    0  0.00000000000E+00  0.00000000000E+00  0.45593999997E+02  0.45594000000E+02  0.51100000000E-03 0.  1.
         11   -1    0    0    0    0 -0.00000000000E+00 -0.00000000000E+00 -0.45593999997E+02  0.45594000000E+02  0.51100000000E-03 0. -1.
    9900012    2    1    2    0    0  0.92572585088E+01  0.21785522302E+02  0.21363929173E+02  0.59301901355E+02  0.49999922176E+02 0.  0.
         12    1    1    2    0    0 -0.92572585088E+01 -0.21785522302E+02 -0.21363929173E+02  0.31886098645E+02  0.00000000000E+00 0. -1.
         11    1    3    3    0    0 -0.23082118929E+00  0.70746325675E+01  0.33361862566E+01  0.78252056449E+01  0.51100000000E-03 0. -1.
        -11    1    3    3    0    0  0.80433474077E+01  0.28244086160E+02  0.22667257735E+02  0.37097552668E+02  0.51100000000E-03 0.  1.
         12    1    3    3    0    0  0.14447322904E+01 -0.13533196425E+02 -0.46395148177E+01  0.14379143042E+02  0.00000000000E+00 0. -1.
</event>
<event>
 7    1  0.6246445E-012  0.5930193E+02  0.7816164E-02  0.1266605E+00
        -11   -1    0    0    0    0  0.00000000000E+00  0.00000000000E+00  0.45593999997E+02  0.45594000000E+02  0.51100000000E-03 0.  1.
         11   -1    0    0    0    0 -0.00000000000E+00 -0.00000000000E+00 -0.45593999997E+02  0.45594000000E+02  0.51100000000E-03 0. -1.
    9900012    2    1    2    0    0 -0.30824027966E+02 -0.53329314393E+01  0.61774425695E+01  0.59301926951E+02  0.49999968857E+02 0.  0.
         12    1    1    2    0    0  0.30824027966E+02  0.53329314393E+01 -0.61774425695E+01  0.31886073049E+02  0.00000000000E+00 0. -1.
         11    1    3    3    0    0 -0.34702168983E+01 -0.15122765065E+02 -0.59300290328E+01  0.16610408578E+02  0.51100000000E-03 0. -1.
        -11    1    3    3    0    0 -0.27388051382E+02 -0.30412898488E+01  0.11458962398E+02  0.29843971284E+02  0.51100000000E-03 0.  1.
         12    1    3    3    0    0  0.34240314836E-01  0.12831123475E+02  0.64850920407E+00  0.12847547089E+02  0.00000000000E+00 0. -1.
</event>
<event>
 7    1  0.6246445E-012  0.5930196E+02  0.7816164E-02  0.1266605E+00
        -11   -1    0    0    0    0  0.00000000000E+00  0.00000000000E+00  0.45593999997E+02  0.45594000000E+02  0.51100000000E-03 0. -1.
         11   -1    0    0    0    0 -0.00000000000E+00 -0.00000000000E+00 -0.45593999997E+02  0.45594000000E+02  0.51100000000E-03 0.  1.
    9900012    2    1    2    0    0 -0.12615524459E+02 -0.28885478619E+02 -0.48163177292E+01  0.59301964673E+02  0.50000037652E+02 0.  0.
         12    1    1    2    0    0  0.12615524459E+02  0.28885478619E+02  0.48163177292E+01  0.31886035327E+02  0.00000000000E+00 0. -1.
         11    1    3    3    0    0  0.75037936434E+01 -0.21059594227E+02  0.65008462506E+01  0.23282491926E+02  0.51100000000E-03 0. -1.
        -11    1    3    3    0    0 -0.44678755461E+01  0.93604081141E+01 -0.66196787510E+01  0.12304442246E+02  0.51100000000E-03 0.  1.
        -12    1    3    3    0    0 -0.15651442557E+02 -0.17186292505E+02 -0.46974852288E+01  0.23715030501E+02  0.00000000000E+00 0.  1.
</event>
<event>
 7    1  0.6246445E-012  0.5930195E+02  0.7816164E-02  0.1266605E+00
        -11   -1    0    0    0    0  0.00000000000E+00  0.00000000000E+00  0.45593999997E+02  0.45594000000E+02  0.51100000000E-03 0.  1.
         11   -1    0    0    0    0 -0.00000000000E+00 -0.00000000000E+00 -0.45593999997E+02  0.45594000000E+02  0.51100000000E-03 0. -1.
    9900012    2    1    2    0    0 -0.10430459643E+02  0.39292394687E+01  0.29874519391E+02  0.59301947877E+02  0.50000007019E+02 0.  0.
         12    1    1    2    0    0  0.10430459643E+02 -0.39292394687E+01 -0.29874519391E+02  0.31886052123E+02  0.00000000000E+00 0. -1.
         11    1    3    3    0    0  0.96680446648E+00 -0.35564939370E+01  0.50328400027E+01  0.62380156103E+01  0.51100000000E-03 0. -1.
        -11    1    3    3    0    0  0.38863795108E+01 -0.17110539348E+02  0.12716491437E+02  0.21669879031E+02  0.51100000000E-03 0.  1.
         12    1    3    3    0    0 -0.15283643621E+02  0.24596272754E+02  0.12125187951E+02  0.31394053235E+02  0.00000000000E+00 0. -1.
</event>
<event>
 7    1  0.6246445E-012  0.5930196E+02  0.7816164E-02  0.1266605E+00
        -11   -1    0    0    0    0  0.00000000000E+00  0.00000000000E+00  0.45593999997E+02  0.45594000000E+02  0.51100000000E-03 0.  1.
         11   -1    0    0    0    0 -0.00000000000E+00 -0.00000000000E+00 -0.45593999997E+02  0.45594000000E+02  0.51100000000E-03 0. -1.
    9900012    2    1    2    0    0  0.18450435862E+02 -0.26005466170E+02  0.12942871921E+00  0.59301959073E+02  0.50000027439E+02 0.  0.
         12    1    1    2    0    0 -0.18450435862E+02  0.26005466170E+02 -0.12942871921E+00  0.31886040927E+02  0.00000000000E+00 0. -1.
         11    1    3    3    0    0  0.15348147953E-01 -0.10643750980E+01  0.31786583890E+00  0.11109315314E+01  0.51100000000E-03 0. -1.
        -11    1    3    3    0    0 -0.61681084361E+01 -0.77602919582E+01  0.19794573965E+02  0.22138040827E+02  0.51100000000E-03 0.  1.
         12    1    3    3    0    0  0.24603196150E+02 -0.17180799114E+02 -0.19983011085E+02  0.36052986714E+02  0.00000000000E+00 0. -1.
</event>
<event>
 7    1  0.6246445E-012  0.5930196E+02  0.7816164E-02  0.1266605E+00
        -11   -1    0    0    0    0  0.00000000000E+00  0.00000000000E+00  0.45593999997E+02  0.45594000000E+02  0.51100000000E-03 0. -1.
         11   -1    0    0    0    0 -0.00000000000E+00 -0.00000000000E+00 -0.45593999997E+02  0.45594000000E+02  0.51100000000E-03 0.  1.
    9900012    2    1    2    0    0 -0.15889760836E+02 -0.55837836377E+01 -0.27075014699E+02  0.59301959793E+02  0.50000028752E+02 0.  0.
         12    1    1    2    0    0  0.15889760836E+02  0.55837836377E+01  0.27075014699E+02  0.31886040207E+02  0.00000000000E+00 0. -1.
         11    1    3    3    0    0 -0.52633612750E+01  0.36681505314E+01  0.42201376530E+01  0.76790534770E+01  0.51100000000E-03 0. -1.
        -11    1    3    3    0    0 -0.13333551636E+02 -0.25614975733E+01  0.51115636196E+01  0.14507685961E+02  0.51100000000E-03 0.  1.
        -12    1    3    3    0    0  0.27071520747E+01 -0.66904365958E+01 -0.36406715971E+02  0.37115220355E+02  0.00000000000E+00 0.  1.
</event>
<event>
 7    1  0.6246445E-012  0.5930194E+02  0.7816164E-02  0.1266605E+00
        -11   -1    0    0    0    0  0.00000000000E+00  0.00000000000E+00  0.45593999997E+02  0.45594000000E+02  0.51100000000E-03 0.  1.
         11   -1    0    0    0    0 -0.00000000000E+00 -0.00000000000E+00 -0.45593999997E+02  0.45594000000E+02  0.51100000000E-03 0. -1.
    9900012    2    1    2    0    0 -0.19814115989E+02  0.10909670568E+02  0.22474451236E+02  0.59301936231E+02  0.49999985781E+02 0.  0.
         12    1    1    2    0    0  0.19814115989E+02 -0.10909670568E+02 -0.22474451236E+02  0.31886063769E+02  0.00000000000E+00 0. -1.
         11    1    3    3    0    0 -0.22075582598E+01 -0.72433436949E+01  0.27555590073E+02  0.28577086728E+02  0.51100000000E-03 0. -1.
        -11    1    3    3    0    0  0.17299885027E+01 -0.84792793057E-02  0.25856730945E+01  0.31110509045E+01  0.51100000000E-03 0.  1.
         12    1    3    3    0    0 -0.19336546232E+02  0.18161493542E+02 -0.76668119314E+01  0.27613798599E+02  0.00000000000E+00 0. -1.
</event>
<event>
 7    1  0.6246445E-012  0.5930187E+02  0.7816164E-02  0.1266605E+00
        -11   -1    0    0    0    0  0.00000000000E+00  0.00000000000E+00  0.45593999997E+02  0.45594000000E+02  0.51100000000E-03 0. -1.
         11   -1    0    0    0    0 -0.00000000000E+00 -0.00000000000E+00 -0.45593999997E+02  0.45594000000E+02  0.51100000000E-03 0.  1.
    9900012    2    1    2    0    0 -0.20485044574E+00 -0.25758566578E+02 -0.18793067250E+02  0.59301873040E+02  0.49999870535E+02 0.  0.
         12    1    1    2    0    0  0.20485044574E+00  0.25758566578E+02  0.18793067250E+02  0.31886126960E+02  0.00000000000E+00 0. -1.
         11    1    3    3    0    0 -0.19281364237E+01 -0.11663987265E+01 -0.67957047132E+00  0.23537230815E+01  0.51100000000E-03 0. -1.
        -11    1    3    3    0    0 -0.22854759571E+02 -0.15483034533E+02 -0.11569251155E+02  0.29931788553E+02  0.51100000000E-03 0.  1.
        -12    1    3    3    0    0  0.24578045549E+02 -0.91091333185E+01 -0.65442456231E+01  0.27016361406E+02  0.00000000000E+00 0.  1.
</event>
<event>
 7    1  0.6246445E-012  0.5930193E+02  0.7816164E-02  0.1266605E+00
        -11   -1    0    0    0    0  0.00000000000E+00  0.00000000000E+00  0.45593999997E+02  0.45594000000E+02  0.51100000000E-03 0.  1.
         11   -1    0    0    0    0 -0.00000000000E+00 -0.00000000000E+00 -0.45593999997E+02  0.45594000000E+02  0.51100000000E-03 0. -1.
    9900012    2    1    2    0    0 -0.16106539212E+02  0.19501181309E+02  0.19416607556E+02  0.59301932089E+02  0.49999978227E+02 0.  0.
         12    1    1    2    0    0  0.16106539212E+02 -0.19501181309E+02 -0.19416607556E+02  0.31886067911E+02  0.00000000000E+00 0. -1.
         11    1    3    3    0    0 -0.22771223323E+02  0.21070996191E+02  0.32753987343E+01  0.31196854477E+02  0.51100000000E-03 0. -1.
        -11    1    3    3    0    0 -0.77812422368E+01 -0.82187622372E+00  0.91487274241E+01  0.12038373022E+02  0.51100000000E-03 0.  1.
         12    1    3    3    0    0  0.14445926348E+02 -0.74793865861E+00  0.69924813972E+01  0.16066704590E+02  0.00000000000E+00 0. -1.
</event>
<event>
 7    1  0.6246445E-012  0.5930213E+02  0.7816164E-02  0.1266604E+00
        -11   -1    0    0    0    0  0.00000000000E+00  0.00000000000E+00  0.45593999997E+02  0.45594000000E+02  0.51100000000E-03 0. -1.
         11   -1    0    0    0    0 -0.00000000000E+00 -0.00000000000E+00 -0.45593999997E+02  0.45594000000E+02  0.51100000000E-03 0.  1.
    9900012    2    1    2    0    0 -0.30436618359E+02  0.94905258317E+01 -0.50108241823E+00  0.59302126933E+02  0.50000333574E+02 0.  0.
         12    1    1    2    0    0  0.30436618359E+02 -0.94905258317E+01  0.50108241823E+00  0.31885873067E+02  0.00000000000E+00 0. -1.
         11    1    3    3    0    0 -0.33109039364E+01  0.10626322436E+01  0.83266214426E+01  0.90235191068E+01  0.51100000000E-03 0. -1.
        -11    1    3    3    0    0 -0.20182934918E+02  0.24481056997E+02 -0.31222393790E+01  0.31881364347E+02  0.51100000000E-03 0.  1.
        -12    1    3    3    0    0 -0.69427795042E+01 -0.16053163409E+02 -0.57054644819E+01  0.18397243479E+02  0.00000000000E+00 0.  1.
</event>
<event>
 7    1  0.7849795E-012  0.5930194E+02  0.7816164E-02  0.1266605E+00
        -11   -1    0    0    0    0  0.00000000000E+00  0.00000000000E+00  0.45593999997E+02  0.45594000000E+02  0.51100000000E-03 0. -1.
         11   -1    0    0    0    0 -0.00000000000E+00 -0.00000000000E+00 -0.45593999997E+02  0.45594000000E+02  0.51100000000E-03 0.  1.
    9900012    2    1    2    0    0  0.23966220484E+02  0.21330924015E+01 -0.20923461570E+02  0.59301936405E+02  0.49999986098E+02 0.  0.
         12    1    1    2    0    0 -0.23966220484E+02 -0.21330924015E+01  0.20923461570E+02  0.31886063595E+02  0.00000000000E+00 0. -1.
         11    1    3    3    0    0  0.10794542828E+02  0.36927378164E+01  0.33669268119E+01  0.11895152956E+02  0.51100000000E-03 0. -1.
        -11    1    3    3    0    0  0.22950602335E+02 -0.17135171729E+00 -0.28566155680E+02  0.36644027610E+02  0.51100000000E-03 0.  1.
         12    1    3    3    0    0 -0.97789246780E+01 -0.13882936977E+01  0.42757672975E+01  0.10762755838E+02  0.00000000000E+00 0. -1.
</event>
<event>
 7    1  0.6246445E-012  0.5930196E+02  0.7816164E-02  0.1266605E+00
        -11   -1    0    0    0    0  0.00000000000E+00  0.00000000000E+00  0.45593999997E+02  0.45594000000E+02  0.51100000000E-03 0. -1.
         11   -1    0    0    0    0 -0.00000000000E+00 -0.00000000000E+00 -0.45593999997E+02  0.45594000000E+02  0.51100000000E-03 0.  1.
    9900012    2    1    2    0    0 -0.30464705677E+02 -0.76926865060E+01  0.54262311435E+01  0.59301957566E+02  0.50000024691E+02 0.  0.
         12    1    1    2    0    0  0.30464705677E+02  0.76926865060E+01 -0.54262311435E+01  0.31886042434E+02  0.00000000000E+00 0. -1.
         11    1    3    3    0    0  0.13548683740E+01  0.33624018083E+01  0.20589684359E+01  0.41690245277E+01  0.51100000000E-03 0. -1.
        -11    1    3    3    0    0 -0.35824231918E+02 -0.11418031608E+01 -0.10753834004E+02  0.37420906630E+02  0.51100000000E-03 0.  1.
         12    1    3    3    0    0  0.40046578668E+01 -0.99132851535E+01  0.14121096712E+02  0.17712026409E+02  0.00000000000E+00 0. -1.
</event>
<event>
 7    1  0.6246445E-012  0.5930195E+02  0.7816164E-02  0.1266605E+00
        -11   -1    0    0    0    0  0.00000000000E+00  0.00000000000E+00  0.45593999997E+02  0.45594000000E+02  0.51100000000E-03 0.  1.
         11   -1    0    0    0    0 -0.00000000000E+00 -0.00000000000E+00 -0.45593999997E+02  0.45594000000E+02  0.51100000000E-03 0. -1.
    9900012    2    1    2    0    0 -0.15690577393E+02  0.27115832266E+02 -0.59378318545E+01  0.59301946222E+02  0.50000004002E+02 0.  0.
         12    1    1    2    0    0  0.15690577393E+02 -0.27115832266E+02  0.59378318545E+01  0.31886053778E+02  0.00000000000E+00 0. -1.
         11    1    3    3    0    0 -0.11839948155E+02  0.29933123126E+01 -0.90703875742E+01  0.15212370687E+02  0.51100000000E-03 0. -1.
        -11    1    3    3    0    0 -0.12953818028E+02  0.29867294482E+02 -0.97019850887E+00  0.32569893561E+02  0.51100000000E-03 0.  1.
         12    1    3    3    0    0  0.91031887894E+01 -0.57447745287E+01  0.41027542286E+01  0.11519681974E+02  0.00000000000E+00 0. -1.
</event>
<event>
 7    1  0.6246445E-012  0.5930192E+02  0.7816164E-02  0.1266605E+00
        -11   -1    0    0    0    0  0.00000000000E+00  0.00000000000E+00  0.45593999997E+02  0.45594000000E+02  0.51100000000E-03 0.  1.
         11   -1    0    0    0    0 -0.00000000000E+00 -0.00000000000E+00 -0.45593999997E+02  0.45594000000E+02  0.51100000000E-03 0. -1.
    9900012    2    1    2    0    0  0.15758792935E+02 -0.25229240756E+02  0.11483365198E+02  0.59301924354E+02  0.49999964119E+02 0.  0.
         12    1    1    2    0    0 -0.15758792935E+02  0.25229240756E+02 -0.11483365198E+02  0.31886075646E+02  0.00000000000E+00 0. -1.
         11    1    3    3    0    0  0.71221706742E+01 -0.98555451904E+01  0.18629071903E+02  0.22246334672E+02  0.51100000000E-03 0. -1.
        -11    1    3    3    0    0 -0.68936503982E+01 -0.14985684179E+02  0.51094999987E+01  0.17268472330E+02  0.51100000000E-03 0.  1.
         12    1    3    3    0    0  0.15530272659E+02 -0.38801138613E+00 -0.12255206704E+02  0.19787117351E+02  0.00000000000E+00 0. -1.
</event>
<event>
 7    1  0.6246445E-012  0.5930194E+02  0.7816164E-02  0.1266605E+00
        -11   -1    0    0    0    0  0.00000000000E+00  0.00000000000E+00  0.45593999997E+02  0.45594000000E+02  0.51100000000E-03 0. -1.
         11   -1    0    0    0    0 -0.00000000000E+00 -0.00000000000E+00 -0.45593999997E+02  0.45594000000E+02  0.51100000000E-03 0.  1.
    9900012    2    1    2    0    0  0.14593153676E+02  0.27403276307E+02 -0.72678309555E+01  0.59301936377E+02  0.49999986046E+02 0.  0.
         12    1    1    2    0    0 -0.14593153676E+02 -0.27403276307E+02  0.72678309555E+01  0.31886063623E+02  0.00000000000E+00 0. -1.
         11    1    3    3    0    0  0.30579406662E+01 -0.18498157240E+01 -0.95475873516E+00  0.36992409808E+01  0.51100000000E-03 0. -1.
        -11    1    3    3    0    0  0.18164333691E+02  0.75031320523E+01 -0.20820525924E+02  0.28631002585E+02  0.51100000000E-03 0.  1.
         12    1    3    3    0    0 -0.66291206807E+01  0.21749959979E+02  0.14507453704E+02  0.26971692810E+02  0.00000000000E+00 0. -1.
</event>
<event>
 7    1  0.6246445E-012  0.5930196E+02  0.7816164E-02  0.1266605E+00
        -11   -1    0    0    0    0  0.00000000000E+00  0.00000000000E+00  0.45593999997E+02  0.45594000000E+02  0.51100000000E-03 0. -1.
         11   -1    0    0    0    0 -0.00000000000E+00 -0.00000000000E+00 -0.45593999997E+02  0.45594000000E+02  0.51100000000E-03 0.  1.
    9900012    2    1    2    0    0  0.20184008072E+02 -0.18182446997E+02  0.16695024033E+02  0.59301962489E+02  0.50000033669E+02 0.  0.
         12    1    1    2    0    0 -0.20184008072E+02  0.18182446997E+02 -0.16695024033E+02  0.31886037511E+02  0.00000000000E+00 0. -1.
         11    1    3    3    0    0 -0.37310363009E+01 -0.12792639206E+02  0.99560779439E+00  0.13362764866E+02  0.51100000000E-03 0. -1.
        -11    1    3    3    0    0 -0.48536983779E+01 -0.10144493492E+02 -0.25618306906E+01  0.11533954781E+02  0.51100000000E-03 0.  1.
        -12    1    3    3    0    0  0.28768742751E+02  0.47546857004E+01  0.18261246930E+02  0.34405242842E+02  0.00000000000E+00 0.  1.
</event>
<event>
 7    1  0.6246445E-012  0.5930195E+02  0.7816164E-02  0.1266605E+00
        -11   -1    0    0    0    0  0.00000000000E+00  0.00000000000E+00  0.45593999997E+02  0.45594000000E+02  0.51100000000E-03 0.  1.
         11   -1    0    0    0    0 -0.00000000000E+00 -0.00000000000E+00 -0.45593999997E+02  0.45594000000E+02  0.51100000000E-03 0. -1.
    9900012    2    1    2    0    0  0.44801387565E+01 -0.72228691374E+01  0.30732369335E+02  0.59301952788E+02  0.50000015977E+02 0.  0.
         12    1    1    2    0    0 -0.44801387565E+01  0.72228691374E+01 -0.30732369335E+02  0.31886047212E+02  0.00000000000E+00 0. -1.
         11    1    3    3    0    0  0.20761209495E+01 -0.25572503764E+01 -0.42371738638E+01  0.53668845989E+01  0.51100000000E-03 0. -1.
        -11    1    3    3    0    0  0.20409027853E+02  0.36128916047E+01  0.22140347266E+02  0.30327815302E+02  0.51100000000E-03 0.  1.
        -12    1    3    3    0    0 -0.18005010046E+02 -0.82785103657E+01  0.12829195932E+02  0.23607252887E+02  0.00000000000E+00 0.  1.
</event>
<event>
 7    1  0.6246445E-012  0.5930225E+02  0.7816164E-02  0.1266604E+00
        -11   -1    0    0    0    0  0.00000000000E+00  0.00000000000E+00  0.45593999997E+02  0.45594000000E+02  0.51100000000E-03 0.  1.
         11   -1    0    0    0    0 -0.00000000000E+00 -0.00000000000E+00 -0.45593999997E+02  0.45594000000E+02  0.51100000000E-03 0. -1.
    9900012    2    1    2    0    0  0.17628949255E+02 -0.14367374876E+01  0.26530307627E+02  0.59302246296E+02  0.50000551262E+02 0.  0.
         12    1    1    2    0    0 -0.17628949255E+02  0.14367374876E+01 -0.26530307627E+02  0.31885753704E+02  0.00000000000E+00 0. -1.
         11    1    3    3    0    0 -0.40198760239E+00 -0.18168768554E+01 -0.87767542170E+00  0.20574134118E+01  0.51100000000E-03 0. -1.
        -11    1    3    3    0    0 -0.67577185171E+01  0.14520202307E+02 -0.21488768703E+01  0.16159229767E+02  0.51100000000E-03 0.  1.
         12    1    3    3    0    0  0.24788655375E+02 -0.14140062939E+02  0.29556859919E+02  0.41085603117E+02  0.00000000000E+00 0. -1.
</event>
<event>
 7    1  0.6246445E-012  0.5930194E+02  0.7816164E-02  0.1266605E+00
        -11   -1    0    0    0    0  0.00000000000E+00  0.00000000000E+00  0.45593999997E+02  0.45594000000E+02  0.51100000000E-03 0.  1.
         11   -1    0    0    0    0 -0.00000000000E+00 -0.00000000000E+00 -0.45593999997E+02  0.45594000000E+02  0.51100000000E-03 0. -1.
    9900012    2    1    2    0    0  0.26921522350E+02  0.10425661456E+02  0.13537279540E+02  0.59301941608E+02  0.49999995587E+02 0.  0.
         12    1    1    2    0    0 -0.26921522350E+02 -0.10425661456E+02 -0.13537279540E+02  0.31886058392E+02  0.00000000000E+00 0. -1.
         11    1    3    3    0    0 -0.25905277139E+01  0.90160732383E+01  0.20364750667E+01  0.95993563031E+01  0.51100000000E-03 0. -1.
        -11    1    3    3    0    0 -0.52383176920E+01  0.92607174974E+01  0.90916992634E+01  0.13994993982E+02  0.51100000000E-03 0.  1.
        -12    1    3    3    0    0  0.34750367756E+02 -0.78511292798E+01  0.24091052096E+01  0.35707591323E+02  0.00000000000E+00 0.  1.
</event>
<event>
 7    1  0.6246445E-012  0.5930193E+02  0.7816164E-02  0.1266605E+00
        -11   -1    0    0    0    0  0.00000000000E+00  0.00000000000E+00  0.45593999997E+02  0.45594000000E+02  0.51100000000E-03 0.  1.
         11   -1    0    0    0    0 -0.00000000000E+00 -0.00000000000E+00 -0.45593999997E+02  0.45594000000E+02  0.51100000000E-03 0. -1.
    9900012    2    1    2    0    0 -0.29379300506E+02  0.12362273292E+02 -0.86743081156E+00  0.59301928819E+02  0.49999972263E+02 0.  0.
         12    1    1    2    0    0  0.29379300506E+02 -0.12362273292E+02  0.86743081156E+00  0.31886071181E+02  0.00000000000E+00 0. -1.
         11    1    3    3    0    0 -0.13662696356E+02  0.47463936328E+01 -0.16470181151E+02  0.21919497979E+02  0.51100000000E-03 0. -1.
        -11    1    3    3    0    0 -0.35608940760E+01 -0.11045383819E+02  0.66796591047E+01  0.13390232125E+02  0.51100000000E-03 0.  1.
         12    1    3    3    0    0 -0.12155710074E+02  0.18661263478E+02  0.89230912352E+01  0.23992198715E+02  0.00000000000E+00 0. -1.
</event>
<event>
 7    1  0.6246445E-012  0.5930190E+02  0.7816164E-02  0.1266605E+00
        -11   -1    0    0    0    0  0.00000000000E+00  0.00000000000E+00  0.45593999997E+02  0.45594000000E+02  0.51100000000E-03 0. -1.
         11   -1    0    0    0    0 -0.00000000000E+00 -0.00000000000E+00 -0.45593999997E+02  0.45594000000E+02  0.51100000000E-03 0.  1.
    9900012    2    1    2    0    0  0.56563154599E+01  0.26311063690E+02  0.17101378485E+02  0.59301903921E+02  0.49999926855E+02 0.  0.
         12    1    1    2    0    0 -0.56563154599E+01 -0.26311063690E+02 -0.17101378485E+02  0.31886096079E+02  0.00000000000E+00 0. -1.
         11    1    3    3    0    0 -0.34540934037E+01  0.10974285739E+02 -0.39250588482E+01  0.12156142313E+02  0.51100000000E-03 0. -1.
        -11    1    3    3    0    0  0.90027535767E+01  0.26459039998E+02  0.62295201737E+01  0.28634547167E+02  0.51100000000E-03 0.  1.
         12    1    3    3    0    0  0.10765528694E+00 -0.11122262047E+02  0.14796917159E+02  0.18511214442E+02  0.00000000000E+00 0. -1.
</event>
<event>
 7    1  0.6246445E-012  0.5930200E+02  0.7816164E-02  0.1266605E+00
        -11   -1    0    0    0    0  0.00000000000E+00  0.00000000000E+00  0.45593999997E+02  0.45594000000E+02  0.51100000000E-03 0. -1.
         11   -1    0    0    0    0 -0.00000000000E+00 -0.00000000000E+00 -0.45593999997E+02  0.45594000000E+02  0.51100000000E-03 0.  1.
    9900012    2    1    2    0    0 -0.27493527426E+02  0.13660120330E+02 -0.86153307490E+01  0.59302002106E+02  0.50000105921E+02 0.  0.
         12    1    1    2    0    0  0.27493527426E+02 -0.13660120330E+02  0.86153307490E+01  0.31885997894E+02  0.00000000000E+00 0. -1.
         11    1    3    3    0    0 -0.23650245614E+02 -0.32234939871E+01 -0.13737771258E+01  0.23908414730E+02  0.51100000000E-03 0. -1.
        -11    1    3    3    0    0 -0.16054659581E+02  0.39413040105E+01 -0.10932708497E+01  0.16567474550E+02  0.51100000000E-03 0.  1.
         12    1    3    3    0    0  0.12211377768E+02  0.12942310306E+02 -0.61482827735E+01  0.18826112826E+02  0.00000000000E+00 0. -1.
</event>
<event>
 7    1  0.6246445E-012  0.5930192E+02  0.7816164E-02  0.1266605E+00
        -11   -1    0    0    0    0  0.00000000000E+00  0.00000000000E+00  0.45593999997E+02  0.45594000000E+02  0.51100000000E-03 0.  1.
         11   -1    0    0    0    0 -0.00000000000E+00 -0.00000000000E+00 -0.45593999997E+02  0.45594000000E+02  0.51100000000E-03 0. -1.
    9900012    2    1    2    0    0 -0.14686700532E+02 -0.21005415391E+02  0.18968275069E+02  0.59301919849E+02  0.49999955905E+02 0.  0.
         12    1    1    2    0    0  0.14686700532E+02  0.21005415391E+02 -0.18968275069E+02  0.31886080151E+02  0.00000000000E+00 0. -1.
         11    1    3    3    0    0 -0.84812009973E+01  0.89181307271E+01  0.85096551964E+01  0.14962555191E+02  0.51100000000E-03 0. -1.
        -11    1    3    3    0    0 -0.63208925655E+01  0.39124763259E+01  0.71960431533E+01  0.10346216272E+02  0.51100000000E-03 0.  1.
        -12    1    3    3    0    0  0.11539303062E+00 -0.33836022444E+02  0.32625767198E+01  0.33993148386E+02  0.00000000000E+00 0.  1.
</event>
<event>
 7    1  0.6246445E-012  0.5930191E+02  0.7816164E-02  0.1266605E+00
        -11   -1    0    0    0    0  0.00000000000E+00  0.00000000000E+00  0.45593999997E+02  0.45594000000E+02  0.51100000000E-03 0.  1.
         11   -1    0    0    0    0 -0.00000000000E+00 -0.00000000000E+00 -0.45593999997E+02  0.45594000000E+02  0.51100000000E-03 0. -1.
    9900012    2    1    2    0    0  0.15148987305E+02  0.25887185176E+01  0.27937952623E+02  0.59301914058E+02  0.49999945342E+02 0.  0.
         12    1    1    2    0    0 -0.15148987305E+02 -0.25887185176E+01 -0.27937952623E+02  0.31886085942E+02  0.00000000000E+00 0. -1.
         11    1    3    3    0    0 -0.18639737217E+01 -0.92764476099E+01  0.50792001406E+01  0.10738954913E+02  0.51100000000E-03 0.  1.
        -11    1    3    3    0    0 -0.50195121639E+01  0.19008985581E+02  0.96785908622E+01  0.21913743554E+02  0.51100000000E-03 0. -1.
         12    1    3    3    0    0  0.22032473190E+02 -0.71438194541E+01  0.13180161621E+02  0.26649215591E+02  0.00000000000E+00 0. -1.
</event>
<event>
 7    1  0.6246445E-012  0.5930168E+02  0.7816164E-02  0.1266606E+00
        -11   -1    0    0    0    0  0.00000000000E+00  0.00000000000E+00  0.45593999997E+02  0.45594000000E+02  0.51100000000E-03 0.  1.
         11   -1    0    0    0    0 -0.00000000000E+00 -0.00000000000E+00 -0.45593999997E+02  0.45594000000E+02  0.51100000000E-03 0. -1.
    9900012    2    1    2    0    0 -0.34655519637E+00  0.27914694431E+02  0.15407363565E+02  0.59301684476E+02  0.49999526637E+02 0.  0.
         12    1    1    2    0    0  0.34655519637E+00 -0.27914694431E+02 -0.15407363565E+02  0.31886315524E+02  0.00000000000E+00 0. -1.
         11    1    3    3    0    0 -0.13368330444E+02  0.37056091047E+01 -0.64766182206E+01  0.15309813243E+02  0.51100000000E-03 0. -1.
        -11    1    3    3    0    0  0.27113593768E+01  0.15871207264E+02 -0.24433590221E+01  0.16285474917E+02  0.51100000000E-03 0.  1.
        -12    1    3    3    0    0  0.10310415871E+02  0.83378780622E+01  0.24327340808E+02  0.27706396316E+02  0.00000000000E+00 0.  1.
</event>
<event>
 7    1  0.6246445E-012  0.5930192E+02  0.7816164E-02  0.1266605E+00
        -11   -1    0    0    0    0  0.00000000000E+00  0.00000000000E+00  0.45593999997E+02  0.45594000000E+02  0.51100000000E-03 0.  1.
         11   -1    0    0    0    0 -0.00000000000E+00 -0.00000000000E+00 -0.45593999997E+02  0.45594000000E+02  0.51100000000E-03 0. -1.
    9900012    2    1    2    0    0  0.99274045835E+01  0.24464688612E+02  0.17878696825E+02  0.59301919168E+02  0.49999954663E+02 0.  0.
         12    1    1    2    0    0 -0.99274045835E+01 -0.24464688612E+02 -0.17878696825E+02  0.31886080832E+02  0.00000000000E+00 0. -1.
         11    1    3    3    0    0 -0.29123369500E+01 -0.31793735405E+01 -0.73371907675E+01  0.85102580008E+01  0.51100000000E-03 0. -1.
        -11    1    3    3    0    0 -0.93574555134E+01  0.94609357869E+01  0.15656107313E+02  0.20547140339E+02  0.51100000000E-03 0.  1.
        -12    1    3    3    0    0  0.22197197047E+02  0.18183126366E+02  0.95597802790E+01  0.30244520829E+02  0.00000000000E+00 0.  1.
</event>
<event>
 7    1  0.9437560E-012  0.5930195E+02  0.7816164E-02  0.1266605E+00
        -11   -1    0    0    0    0  0.00000000000E+00  0.00000000000E+00  0.45593999997E+02  0.45594000000E+02  0.51100000000E-03 0.  1.
         11   -1    0    0    0    0 -0.00000000000E+00 -0.00000000000E+00 -0.45593999997E+02  0.45594000000E+02  0.51100000000E-03 0. -1.
    9900012    2    1    2    0    0  0.29215884817E+02 -0.10455709823E+02 -0.73369102289E+01  0.59301952185E+02  0.50000014878E+02 0.  0.
         12    1    1    2    0    0 -0.29215884817E+02  0.10455709823E+02  0.73369102289E+01  0.31886047815E+02  0.00000000000E+00 0. -1.
         11    1    3    3    0    0  0.50059933857E+01 -0.11819329340E+02  0.89484154948E+01  0.15647065410E+02  0.51100000000E-03 0. -1.
        -11    1    3    3    0    0  0.30802488362E+01 -0.99781966604E+01 -0.16669729454E+02  0.19670592818E+02  0.51100000000E-03 0.  1.
         12    1    3    3    0    0  0.21129642595E+02  0.11341816177E+02  0.38440373066E+00  0.23984293957E+02  0.00000000000E+00 0. -1.
</event>
<event>
 7    1  0.6246445E-012  0.5930193E+02  0.7816164E-02  0.1266605E+00
        -11   -1    0    0    0    0  0.00000000000E+00  0.00000000000E+00  0.45593999997E+02  0.45594000000E+02  0.51100000000E-03 0.  1.
         11   -1    0    0    0    0 -0.00000000000E+00 -0.00000000000E+00 -0.45593999997E+02  0.45594000000E+02  0.51100000000E-03 0. -1.
    9900012    2    1    2    0    0  0.24982079160E+02  0.11752205745E+02  0.15953150276E+02  0.59301927448E+02  0.49999969763E+02 0.  0.
         12    1    1    2    0    0 -0.24982079160E+02 -0.11752205745E+02 -0.15953150276E+02  0.31886072552E+02  0.00000000000E+00 0. -1.
         11    1    3    3    0    0  0.16511869431E+02  0.66088905114E+00 -0.82088431751E+01  0.18451658814E+02  0.51100000000E-03 0. -1.
        -11    1    3    3    0    0  0.18347482023E+02  0.22477789993E+01  0.19313432557E+02  0.26733710637E+02  0.51100000000E-03 0.  1.
         12    1    3    3    0    0 -0.98772722951E+01  0.88435376946E+01  0.48485608951E+01  0.14116557998E+02  0.00000000000E+00 0. -1.
</event>
<event>
 7    1  0.6246445E-012  0.5930196E+02  0.7816164E-02  0.1266605E+00
        -11   -1    0    0    0    0  0.00000000000E+00  0.00000000000E+00  0.45593999997E+02  0.45594000000E+02  0.51100000000E-03 0. -1.
         11   -1    0    0    0    0 -0.00000000000E+00 -0.00000000000E+00 -0.45593999997E+02  0.45594000000E+02  0.51100000000E-03 0.  1.
    9900012    2    1    2    0    0 -0.16650974999E+02 -0.23882671705E+02 -0.13003184766E+02  0.59301956184E+02  0.50000022169E+02 0.  0.
         12    1    1    2    0    0  0.16650974999E+02  0.23882671705E+02  0.13003184766E+02  0.31886043816E+02  0.00000000000E+00 0. -1.
         11    1    3    3    0    0  0.97229551758E+01 -0.25702272226E+02 -0.11573769025E+02  0.29817692477E+02  0.51100000000E-03 0. -1.
        -11    1    3    3    0    0 -0.15366664227E+01 -0.34098102675E+01 -0.16827316474E+01  0.41011871225E+01  0.51100000000E-03 0.  1.
        -12    1    3    3    0    0 -0.24837263753E+02  0.52294107887E+01  0.25331590707E+00  0.25383076584E+02  0.00000000000E+00 0.  1.
</event>
<event>
 7    1  0.6246445E-012  0.5930194E+02  0.7816164E-02  0.1266605E+00
        -11   -1    0    0    0    0  0.00000000000E+00  0.00000000000E+00  0.45593999997E+02  0.45594000000E+02  0.51100000000E-03 0.  1.
         11   -1    0    0    0    0 -0.00000000000E+00 -0.00000000000E+00 -0.45593999997E+02  0.45594000000E+02  0.51100000000E-03 0. -1.
    9900012    2    1    2    0    0  0.22660939857E+02 -0.22026453520E+00  0.22431103386E+02  0.59301935477E+02  0.49999984405E+02 0.  0.
         12    1    1    2    0    0 -0.22660939857E+02  0.22026453520E+00 -0.22431103386E+02  0.31886064523E+02  0.00000000000E+00 0. -1.
         11    1    3    3    0    0  0.19844323254E+02  0.10848184639E+02  0.41357401904E+01  0.22990968282E+02  0.51100000000E-03 0. -1.
        -11    1    3    3    0    0 -0.99574652137E+01 -0.25226755434E+01  0.18249559429E+02  0.20941858203E+02  0.51100000000E-03 0.  1.
         12    1    3    3    0    0  0.12774081817E+02 -0.85457736312E+01  0.45803766799E-01  0.15369108992E+02  0.00000000000E+00 0. -1.
</event>
<event>
 7    1  0.6246445E-012  0.5930194E+02  0.7816164E-02  0.1266605E+00
        -11   -1    0    0    0    0  0.00000000000E+00  0.00000000000E+00  0.45593999997E+02  0.45594000000E+02  0.51100000000E-03 0. -1.
         11   -1    0    0    0    0 -0.00000000000E+00 -0.00000000000E+00 -0.45593999997E+02  0.45594000000E+02  0.51100000000E-03 0.  1.
    9900012    2    1    2    0    0 -0.23989544399E+02  0.72921808837E+01 -0.19698893288E+02  0.59301944438E+02  0.50000000748E+02 0.  0.
         12    1    1    2    0    0  0.23989544399E+02 -0.72921808837E+01  0.19698893288E+02  0.31886055562E+02  0.00000000000E+00 0. -1.
         11    1    3    3    0    0  0.10727374576E+02  0.43661788820E+01 -0.12036230396E+02  0.16703620138E+02  0.51100000000E-03 0. -1.
        -11    1    3    3    0    0 -0.98343917695E+00  0.32809862005E-01 -0.86703532399E+01  0.87260102376E+01  0.51100000000E-03 0.  1.
        -12    1    3    3    0    0 -0.33733479798E+02  0.28931921396E+01  0.10076903470E+01  0.33872314062E+02  0.00000000000E+00 0.  1.
</event>
<event>
 7    1  0.6246445E-012  0.5930192E+02  0.7816164E-02  0.1266605E+00
        -11   -1    0    0    0    0  0.00000000000E+00  0.00000000000E+00  0.45593999997E+02  0.45594000000E+02  0.51100000000E-03 0.  1.
         11   -1    0    0    0    0 -0.00000000000E+00 -0.00000000000E+00 -0.45593999997E+02  0.45594000000E+02  0.51100000000E-03 0. -1.
    9900012    2    1    2    0    0  0.89209873126E+01  0.79018126079E+00  0.30602513447E+02  0.59301917922E+02  0.49999952389E+02 0.  0.
         12    1    1    2    0    0 -0.89209873126E+01 -0.79018126079E+00 -0.30602513447E+02  0.31886082078E+02  0.00000000000E+00 0. -1.
         11    1    3    3    0    0 -0.60130324895E+01 -0.27506599953E+01  0.49056709718E+01  0.82333649302E+01  0.51100000000E-03 0. -1.
        -11    1    3    3    0    0  0.17651502997E+02 -0.90093405985E+01  0.31309579561E+02  0.37054467324E+02  0.51100000000E-03 0.  1.
         12    1    3    3    0    0 -0.27174831948E+01  0.12550181855E+02 -0.56127370867E+01  0.14014085668E+02  0.00000000000E+00 0. -1.
</event>
<event>
 7    1  0.6246445E-012  0.5930193E+02  0.7816164E-02  0.1266605E+00
        -11   -1    0    0    0    0  0.00000000000E+00  0.00000000000E+00  0.45593999997E+02  0.45594000000E+02  0.51100000000E-03 0.  1.
         11   -1    0    0    0    0 -0.00000000000E+00 -0.00000000000E+00 -0.45593999997E+02  0.45594000000E+02  0.51100000000E-03 0. -1.
    9900012    2    1    2    0    0 -0.15793112920E+02  0.14043840690E+02  0.23876127474E+02  0.59301931879E+02  0.49999977844E+02 0.  0.
         12    1    1    2    0    0  0.15793112920E+02 -0.14043840690E+02 -0.23876127474E+02  0.31886068121E+02  0.00000000000E+00 0. -1.
         11    1    3    3    0    0 -0.16070573284E+01  0.10884244923E+02 -0.53146328041E+01  0.12218622791E+02  0.51100000000E-03 0. -1.
        -11    1    3    3    0    0 -0.21450364216E+02 -0.13505151361E+00  0.55844567048E+01  0.22165796193E+02  0.51100000000E-03 0.  1.
        -12    1    3    3    0    0  0.72643086239E+01  0.32946472799E+01  0.23606303574E+02  0.24917512895E+02  0.00000000000E+00 0.  1.
</event>
<event>
 7    1  0.6246445E-012  0.5930193E+02  0.7816164E-02  0.1266605E+00
        -11   -1    0    0    0    0  0.00000000000E+00  0.00000000000E+00  0.45593999997E+02  0.45594000000E+02  0.51100000000E-03 0.  1.
         11   -1    0    0    0    0 -0.00000000000E+00 -0.00000000000E+00 -0.45593999997E+02  0.45594000000E+02  0.51100000000E-03 0. -1.
    9900012    2    1    2    0    0  0.24159730865E+02  0.86878983332E+01  0.18908969663E+02  0.59301932406E+02  0.49999978804E+02 0.  0.
         12    1    1    2    0    0 -0.24159730865E+02 -0.86878983332E+01 -0.18908969663E+02  0.31886067594E+02  0.00000000000E+00 0. -1.
         11    1    3    3    0    0 -0.49974458871E+01  0.53017686923E+01  0.13723035227E+02  0.15537210585E+02  0.51100000000E-03 0. -1.
        -11    1    3    3    0    0  0.31572599396E+02 -0.22872811907E+01  0.12644519117E+02  0.34087307782E+02  0.51100000000E-03 0.  1.
         12    1    3    3    0    0 -0.24154226436E+01  0.56734108316E+01 -0.74585846818E+01  0.96774140382E+01  0.00000000000E+00 0. -1.
</event>
<event>
 7    1  0.6246445E-012  0.5930195E+02  0.7816164E-02  0.1266605E+00
        -11   -1    0    0    0    0  0.00000000000E+00  0.00000000000E+00  0.45593999997E+02  0.45594000000E+02  0.51100000000E-03 0.  1.
         11   -1    0    0    0    0 -0.00000000000E+00 -0.00000000000E+00 -0.45593999997E+02  0.45594000000E+02  0.51100000000E-03 0. -1.
    9900012    2    1    2    0    0 -0.17483487682E+01 -0.25552783388E+02  0.18992601243E+02  0.59301947183E+02  0.50000005754E+02 0.  0.
         12    1    1    2    0    0  0.17483487682E+01  0.25552783388E+02 -0.18992601243E+02  0.31886052817E+02  0.00000000000E+00 0. -1.
         11    1    3    3    0    0 -0.64238690753E+01 -0.43314805164E+01 -0.75475048906E+01  0.10816313961E+02  0.51100000000E-03 0. -1.
        -11    1    3    3    0    0 -0.10829766669E+02 -0.30703367347E+01 -0.18341578981E+01  0.11405040518E+02  0.51100000000E-03 0.  1.
        -12    1    3    3    0    0  0.15505286976E+02 -0.18150966137E+02  0.28374264032E+02  0.37080592704E+02  0.00000000000E+00 0.  1.
</event>
<event>
 7    1  0.6246445E-012  0.5930197E+02  0.7816164E-02  0.1266605E+00
        -11   -1    0    0    0    0  0.00000000000E+00  0.00000000000E+00  0.45593999997E+02  0.45594000000E+02  0.51100000000E-03 0. -1.
         11   -1    0    0    0    0 -0.00000000000E+00 -0.00000000000E+00 -0.45593999997E+02  0.45594000000E+02  0.51100000000E-03 0.  1.
    9900012    2    1    2    0    0  0.57167837743E+01  0.30930703946E+02  0.52276903273E+01  0.59301971563E+02  0.50000050218E+02 0.  0.
         12    1    1    2    0    0 -0.57167837743E+01 -0.30930703946E+02 -0.52276903273E+01  0.31886028437E+02  0.00000000000E+00 0. -1.
         11    1    3    3    0    0  0.23079836497E+01 -0.28596129800E+01 -0.13258167047E+01  0.39066565140E+01  0.51100000000E-03 0. -1.
        -11    1    3    3    0    0 -0.15783164964E+02 -0.39809049522E+00  0.13753650473E+01  0.15847977840E+02  0.51100000000E-03 0.  1.
         12    1    3    3    0    0  0.19191965089E+02  0.34188407421E+02  0.51781419847E+01  0.39547337210E+02  0.00000000000E+00 0. -1.
</event>
<event>
 7    1  0.6246445E-012  0.5930195E+02  0.7816164E-02  0.1266605E+00
        -11   -1    0    0    0    0  0.00000000000E+00  0.00000000000E+00  0.45593999997E+02  0.45594000000E+02  0.51100000000E-03 0.  1.
         11   -1    0    0    0    0 -0.00000000000E+00 -0.00000000000E+00 -0.45593999997E+02  0.45594000000E+02  0.51100000000E-03 0. -1.
    9900012    2    1    2    0    0 -0.72235309406E+01 -0.18771469275E+01  0.31000276405E+02  0.59301949492E+02  0.50000009965E+02 0.  0.
         12    1    1    2    0    0  0.72235309406E+01  0.18771469275E+01 -0.31000276405E+02  0.31886050508E+02  0.00000000000E+00 0. -1.
         11    1    3    3    0    0  0.43798667680E+01 -0.10694983278E+01 -0.96728592554E+01  0.10671985102E+02  0.51100000000E-03 0. -1.
        -11    1    3    3    0    0 -0.14312211409E+02  0.75646420091E+01  0.17485057276E+02  0.23828353538E+02  0.51100000000E-03 0.  1.
        -12    1    3    3    0    0  0.27088137002E+01 -0.83722906087E+01  0.23188078384E+02  0.24801610852E+02  0.00000000000E+00 0.  1.
</event>
<event>
 7    1  0.6246445E-012  0.5930194E+02  0.7816164E-02  0.1266605E+00
        -11   -1    0    0    0    0  0.00000000000E+00  0.00000000000E+00  0.45593999997E+02  0.45594000000E+02  0.51100000000E-03 0.  1.
         11   -1    0    0    0    0 -0.00000000000E+00 -0.00000000000E+00 -0.45593999997E+02  0.45594000000E+02  0.51100000000E-03 0. -1.
    9900012    2    1    2    0    0 -0.25277815475E+02 -0.16596368635E+02 -0.10115014134E+02  0.59301938500E+02  0.49999989918E+02 0.  0.
         12    1    1    2    0    0  0.25277815475E+02  0.16596368635E+02  0.10115014134E+02  0.31886061500E+02  0.00000000000E+00 0. -1.
         11    1    3    3    0    0 -0.11320453356E+02  0.12361181409E+02 -0.94005672231E+01  0.19217755706E+02  0.51100000000E-03 0. -1.
        -11    1    3    3    0    0  0.12373786549E+01  0.30091173348E+01 -0.32507201772E+01  0.45992472212E+01  0.51100000000E-03 0.  1.
        -12    1    3    3    0    0 -0.15194740774E+02 -0.31966667379E+02  0.25362732667E+01  0.35484935572E+02  0.00000000000E+00 0.  1.
</event>
<event>
 7    1  0.6246445E-012  0.5930195E+02  0.7816164E-02  0.1266605E+00
        -11   -1    0    0    0    0  0.00000000000E+00  0.00000000000E+00  0.45593999997E+02  0.45594000000E+02  0.51100000000E-03 0.  1.
         11   -1    0    0    0    0 -0.00000000000E+00 -0.00000000000E+00 -0.45593999997E+02  0.45594000000E+02  0.51100000000E-03 0. -1.
    9900012    2    1    2    0    0  0.30882138643E+02  0.11074224804E+01  0.78604805598E+01  0.59301952481E+02  0.50000015417E+02 0.  0.
         12    1    1    2    0    0 -0.30882138643E+02 -0.11074224804E+01 -0.78604805598E+01  0.31886047519E+02  0.00000000000E+00 0. -1.
         11    1    3    3    0    0  0.68072203242E+01 -0.22541972302E+01 -0.82096840852E+01  0.10900392962E+02  0.51100000000E-03 0. -1.
        -11    1    3    3    0    0 -0.33701051192E+01 -0.11178026915E+02 -0.28712410992E+01  0.12022891496E+02  0.51100000000E-03 0.  1.
        -12    1    3    3    0    0  0.27445023438E+02  0.14539646625E+02  0.18941405744E+02  0.36378668022E+02  0.00000000000E+00 0.  1.
</event>
<event>
 7    1  0.6246445E-012  0.5930195E+02  0.7816164E-02  0.1266605E+00
        -11   -1    0    0    0    0  0.00000000000E+00  0.00000000000E+00  0.45593999997E+02  0.45594000000E+02  0.51100000000E-03 0.  1.
         11   -1    0    0    0    0 -0.00000000000E+00 -0.00000000000E+00 -0.45593999997E+02  0.45594000000E+02  0.51100000000E-03 0. -1.
    9900012    2    1    2    0    0 -0.31903420016E+01 -0.27136502095E+02  0.16436302735E+02  0.59301951709E+02  0.50000014008E+02 0.  0.
         12    1    1    2    0    0  0.31903420016E+01  0.27136502095E+02 -0.16436302735E+02  0.31886048291E+02  0.00000000000E+00 0. -1.
         11    1    3    3    0    0 -0.13506242846E+01 -0.22388723494E+02  0.72573389526E+01  0.23574310055E+02  0.51100000000E-03 0. -1.
        -11    1    3    3    0    0  0.13146791579E+02 -0.28655364703E+01  0.14436243492E+02  0.19734602973E+02  0.51100000000E-03 0.  1.
         12    1    3    3    0    0 -0.14986509296E+02 -0.18822421308E+01 -0.52572797097E+01  0.15993038681E+02  0.00000000000E+00 0. -1.
</event>
<event>
 7    1  0.6246445E-012  0.5930196E+02  0.7816164E-02  0.1266605E+00
        -11   -1    0    0    0    0  0.00000000000E+00  0.00000000000E+00  0.45593999997E+02  0.45594000000E+02  0.51100000000E-03 0. -1.
         11   -1    0    0    0    0 -0.00000000000E+00 -0.00000000000E+00 -0.45593999997E+02  0.45594000000E+02  0.51100000000E-03 0.  1.
    9900012    2    1    2    0    0  0.22088398384E+02  0.73827708304E+01  0.21778817303E+02  0.59301960242E+02  0.50000029571E+02 0.  0.
         12    1    1    2    0    0 -0.22088398384E+02 -0.73827708304E+01 -0.21778817303E+02  0.31886039758E+02  0.00000000000E+00 0. -1.
         11    1    3    3    0    0  0.17555045174E+02 -0.42566596360E+01  0.75529791971E+00  0.18079525368E+02  0.51100000000E-03 0. -1.
        -11    1    3    3    0    0 -0.78511643414E+01 -0.11677140613E+01 -0.52220857264E+01  0.95012902934E+01  0.51100000000E-03 0.  1.
        -12    1    3    3    0    0  0.12384517552E+02  0.12807144528E+02  0.26245605110E+02  0.31721144581E+02  0.00000000000E+00 0.  1.
</event>
<event>
 7    1  0.6246445E-012  0.5930194E+02  0.7816164E-02  0.1266605E+00
        -11   -1    0    0    0    0  0.00000000000E+00  0.00000000000E+00  0.45593999997E+02  0.45594000000E+02  0.51100000000E-03 0.  1.
         11   -1    0    0    0    0 -0.00000000000E+00 -0.00000000000E+00 -0.45593999997E+02  0.45594000000E+02  0.51100000000E-03 0. -1.
    9900012    2    1    2    0    0 -0.65744469175E+01  0.13329247536E+02  0.28210433428E+02  0.59301941192E+02  0.49999994828E+02 0.  0.
         12    1    1    2    0    0  0.65744469175E+01 -0.13329247536E+02 -0.28210433428E+02  0.31886058808E+02  0.00000000000E+00 0. -1.
         11    1    3    3    0    0  0.89206281165E+01  0.88736000984E+01 -0.96698594251E+01  0.15868981261E+02  0.51100000000E-03 0. -1.
        -11    1    3    3    0    0 -0.30517382401E+01 -0.35263138233E+01  0.29893244113E+01  0.55393191066E+01  0.51100000000E-03 0.  1.
        -12    1    3    3    0    0 -0.12443336794E+02  0.79819612612E+01  0.34890968441E+02  0.37893640824E+02  0.00000000000E+00 0.  1.
</event>
<event>
 7    1  0.6246445E-012  0.5930194E+02  0.7816164E-02  0.1266605E+00
        -11   -1    0    0    0    0  0.00000000000E+00  0.00000000000E+00  0.45593999997E+02  0.45594000000E+02  0.51100000000E-03 0.  1.
         11   -1    0    0    0    0 -0.00000000000E+00 -0.00000000000E+00 -0.45593999997E+02  0.45594000000E+02  0.51100000000E-03 0. -1.
    9900012    2    1    2    0    0  0.24075825650E+02  0.13278369658E+02  0.16148070673E+02  0.59301942421E+02  0.49999997069E+02 0.  0.
         12    1    1    2    0    0 -0.24075825650E+02 -0.13278369658E+02 -0.16148070673E+02  0.31886057579E+02  0.00000000000E+00 0. -1.
         11    1    3    3    0    0 -0.62056530625E+01  0.48012903927E+01 -0.89365960979E+01  0.11892235679E+02  0.51100000000E-03 0. -1.
        -11    1    3    3    0    0  0.19511549744E+02 -0.30997272331E+01  0.26066753283E+01  0.19927459418E+02  0.51100000000E-03 0.  1.
        -12    1    3    3    0    0  0.10769928969E+02  0.11576806498E+02  0.22477991442E+02  0.27482247324E+02  0.00000000000E+00 0.  1.
</event>
<event>
 7    1  0.6246445E-012  0.5930194E+02  0.7816164E-02  0.1266605E+00
        -11   -1    0    0    0    0  0.00000000000E+00  0.00000000000E+00  0.45593999997E+02  0.45594000000E+02  0.51100000000E-03 0. -1.
         11   -1    0    0    0    0 -0.00000000000E+00 -0.00000000000E+00 -0.45593999997E+02  0.45594000000E+02  0.51100000000E-03 0.  1.
    9900012    2    1    2    0    0 -0.27768200073E+02  0.34036595015E+00 -0.15669455711E+02  0.59301943070E+02  0.49999998254E+02 0.  0.
         12    1    1    2    0    0  0.27768200073E+02 -0.34036595015E+00  0.15669455711E+02  0.31886056930E+02  0.00000000000E+00 0. -1.
         11    1    3    3    0    0 -0.16146202227E+02  0.58577904463E+00  0.73465323516E+01  0.17748648436E+02  0.51100000000E-03 0. -1.
        -11    1    3    3    0    0  0.12106845895E+01 -0.12667534210E+02 -0.39485159196E+00  0.12731382021E+02  0.51100000000E-03 0.  1.
        -12    1    3    3    0    0 -0.12832682435E+02  0.12422121115E+02 -0.22621136470E+02  0.28821912613E+02  0.00000000000E+00 0.  1.
</event>
<event>
 7    1  0.6246445E-012  0.5930195E+02  0.7816164E-02  0.1266605E+00
        -11   -1    0    0    0    0  0.00000000000E+00  0.00000000000E+00  0.45593999997E+02  0.45594000000E+02  0.51100000000E-03 0.  1.
         11   -1    0    0    0    0 -0.00000000000E+00 -0.00000000000E+00 -0.45593999997E+02  0.45594000000E+02  0.51100000000E-03 0. -1.
    9900012    2    1    2    0    0 -0.22190960877E+02 -0.56813512385E+01 -0.22181156068E+02  0.59301950055E+02  0.50000010993E+02 0.  0.
         12    1    1    2    0    0  0.22190960877E+02  0.56813512385E+01  0.22181156068E+02  0.31886049945E+02  0.00000000000E+00 0. -1.
         11    1    3    3    0    0 -0.11692950827E+02  0.12665006657E+02  0.52971067674E+01  0.18032937449E+02  0.51100000000E-03 0. -1.
        -11    1    3    3    0    0 -0.29615092572E+01 -0.70624612049E+00  0.36201588298E+01  0.47302083334E+01  0.51100000000E-03 0.  1.
         12    1    3    3    0    0 -0.75365007931E+01 -0.17640111775E+02 -0.31098421665E+02  0.36538804273E+02  0.00000000000E+00 0. -1.
</event>
<event>
 7    1  0.6246445E-012  0.5930177E+02  0.7816164E-02  0.1266605E+00
        -11   -1    0    0    0    0  0.00000000000E+00  0.00000000000E+00  0.45593999997E+02  0.45594000000E+02  0.51100000000E-03 0. -1.
         11   -1    0    0    0    0 -0.00000000000E+00 -0.00000000000E+00 -0.45593999997E+02  0.45594000000E+02  0.51100000000E-03 0.  1.
    9900012    2    1    2    0    0  0.11293292912E+02 -0.11021934990E+01 -0.29798967066E+02  0.59301768904E+02  0.49999680616E+02 0.  0.
         12    1    1    2    0    0 -0.11293292912E+02  0.11021934990E+01  0.29798967066E+02  0.31886231096E+02  0.00000000000E+00 0. -1.
         11    1    3    3    0    0 -0.18362457632E+01 -0.39429386722E+01  0.58711571349E+01  0.73067811134E+01  0.51100000000E-03 0. -1.
        -11    1    3    3    0    0 -0.64551382786E+01 -0.74268932455E+01  0.21650120788E+00  0.98424807091E+01  0.51100000000E-03 0.  1.
        -12    1    3    3    0    0  0.19584676954E+02  0.10267638419E+02 -0.35886625408E+02  0.42152507082E+02  0.00000000000E+00 0.  1.
</event>
<event>
 7    1  0.6246445E-012  0.5930196E+02  0.7816164E-02  0.1266605E+00
        -11   -1    0    0    0    0  0.00000000000E+00  0.00000000000E+00  0.45593999997E+02  0.45594000000E+02  0.51100000000E-03 0.  1.
         11   -1    0    0    0    0 -0.00000000000E+00 -0.00000000000E+00 -0.45593999997E+02  0.45594000000E+02  0.51100000000E-03 0. -1.
    9900012    2    1    2    0    0 -0.15323468952E+01  0.24668679058E+02 -0.20145168232E+02  0.59301958907E+02  0.50000027136E+02 0.  0.
         12    1    1    2    0    0  0.15323468952E+01 -0.24668679058E+02  0.20145168232E+02  0.31886041093E+02  0.00000000000E+00 0. -1.
         11    1    3    3    0    0 -0.21163119616E+01 -0.15943487667E+00 -0.18329193425E+02  0.18451653793E+02  0.51100000000E-03 0. -1.
        -11    1    3    3    0    0  0.94235678065E+01  0.97776852110E+01 -0.14046485314E+02  0.19537413038E+02  0.51100000000E-03 0.  1.
        -12    1    3    3    0    0 -0.88396027402E+01  0.15050428724E+02  0.12230510507E+02  0.21312892076E+02  0.00000000000E+00 0.  1.
</event>
<event>
 7    1  0.6246445E-012  0.5930208E+02  0.7816164E-02  0.1266604E+00
        -11   -1    0    0    0    0  0.00000000000E+00  0.00000000000E+00  0.45593999997E+02  0.45594000000E+02  0.51100000000E-03 0.  1.
         11   -1    0    0    0    0 -0.00000000000E+00 -0.00000000000E+00 -0.45593999997E+02  0.45594000000E+02  0.51100000000E-03 0. -1.
    9900012    2    1    2    0    0 -0.25821945960E+02  0.10958366639E+02  0.15160908149E+02  0.59302081032E+02  0.50000249862E+02 0.  0.
         12    1    1    2    0    0  0.25821945960E+02 -0.10958366639E+02 -0.15160908149E+02  0.31885918968E+02  0.00000000000E+00 0. -1.
         11    1    3    3    0    0  0.23098759226E+01 -0.56067511562E+01  0.69246343598E+01  0.92044416769E+01  0.51100000000E-03 0. -1.
        -11    1    3    3    0    0  0.33026441090E+00  0.13901878775E+01  0.16691924714E+02  0.16752971314E+02  0.51100000000E-03 0.  1.
        -12    1    3    3    0    0 -0.28462086294E+02  0.15174929917E+02 -0.84556509253E+01  0.33344668041E+02  0.00000000000E+00 0.  1.
</event>
<event>
 7    1  0.6246445E-012  0.5930209E+02  0.7816164E-02  0.1266604E+00
        -11   -1    0    0    0    0  0.00000000000E+00  0.00000000000E+00  0.45593999997E+02  0.45594000000E+02  0.51100000000E-03 0.  1.
         11   -1    0    0    0    0 -0.00000000000E+00 -0.00000000000E+00 -0.45593999997E+02  0.45594000000E+02  0.51100000000E-03 0. -1.
    9900012    2    1    2    0    0  0.26788566435E+02  0.10217181446E+02  0.13953246677E+02  0.59302091182E+02  0.50000268373E+02 0.  0.
         12    1    1    2    0    0 -0.26788566435E+02 -0.10217181446E+02 -0.13953246677E+02  0.31885908818E+02  0.00000000000E+00 0. -1.
         11    1    3    3    0    0 -0.51848788611E+01 -0.95452944757E+01  0.22364695511E+01  0.11090419818E+02  0.51100000000E-03 0. -1.
        -11    1    3    3    0    0 -0.38594524408E+01 -0.22415252533E+01  0.26667380838E+01  0.51991634782E+01  0.51100000000E-03 0.  1.
        -12    1    3    3    0    0  0.35832897737E+02  0.22004001175E+02  0.90500390422E+01  0.43012507885E+02  0.00000000000E+00 0.  1.
</event>
<event>
 7    1  0.6246445E-012  0.5930199E+02  0.7816164E-02  0.1266605E+00
        -11   -1    0    0    0    0  0.00000000000E+00  0.00000000000E+00  0.45593999997E+02  0.45594000000E+02  0.51100000000E-03 0. -1.
         11   -1    0    0    0    0 -0.00000000000E+00 -0.00000000000E+00 -0.45593999997E+02  0.45594000000E+02  0.51100000000E-03 0.  1.
    9900012    2    1    2    0    0 -0.93565850729E+01  0.23171705943E+02 -0.19805144560E+02  0.59301993797E+02  0.50000090768E+02 0.  0.
         12    1    1    2    0    0  0.93565850729E+01 -0.23171705943E+02  0.19805144560E+02  0.31886006203E+02  0.00000000000E+00 0. -1.
         11    1    3    3    0    0  0.11708557994E+02 -0.58283630283E+01 -0.62513840148E+01  0.14496204615E+02  0.51100000000E-03 0. -1.
        -11    1    3    3    0    0 -0.24586567042E+01  0.16935419978E+02  0.26822385462E+01  0.17321889230E+02  0.51100000000E-03 0.  1.
         12    1    3    3    0    0 -0.18606486363E+02  0.12064648993E+02 -0.16235999091E+02  0.27483899952E+02  0.00000000000E+00 0. -1.
</event>
<event>
 7    1  0.6246445E-012  0.5930195E+02  0.7816164E-02  0.1266605E+00
        -11   -1    0    0    0    0  0.00000000000E+00  0.00000000000E+00  0.45593999997E+02  0.45594000000E+02  0.51100000000E-03 0. -1.
         11   -1    0    0    0    0 -0.00000000000E+00 -0.00000000000E+00 -0.45593999997E+02  0.45594000000E+02  0.51100000000E-03 0.  1.
    9900012    2    1    2    0    0 -0.12337827251E+01  0.26185543279E+02 -0.18152553308E+02  0.59301951512E+02  0.50000013649E+02 0.  0.
         12    1    1    2    0    0  0.12337827251E+01 -0.26185543279E+02  0.18152553308E+02  0.31886048488E+02  0.00000000000E+00 0. -1.
         11    1    3    3    0    0 -0.10174875636E+02  0.12181459423E+02 -0.16069471766E+02  0.22586366928E+02  0.51100000000E-03 0. -1.
        -11    1    3    3    0    0  0.51182415424E+01 -0.10533840287E+02 -0.20031347706E+01  0.11881529230E+02  0.51100000000E-03 0.  1.
         12    1    3    3    0    0  0.38228513687E+01  0.24537924143E+02 -0.79946770529E-01  0.24834055354E+02  0.00000000000E+00 0. -1.
</event>
<event>
 7    1  0.6246445E-012  0.5930194E+02  0.7816164E-02  0.1266605E+00
        -11   -1    0    0    0    0  0.00000000000E+00  0.00000000000E+00  0.45593999997E+02  0.45594000000E+02  0.51100000000E-03 0.  1.
         11   -1    0    0    0    0 -0.00000000000E+00 -0.00000000000E+00 -0.45593999997E+02  0.45594000000E+02  0.51100000000E-03 0. -1.
    9900012    2    1    2    0    0 -0.28727770367E+01  0.82792190789E+01  0.30658155343E+02  0.59301940264E+02  0.49999993137E+02 0.  0.
         12    1    1    2    0    0  0.28727770367E+01 -0.82792190789E+01 -0.30658155343E+02  0.31886059736E+02  0.00000000000E+00 0. -1.
         11    1    3    3    0    0 -0.10191982509E+02  0.27958275893E+01  0.18568845479E+01  0.10730385821E+02  0.51100000000E-03 0. -1.
        -11    1    3    3    0    0 -0.14975266214E+02  0.58595354017E+01  0.75351819159E+01  0.17758708288E+02  0.51100000000E-03 0.  1.
         12    1    3    3    0    0  0.22294471686E+02 -0.37614391214E+00  0.21266088879E+02  0.30812846156E+02  0.00000000000E+00 0. -1.
</event>
<event>
 7    1  0.6246445E-012  0.5930195E+02  0.7816164E-02  0.1266605E+00
        -11   -1    0    0    0    0  0.00000000000E+00  0.00000000000E+00  0.45593999997E+02  0.45594000000E+02  0.51100000000E-03 0. -1.
         11   -1    0    0    0    0 -0.00000000000E+00 -0.00000000000E+00 -0.45593999997E+02  0.45594000000E+02  0.51100000000E-03 0.  1.
    9900012    2    1    2    0    0  0.54921594564E+01  0.16906274616E+02 -0.26471380423E+02  0.59301954175E+02  0.50000018505E+02 0.  0.
         12    1    1    2    0    0 -0.54921594564E+01 -0.16906274616E+02  0.26471380423E+02  0.31886045825E+02  0.00000000000E+00 0. -1.
         11    1    3    3    0    0 -0.34212283151E+01 -0.37368668305E+01 -0.46221168978E+01  0.68580567052E+01  0.51100000000E-03 0. -1.
        -11    1    3    3    0    0 -0.24540518817E+01 -0.64500295774E+01  0.79965968221E+01  0.10562708610E+02  0.51100000000E-03 0.  1.
        -12    1    3    3    0    0  0.11367439653E+02  0.27093171024E+02 -0.29845860347E+02  0.41881188859E+02  0.00000000000E+00 0.  1.
</event>
<event>
 7    1  0.6246445E-012  0.5930214E+02  0.7816164E-02  0.1266604E+00
        -11   -1    0    0    0    0  0.00000000000E+00  0.00000000000E+00  0.45593999997E+02  0.45594000000E+02  0.51100000000E-03 0.  1.
         11   -1    0    0    0    0 -0.00000000000E+00 -0.00000000000E+00 -0.45593999997E+02  0.45594000000E+02  0.51100000000E-03 0. -1.
    9900012    2    1    2    0    0 -0.63722218522E+01  0.30520851519E+02  0.66768847734E+01  0.59302135122E+02  0.50000348509E+02 0.  0.
         12    1    1    2    0    0  0.63722218522E+01 -0.30520851519E+02 -0.66768847734E+01  0.31885864878E+02  0.00000000000E+00 0. -1.
         11    1    3    3    0    0  0.77697364774E+01  0.96122158566E+01 -0.95246521904E+01  0.15603925731E+02  0.51100000000E-03 0. -1.
        -11    1    3    3    0    0  0.49171563477E+01 -0.19632691912E+01  0.12652195041E+02  0.13715352423E+02  0.51100000000E-03 0.  1.
        -12    1    3    3    0    0 -0.19059114677E+02  0.22871904853E+02  0.35493419228E+01  0.29982856968E+02  0.00000000000E+00 0.  1.
</event>
<event>
 7    1  0.6246445E-012  0.5930195E+02  0.7816164E-02  0.1266605E+00
        -11   -1    0    0    0    0  0.00000000000E+00  0.00000000000E+00  0.45593999997E+02  0.45594000000E+02  0.51100000000E-03 0. -1.
         11   -1    0    0    0    0 -0.00000000000E+00 -0.00000000000E+00 -0.45593999997E+02  0.45594000000E+02  0.51100000000E-03 0.  1.
    9900012    2    1    2    0    0  0.26642324158E+02  0.13301892076E+02 -0.11400279901E+02  0.59301950524E+02  0.50000011848E+02 0.  0.
         12    1    1    2    0    0 -0.26642324158E+02 -0.13301892076E+02  0.11400279901E+02  0.31886049476E+02  0.00000000000E+00 0. -1.
         11    1    3    3    0    0  0.95539114222E+01 -0.89182840069E+01 -0.69805815931E+01  0.14816933985E+02  0.51100000000E-03 0. -1.
        -11    1    3    3    0    0 -0.28530627034E+01  0.30245663748E+01  0.11725778735E+02  0.12441135629E+02  0.51100000000E-03 0.  1.
        -12    1    3    3    0    0  0.19941475440E+02  0.19195609708E+02 -0.16145477043E+02  0.32043880909E+02  0.00000000000E+00 0.  1.
</event>
<event>
 7    1  0.6246445E-012  0.5930193E+02  0.7816164E-02  0.1266605E+00
        -11   -1    0    0    0    0  0.00000000000E+00  0.00000000000E+00  0.45593999997E+02  0.45594000000E+02  0.51100000000E-03 0.  1.
         11   -1    0    0    0    0 -0.00000000000E+00 -0.00000000000E+00 -0.45593999997E+02  0.45594000000E+02  0.51100000000E-03 0. -1.
    9900012    2    1    2    0    0 -0.77932680592E+01 -0.15391631547E+02  0.26815744697E+02  0.59301929179E+02  0.49999972920E+02 0.  0.
         12    1    1    2    0    0  0.77932680592E+01  0.15391631547E+02 -0.26815744697E+02  0.31886070821E+02  0.00000000000E+00 0. -1.
         11    1    3    3    0    0 -0.23281050332E+01 -0.64066660809E+01  0.14660146214E+02  0.16167415705E+02  0.51100000000E-03 0. -1.
        -11    1    3    3    0    0 -0.30757221497E+01 -0.53399947059E+01  0.26984077585E+02  0.27678801520E+02  0.51100000000E-03 0.  1.
         12    1    3    3    0    0 -0.23894408763E+01 -0.36449707601E+01 -0.14828479102E+02  0.15455711954E+02  0.00000000000E+00 0. -1.
</event>
<event>
 7    1  0.6246445E-012  0.5930188E+02  0.7816164E-02  0.1266605E+00
        -11   -1    0    0    0    0  0.00000000000E+00  0.00000000000E+00  0.45593999997E+02  0.45594000000E+02  0.51100000000E-03 0.  1.
         11   -1    0    0    0    0 -0.00000000000E+00 -0.00000000000E+00 -0.45593999997E+02  0.45594000000E+02  0.51100000000E-03 0. -1.
    9900012    2    1    2    0    0 -0.15458363339E+01  0.11698222385E+02  0.29622397528E+02  0.59301883080E+02  0.49999888845E+02 0.  0.
         12    1    1    2    0    0  0.15458363339E+01 -0.11698222385E+02 -0.29622397528E+02  0.31886116920E+02  0.00000000000E+00 0. -1.
         11    1    3    3    0    0 -0.32259902617E+01 -0.74326803738E+01 -0.62744334436E+01  0.10247939598E+02  0.51100000000E-03 0. -1.
        -11    1    3    3    0    0 -0.15251801249E+01  0.21582440275E+02  0.11845937207E+02  0.24666863019E+02  0.51100000000E-03 0.  1.
         12    1    3    3    0    0  0.32053340527E+01 -0.24515375158E+01  0.24050893765E+02  0.24387080462E+02  0.00000000000E+00 0. -1.
</event>
<event>
 7    1  0.6246445E-012  0.5930196E+02  0.7816164E-02  0.1266605E+00
        -11   -1    0    0    0    0  0.00000000000E+00  0.00000000000E+00  0.45593999997E+02  0.45594000000E+02  0.51100000000E-03 0. -1.
         11   -1    0    0    0    0 -0.00000000000E+00 -0.00000000000E+00 -0.45593999997E+02  0.45594000000E+02  0.51100000000E-03 0.  1.
    9900012    2    1    2    0    0  0.54450089312E+01 -0.11554751479E+02 -0.29215737978E+02  0.59301956822E+02  0.50000023333E+02 0.  0.
         12    1    1    2    0    0 -0.54450089312E+01  0.11554751479E+02  0.29215737978E+02  0.31886043178E+02  0.00000000000E+00 0. -1.
         11    1    3    3    0    0 -0.57569559616E+00  0.33087193833E+01 -0.19506499018E+02  0.19793497760E+02  0.51100000000E-03 0. -1.
        -11    1    3    3    0    0  0.34101919486E+01  0.83049402453E+01 -0.13169008596E+02  0.15938137572E+02  0.51100000000E-03 0.  1.
        -12    1    3    3    0    0  0.26105125788E+01 -0.23168411108E+02  0.34597696363E+01  0.23570321490E+02  0.00000000000E+00 0.  1.
</event>
<event>
 7    1  0.6246445E-012  0.5930194E+02  0.7816164E-02  0.1266605E+00
        -11   -1    0    0    0    0  0.00000000000E+00  0.00000000000E+00  0.45593999997E+02  0.45594000000E+02  0.51100000000E-03 0.  1.
         11   -1    0    0    0    0 -0.00000000000E+00 -0.00000000000E+00 -0.45593999997E+02  0.45594000000E+02  0.51100000000E-03 0. -1.
    9900012    2    1    2    0    0  0.10050962824E+02  0.22157543925E+02  0.20609275520E+02  0.59301939661E+02  0.49999992036E+02 0.  0.
         12    1    1    2    0    0 -0.10050962824E+02 -0.22157543925E+02 -0.20609275520E+02  0.31886060339E+02  0.00000000000E+00 0. -1.
         11    1    3    3    0    0  0.87185304703E+01 -0.28880490979E+01 -0.83604964977E+01  0.12419802861E+02  0.51100000000E-03 0. -1.
        -11    1    3    3    0    0 -0.38506367376E+01 -0.37181311672E+01  0.11868264216E+02  0.13019508379E+02  0.51100000000E-03 0.  1.
        -12    1    3    3    0    0  0.51830690916E+01  0.28763724190E+02  0.17101507801E+02  0.33862628421E+02  0.00000000000E+00 0.  1.
</event>
<event>
 7    1  0.6246445E-012  0.5930194E+02  0.7816164E-02  0.1266605E+00
        -11   -1    0    0    0    0  0.00000000000E+00  0.00000000000E+00  0.45593999997E+02  0.45594000000E+02  0.51100000000E-03 0. -1.
         11   -1    0    0    0    0 -0.00000000000E+00 -0.00000000000E+00 -0.45593999997E+02  0.45594000000E+02  0.51100000000E-03 0.  1.
    9900012    2    1    2    0    0  0.40797873721E+00 -0.31778744205E+02  0.25817998618E+01  0.59301941598E+02  0.49999995569E+02 0.  0.
         12    1    1    2    0    0 -0.40797873721E+00  0.31778744205E+02 -0.25817998618E+01  0.31886058402E+02  0.00000000000E+00 0. -1.
         11    1    3    3    0    0  0.48371766718E+01 -0.11345964492E+01 -0.24246777613E+01  0.55285305248E+01  0.51100000000E-03 0. -1.
        -11    1    3    3    0    0  0.37973859385E+01  0.23559809631E+00 -0.15395957475E+02  0.15859103167E+02  0.51100000000E-03 0.  1.
         12    1    3    3    0    0 -0.82265838731E+01 -0.30879745852E+02  0.20402435098E+02  0.37914307906E+02  0.00000000000E+00 0. -1.
</event>
<event>
 7    1  0.6246445E-012  0.5930196E+02  0.7816164E-02  0.1266605E+00
        -11   -1    0    0    0    0  0.00000000000E+00  0.00000000000E+00  0.45593999997E+02  0.45594000000E+02  0.51100000000E-03 0. -1.
         11   -1    0    0    0    0 -0.00000000000E+00 -0.00000000000E+00 -0.45593999997E+02  0.45594000000E+02  0.51100000000E-03 0.  1.
    9900012    2    1    2    0    0 -0.19415236236E+01  0.31418590100E+02 -0.50815796166E+01  0.59301956513E+02  0.50000022771E+02 0.  0.
         12    1    1    2    0    0  0.19415236236E+01 -0.31418590100E+02  0.50815796166E+01  0.31886043487E+02  0.00000000000E+00 0. -1.
         11    1    3    3    0    0 -0.10560811913E+02  0.26212444638E+02  0.12162361224E+02  0.30765988249E+02  0.51100000000E-03 0. -1.
        -11    1    3    3    0    0  0.31919361470E+00  0.11960737957E+02 -0.10218930133E+02  0.15734918823E+02  0.51100000000E-03 0.  1.
        -12    1    3    3    0    0  0.83000946743E+01 -0.67545924948E+01 -0.70250107073E+01  0.12801049442E+02  0.00000000000E+00 0.  1.
</event>
<event>
 7    1  0.6246445E-012  0.5930195E+02  0.7816164E-02  0.1266605E+00
        -11   -1    0    0    0    0  0.00000000000E+00  0.00000000000E+00  0.45593999997E+02  0.45594000000E+02  0.51100000000E-03 0. -1.
         11   -1    0    0    0    0 -0.00000000000E+00 -0.00000000000E+00 -0.45593999997E+02  0.45594000000E+02  0.51100000000E-03 0.  1.
    9900012    2    1    2    0    0  0.29359410788E+01  0.11875570495E+02 -0.29446070976E+02  0.59301952572E+02  0.50000015583E+02 0.  0.
         12    1    1    2    0    0 -0.29359410788E+01 -0.11875570495E+02  0.29446070976E+02  0.31886047428E+02  0.00000000000E+00 0. -1.
         11    1    3    3    0    0  0.13437779186E+02  0.62519970678E+01  0.79412826825E+00  0.14842237593E+02  0.51100000000E-03 0. -1.
        -11    1    3    3    0    0 -0.12308545779E+02  0.10652672653E+02 -0.28163021241E+01  0.16520026990E+02  0.51100000000E-03 0.  1.
        -12    1    3    3    0    0  0.18067076714E+01 -0.50290992255E+01 -0.27423897121E+02  0.27939687989E+02  0.00000000000E+00 0.  1.
</event>
<event>
 7    1  0.6246445E-012  0.5930196E+02  0.7816164E-02  0.1266605E+00
        -11   -1    0    0    0    0  0.00000000000E+00  0.00000000000E+00  0.45593999997E+02  0.45594000000E+02  0.51100000000E-03 0.  1.
         11   -1    0    0    0    0 -0.00000000000E+00 -0.00000000000E+00 -0.45593999997E+02  0.45594000000E+02  0.51100000000E-03 0. -1.
    9900012    2    1    2    0    0 -0.58363424475E+01 -0.24012527739E+02 -0.20150816565E+02  0.59301956191E+02  0.50000022183E+02 0.  0.
         12    1    1    2    0    0  0.58363424475E+01  0.24012527739E+02  0.20150816565E+02  0.31886043809E+02  0.00000000000E+00 0. -1.
         11    1    3    3    0    0 -0.95793062734E+01  0.82009581696E+01 -0.27184110813E+01  0.12899945064E+02  0.51100000000E-03 0. -1.
        -11    1    3    3    0    0 -0.40292392366E+01 -0.11710752199E+02  0.64643922001E+01  0.13970141469E+02  0.51100000000E-03 0.  1.
        -12    1    3    3    0    0  0.77722030625E+01 -0.20502733710E+02 -0.23896797683E+02  0.32431869658E+02  0.00000000000E+00 0.  1.
</event>
<event>
 7    1  0.6246445E-012  0.5930182E+02  0.7816164E-02  0.1266605E+00
        -11   -1    0    0    0    0  0.00000000000E+00  0.00000000000E+00  0.45593999997E+02  0.45594000000E+02  0.51100000000E-03 0.  1.
         11   -1    0    0    0    0 -0.00000000000E+00 -0.00000000000E+00 -0.45593999997E+02  0.45594000000E+02  0.51100000000E-03 0. -1.
    9900012    2    1    2    0    0 -0.15237077100E+02 -0.77897363275E+00  0.27999164506E+02  0.59301819114E+02  0.49999772187E+02 0.  0.
         12    1    1    2    0    0  0.15237077100E+02  0.77897363275E+00 -0.27999164506E+02  0.31886180886E+02  0.00000000000E+00 0. -1.
         11    1    3    3    0    0 -0.16908088565E+02  0.31856286047E+01  0.68418039129E+01  0.18515992265E+02  0.51100000000E-03 0. -1.
        -11    1    3    3    0    0  0.28368846227E+01 -0.88741980848E+01 -0.73303333633E+01  0.11854665474E+02  0.51100000000E-03 0.  1.
        -12    1    3    3    0    0 -0.11658731579E+01  0.49095958474E+01  0.28487693956E+02  0.28931161375E+02  0.00000000000E+00 0.  1.
</event>
<event>
 7    1  0.6246445E-012  0.5930191E+02  0.7816164E-02  0.1266605E+00
        -11   -1    0    0    0    0  0.00000000000E+00  0.00000000000E+00  0.45593999997E+02  0.45594000000E+02  0.51100000000E-03 0. -1.
         11   -1    0    0    0    0 -0.00000000000E+00 -0.00000000000E+00 -0.45593999997E+02  0.45594000000E+02  0.51100000000E-03 0.  1.
    9900012    2    1    2    0    0  0.85696942748E+01 -0.22645752160E+02 -0.20747365281E+02  0.59301907154E+02  0.49999932752E+02 0.  0.
         12    1    1    2    0    0 -0.85696942748E+01  0.22645752160E+02  0.20747365281E+02  0.31886092846E+02  0.00000000000E+00 0. -1.
         11    1    3    3    0    0 -0.20837944049E+01 -0.11520186232E+02  0.10507494441E+01  0.11754189236E+02  0.51100000000E-03 0. -1.
        -11    1    3    3    0    0  0.73657441937E+01 -0.22937628415E+02 -0.18880374691E+01  0.24165133365E+02  0.51100000000E-03 0.  1.
         12    1    3    3    0    0  0.32877444860E+01  0.11812062487E+02 -0.19910077256E+02  0.23382584552E+02  0.00000000000E+00 0. -1.
</event>
<event>
 7    1  0.6246445E-012  0.5930185E+02  0.7816164E-02  0.1266605E+00
        -11   -1    0    0    0    0  0.00000000000E+00  0.00000000000E+00  0.45593999997E+02  0.45594000000E+02  0.51100000000E-03 0. -1.
         11   -1    0    0    0    0 -0.00000000000E+00 -0.00000000000E+00 -0.45593999997E+02  0.45594000000E+02  0.51100000000E-03 0.  1.
    9900012    2    1    2    0    0  0.10087769270E+02 -0.58989888900E+01 -0.29667579869E+02  0.59301851689E+02  0.49999831597E+02 0.  0.
         12    1    1    2    0    0 -0.10087769270E+02  0.58989888900E+01  0.29667579869E+02  0.31886148311E+02  0.00000000000E+00 0. -1.
         11    1    3    3    0    0  0.62256330554E+01  0.90848504188E+01  0.14315166088E+01  0.11105955796E+02  0.51100000000E-03 0. -1.
        -11    1    3    3    0    0  0.56072218602E+01 -0.14159482860E+02  0.17145678959E+01  0.15325522347E+02  0.51100000000E-03 0.  1.
        -12    1    3    3    0    0 -0.17450856455E+01 -0.82435644832E+00 -0.32813664374E+02  0.32870373547E+02  0.00000000000E+00 0.  1.
</event>
<event>
 7    1  0.6246445E-012  0.5930197E+02  0.7816164E-02  0.1266605E+00
        -11   -1    0    0    0    0  0.00000000000E+00  0.00000000000E+00  0.45593999997E+02  0.45594000000E+02  0.51100000000E-03 0.  1.
         11   -1    0    0    0    0 -0.00000000000E+00 -0.00000000000E+00 -0.45593999997E+02  0.45594000000E+02  0.51100000000E-03 0. -1.
    9900012    2    1    2    0    0  0.24635887161E+02  0.79597642437E+01  0.18612745090E+02  0.59301967590E+02  0.50000042973E+02 0.  0.
         12    1    1    2    0    0 -0.24635887161E+02 -0.79597642437E+01 -0.18612745090E+02  0.31886032410E+02  0.00000000000E+00 0. -1.
         11    1    3    3    0    0 -0.93043171838E+01  0.30037150394E+00 -0.79398182815E+01  0.12235246459E+02  0.51100000000E-03 0. -1.
        -11    1    3    3    0    0 -0.13153379667E+01 -0.14268505706E+01 -0.10448112706E+00  0.19434333239E+01  0.51100000000E-03 0.  1.
        -12    1    3    3    0    0  0.35255542312E+02  0.90862433104E+01  0.26657044499E+02  0.45123287808E+02  0.00000000000E+00 0.  1.
</event>
<event>
 7    1  0.6246445E-012  0.5930196E+02  0.7816164E-02  0.1266605E+00
        -11   -1    0    0    0    0  0.00000000000E+00  0.00000000000E+00  0.45593999997E+02  0.45594000000E+02  0.51100000000E-03 0. -1.
         11   -1    0    0    0    0 -0.00000000000E+00 -0.00000000000E+00 -0.45593999997E+02  0.45594000000E+02  0.51100000000E-03 0.  1.
    9900012    2    1    2    0    0 -0.39153255270E+01  0.65685597414E+01 -0.30955515731E+02  0.59301957517E+02  0.50000024602E+02 0.  0.
         12    1    1    2    0    0  0.39153255270E+01 -0.65685597414E+01  0.30955515731E+02  0.31886042483E+02  0.00000000000E+00 0. -1.
         11    1    3    3    0    0 -0.38082762080E+01  0.11748785928E+02 -0.99436930163E+01  0.15856038898E+02  0.51100000000E-03 0.  1.
        -11    1    3    3    0    0 -0.72696140548E+01  0.14643254663E+02 -0.54038198735E+01  0.17218404836E+02  0.51100000000E-03 0. -1.
        -12    1    3    3    0    0  0.71625647357E+01 -0.19823480849E+02 -0.15608002841E+02  0.26227513783E+02  0.00000000000E+00 0.  1.
</event>
<event>
 7    1  0.6246445E-012  0.5930192E+02  0.7816164E-02  0.1266605E+00
        -11   -1    0    0    0    0  0.00000000000E+00  0.00000000000E+00  0.45593999997E+02  0.45594000000E+02  0.51100000000E-03 0.  1.
         11   -1    0    0    0    0 -0.00000000000E+00 -0.00000000000E+00 -0.45593999997E+02  0.45594000000E+02  0.51100000000E-03 0. -1.
    9900012    2    1    2    0    0 -0.13507661258E+02 -0.12936111611E+02  0.25824841221E+02  0.59301916510E+02  0.49999949814E+02 0.  0.
         12    1    1    2    0    0  0.13507661258E+02  0.12936111611E+02 -0.25824841221E+02  0.31886083490E+02  0.00000000000E+00 0. -1.
         11    1    3    3    0    0 -0.12554830353E+02 -0.92761133105E+01  0.27253273993E+02  0.31407180499E+02  0.51100000000E-03 0. -1.
        -11    1    3    3    0    0 -0.75505891928E+01 -0.74032821015E+01  0.97513763207E+01  0.14384342997E+02  0.51100000000E-03 0.  1.
         12    1    3    3    0    0  0.65977582881E+01  0.37432838007E+01 -0.11179809093E+02  0.13510393014E+02  0.00000000000E+00 0. -1.
</event>
<event>
 7    1  0.6246445E-012  0.5930195E+02  0.7816164E-02  0.1266605E+00
        -11   -1    0    0    0    0  0.00000000000E+00  0.00000000000E+00  0.45593999997E+02  0.45594000000E+02  0.51100000000E-03 0. -1.
         11   -1    0    0    0    0 -0.00000000000E+00 -0.00000000000E+00 -0.45593999997E+02  0.45594000000E+02  0.51100000000E-03 0.  1.
    9900012    2    1    2    0    0 -0.23782113467E+02  0.16607744779E+02 -0.13240616383E+02  0.59301952427E+02  0.50000015319E+02 0.  0.
         12    1    1    2    0    0  0.23782113467E+02 -0.16607744779E+02  0.13240616383E+02  0.31886047573E+02  0.00000000000E+00 0. -1.
         11    1    3    3    0    0 -0.13383541879E+02  0.16751222624E+02 -0.50543866685E+01  0.22028832867E+02  0.51100000000E-03 0. -1.
        -11    1    3    3    0    0 -0.19843677723E+02  0.11281210212E+01 -0.15544736662E+02  0.25232578956E+02  0.51100000000E-03 0.  1.
         12    1    3    3    0    0  0.94451061339E+01 -0.12715988669E+01  0.73585069476E+01  0.12040540605E+02  0.00000000000E+00 0. -1.
</event>
<event>
 7    1  0.6246445E-012  0.5930195E+02  0.7816164E-02  0.1266605E+00
        -11   -1    0    0    0    0  0.00000000000E+00  0.00000000000E+00  0.45593999997E+02  0.45594000000E+02  0.51100000000E-03 0.  1.
         11   -1    0    0    0    0 -0.00000000000E+00 -0.00000000000E+00 -0.45593999997E+02  0.45594000000E+02  0.51100000000E-03 0. -1.
    9900012    2    1    2    0    0  0.83440136673E+01  0.30710683632E+02 -0.19878772412E+01  0.59301948047E+02  0.50000007330E+02 0.  0.
         12    1    1    2    0    0 -0.83440136673E+01 -0.30710683632E+02  0.19878772412E+01  0.31886051953E+02  0.00000000000E+00 0. -1.
         11    1    3    3    0    0  0.14381973003E+02  0.23946481230E+02 -0.13273493925E+02  0.30926699662E+02  0.51100000000E-03 0. -1.
        -11    1    3    3    0    0  0.71608207836E+01  0.75169984600E+01 -0.86710600591E+00  0.10417988924E+02  0.51100000000E-03 0.  1.
         12    1    3    3    0    0 -0.13198780119E+02 -0.75279605720E+00  0.12152722690E+02  0.17957259460E+02  0.00000000000E+00 0. -1.
</event>
<event>
 7    1  0.6246445E-012  0.5930196E+02  0.7816164E-02  0.1266605E+00
        -11   -1    0    0    0    0  0.00000000000E+00  0.00000000000E+00  0.45593999997E+02  0.45594000000E+02  0.51100000000E-03 0.  1.
         11   -1    0    0    0    0 -0.00000000000E+00 -0.00000000000E+00 -0.45593999997E+02  0.45594000000E+02  0.51100000000E-03 0. -1.
    9900012    2    1    2    0    0  0.22836399953E+02  0.13458572657E+02  0.17722455152E+02  0.59301956699E+02  0.50000023110E+02 0.  0.
         12    1    1    2    0    0 -0.22836399953E+02 -0.13458572657E+02 -0.17722455152E+02  0.31886043301E+02  0.00000000000E+00 0. -1.
         11    1    3    3    0    0  0.14481787943E+02  0.85602072022E+01  0.12486361842E+02  0.20950144670E+02  0.51100000000E-03 0. -1.
        -11    1    3    3    0    0  0.14138586580E+02  0.15651872898E+02  0.12128320078E+02  0.24330575494E+02  0.51100000000E-03 0.  1.
         12    1    3    3    0    0 -0.57839745704E+01 -0.10753507443E+02 -0.68922267681E+01  0.14021236535E+02  0.00000000000E+00 0. -1.
</event>
<event>
 7    1  0.6246445E-012  0.5930195E+02  0.7816164E-02  0.1266605E+00
        -11   -1    0    0    0    0  0.00000000000E+00  0.00000000000E+00  0.45593999997E+02  0.45594000000E+02  0.51100000000E-03 0. -1.
         11   -1    0    0    0    0 -0.00000000000E+00 -0.00000000000E+00 -0.45593999997E+02  0.45594000000E+02  0.51100000000E-03 0.  1.
    9900012    2    1    2    0    0  0.19958739049E+02 -0.20489746878E+02 -0.14090387755E+02  0.59301952602E+02  0.50000015638E+02 0.  0.
         12    1    1    2    0    0 -0.19958739049E+02  0.20489746878E+02  0.14090387755E+02  0.31886047398E+02  0.00000000000E+00 0. -1.
         11    1    3    3    0    0  0.18461558462E+02  0.55993109387E+01  0.50056675081E+01  0.19930833683E+02  0.51100000000E-03 0. -1.
        -11    1    3    3    0    0 -0.90542796652E+01 -0.14599010306E+02 -0.39477527068E+01  0.17626566139E+02  0.51100000000E-03 0.  1.
        -12    1    3    3    0    0  0.10551460252E+02 -0.11490047511E+02 -0.15148302557E+02  0.21744552780E+02  0.00000000000E+00 0.  1.
</event>
<event>
 7    1  0.6246445E-012  0.5930193E+02  0.7816164E-02  0.1266605E+00
        -11   -1    0    0    0    0  0.00000000000E+00  0.00000000000E+00  0.45593999997E+02  0.45594000000E+02  0.51100000000E-03 0. -1.
         11   -1    0    0    0    0 -0.00000000000E+00 -0.00000000000E+00 -0.45593999997E+02  0.45594000000E+02  0.51100000000E-03 0.  1.
    9900012    2    1    2    0    0  0.24126517339E+02 -0.12629868968E+02 -0.16586703359E+02  0.59301934746E+02  0.49999983072E+02 0.  0.
         12    1    1    2    0    0 -0.24126517339E+02  0.12629868968E+02  0.16586703359E+02  0.31886065254E+02  0.00000000000E+00 0. -1.
         11    1    3    3    0    0 -0.12715014678E+02 -0.20627522121E+01 -0.32655041396E+01  0.13288719370E+02  0.51100000000E-03 0.  1.
        -11    1    3    3    0    0  0.28234359646E+01  0.54612468528E+01 -0.90602806661E-01  0.61485947145E+01  0.51100000000E-03 0. -1.
        -12    1    3    3    0    0  0.34018096053E+02 -0.16028363609E+02 -0.13230596413E+02  0.39864620661E+02  0.00000000000E+00 0.  1.
</event>
<event>
 7    1  0.6246445E-012  0.5930195E+02  0.7816164E-02  0.1266605E+00
        -11   -1    0    0    0    0  0.00000000000E+00  0.00000000000E+00  0.45593999997E+02  0.45594000000E+02  0.51100000000E-03 0.  1.
         11   -1    0    0    0    0 -0.00000000000E+00 -0.00000000000E+00 -0.45593999997E+02  0.45594000000E+02  0.51100000000E-03 0. -1.
    9900012    2    1    2    0    0 -0.13587253452E+02  0.18315251285E+02  0.22285836175E+02  0.59301946935E+02  0.50000005303E+02 0.  0.
         12    1    1    2    0    0  0.13587253452E+02 -0.18315251285E+02 -0.22285836175E+02  0.31886053065E+02  0.00000000000E+00 0. -1.
         11    1    3    3    0    0 -0.18314466081E+02  0.63824754743E+01  0.41852449743E+01  0.19841167727E+02  0.51100000000E-03 0. -1.
        -11    1    3    3    0    0 -0.10410059806E+02  0.77559330399E+01 -0.28378618279E+01  0.13288239255E+02  0.51100000000E-03 0.  1.
         12    1    3    3    0    0  0.15137272436E+02  0.41768427713E+01  0.20938453029E+02  0.26172539953E+02  0.00000000000E+00 0. -1.
</event>
<event>
 7    1  0.6246445E-012  0.5930195E+02  0.7816164E-02  0.1266605E+00
        -11   -1    0    0    0    0  0.00000000000E+00  0.00000000000E+00  0.45593999997E+02  0.45594000000E+02  0.51100000000E-03 0. -1.
         11   -1    0    0    0    0 -0.00000000000E+00 -0.00000000000E+00 -0.45593999997E+02  0.45594000000E+02  0.51100000000E-03 0.  1.
    9900012    2    1    2    0    0 -0.20824133321E+02  0.23678450948E+02 -0.47335325372E+01  0.59301954492E+02  0.50000019084E+02 0.  0.
         12    1    1    2    0    0  0.20824133321E+02 -0.23678450948E+02  0.47335325372E+01  0.31886045508E+02  0.00000000000E+00 0. -1.
         11    1    3    3    0    0  0.86383913392E+01  0.13574083447E+01 -0.13281860360E+01  0.88446843217E+01  0.51100000000E-03 0. -1.
        -11    1    3    3    0    0 -0.49607462013E+01  0.25124251287E+02 -0.39267937736E+00  0.25612325216E+02  0.51100000000E-03 0.  1.
        -12    1    3    3    0    0 -0.24501778459E+02 -0.28032086837E+01 -0.30126671239E+01  0.24844944954E+02  0.00000000000E+00 0.  1.
</event>
<event>
 7    1  0.6246445E-012  0.5930211E+02  0.7816164E-02  0.1266604E+00
        -11   -1    0    0    0    0  0.00000000000E+00  0.00000000000E+00  0.45593999997E+02  0.45594000000E+02  0.51100000000E-03 0.  1.
         11   -1    0    0    0    0 -0.00000000000E+00 -0.00000000000E+00 -0.45593999997E+02  0.45594000000E+02  0.51100000000E-03 0. -1.
    9900012    2    1    2    0    0  0.28069230628E+02 -0.10019008245E+02  0.11333475747E+02  0.59302111165E+02  0.50000304818E+02 0.  0.
         12    1    1    2    0    0 -0.28069230628E+02  0.10019008245E+02 -0.11333475747E+02  0.31885888835E+02  0.00000000000E+00 0. -1.
         11    1    3    3    0    0  0.98276661102E+01 -0.18673345290E+02 -0.11426436083E+02  0.23996672422E+02  0.51100000000E-03 0. -1.
        -11    1    3    3    0    0  0.13483531593E+02 -0.31858653322E+01  0.89059060866E+01  0.16470292214E+02  0.51100000000E-03 0.  1.
        -12    1    3    3    0    0  0.47580329252E+01  0.11840202378E+02  0.13854005743E+02  0.18835146530E+02  0.00000000000E+00 0.  1.
</event>
<event>
 7    1  0.6246445E-012  0.5930195E+02  0.7816164E-02  0.1266605E+00
        -11   -1    0    0    0    0  0.00000000000E+00  0.00000000000E+00  0.45593999997E+02  0.45594000000E+02  0.51100000000E-03 0. -1.
         11   -1    0    0    0    0 -0.00000000000E+00 -0.00000000000E+00 -0.45593999997E+02  0.45594000000E+02  0.51100000000E-03 0.  1.
    9900012    2    1    2    0    0  0.14121642910E+02  0.22377089450E+02 -0.17792273957E+02  0.59301953784E+02  0.50000017793E+02 0.  0.
         12    1    1    2    0    0 -0.14121642910E+02 -0.22377089450E+02  0.17792273957E+02  0.31886046216E+02  0.00000000000E+00 0. -1.
         11    1    3    3    0    0 -0.67266610317E+01 -0.93147213211E+01  0.46829904169E+01  0.12407352716E+02  0.51100000000E-03 0. -1.
        -11    1    3    3    0    0 -0.20864182863E+01  0.75390537031E+01 -0.49677035380E+01  0.92665285143E+01  0.51100000000E-03 0.  1.
        -12    1    3    3    0    0  0.22934722228E+02  0.24152757068E+02 -0.17507560836E+02  0.37628072553E+02  0.00000000000E+00 0.  1.
</event>
<event>
 7    1  0.7311120E-012  0.5930190E+02  0.7816164E-02  0.1266605E+00
        -11   -1    0    0    0    0  0.00000000000E+00  0.00000000000E+00  0.45593999997E+02  0.45594000000E+02  0.51100000000E-03 0. -1.
         11   -1    0    0    0    0 -0.00000000000E+00 -0.00000000000E+00 -0.45593999997E+02  0.45594000000E+02  0.51100000000E-03 0.  1.
    9900012    2    1    2    0    0  0.48938544922E+01  0.23164382389E+02 -0.21358487528E+02  0.59301899380E+02  0.49999918574E+02 0.  0.
         12    1    1    2    0    0 -0.48938544922E+01 -0.23164382389E+02  0.21358487528E+02  0.31886100620E+02  0.00000000000E+00 0. -1.
         11    1    3    3    0    0  0.15526743215E+02  0.73278325211E+01 -0.15159108936E+02  0.22903612561E+02  0.51100000000E-03 0. -1.
        -11    1    3    3    0    0  0.77411159642E+01  0.12954614118E+02 -0.90283298898E+01  0.17585722737E+02  0.51100000000E-03 0.  1.
         12    1    3    3    0    0 -0.18374004687E+02  0.28819357500E+01  0.28289512981E+01  0.18812564083E+02  0.00000000000E+00 0. -1.
</event>
<event>
 7    1  0.6246445E-012  0.5930195E+02  0.7816164E-02  0.1266605E+00
        -11   -1    0    0    0    0  0.00000000000E+00  0.00000000000E+00  0.45593999997E+02  0.45594000000E+02  0.51100000000E-03 0. -1.
         11   -1    0    0    0    0 -0.00000000000E+00 -0.00000000000E+00 -0.45593999997E+02  0.45594000000E+02  0.51100000000E-03 0.  1.
    9900012    2    1    2    0    0  0.31137828873E+01 -0.58521821855E+01 -0.31189366654E+02  0.59301948622E+02  0.50000008378E+02 0.  0.
         12    1    1    2    0    0 -0.31137828873E+01  0.58521821855E+01  0.31189366654E+02  0.31886051378E+02  0.00000000000E+00 0. -1.
         11    1    3    3    0    0 -0.46454238158E+00  0.79526877702E+01 -0.10490586037E+02  0.13172449964E+02  0.51100000000E-03 0. -1.
        -11    1    3    3    0    0  0.17723923417E+02 -0.70650553813E+01 -0.23438332392E+02  0.30222638773E+02  0.51100000000E-03 0.  1.
         12    1    3    3    0    0 -0.14145598148E+02 -0.67398145744E+01  0.27395517740E+01  0.15906859885E+02  0.00000000000E+00 0. -1.
</event>
<event>
 7    1  0.6246445E-012  0.5930207E+02  0.7816164E-02  0.1266604E+00
        -11   -1    0    0    0    0  0.00000000000E+00  0.00000000000E+00  0.45593999997E+02  0.45594000000E+02  0.51100000000E-03 0.  1.
         11   -1    0    0    0    0 -0.00000000000E+00 -0.00000000000E+00 -0.45593999997E+02  0.45594000000E+02  0.51100000000E-03 0. -1.
    9900012    2    1    2    0    0 -0.19216936539E+02  0.75526708417E+01  0.24297714134E+02  0.59302072086E+02  0.50000233547E+02 0.  0.
         12    1    1    2    0    0  0.19216936539E+02 -0.75526708417E+01 -0.24297714134E+02  0.31885927914E+02  0.00000000000E+00 0. -1.
         11    1    3    3    0    0 -0.14241956498E+01 -0.12434772649E+02 -0.79040893165E+01  0.14802923099E+02  0.51100000000E-03 0. -1.
        -11    1    3    3    0    0 -0.21113182676E+01 -0.16829122273E+01  0.79388239558E+01  0.83853911331E+01  0.51100000000E-03 0.  1.
        -12    1    3    3    0    0 -0.15681422622E+02  0.21670355718E+02  0.24262979494E+02  0.36113757854E+02  0.00000000000E+00 0.  1.
</event>
<event>
 7    1  0.6246445E-012  0.5930197E+02  0.7816164E-02  0.1266605E+00
        -11   -1    0    0    0    0  0.00000000000E+00  0.00000000000E+00  0.45593999997E+02  0.45594000000E+02  0.51100000000E-03 0.  1.
         11   -1    0    0    0    0 -0.00000000000E+00 -0.00000000000E+00 -0.45593999997E+02  0.45594000000E+02  0.51100000000E-03 0. -1.
    9900012    2    1    2    0    0 -0.31824345322E+02 -0.14092773479E+01 -0.13943303336E+01  0.59301965833E+02  0.50000039767E+02 0.  0.
         12    1    1    2    0    0  0.31824345322E+02  0.14092773479E+01  0.13943303336E+01  0.31886034167E+02  0.00000000000E+00 0. -1.
         11    1    3    3    0    0 -0.23792626386E+01  0.88132418174E+01 -0.22374512746E+01  0.93989526280E+01  0.51100000000E-03 0. -1.
        -11    1    3    3    0    0 -0.15238277618E+02  0.14467646457E+02 -0.27501297327E+01  0.21191533984E+02  0.51100000000E-03 0.  1.
        -12    1    3    3    0    0 -0.14206805065E+02 -0.24690165623E+02  0.35932506738E+01  0.28711479221E+02  0.00000000000E+00 0.  1.
</event>
<event>
 7    1  0.6246445E-012  0.5930195E+02  0.7816164E-02  0.1266605E+00
        -11   -1    0    0    0    0  0.00000000000E+00  0.00000000000E+00  0.45593999997E+02  0.45594000000E+02  0.51100000000E-03 0.  1.
         11   -1    0    0    0    0 -0.00000000000E+00 -0.00000000000E+00 -0.45593999997E+02  0.45594000000E+02  0.51100000000E-03 0. -1.
    9900012    2    1    2    0    0  0.25519558424E+02 -0.50495647209E+01  0.18438390556E+02  0.59301949565E+02  0.50000010099E+02 0.  0.
         12    1    1    2    0    0 -0.25519558424E+02  0.50495647209E+01 -0.18438390556E+02  0.31886050435E+02  0.00000000000E+00 0. -1.
         11    1    3    3    0    0 -0.11045566249E+02  0.13444804693E+01  0.10761337278E+02  0.15479616977E+02  0.51100000000E-03 0. -1.
        -11    1    3    3    0    0 -0.20484940857E+01  0.27087021922E+01 -0.89229120574E-01  0.33972573765E+01  0.51100000000E-03 0.  1.
        -12    1    3    3    0    0  0.38613618759E+02 -0.91027473824E+01  0.77662823985E+01  0.40425075211E+02  0.00000000000E+00 0.  1.
</event>
<event>
 7    1  0.6246445E-012  0.5930195E+02  0.7816164E-02  0.1266605E+00
        -11   -1    0    0    0    0  0.00000000000E+00  0.00000000000E+00  0.45593999997E+02  0.45594000000E+02  0.51100000000E-03 0.  1.
         11   -1    0    0    0    0 -0.00000000000E+00 -0.00000000000E+00 -0.45593999997E+02  0.45594000000E+02  0.51100000000E-03 0. -1.
    9900012    2    1    2    0    0 -0.24938165216E+02  0.17342351859E+02  0.96979953307E+01  0.59301947159E+02  0.50000005711E+02 0.  0.
         12    1    1    2    0    0  0.24938165216E+02 -0.17342351859E+02 -0.96979953307E+01  0.31886052841E+02  0.00000000000E+00 0. -1.
         11    1    3    3    0    0  0.11567786173E+01  0.58709704300E+01  0.10726636675E+02  0.12282799566E+02  0.51100000000E-03 0. -1.
        -11    1    3    3    0    0 -0.54232742450E+01  0.12649326656E+02  0.15351868737E+02  0.20617886467E+02  0.51100000000E-03 0.  1.
         12    1    3    3    0    0 -0.20671669588E+02 -0.11779452272E+01 -0.16380510082E+02  0.26401261126E+02  0.00000000000E+00 0. -1.
</event>
<event>
 7    1  0.6246445E-012  0.5930193E+02  0.7816164E-02  0.1266605E+00
        -11   -1    0    0    0    0  0.00000000000E+00  0.00000000000E+00  0.45593999997E+02  0.45594000000E+02  0.51100000000E-03 0.  1.
         11   -1    0    0    0    0 -0.00000000000E+00 -0.00000000000E+00 -0.45593999997E+02  0.45594000000E+02  0.51100000000E-03 0. -1.
    9900012    2    1    2    0    0 -0.20818166836E+01 -0.99121036783E+01  0.30234711483E+02  0.59301928770E+02  0.49999972174E+02 0.  0.
         12    1    1    2    0    0  0.20818166836E+01  0.99121036783E+01 -0.30234711483E+02  0.31886071230E+02  0.00000000000E+00 0. -1.
         11    1    3    3    0    0 -0.14437973539E+01 -0.74363307443E+01 -0.29198224291E+01  0.81184314382E+01  0.51100000000E-03 0. -1.
        -11    1    3    3    0    0 -0.30398872787E+00  0.12526196882E+02 -0.22499614961E+01  0.12730292396E+02  0.51100000000E-03 0.  1.
        -12    1    3    3    0    0 -0.33403060179E+00 -0.15001969816E+02  0.35404495408E+02  0.38453204936E+02  0.00000000000E+00 0.  1.
</event>
<event>
 7    1  0.6246445E-012  0.5930205E+02  0.7816164E-02  0.1266604E+00
        -11   -1    0    0    0    0  0.00000000000E+00  0.00000000000E+00  0.45593999997E+02  0.45594000000E+02  0.51100000000E-03 0. -1.
         11   -1    0    0    0    0 -0.00000000000E+00 -0.00000000000E+00 -0.45593999997E+02  0.45594000000E+02  0.51100000000E-03 0.  1.
    9900012    2    1    2    0    0  0.16902133836E+02  0.26490735520E+02  0.54104457661E+01  0.59302045099E+02  0.50000184329E+02 0.  0.
         12    1    1    2    0    0 -0.16902133836E+02 -0.26490735520E+02 -0.54104457661E+01  0.31885954901E+02  0.00000000000E+00 0. -1.
         11    1    3    3    0    0  0.59782165833E+01  0.52468002890E+01  0.17440827914E+02  0.19168997506E+02  0.51100000000E-03 0. -1.
        -11    1    3    3    0    0  0.63304288255E+01 -0.68667538051E+01 -0.57426002449E+01  0.10963762802E+02  0.51100000000E-03 0.  1.
        -12    1    3    3    0    0  0.45934884276E+01  0.28110689036E+02 -0.62877819027E+01  0.29169284791E+02  0.00000000000E+00 0.  1.
</event>
<event>
 7    1  0.6246445E-012  0.5930190E+02  0.7816164E-02  0.1266605E+00
        -11   -1    0    0    0    0  0.00000000000E+00  0.00000000000E+00  0.45593999997E+02  0.45594000000E+02  0.51100000000E-03 0. -1.
         11   -1    0    0    0    0 -0.00000000000E+00 -0.00000000000E+00 -0.45593999997E+02  0.45594000000E+02  0.51100000000E-03 0.  1.
    9900012    2    1    2    0    0 -0.14418914558E+01  0.14068913694E+02 -0.28578134559E+02  0.59301903369E+02  0.49999925848E+02 0.  0.
         12    1    1    2    0    0  0.14418914558E+01 -0.14068913694E+02  0.28578134559E+02  0.31886096631E+02  0.00000000000E+00 0. -1.
         11    1    3    3    0    0  0.73692135965E+01  0.90766171682E+01 -0.16877887841E+02  0.20531765304E+02  0.51100000000E-03 0. -1.
        -11    1    3    3    0    0  0.12756241057E+02  0.41124264962E+01 -0.10720144954E+02  0.17162611855E+02  0.51100000000E-03 0.  1.
         12    1    3    3    0    0 -0.21567346109E+02  0.87987002921E+00 -0.98010176428E+00  0.21607526210E+02  0.00000000000E+00 0. -1.
</event>
<event>
 7    1  0.6246445E-012  0.5930195E+02  0.7816164E-02  0.1266605E+00
        -11   -1    0    0    0    0  0.00000000000E+00  0.00000000000E+00  0.45593999997E+02  0.45594000000E+02  0.51100000000E-03 0. -1.
         11   -1    0    0    0    0 -0.00000000000E+00 -0.00000000000E+00 -0.45593999997E+02  0.45594000000E+02  0.51100000000E-03 0.  1.
    9900012    2    1    2    0    0 -0.83683897379E+01 -0.21962613726E+02 -0.21548413014E+02  0.59301945809E+02  0.50000003248E+02 0.  0.
         12    1    1    2    0    0  0.83683897379E+01  0.21962613726E+02  0.21548413014E+02  0.31886054191E+02  0.00000000000E+00 0. -1.
         11    1    3    3    0    0  0.81389080382E+01 -0.23572209337E+01 -0.12442459452E+02  0.15053674371E+02  0.51100000000E-03 0. -1.
        -11    1    3    3    0    0  0.39421378504E+01 -0.10400530277E+02 -0.17135206504E+02  0.20428577607E+02  0.51100000000E-03 0.  1.
        -12    1    3    3    0    0 -0.20449435626E+02 -0.92048625150E+01  0.80292529422E+01  0.23819693830E+02  0.00000000000E+00 0.  1.
</event>
<event>
 7    1  0.6246445E-012  0.5930177E+02  0.7816164E-02  0.1266605E+00
        -11   -1    0    0    0    0  0.00000000000E+00  0.00000000000E+00  0.45593999997E+02  0.45594000000E+02  0.51100000000E-03 0. -1.
         11   -1    0    0    0    0 -0.00000000000E+00 -0.00000000000E+00 -0.45593999997E+02  0.45594000000E+02  0.51100000000E-03 0.  1.
    9900012    2    1    2    0    0 -0.24033167395E+02  0.20386302027E+02  0.48515336847E+01  0.59301767478E+02  0.49999678015E+02 0.  0.
         12    1    1    2    0    0  0.24033167395E+02 -0.20386302027E+02 -0.48515336847E+01  0.31886232522E+02  0.00000000000E+00 0. -1.
         11    1    3    3    0    0 -0.33205940469E+01 -0.78237859243E+01 -0.59489135514E+01  0.10374369558E+02  0.51100000000E-03 0. -1.
        -11    1    3    3    0    0 -0.18299743982E+02  0.19200503604E+02 -0.81984869598E+01  0.27762477504E+02  0.51100000000E-03 0.  1.
         12    1    3    3    0    0 -0.24128293656E+01  0.90095843467E+01  0.18998934196E+02  0.21164920416E+02  0.00000000000E+00 0. -1.
</event>
<event>
 7    1  0.6246445E-012  0.5930196E+02  0.7816164E-02  0.1266605E+00
        -11   -1    0    0    0    0  0.00000000000E+00  0.00000000000E+00  0.45593999997E+02  0.45594000000E+02  0.51100000000E-03 0. -1.
         11   -1    0    0    0    0 -0.00000000000E+00 -0.00000000000E+00 -0.45593999997E+02  0.45594000000E+02  0.51100000000E-03 0.  1.
    9900012    2    1    2    0    0  0.16468645610E+02 -0.19948272470E+02 -0.18643219993E+02  0.59301960508E+02  0.50000030056E+02 0.  0.
         12    1    1    2    0    0 -0.16468645610E+02  0.19948272470E+02  0.18643219993E+02  0.31886039492E+02  0.00000000000E+00 0. -1.
         11    1    3    3    0    0 -0.55634015096E+00 -0.10885296754E+02 -0.16641177689E+02  0.19892913183E+02  0.51100000000E-03 0. -1.
        -11    1    3    3    0    0 -0.21971648572E+01 -0.17553598030E+02 -0.44816114225E+01  0.18249415838E+02  0.51100000000E-03 0.  1.
         12    1    3    3    0    0  0.19222150618E+02  0.84906223141E+01  0.24795691180E+01  0.21159631487E+02  0.00000000000E+00 0. -1.
</event>
<event>
 7    1  0.6246445E-012  0.5930200E+02  0.7816164E-02  0.1266605E+00
        -11   -1    0    0    0    0  0.00000000000E+00  0.00000000000E+00  0.45593999997E+02  0.45594000000E+02  0.51100000000E-03 0.  1.
         11   -1    0    0    0    0 -0.00000000000E+00 -0.00000000000E+00 -0.45593999997E+02  0.45594000000E+02  0.51100000000E-03 0. -1.
    9900012    2    1    2    0    0  0.24636939769E+02  0.17898839342E+02 -0.94535693208E+01  0.59301996427E+02  0.50000095564E+02 0.  0.
         12    1    1    2    0    0 -0.24636939769E+02 -0.17898839342E+02  0.94535693208E+01  0.31886003573E+02  0.00000000000E+00 0. -1.
         11    1    3    3    0    0 -0.79963405506E+01 -0.25998902264E+01 -0.50936115359E+01  0.98308580567E+01  0.51100000000E-03 0. -1.
        -11    1    3    3    0    0  0.59847433864E+01 -0.75998132444E+01 -0.46759414978E+01  0.10744242361E+02  0.51100000000E-03 0.  1.
        -12    1    3    3    0    0  0.26648536933E+02  0.28098542812E+02  0.31598371289E+00  0.38726896010E+02  0.00000000000E+00 0.  1.
</event>
<event>
 7    1  0.6246445E-012  0.5930166E+02  0.7816164E-02  0.1266606E+00
        -11   -1    0    0    0    0  0.00000000000E+00  0.00000000000E+00  0.45593999997E+02  0.45594000000E+02  0.51100000000E-03 0.  1.
         11   -1    0    0    0    0 -0.00000000000E+00 -0.00000000000E+00 -0.45593999997E+02  0.45594000000E+02  0.51100000000E-03 0. -1.
    9900012    2    1    2    0    0  0.12969120739E+02 -0.16036140804E+02  0.24318365001E+02  0.59301658395E+02  0.49999479072E+02 0.  0.
         12    1    1    2    0    0 -0.12969120739E+02  0.16036140804E+02 -0.24318365001E+02  0.31886341605E+02  0.00000000000E+00 0. -1.
         11    1    3    3    0    0 -0.79775080490E+01 -0.11771572118E+02  0.28437609837E+02  0.31794782565E+02  0.51100000000E-03 0. -1.
        -11    1    3    3    0    0  0.58456074364E+01 -0.78582729038E+01 -0.65675887021E+01  0.11792234773E+02  0.51100000000E-03 0.  1.
        -12    1    3    3    0    0  0.15101021352E+02  0.35937042174E+01  0.24483438655E+01  0.15714641057E+02  0.00000000000E+00 0.  1.
</event>
<event>
 7    1  0.6246445E-012  0.5930195E+02  0.7816164E-02  0.1266605E+00
        -11   -1    0    0    0    0  0.00000000000E+00  0.00000000000E+00  0.45593999997E+02  0.45594000000E+02  0.51100000000E-03 0.  1.
         11   -1    0    0    0    0 -0.00000000000E+00 -0.00000000000E+00 -0.45593999997E+02  0.45594000000E+02  0.51100000000E-03 0. -1.
    9900012    2    1    2    0    0  0.11013634218E+02 -0.22185162154E+02  0.20080807961E+02  0.59301946515E+02  0.50000004537E+02 0.  0.
         12    1    1    2    0    0 -0.11013634218E+02  0.22185162154E+02 -0.20080807961E+02  0.31886053485E+02  0.00000000000E+00 0. -1.
         11    1    3    3    0    0  0.40782700701E+01 -0.21180233932E+01  0.24759563176E+01  0.52200258435E+01  0.51100000000E-03 0. -1.
        -11    1    3    3    0    0  0.17880165493E+02 -0.25246936945E+02  0.25102261262E+02  0.39840076103E+02  0.51100000000E-03 0.  1.
         12    1    3    3    0    0 -0.10944801345E+02  0.51797981851E+01 -0.74974096185E+01  0.14241844568E+02  0.00000000000E+00 0. -1.
</event>
<event>
 7    1  0.6347593E-012  0.5930195E+02  0.7816164E-02  0.1266605E+00
        -11   -1    0    0    0    0  0.00000000000E+00  0.00000000000E+00  0.45593999997E+02  0.45594000000E+02  0.51100000000E-03 0.  1.
         11   -1    0    0    0    0 -0.00000000000E+00 -0.00000000000E+00 -0.45593999997E+02  0.45594000000E+02  0.51100000000E-03 0. -1.
    9900012    2    1    2    0    0 -0.23845011771E+02 -0.20333996168E+02  0.58876450059E+01  0.59301947402E+02  0.50000006155E+02 0.  0.
         12    1    1    2    0    0  0.23845011771E+02  0.20333996168E+02 -0.58876450059E+01  0.31886052598E+02  0.00000000000E+00 0. -1.
         11    1    3    3    0    0  0.21612137149E+01 -0.17283211476E+02 -0.65906281754E+01  0.18623013281E+02  0.51100000000E-03 0. -1.
        -11    1    3    3    0    0 -0.10145139328E+02 -0.14904205757E+02  0.10285487181E+02  0.20756937347E+02  0.51100000000E-03 0.  1.
         12    1    3    3    0    0 -0.15861086158E+02  0.11853421064E+02  0.21927860001E+01  0.19921996775E+02  0.00000000000E+00 0. -1.
</event>
<event>
 7    1  0.6246445E-012  0.5930196E+02  0.7816164E-02  0.1266605E+00
        -11   -1    0    0    0    0  0.00000000000E+00  0.00000000000E+00  0.45593999997E+02  0.45594000000E+02  0.51100000000E-03 0. -1.
         11   -1    0    0    0    0 -0.00000000000E+00 -0.00000000000E+00 -0.45593999997E+02  0.45594000000E+02  0.51100000000E-03 0.  1.
    9900012    2    1    2    0    0  0.64497200112E+01 -0.29796655962E+02 -0.93423766782E+01  0.59301959219E+02  0.50000027704E+02 0.  0.
         12    1    1    2    0    0 -0.64497200112E+01  0.29796655962E+02  0.93423766782E+01  0.31886040781E+02  0.00000000000E+00 0. -1.
         11    1    3    3    0    0  0.56537257227E+01 -0.25817543817E+02  0.78484924591E+01  0.27570074672E+02  0.51100000000E-03 0. -1.
        -11    1    3    3    0    0 -0.33886702140E+01 -0.86574905385E+01  0.36336831671E+01  0.99819277629E+01  0.51100000000E-03 0.  1.
         12    1    3    3    0    0  0.41846645025E+01  0.46783783940E+01 -0.20824552304E+02  0.21749956783E+02  0.00000000000E+00 0. -1.
</event>
<event>
 7    1  0.6246445E-012  0.5930186E+02  0.7816164E-02  0.1266605E+00
        -11   -1    0    0    0    0  0.00000000000E+00  0.00000000000E+00  0.45593999997E+02  0.45594000000E+02  0.51100000000E-03 0.  1.
         11   -1    0    0    0    0 -0.00000000000E+00 -0.00000000000E+00 -0.45593999997E+02  0.45594000000E+02  0.51100000000E-03 0. -1.
    9900012    2    1    2    0    0 -0.89792897989E+01 -0.38606712300E+00  0.30593289397E+02  0.59301858038E+02  0.49999843174E+02 0.  0.
         12    1    1    2    0    0  0.89792897989E+01  0.38606712300E+00 -0.30593289397E+02  0.31886141962E+02  0.00000000000E+00 0. -1.
         11    1    3    3    0    0  0.19945543824E+01 -0.98918996822E+01  0.48247800188E-01  0.10091097791E+02  0.51100000000E-03 0. -1.
        -11    1    3    3    0    0 -0.60572277723E+01 -0.86981887858E+00 -0.73793027689E+01  0.95864854240E+01  0.51100000000E-03 0.  1.
        -12    1    3    3    0    0 -0.49166164090E+01  0.10375651438E+02  0.37924344366E+02  0.39624274823E+02  0.00000000000E+00 0.  1.
</event>
<event>
 7    1  0.6246445E-012  0.5930199E+02  0.7816164E-02  0.1266605E+00
        -11   -1    0    0    0    0  0.00000000000E+00  0.00000000000E+00  0.45593999997E+02  0.45594000000E+02  0.51100000000E-03 0.  1.
         11   -1    0    0    0    0 -0.00000000000E+00 -0.00000000000E+00 -0.45593999997E+02  0.45594000000E+02  0.51100000000E-03 0. -1.
    9900012    2    1    2    0    0  0.72809205802E+01  0.21462734305E+02  0.22428936006E+02  0.59301985218E+02  0.50000075120E+02 0.  0.
         12    1    1    2    0    0 -0.72809205802E+01 -0.21462734305E+02 -0.22428936006E+02  0.31886014782E+02  0.00000000000E+00 0. -1.
         11    1    3    3    0    0  0.12339719217E+01  0.18712842237E+02  0.42308161358E+01  0.19224800564E+02  0.51100000000E-03 0. -1.
        -11    1    3    3    0    0  0.20314390796E+02  0.50457414389E+01  0.80842759304E+01  0.22438571649E+02  0.51100000000E-03 0.  1.
         12    1    3    3    0    0 -0.14267442137E+02 -0.22958493713E+01  0.10113843940E+02  0.17638613004E+02  0.00000000000E+00 0. -1.
</event>
<event>
 7    1  0.6246445E-012  0.5930195E+02  0.7816164E-02  0.1266605E+00
        -11   -1    0    0    0    0  0.00000000000E+00  0.00000000000E+00  0.45593999997E+02  0.45594000000E+02  0.51100000000E-03 0.  1.
         11   -1    0    0    0    0 -0.00000000000E+00 -0.00000000000E+00 -0.45593999997E+02  0.45594000000E+02  0.51100000000E-03 0. -1.
    9900012    2    1    2    0    0 -0.12855700511E+02 -0.74385454637E+00  0.29170157576E+02  0.59301945866E+02  0.50000003352E+02 0.  0.
         12    1    1    2    0    0  0.12855700511E+02  0.74385454637E+00 -0.29170157576E+02  0.31886054134E+02  0.00000000000E+00 0. -1.
         11    1    3    3    0    0  0.16651562797E+01 -0.52694630890E+01 -0.75109655535E+01  0.93249445301E+01  0.51100000000E-03 0. -1.
        -11    1    3    3    0    0  0.84560120050E+01  0.10794132960E+01  0.29543565532E+01  0.90220560294E+01  0.51100000000E-03 0.  1.
        -12    1    3    3    0    0 -0.22976868796E+02  0.34461952466E+01  0.33726766577E+02  0.40954945306E+02  0.00000000000E+00 0.  1.
</event>
<event>
 7    1  0.6246445E-012  0.5930192E+02  0.7816164E-02  0.1266605E+00
        -11   -1    0    0    0    0  0.00000000000E+00  0.00000000000E+00  0.45593999997E+02  0.45594000000E+02  0.51100000000E-03 0.  1.
         11   -1    0    0    0    0 -0.00000000000E+00 -0.00000000000E+00 -0.45593999997E+02  0.45594000000E+02  0.51100000000E-03 0. -1.
    9900012    2    1    2    0    0  0.29550119531E+02 -0.10253977032E+02  0.61942265099E+01  0.59301920728E+02  0.49999957507E+02 0.  0.
         12    1    1    2    0    0 -0.29550119531E+02  0.10253977032E+02 -0.61942265099E+01  0.31886079272E+02  0.00000000000E+00 0. -1.
         11    1    3    3    0    0  0.22434576064E+02 -0.81754466657E+01 -0.11171863388E+01  0.23903895853E+02  0.51100000000E-03 0. -1.
        -11    1    3    3    0    0  0.17291730637E+02 -0.11498327460E+02  0.41877623310E+01  0.21183787112E+02  0.51100000000E-03 0.  1.
         12    1    3    3    0    0 -0.10176187170E+02  0.94197970940E+01  0.31236505178E+01  0.14214237763E+02  0.00000000000E+00 0. -1.
</event>
<event>
 7    1  0.6246445E-012  0.5930184E+02  0.7816164E-02  0.1266605E+00
        -11   -1    0    0    0    0  0.00000000000E+00  0.00000000000E+00  0.45593999997E+02  0.45594000000E+02  0.51100000000E-03 0.  1.
         11   -1    0    0    0    0 -0.00000000000E+00 -0.00000000000E+00 -0.45593999997E+02  0.45594000000E+02  0.51100000000E-03 0. -1.
    9900012    2    1    2    0    0  0.16652680648E+02 -0.84725929779E+01  0.25838551452E+02  0.59301837708E+02  0.49999806099E+02 0.  0.
         12    1    1    2    0    0 -0.16652680648E+02  0.84725929779E+01 -0.25838551452E+02  0.31886162292E+02  0.00000000000E+00 0. -1.
         11    1    3    3    0    0 -0.54794034691E+01 -0.85569249311E+01  0.42308574571E+01  0.11006588106E+02  0.51100000000E-03 0. -1.
        -11    1    3    3    0    0 -0.59391350225E-01 -0.14571116979E+02  0.91654366297E+00  0.14600035270E+02  0.51100000000E-03 0.  1.
         12    1    3    3    0    0  0.22191475467E+02  0.14655448932E+02  0.20691150332E+02  0.33695214332E+02  0.00000000000E+00 0. -1.
</event>
<event>
 7    1  0.6246445E-012  0.5930206E+02  0.7816164E-02  0.1266604E+00
        -11   -1    0    0    0    0  0.00000000000E+00  0.00000000000E+00  0.45593999997E+02  0.45594000000E+02  0.51100000000E-03 0.  1.
         11   -1    0    0    0    0 -0.00000000000E+00 -0.00000000000E+00 -0.45593999997E+02  0.45594000000E+02  0.51100000000E-03 0. -1.
    9900012    2    1    2    0    0  0.27807025168E+02  0.10250597733E+02  0.11764695820E+02  0.59302055286E+02  0.50000202907E+02 0.  0.
         12    1    1    2    0    0 -0.27807025168E+02 -0.10250597733E+02 -0.11764695820E+02  0.31885944714E+02  0.00000000000E+00 0. -1.
         11    1    3    3    0    0 -0.74512826106E+01  0.16849289733E+02  0.95393264765E+01  0.20746540120E+02  0.51100000000E-03 0. -1.
        -11    1    3    3    0    0  0.51728437084E+01  0.21919016334E+01 -0.36039007488E+01  0.66746419882E+01  0.51100000000E-03 0.  1.
        -12    1    3    3    0    0  0.30085464070E+02 -0.87905936336E+01  0.58292700923E+01  0.31880873178E+02  0.00000000000E+00 0.  1.
</event>
<event>
 7    1  0.6246445E-012  0.5930204E+02  0.7816164E-02  0.1266604E+00
        -11   -1    0    0    0    0  0.00000000000E+00  0.00000000000E+00  0.45593999997E+02  0.45594000000E+02  0.51100000000E-03 0. -1.
         11   -1    0    0    0    0 -0.00000000000E+00 -0.00000000000E+00 -0.45593999997E+02  0.45594000000E+02  0.51100000000E-03 0.  1.
    9900012    2    1    2    0    0 -0.17022777311E+02 -0.10713241061E+02 -0.24741989031E+02  0.59302039099E+02  0.50000173386E+02 0.  0.
         12    1    1    2    0    0  0.17022777311E+02  0.10713241061E+02  0.24741989031E+02  0.31885960901E+02  0.00000000000E+00 0. -1.
         11    1    3    3    0    0 -0.13457443058E+02 -0.16572126086E+02  0.27405445202E+01  0.21523213542E+02  0.51100000000E-03 0. -1.
        -11    1    3    3    0    0 -0.78639043452E+01  0.62946211312E+01 -0.11624480730E+00  0.10073567385E+02  0.51100000000E-03 0.  1.
        -12    1    3    3    0    0  0.42985700921E+01 -0.43573610664E+00 -0.27366288743E+02  0.27705258172E+02  0.00000000000E+00 0.  1.
</event>
<event>
 7    1  0.6246445E-012  0.5930193E+02  0.7816164E-02  0.1266605E+00
        -11   -1    0    0    0    0  0.00000000000E+00  0.00000000000E+00  0.45593999997E+02  0.45594000000E+02  0.51100000000E-03 0.  1.
         11   -1    0    0    0    0 -0.00000000000E+00 -0.00000000000E+00 -0.45593999997E+02  0.45594000000E+02  0.51100000000E-03 0. -1.
    9900012    2    1    2    0    0  0.23601763782E+02  0.13139556472E+02  0.16941966124E+02  0.59301930721E+02  0.49999975732E+02 0.  0.
         12    1    1    2    0    0 -0.23601763782E+02 -0.13139556472E+02 -0.16941966124E+02  0.31886069279E+02  0.00000000000E+00 0. -1.
         11    1    3    3    0    0 -0.15707287782E+01  0.18907868100E+02  0.18510049966E+01  0.19063076476E+02  0.51100000000E-03 0. -1.
        -11    1    3    3    0    0 -0.25695629679E+01  0.62275634801E+01  0.73077357169E+00  0.67763729988E+01  0.51100000000E-03 0.  1.
        -12    1    3    3    0    0  0.27742055528E+02 -0.11995875108E+02  0.14360187556E+02  0.33462481246E+02  0.00000000000E+00 0.  1.
</event>
<event>
 7    1  0.6246445E-012  0.5930193E+02  0.7816164E-02  0.1266605E+00
        -11   -1    0    0    0    0  0.00000000000E+00  0.00000000000E+00  0.45593999997E+02  0.45594000000E+02  0.51100000000E-03 0.  1.
         11   -1    0    0    0    0 -0.00000000000E+00 -0.00000000000E+00 -0.45593999997E+02  0.45594000000E+02  0.51100000000E-03 0. -1.
    9900012    2    1    2    0    0  0.12398931003E+02 -0.30839483709E+01  0.29214330129E+02  0.59301932314E+02  0.49999978637E+02 0.  0.
         12    1    1    2    0    0 -0.12398931003E+02  0.30839483709E+01 -0.29214330129E+02  0.31886067686E+02  0.00000000000E+00 0. -1.
         11    1    3    3    0    0 -0.40938583810E+01 -0.15555297664E+02  0.11579697437E+02  0.19819595224E+02  0.51100000000E-03 0. -1.
        -11    1    3    3    0    0  0.26775688108E+01 -0.85027625831E+01  0.96294121836E+01  0.13122192101E+02  0.51100000000E-03 0.  1.
         12    1    3    3    0    0  0.13815220573E+02  0.20974111876E+02  0.80052205092E+01  0.26360144989E+02  0.00000000000E+00 0. -1.
</event>
<event>
 7    1  0.6246445E-012  0.5930194E+02  0.7816164E-02  0.1266605E+00
        -11   -1    0    0    0    0  0.00000000000E+00  0.00000000000E+00  0.45593999997E+02  0.45594000000E+02  0.51100000000E-03 0. -1.
         11   -1    0    0    0    0 -0.00000000000E+00 -0.00000000000E+00 -0.45593999997E+02  0.45594000000E+02  0.51100000000E-03 0.  1.
    9900012    2    1    2    0    0  0.41257058536E+01 -0.19146424104E+02 -0.25161752329E+02  0.59301940585E+02  0.49999993721E+02 0.  0.
         12    1    1    2    0    0 -0.41257058536E+01  0.19146424104E+02  0.25161752329E+02  0.31886059415E+02  0.00000000000E+00 0. -1.
         11    1    3    3    0    0 -0.47000414651E+00 -0.53206936245E+01  0.86168501694E+00  0.54104700233E+01  0.51100000000E-03 0. -1.
        -11    1    3    3    0    0 -0.23701828927E+01 -0.38765115260E+01  0.12604867221E+02  0.13398797949E+02  0.51100000000E-03 0.  1.
        -12    1    3    3    0    0  0.69658928928E+01 -0.99492189538E+01 -0.38628304567E+02  0.40492672612E+02  0.00000000000E+00 0.  1.
</event>
<event>
 7    1  0.6246445E-012  0.5930195E+02  0.7816164E-02  0.1266605E+00
        -11   -1    0    0    0    0  0.00000000000E+00  0.00000000000E+00  0.45593999997E+02  0.45594000000E+02  0.51100000000E-03 0.  1.
         11   -1    0    0    0    0 -0.00000000000E+00 -0.00000000000E+00 -0.45593999997E+02  0.45594000000E+02  0.51100000000E-03 0. -1.
    9900012    2    1    2    0    0  0.10073868780E+02 -0.23595303570E+01  0.30160736091E+02  0.59301949488E+02  0.50000009958E+02 0.  0.
         12    1    1    2    0    0 -0.10073868780E+02  0.23595303570E+01 -0.30160736091E+02  0.31886050512E+02  0.00000000000E+00 0. -1.
         11    1    3    3    0    0  0.84633006884E+01 -0.73056971300E+01  0.12920773468E+02  0.17086458274E+02  0.51100000000E-03 0. -1.
        -11    1    3    3    0    0  0.94169691912E+01 -0.56871348094E+01 -0.80907430698E+01  0.13655875467E+02  0.51100000000E-03 0.  1.
        -12    1    3    3    0    0 -0.78064010993E+01  0.10633301582E+02  0.25330705693E+02  0.28559615746E+02  0.00000000000E+00 0.  1.
</event>
<event>
 7    1  0.6246445E-012  0.5930195E+02  0.7816164E-02  0.1266605E+00
        -11   -1    0    0    0    0  0.00000000000E+00  0.00000000000E+00  0.45593999997E+02  0.45594000000E+02  0.51100000000E-03 0.  1.
         11   -1    0    0    0    0 -0.00000000000E+00 -0.00000000000E+00 -0.45593999997E+02  0.45594000000E+02  0.51100000000E-03 0. -1.
    9900012    2    1    2    0    0  0.11887919611E+02 -0.22174464655E+02  0.19588023727E+02  0.59301949932E+02  0.50000010768E+02 0.  0.
         12    1    1    2    0    0 -0.11887919611E+02  0.22174464655E+02 -0.19588023727E+02  0.31886050068E+02  0.00000000000E+00 0. -1.
         11    1    3    3    0    0  0.14729501837E+02  0.13595152969E+01  0.13757994113E+02  0.20201210569E+02  0.51100000000E-03 0. -1.
        -11    1    3    3    0    0 -0.87046536319E+01 -0.13885076744E+01  0.12450363301E+02  0.15254851523E+02  0.51100000000E-03 0.  1.
         12    1    3    3    0    0  0.58630714060E+01 -0.22145472278E+02 -0.66203336871E+01  0.23845887839E+02  0.00000000000E+00 0. -1.
</event>
<event>
 7    1  0.6246445E-012  0.5930196E+02  0.7816164E-02  0.1266605E+00
        -11   -1    0    0    0    0  0.00000000000E+00  0.00000000000E+00  0.45593999997E+02  0.45594000000E+02  0.51100000000E-03 0.  1.
         11   -1    0    0    0    0 -0.00000000000E+00 -0.00000000000E+00 -0.45593999997E+02  0.45594000000E+02  0.51100000000E-03 0. -1.
    9900012    2    1    2    0    0 -0.28575935060E+02  0.13922858861E+02 -0.25079377671E+01  0.59301955791E+02  0.50000021454E+02 0.  0.
         12    1    1    2    0    0  0.28575935060E+02 -0.13922858861E+02  0.25079377671E+01  0.31886044209E+02  0.00000000000E+00 0. -1.
         11    1    3    3    0    0  0.48847065655E+01  0.42349491004E+00  0.11064989234E-01  0.49030428169E+01  0.51100000000E-03 0. -1.
        -11    1    3    3    0    0 -0.10576277725E+02 -0.51488981506E+01  0.15768788458E+02  0.19672912656E+02  0.51100000000E-03 0.  1.
         12    1    3    3    0    0 -0.22884363901E+02  0.18648262102E+02 -0.18287791215E+02  0.34726000318E+02  0.00000000000E+00 0. -1.
</event>
<event>
 7    1  0.6246445E-012  0.5930193E+02  0.7816164E-02  0.1266605E+00
        -11   -1    0    0    0    0  0.00000000000E+00  0.00000000000E+00  0.45593999997E+02  0.45594000000E+02  0.51100000000E-03 0. -1.
         11   -1    0    0    0    0 -0.00000000000E+00 -0.00000000000E+00 -0.45593999997E+02  0.45594000000E+02  0.51100000000E-03 0.  1.
    9900012    2    1    2    0    0  0.80040359260E+01 -0.30526464314E+02 -0.45598004993E+01  0.59301931017E+02  0.49999976271E+02 0.  0.
         12    1    1    2    0    0 -0.80040359260E+01  0.30526464314E+02  0.45598004993E+01  0.31886068983E+02  0.00000000000E+00 0. -1.
         11    1    3    3    0    0  0.53316916178E+01  0.46545796666E+00  0.75138717057E+01  0.92250666609E+01  0.51100000000E-03 0. -1.
        -11    1    3    3    0    0  0.13986408617E+02 -0.14587661934E+01  0.39728563929E+01  0.14612707243E+02  0.51100000000E-03 0.  1.
        -12    1    3    3    0    0 -0.11314064308E+02 -0.29533156087E+02 -0.16046528598E+02  0.35464157112E+02  0.00000000000E+00 0.  1.
</event>
<event>
 7    1  0.6246445E-012  0.5930195E+02  0.7816164E-02  0.1266605E+00
        -11   -1    0    0    0    0  0.00000000000E+00  0.00000000000E+00  0.45593999997E+02  0.45594000000E+02  0.51100000000E-03 0.  1.
         11   -1    0    0    0    0 -0.00000000000E+00 -0.00000000000E+00 -0.45593999997E+02  0.45594000000E+02  0.51100000000E-03 0. -1.
    9900012    2    1    2    0    0 -0.14991585042E+02 -0.26989003820E+02 -0.79728461161E+01  0.59301949375E+02  0.50000009752E+02 0.  0.
         12    1    1    2    0    0  0.14991585042E+02  0.26989003820E+02  0.79728461161E+01  0.31886050625E+02  0.00000000000E+00 0. -1.
         11    1    3    3    0    0 -0.11852437267E+02  0.65567772493E+01 -0.10142333659E+02  0.16921540397E+02  0.51100000000E-03 0. -1.
        -11    1    3    3    0    0 -0.85968005190E+01 -0.26077072236E+01 -0.48222250092E+01  0.10196027188E+02  0.51100000000E-03 0.  1.
        -12    1    3    3    0    0  0.54576527448E+01 -0.30938073846E+02  0.69917125526E+01  0.32184381790E+02  0.00000000000E+00 0.  1.
</event>
<event>
 7    1  0.6246445E-012  0.5930194E+02  0.7816164E-02  0.1266605E+00
        -11   -1    0    0    0    0  0.00000000000E+00  0.00000000000E+00  0.45593999997E+02  0.45594000000E+02  0.51100000000E-03 0. -1.
         11   -1    0    0    0    0 -0.00000000000E+00 -0.00000000000E+00 -0.45593999997E+02  0.45594000000E+02  0.51100000000E-03 0.  1.
    9900012    2    1    2    0    0  0.28756545287E+02 -0.12052070814E+02  0.66730226301E+01  0.59301944446E+02  0.50000000763E+02 0.  0.
         12    1    1    2    0    0 -0.28756545287E+02  0.12052070814E+02 -0.66730226301E+01  0.31886055554E+02  0.00000000000E+00 0. -1.
         11    1    3    3    0    0  0.23315985812E+02  0.13808662992E+02  0.11969183877E+02  0.29623904722E+02  0.51100000000E-03 0. -1.
        -11    1    3    3    0    0  0.73367884042E+00 -0.25511053373E+00 -0.34959780573E+01  0.35812328692E+01  0.51100000000E-03 0.  1.
        -12    1    3    3    0    0  0.47068806348E+01 -0.25605623273E+02 -0.18001831896E+01  0.26096806855E+02  0.00000000000E+00 0.  1.
</event>
<event>
 7    1  0.6246445E-012  0.5930196E+02  0.7816164E-02  0.1266605E+00
        -11   -1    0    0    0    0  0.00000000000E+00  0.00000000000E+00  0.45593999997E+02  0.45594000000E+02  0.51100000000E-03 0.  1.
         11   -1    0    0    0    0 -0.00000000000E+00 -0.00000000000E+00 -0.45593999997E+02  0.45594000000E+02  0.51100000000E-03 0. -1.
    9900012    2    1    2    0    0 -0.15557850460E+02  0.26830460995E+02  0.74026411198E+01  0.59301961619E+02  0.50000032081E+02 0.  0.
         12    1    1    2    0    0  0.15557850460E+02 -0.26830460995E+02 -0.74026411198E+01  0.31886038381E+02  0.00000000000E+00 0. -1.
         11    1    3    3    0    0 -0.64800382601E+01 -0.10001097424E+02 -0.70548955417E+01  0.13848624369E+02  0.51100000000E-03 0. -1.
        -11    1    3    3    0    0  0.17320643428E+01 -0.20749923642E+01  0.11414439392E+01  0.29340304577E+01  0.51100000000E-03 0.  1.
        -12    1    3    3    0    0 -0.10809876542E+02  0.38906550783E+02  0.13316092722E+02  0.42519306792E+02  0.00000000000E+00 0.  1.
</event>
<event>
 7    1  0.6246445E-012  0.5930193E+02  0.7816164E-02  0.1266605E+00
        -11   -1    0    0    0    0  0.00000000000E+00  0.00000000000E+00  0.45593999997E+02  0.45594000000E+02  0.51100000000E-03 0.  1.
         11   -1    0    0    0    0 -0.00000000000E+00 -0.00000000000E+00 -0.45593999997E+02  0.45594000000E+02  0.51100000000E-03 0. -1.
    9900012    2    1    2    0    0  0.92388491667E+01 -0.13944953489E+02  0.27145969833E+02  0.59301925612E+02  0.49999966414E+02 0.  0.
         12    1    1    2    0    0 -0.92388491667E+01  0.13944953489E+02 -0.27145969833E+02  0.31886074388E+02  0.00000000000E+00 0. -1.
         11    1    3    3    0    0  0.21011583577E+01  0.10678532845E+01 -0.11651644123E+01  0.26292176498E+01  0.51100000000E-03 0. -1.
        -11    1    3    3    0    0  0.24476565054E+02  0.10776246013E+01  0.88779420167E+01  0.26059189672E+02  0.51100000000E-03 0.  1.
        -12    1    3    3    0    0 -0.17338874245E+02 -0.16090431375E+02  0.19433192228E+02  0.30613518290E+02  0.00000000000E+00 0.  1.
</event>
<event>
 7    1  0.6246445E-012  0.5930195E+02  0.7816164E-02  0.1266605E+00
        -11   -1    0    0    0    0  0.00000000000E+00  0.00000000000E+00  0.45593999997E+02  0.45594000000E+02  0.51100000000E-03 0. -1.
         11   -1    0    0    0    0 -0.00000000000E+00 -0.00000000000E+00 -0.45593999997E+02  0.45594000000E+02  0.51100000000E-03 0.  1.
    9900012    2    1    2    0    0 -0.22632355451E+02 -0.21748087450E+02  0.56140359202E+01  0.59301949440E+02  0.50000009871E+02 0.  0.
         12    1    1    2    0    0  0.22632355451E+02  0.21748087450E+02 -0.56140359202E+01  0.31886050560E+02  0.00000000000E+00 0. -1.
         11    1    3    3    0    0  0.11304678644E+01 -0.21421992450E+02  0.68669252666E+01  0.22524084465E+02  0.51100000000E-03 0.  1.
        -11    1    3    3    0    0 -0.16230444787E+02 -0.57537049726E+01  0.11716385368E+02  0.20828013473E+02  0.51100000000E-03 0. -1.
        -12    1    3    3    0    0 -0.75323785284E+01  0.54276099722E+01 -0.12969274715E+02  0.15949851502E+02  0.00000000000E+00 0.  1.
</event>
<event>
 7    1  0.6246445E-012  0.5930201E+02  0.7816164E-02  0.1266605E+00
        -11   -1    0    0    0    0  0.00000000000E+00  0.00000000000E+00  0.45593999997E+02  0.45594000000E+02  0.51100000000E-03 0.  1.
         11   -1    0    0    0    0 -0.00000000000E+00 -0.00000000000E+00 -0.45593999997E+02  0.45594000000E+02  0.51100000000E-03 0. -1.
    9900012    2    1    2    0    0 -0.83387737083E+01 -0.39759687697E+01  0.30518401164E+02  0.59302011161E+02  0.50000122434E+02 0.  0.
         12    1    1    2    0    0  0.83387737083E+01  0.39759687697E+01 -0.30518401164E+02  0.31885988839E+02  0.00000000000E+00 0. -1.
         11    1    3    3    0    0 -0.20109478827E+02 -0.83133537908E+01  0.85076528338E+01  0.23364142332E+02  0.51100000000E-03 0. -1.
        -11    1    3    3    0    0  0.15533237299E+01  0.33674603892E+01  0.24979919911E+02  0.25253692861E+02  0.51100000000E-03 0.  1.
         12    1    3    3    0    0  0.10217381388E+02  0.96992463181E+00 -0.29691715805E+01  0.10684175967E+02  0.00000000000E+00 0. -1.
</event>
<event>
 7    1  0.6246445E-012  0.5930181E+02  0.7816164E-02  0.1266605E+00
        -11   -1    0    0    0    0  0.00000000000E+00  0.00000000000E+00  0.45593999997E+02  0.45594000000E+02  0.51100000000E-03 0.  1.
         11   -1    0    0    0    0 -0.00000000000E+00 -0.00000000000E+00 -0.45593999997E+02  0.45594000000E+02  0.51100000000E-03 0. -1.
    9900012    2    1    2    0    0 -0.37995430655E+01  0.16633106598E+02  0.26937568246E+02  0.59301806348E+02  0.49999748905E+02 0.  0.
         12    1    1    2    0    0  0.37995430655E+01 -0.16633106598E+02 -0.26937568246E+02  0.31886193652E+02  0.00000000000E+00 0. -1.
         11    1    3    3    0    0  0.47084800226E+01  0.84284038660E+01 -0.16981421145E+01  0.98026252991E+01  0.51100000000E-03 0. -1.
        -11    1    3    3    0    0  0.10646548718E+02  0.79888646641E+01 -0.19069505145E+01  0.13446464917E+02  0.51100000000E-03 0.  1.
        -12    1    3    3    0    0 -0.19154571806E+02  0.21583806780E+00  0.30542660875E+02  0.36052716132E+02  0.00000000000E+00 0.  1.
</event>
<event>
 7    1  0.6246445E-012  0.5930193E+02  0.7816164E-02  0.1266605E+00
        -11   -1    0    0    0    0  0.00000000000E+00  0.00000000000E+00  0.45593999997E+02  0.45594000000E+02  0.51100000000E-03 0.  1.
         11   -1    0    0    0    0 -0.00000000000E+00 -0.00000000000E+00 -0.45593999997E+02  0.45594000000E+02  0.51100000000E-03 0. -1.
    9900012    2    1    2    0    0  0.23098624907E+02 -0.82652262586E+01  0.20368132419E+02  0.59301933200E+02  0.49999980253E+02 0.  0.
         12    1    1    2    0    0 -0.23098624907E+02  0.82652262586E+01 -0.20368132419E+02  0.31886066800E+02  0.00000000000E+00 0. -1.
         11    1    3    3    0    0 -0.33326657550E+01 -0.58589455819E+01  0.17056449613E+02  0.18340021212E+02  0.51100000000E-03 0. -1.
        -11    1    3    3    0    0  0.18112588465E+01 -0.88475154992E+01  0.11135880187E+02  0.14337608480E+02  0.51100000000E-03 0.  1.
         12    1    3    3    0    0  0.24620031816E+02  0.64412348225E+01 -0.78241973818E+01  0.26624303509E+02  0.00000000000E+00 0. -1.
</event>
<event>
 7    1  0.6246445E-012  0.5930194E+02  0.7816164E-02  0.1266605E+00
        -11   -1    0    0    0    0  0.00000000000E+00  0.00000000000E+00  0.45593999997E+02  0.45594000000E+02  0.51100000000E-03 0.  1.
         11   -1    0    0    0    0 -0.00000000000E+00 -0.00000000000E+00 -0.45593999997E+02  0.45594000000E+02  0.51100000000E-03 0. -1.
    9900012    2    1    2    0    0  0.16854685066E+02 -0.71280865284E+00  0.27057947266E+02  0.59301936977E+02  0.49999987141E+02 0.  0.
         12    1    1    2    0    0 -0.16854685066E+02  0.71280865284E+00 -0.27057947266E+02  0.31886063023E+02  0.00000000000E+00 0. -1.
         11    1    3    3    0    0 -0.91683056526E+01 -0.10277494858E+02  0.73406871120E+01  0.15606742666E+02  0.51100000000E-03 0. -1.
        -11    1    3    3    0    0  0.55765667021E+01 -0.94542263834E+01  0.42274637597E+01  0.11762310266E+02  0.51100000000E-03 0.  1.
        -12    1    3    3    0    0  0.20446424017E+02  0.19018912589E+02  0.15489796394E+02  0.31932884045E+02  0.00000000000E+00 0.  1.
</event>
<event>
 7    1  0.6246445E-012  0.5930194E+02  0.7816164E-02  0.1266605E+00
        -11   -1    0    0    0    0  0.00000000000E+00  0.00000000000E+00  0.45593999997E+02  0.45594000000E+02  0.51100000000E-03 0. -1.
         11   -1    0    0    0    0 -0.00000000000E+00 -0.00000000000E+00 -0.45593999997E+02  0.45594000000E+02  0.51100000000E-03 0.  1.
    9900012    2    1    2    0    0 -0.26157717461E+02 -0.17191760377E+02  0.60776489793E+01  0.59301943098E+02  0.49999998305E+02 0.  0.
         12    1    1    2    0    0  0.26157717461E+02  0.17191760377E+02 -0.60776489793E+01  0.31886056902E+02  0.00000000000E+00 0. -1.
         11    1    3    3    0    0  0.82920135251E+01  0.10784732690E+01  0.86498501129E+01  0.12030814608E+02  0.51100000000E-03 0. -1.
        -11    1    3    3    0    0  0.17678562164E+00  0.41090134925E+01  0.37433256543E+01  0.55612707408E+01  0.51100000000E-03 0.  1.
        -12    1    3    3    0    0 -0.34626516608E+02 -0.22379247139E+02 -0.63155267878E+01  0.41709857749E+02  0.00000000000E+00 0.  1.
</event>
<event>
 7    1  0.6246445E-012  0.5930195E+02  0.7816164E-02  0.1266605E+00
        -11   -1    0    0    0    0  0.00000000000E+00  0.00000000000E+00  0.45593999997E+02  0.45594000000E+02  0.51100000000E-03 0.  1.
         11   -1    0    0    0    0 -0.00000000000E+00 -0.00000000000E+00 -0.45593999997E+02  0.45594000000E+02  0.51100000000E-03 0. -1.
    9900012    2    1    2    0    0 -0.20768972468E+02 -0.17292107400E+02  0.16921976835E+02  0.59301945122E+02  0.50000001995E+02 0.  0.
         12    1    1    2    0    0  0.20768972468E+02  0.17292107400E+02 -0.16921976835E+02  0.31886054878E+02  0.00000000000E+00 0. -1.
         11    1    3    3    0    0  0.73796335704E+01 -0.40416854318E+01  0.68799039673E+01  0.10868637984E+02  0.51100000000E-03 0. -1.
        -11    1    3    3    0    0 -0.24166259267E+01  0.91325046544E+01 -0.55249092576E+01  0.10943826785E+02  0.51100000000E-03 0.  1.
        -12    1    3    3    0    0 -0.25731980111E+02 -0.22382926622E+02  0.15566982126E+02  0.37489480353E+02  0.00000000000E+00 0.  1.
</event>
<event>
 7    1  0.6246445E-012  0.5930198E+02  0.7816164E-02  0.1266605E+00
        -11   -1    0    0    0    0  0.00000000000E+00  0.00000000000E+00  0.45593999997E+02  0.45594000000E+02  0.51100000000E-03 0. -1.
         11   -1    0    0    0    0 -0.00000000000E+00 -0.00000000000E+00 -0.45593999997E+02  0.45594000000E+02  0.51100000000E-03 0.  1.
    9900012    2    1    2    0    0  0.23245350952E+02 -0.21795544351E+02  0.11517241050E+01  0.59301975430E+02  0.50000057271E+02 0.  0.
         12    1    1    2    0    0 -0.23245350952E+02  0.21795544351E+02 -0.11517241050E+01  0.31886024570E+02  0.00000000000E+00 0. -1.
         11    1    3    3    0    0 -0.12730028611E+01  0.32990271156E+01 -0.65254146481E+01  0.74219372663E+01  0.51100000000E-03 0. -1.
        -11    1    3    3    0    0 -0.58101970644E+00 -0.15811523970E+02 -0.10978675474E+02  0.19258068168E+02  0.51100000000E-03 0.  1.
         12    1    3    3    0    0  0.25099373519E+02 -0.92830474972E+01  0.18655814228E+02  0.32621969996E+02  0.00000000000E+00 0. -1.
</event>
<event>
 7    1  0.6246445E-012  0.5930195E+02  0.7816164E-02  0.1266605E+00
        -11   -1    0    0    0    0  0.00000000000E+00  0.00000000000E+00  0.45593999997E+02  0.45594000000E+02  0.51100000000E-03 0.  1.
         11   -1    0    0    0    0 -0.00000000000E+00 -0.00000000000E+00 -0.45593999997E+02  0.45594000000E+02  0.51100000000E-03 0. -1.
    9900012    2    1    2    0    0  0.86271141159E+01 -0.13185903148E+02  0.27720477257E+02  0.59301952908E+02  0.50000016196E+02 0.  0.
         12    1    1    2    0    0 -0.86271141159E+01  0.13185903148E+02 -0.27720477257E+02  0.31886047092E+02  0.00000000000E+00 0. -1.
         11    1    3    3    0    0  0.14581583822E+02 -0.18180545472E+02 -0.39730365753E+01  0.23641908559E+02  0.51100000000E-03 0. -1.
        -11    1    3    3    0    0 -0.36102721182E+01 -0.42579355252E+01  0.57398534386E+01  0.80068718899E+01  0.51100000000E-03 0.  1.
        -12    1    3    3    0    0 -0.23441975882E+01  0.92525778498E+01  0.25953660394E+02  0.27653172459E+02  0.00000000000E+00 0.  1.
</event>
<event>
 7    1  0.6246445E-012  0.5930194E+02  0.7816164E-02  0.1266605E+00
        -11   -1    0    0    0    0  0.00000000000E+00  0.00000000000E+00  0.45593999997E+02  0.45594000000E+02  0.51100000000E-03 0.  1.
         11   -1    0    0    0    0 -0.00000000000E+00 -0.00000000000E+00 -0.45593999997E+02  0.45594000000E+02  0.51100000000E-03 0. -1.
    9900012    2    1    2    0    0  0.14990131863E+02  0.28138996966E+02 -0.46238005575E+00  0.59301937232E+02  0.49999987606E+02 0.  0.
         12    1    1    2    0    0 -0.14990131863E+02 -0.28138996966E+02  0.46238005575E+00  0.31886062768E+02  0.00000000000E+00 0. -1.
         11    1    3    3    0    0  0.49358172494E+01 -0.75802962384E+01 -0.14212307374E+02  0.16846746396E+02  0.51100000000E-03 0. -1.
        -11    1    3    3    0    0  0.37217537196E+01  0.17946580676E+02 -0.12222915017E+01  0.18369137309E+02  0.51100000000E-03 0.  1.
        -12    1    3    3    0    0  0.63325608942E+01  0.17772712529E+02  0.14972218819E+02  0.24086053527E+02  0.00000000000E+00 0.  1.
</event>
<event>
 7    1  0.6246445E-012  0.5930194E+02  0.7816164E-02  0.1266605E+00
        -11   -1    0    0    0    0  0.00000000000E+00  0.00000000000E+00  0.45593999997E+02  0.45594000000E+02  0.51100000000E-03 0. -1.
         11   -1    0    0    0    0 -0.00000000000E+00 -0.00000000000E+00 -0.45593999997E+02  0.45594000000E+02  0.51100000000E-03 0.  1.
    9900012    2    1    2    0    0  0.30279149735E+02  0.89795381106E+01 -0.43888631077E+01  0.59301935133E+02  0.49999983778E+02 0.  0.
         12    1    1    2    0    0 -0.30279149735E+02 -0.89795381106E+01  0.43888631077E+01  0.31886064867E+02  0.00000000000E+00 0. -1.
         11    1    3    3    0    0  0.20883411063E+02 -0.89744121216E+01 -0.54871205443E+00  0.22736710750E+02  0.51100000000E-03 0. -1.
        -11    1    3    3    0    0  0.77326978607E+01 -0.39900592623E+01  0.77857124922E+01  0.11676151266E+02  0.51100000000E-03 0.  1.
         12    1    3    3    0    0  0.16630408114E+01  0.21944009495E+02 -0.11625863545E+02  0.24889073117E+02  0.00000000000E+00 0. -1.
</event>
<event>
 7    1  0.6246445E-012  0.5930195E+02  0.7816164E-02  0.1266605E+00
        -11   -1    0    0    0    0  0.00000000000E+00  0.00000000000E+00  0.45593999997E+02  0.45594000000E+02  0.51100000000E-03 0.  1.
         11   -1    0    0    0    0 -0.00000000000E+00 -0.00000000000E+00 -0.45593999997E+02  0.45594000000E+02  0.51100000000E-03 0. -1.
    9900012    2    1    2    0    0 -0.13231292711E+02 -0.55649010568E+01  0.28472533477E+02  0.59301946729E+02  0.50000004927E+02 0.  0.
         12    1    1    2    0    0  0.13231292711E+02  0.55649010568E+01 -0.28472533477E+02  0.31886053271E+02  0.00000000000E+00 0. -1.
         11    1    3    3    0    0 -0.10566200980E+02 -0.71920567228E+01  0.14135189929E+01  0.12859561394E+02  0.51100000000E-03 0. -1.
        -11    1    3    3    0    0 -0.11662000992E+02 -0.25595584019E+01  0.32850282667E+02  0.34952749218E+02  0.51100000000E-03 0.  1.
         12    1    3    3    0    0  0.89969092605E+01  0.41867140679E+01 -0.57912681831E+01  0.11489636117E+02  0.00000000000E+00 0. -1.
</event>
<event>
 7    1  0.6246445E-012  0.5930193E+02  0.7816164E-02  0.1266605E+00
        -11   -1    0    0    0    0  0.00000000000E+00  0.00000000000E+00  0.45593999997E+02  0.45594000000E+02  0.51100000000E-03 0. -1.
         11   -1    0    0    0    0 -0.00000000000E+00 -0.00000000000E+00 -0.45593999997E+02  0.45594000000E+02  0.51100000000E-03 0.  1.
    9900012    2    1    2    0    0  0.21188203654E+02  0.15048601641E+02 -0.18474872557E+02  0.59301932487E+02  0.49999978953E+02 0.  0.
         12    1    1    2    0    0 -0.21188203654E+02 -0.15048601641E+02  0.18474872557E+02  0.31886067513E+02  0.00000000000E+00 0. -1.
         11    1    3    3    0    0 -0.22237356644E+01  0.20509939674E+00 -0.26267877035E+02  0.26362633220E+02  0.51100000000E-03 0. -1.
        -11    1    3    3    0    0 -0.17943443673E+01  0.19624652065E+00 -0.14936314204E+01  0.23428869982E+01  0.51100000000E-03 0.  1.
        -12    1    3    3    0    0  0.25206283685E+02  0.14647255723E+02  0.92866358985E+01  0.30596412270E+02  0.00000000000E+00 0.  1.
</event>
<event>
 7    1  0.6246445E-012  0.5930196E+02  0.7816164E-02  0.1266605E+00
        -11   -1    0    0    0    0  0.00000000000E+00  0.00000000000E+00  0.45593999997E+02  0.45594000000E+02  0.51100000000E-03 0. -1.
         11   -1    0    0    0    0 -0.00000000000E+00 -0.00000000000E+00 -0.45593999997E+02  0.45594000000E+02  0.51100000000E-03 0.  1.
    9900012    2    1    2    0    0  0.23782956346E+02  0.15734508520E+02 -0.14265896902E+02  0.59301959397E+02  0.50000028030E+02 0.  0.
         12    1    1    2    0    0 -0.23782956346E+02 -0.15734508520E+02  0.14265896902E+02  0.31886040603E+02  0.00000000000E+00 0. -1.
         11    1    3    3    0    0 -0.10542116540E+02  0.10819160517E+02 -0.62769590606E+00  0.15119009817E+02  0.51100000000E-03 0. -1.
        -11    1    3    3    0    0  0.12779638795E+02  0.13575836888E+02 -0.41658381039E+01  0.19104363960E+02  0.51100000000E-03 0.  1.
         12    1    3    3    0    0  0.21545434092E+02 -0.86604888852E+01 -0.94723628916E+01  0.25078585620E+02  0.00000000000E+00 0. -1.
</event>
<event>
 7    1  0.8980214E-012  0.5930194E+02  0.7816164E-02  0.1266605E+00
        -11   -1    0    0    0    0  0.00000000000E+00  0.00000000000E+00  0.45593999997E+02  0.45594000000E+02  0.51100000000E-03 0. -1.
         11   -1    0    0    0    0 -0.00000000000E+00 -0.00000000000E+00 -0.45593999997E+02  0.45594000000E+02  0.51100000000E-03 0.  1.
    9900012    2    1    2    0    0 -0.25378503206E+02  0.97324743571E+01 -0.16671268149E+02  0.59301942486E+02  0.49999997188E+02 0.  0.
         12    1    1    2    0    0  0.25378503206E+02 -0.97324743571E+01  0.16671268149E+02  0.31886057514E+02  0.00000000000E+00 0. -1.
         11    1    3    3    0    0 -0.17496040876E+02  0.12088878854E+02 -0.41106575279E+01  0.21659869433E+02  0.51100000000E-03 0.  1.
        -11    1    3    3    0    0 -0.15541861947E+02 -0.81175911149E+01 -0.19185579604E+02  0.25990983500E+02  0.51100000000E-03 0. -1.
         12    1    3    3    0    0  0.76593996168E+01  0.57611866180E+01  0.66249689833E+01  0.11651089553E+02  0.00000000000E+00 0. -1.
</event>
<event>
 7    1  0.6246445E-012  0.5930196E+02  0.7816164E-02  0.1266605E+00
        -11   -1    0    0    0    0  0.00000000000E+00  0.00000000000E+00  0.45593999997E+02  0.45594000000E+02  0.51100000000E-03 0. -1.
         11   -1    0    0    0    0 -0.00000000000E+00 -0.00000000000E+00 -0.45593999997E+02  0.45594000000E+02  0.51100000000E-03 0.  1.
    9900012    2    1    2    0    0  0.36038022160E+01  0.31590113371E+02  0.24077124845E+01  0.59301957088E+02  0.50000023818E+02 0.  0.
         12    1    1    2    0    0 -0.36038022160E+01 -0.31590113371E+02 -0.24077124845E+01  0.31886042912E+02  0.00000000000E+00 0. -1.
         11    1    3    3    0    0 -0.73551670626E+01  0.33076066547E+01 -0.52259600813E+01  0.96098596938E+01  0.51100000000E-03 0. -1.
        -11    1    3    3    0    0  0.65640139835E+01  0.20075975344E+02 -0.14540614799E+02  0.25642943368E+02  0.51100000000E-03 0.  1.
         12    1    3    3    0    0  0.43949552951E+01  0.82065313724E+01  0.22174287365E+02  0.24049154026E+02  0.00000000000E+00 0. -1.
</event>
<event>
 7    1  0.6246445E-012  0.5930196E+02  0.7816164E-02  0.1266605E+00
        -11   -1    0    0    0    0  0.00000000000E+00  0.00000000000E+00  0.45593999997E+02  0.45594000000E+02  0.51100000000E-03 0.  1.
         11   -1    0    0    0    0 -0.00000000000E+00 -0.00000000000E+00 -0.45593999997E+02  0.45594000000E+02  0.51100000000E-03 0. -1.
    9900012    2    1    2    0    0 -0.12711713256E+02 -0.16310830198E+02  0.24271153216E+02  0.59301957378E+02  0.50000024348E+02 0.  0.
         12    1    1    2    0    0  0.12711713256E+02  0.16310830198E+02 -0.24271153216E+02  0.31886042622E+02  0.00000000000E+00 0. -1.
         11    1    3    3    0    0  0.10441760484E+02 -0.12736208290E+02 -0.21637919315E+01  0.16610940954E+02  0.51100000000E-03 0. -1.
        -11    1    3    3    0    0  0.20437629688E+01 -0.68370358450E+01  0.10515378183E+02  0.12708076361E+02  0.51100000000E-03 0.  1.
        -12    1    3    3    0    0 -0.25197236709E+02  0.32624139372E+01  0.15919566965E+02  0.29982940063E+02  0.00000000000E+00 0.  1.
</event>
<event>
 7    1  0.6246445E-012  0.5930192E+02  0.7816164E-02  0.1266605E+00
        -11   -1    0    0    0    0  0.00000000000E+00  0.00000000000E+00  0.45593999997E+02  0.45594000000E+02  0.51100000000E-03 0.  1.
         11   -1    0    0    0    0 -0.00000000000E+00 -0.00000000000E+00 -0.45593999997E+02  0.45594000000E+02  0.51100000000E-03 0. -1.
    9900012    2    1    2    0    0 -0.30018813659E+02 -0.16698578862E+01  0.10620936687E+02  0.59301923180E+02  0.49999961979E+02 0.  0.
         12    1    1    2    0    0  0.30018813659E+02  0.16698578862E+01 -0.10620936687E+02  0.31886076820E+02  0.00000000000E+00 0. -1.
         11    1    3    3    0    0  0.22907773776E+01  0.13133071257E+01 -0.33750718590E+01  0.42852709266E+01  0.51100000000E-03 0. -1.
        -11    1    3    3    0    0 -0.27579216031E+02 -0.85109276815E+01 -0.95269400743E+01  0.30394269761E+02  0.51100000000E-03 0.  1.
        -12    1    3    3    0    0 -0.47303750058E+01  0.55277626696E+01  0.23522948620E+02  0.24622382492E+02  0.00000000000E+00 0.  1.
</event>
<event>
 7    1  0.6246445E-012  0.5930189E+02  0.7816164E-02  0.1266605E+00
        -11   -1    0    0    0    0  0.00000000000E+00  0.00000000000E+00  0.45593999997E+02  0.45594000000E+02  0.51100000000E-03 0.  1.
         11   -1    0    0    0    0 -0.00000000000E+00 -0.00000000000E+00 -0.45593999997E+02  0.45594000000E+02  0.51100000000E-03 0. -1.
    9900012    2    1    2    0    0  0.50279801862E+01  0.28607409408E+02 -0.13155221040E+02  0.59301885492E+02  0.49999893246E+02 0.  0.
         12    1    1    2    0    0 -0.50279801862E+01 -0.28607409408E+02  0.13155221040E+02  0.31886114508E+02  0.00000000000E+00 0. -1.
         11    1    3    3    0    0  0.13913711041E+02 -0.49699789462E+01 -0.95052271703E+01  0.17568192550E+02  0.51100000000E-03 0. -1.
        -11    1    3    3    0    0  0.37378838538E+01  0.13796872290E+00 -0.46613659584E+01  0.59765495005E+01  0.51100000000E-03 0.  1.
        -12    1    3    3    0    0 -0.12623614709E+02  0.33439419631E+02  0.10113720886E+01  0.35757143441E+02  0.00000000000E+00 0.  1.
</event>
<event>
 7    1  0.6246445E-012  0.5930191E+02  0.7816164E-02  0.1266605E+00
        -11   -1    0    0    0    0  0.00000000000E+00  0.00000000000E+00  0.45593999997E+02  0.45594000000E+02  0.51100000000E-03 0. -1.
         11   -1    0    0    0    0 -0.00000000000E+00 -0.00000000000E+00 -0.45593999997E+02  0.45594000000E+02  0.51100000000E-03 0.  1.
    9900012    2    1    2    0    0 -0.30824080118E+02 -0.36836386760E+01  0.72821273105E+01  0.59301913894E+02  0.49999945043E+02 0.  0.
         12    1    1    2    0    0  0.30824080118E+02  0.36836386760E+01 -0.72821273105E+01  0.31886086106E+02  0.00000000000E+00 0. -1.
         11    1    3    3    0    0  0.14151421972E+01 -0.15636003342E+01  0.84852517608E+01  0.87433958591E+01  0.51100000000E-03 0. -1.
        -11    1    3    3    0    0 -0.37867030850E+02 -0.11113148059E+02  0.18857388061E+01  0.39509114091E+02  0.51100000000E-03 0.  1.
         12    1    3    3    0    0  0.56278085353E+01  0.89931097167E+01 -0.30888632564E+01  0.11049403943E+02  0.00000000000E+00 0. -1.
</event>
<event>
 7    1  0.6246445E-012  0.5930194E+02  0.7816164E-02  0.1266605E+00
        -11   -1    0    0    0    0  0.00000000000E+00  0.00000000000E+00  0.45593999997E+02  0.45594000000E+02  0.51100000000E-03 0. -1.
         11   -1    0    0    0    0 -0.00000000000E+00 -0.00000000000E+00 -0.45593999997E+02  0.45594000000E+02  0.51100000000E-03 0.  1.
    9900012    2    1    2    0    0 -0.30265013703E+01  0.11228208487E+02 -0.29689866489E+02  0.59301944293E+02  0.50000000484E+02 0.  0.
         12    1    1    2    0    0  0.30265013703E+01 -0.11228208487E+02  0.29689866489E+02  0.31886055707E+02  0.00000000000E+00 0. -1.
         11    1    3    3    0    0 -0.13808836769E+02  0.68318048361E+01 -0.15205570411E+02  0.21646406215E+02  0.51100000000E-03 0. -1.
        -11    1    3    3    0    0  0.59123901009E+00 -0.64014125520E+01 -0.20613426397E+02  0.21592614347E+02  0.51100000000E-03 0.  1.
        -12    1    3    3    0    0  0.10191096388E+02  0.10797816203E+02  0.61291303188E+01  0.16062923732E+02  0.00000000000E+00 0.  1.
</event>
<event>
 7    1  0.6246445E-012  0.5930197E+02  0.7816164E-02  0.1266605E+00
        -11   -1    0    0    0    0  0.00000000000E+00  0.00000000000E+00  0.45593999997E+02  0.45594000000E+02  0.51100000000E-03 0.  1.
         11   -1    0    0    0    0 -0.00000000000E+00 -0.00000000000E+00 -0.45593999997E+02  0.45594000000E+02  0.51100000000E-03 0. -1.
    9900012    2    1    2    0    0 -0.24868703159E+02  0.19373227402E+02  0.47900332183E+01  0.59301972418E+02  0.50000051776E+02 0.  0.
         12    1    1    2    0    0  0.24868703159E+02 -0.19373227402E+02 -0.47900332183E+01  0.31886027582E+02  0.00000000000E+00 0. -1.
         11    1    3    3    0    0  0.30753576560E+01 -0.71883711476E+01  0.45818595929E+01  0.90622261094E+01  0.51100000000E-03 0. -1.
        -11    1    3    3    0    0 -0.96988482327E+01  0.78073282630E+00  0.12936684301E+02  0.16187495228E+02  0.51100000000E-03 0.  1.
         12    1    3    3    0    0 -0.18245212582E+02  0.25780865723E+02 -0.12728510676E+02  0.34052251080E+02  0.00000000000E+00 0. -1.
</event>
<event>
 7    1  0.6246445E-012  0.5930198E+02  0.7816164E-02  0.1266605E+00
        -11   -1    0    0    0    0  0.00000000000E+00  0.00000000000E+00  0.45593999997E+02  0.45594000000E+02  0.51100000000E-03 0. -1.
         11   -1    0    0    0    0 -0.00000000000E+00 -0.00000000000E+00 -0.45593999997E+02  0.45594000000E+02  0.51100000000E-03 0.  1.
    9900012    2    1    2    0    0 -0.28898347300E+02 -0.12782274278E+02 -0.42681656808E+01  0.59301980326E+02  0.50000066199E+02 0.  0.
         12    1    1    2    0    0  0.28898347300E+02  0.12782274278E+02  0.42681656808E+01  0.31886019674E+02  0.00000000000E+00 0. -1.
         11    1    3    3    0    0 -0.11238857225E+02 -0.53851286735E+01 -0.21513236141E+01  0.12646727486E+02  0.51100000000E-03 0. -1.
        -11    1    3    3    0    0 -0.25135423277E+02 -0.78699053472E+01 -0.16044641304E+02  0.30840807842E+02  0.51100000000E-03 0.  1.
         12    1    3    3    0    0  0.74759332019E+01  0.47275974247E+00  0.13927799238E+02  0.15814444999E+02  0.00000000000E+00 0. -1.
</event>
<event>
 7    1  0.6246445E-012  0.5930200E+02  0.7816164E-02  0.1266605E+00
        -11   -1    0    0    0    0  0.00000000000E+00  0.00000000000E+00  0.45593999997E+02  0.45594000000E+02  0.51100000000E-03 0.  1.
         11   -1    0    0    0    0 -0.00000000000E+00 -0.00000000000E+00 -0.45593999997E+02  0.45594000000E+02  0.51100000000E-03 0. -1.
    9900012    2    1    2    0    0  0.15575316533E+01  0.92555680594E+01  0.30473361054E+02  0.59301997133E+02  0.50000096850E+02 0.  0.
         12    1    1    2    0    0 -0.15575316533E+01 -0.92555680594E+01 -0.30473361054E+02  0.31886002867E+02  0.00000000000E+00 0. -1.
         11    1    3    3    0    0 -0.96935652278E+01  0.14635306185E+02  0.94280322423E+01  0.19925992727E+02  0.51100000000E-03 0. -1.
        -11    1    3    3    0    0 -0.95563847456E+01 -0.76605231153E+01  0.92587404357E+01  0.15353578688E+02  0.51100000000E-03 0.  1.
        -12    1    3    3    0    0  0.20807481627E+02  0.22807849902E+01  0.11786588376E+02  0.24022425718E+02  0.00000000000E+00 0.  1.
</event>
<event>
 7    1  0.6246445E-012  0.5930196E+02  0.7816164E-02  0.1266605E+00
        -11   -1    0    0    0    0  0.00000000000E+00  0.00000000000E+00  0.45593999997E+02  0.45594000000E+02  0.51100000000E-03 0.  1.
         11   -1    0    0    0    0 -0.00000000000E+00 -0.00000000000E+00 -0.45593999997E+02  0.45594000000E+02  0.51100000000E-03 0. -1.
    9900012    2    1    2    0    0  0.32076128419E+01  0.31942327350E+01  0.31563073418E+02  0.59301960633E+02  0.50000030284E+02 0.  0.
         12    1    1    2    0    0 -0.32076128419E+01 -0.31942327350E+01 -0.31563073418E+02  0.31886039367E+02  0.00000000000E+00 0. -1.
         11    1    3    3    0    0 -0.31669988693E+01  0.38759399131E-01 -0.88993890691E+01  0.94461902476E+01  0.51100000000E-03 0. -1.
        -11    1    3    3    0    0  0.10009629667E+02 -0.47189896351E+01  0.30891543821E+01  0.11489317834E+02  0.51100000000E-03 0.  1.
         12    1    3    3    0    0 -0.36350179557E+01  0.78744629710E+01  0.37373308105E+02  0.38366452551E+02  0.00000000000E+00 0. -1.
</event>
<event>
 7    1  0.6246445E-012  0.5930194E+02  0.7816164E-02  0.1266605E+00
        -11   -1    0    0    0    0  0.00000000000E+00  0.00000000000E+00  0.45593999997E+02  0.45594000000E+02  0.51100000000E-03 0. -1.
         11   -1    0    0    0    0 -0.00000000000E+00 -0.00000000000E+00 -0.45593999997E+02  0.45594000000E+02  0.51100000000E-03 0.  1.
    9900012    2    1    2    0    0  0.31433731225E+02 -0.43971992218E+01 -0.30505297605E+01  0.59301944246E+02  0.50000000398E+02 0.  0.
         12    1    1    2    0    0 -0.31433731225E+02  0.43971992218E+01  0.30505297605E+01  0.31886055754E+02  0.00000000000E+00 0. -1.
         11    1    3    3    0    0  0.31619291027E+02 -0.84566964908E+01  0.46248800487E+01  0.33055783100E+02  0.51100000000E-03 0.  1.
        -11    1    3    3    0    0  0.18796177893E+00 -0.46150283021E+01 -0.14490222679E+02  0.15208562372E+02  0.51100000000E-03 0. -1.
         12    1    3    3    0    0 -0.37352158107E+00  0.86745255711E+01  0.68148128701E+01  0.11037598775E+02  0.00000000000E+00 0. -1.
</event>
<event>
 7    1  0.6246445E-012  0.5930195E+02  0.7816164E-02  0.1266605E+00
        -11   -1    0    0    0    0  0.00000000000E+00  0.00000000000E+00  0.45593999997E+02  0.45594000000E+02  0.51100000000E-03 0. -1.
         11   -1    0    0    0    0 -0.00000000000E+00 -0.00000000000E+00 -0.45593999997E+02  0.45594000000E+02  0.51100000000E-03 0.  1.
    9900012    2    1    2    0    0 -0.29381943917E+02  0.10902665649E+02 -0.58782259300E+01  0.59301948399E+02  0.50000007973E+02 0.  0.
         12    1    1    2    0    0  0.29381943917E+02 -0.10902665649E+02  0.58782259300E+01  0.31886051601E+02  0.00000000000E+00 0. -1.
         11    1    3    3    0    0 -0.39099022433E+01  0.96135378227E+01  0.97716572164E+01  0.14254568743E+02  0.51100000000E-03 0. -1.
        -11    1    3    3    0    0 -0.76176080336E+01  0.71275843157E+01  0.91910969876E+01  0.13903477062E+02  0.51100000000E-03 0.  1.
        -12    1    3    3    0    0 -0.17854433640E+02 -0.58384564897E+01 -0.24840980134E+02  0.31143902594E+02  0.00000000000E+00 0.  1.
</event>
<event>
 7    1  0.6246445E-012  0.5930197E+02  0.7816164E-02  0.1266605E+00
        -11   -1    0    0    0    0  0.00000000000E+00  0.00000000000E+00  0.45593999997E+02  0.45594000000E+02  0.51100000000E-03 0. -1.
         11   -1    0    0    0    0 -0.00000000000E+00 -0.00000000000E+00 -0.45593999997E+02  0.45594000000E+02  0.51100000000E-03 0.  1.
    9900012    2    1    2    0    0 -0.30150438207E+02  0.45622096361E+01  0.93196819597E+01  0.59301966182E+02  0.50000040403E+02 0.  0.
         12    1    1    2    0    0  0.30150438207E+02 -0.45622096361E+01 -0.93196819597E+01  0.31886033818E+02  0.00000000000E+00 0. -1.
         11    1    3    3    0    0  0.65977279192E+01  0.36619273288E+00 -0.32016939611E+01  0.73426803890E+01  0.51100000000E-03 0. -1.
        -11    1    3    3    0    0 -0.11777403026E+02  0.16162549386E+02 -0.29900076043E+01  0.20220666914E+02  0.51100000000E-03 0.  1.
        -12    1    3    3    0    0 -0.24970763100E+02 -0.11966532483E+02  0.15511383525E+02  0.31738618879E+02  0.00000000000E+00 0.  1.
</event>
<event>
 7    1  0.6246445E-012  0.5930195E+02  0.7816164E-02  0.1266605E+00
        -11   -1    0    0    0    0  0.00000000000E+00  0.00000000000E+00  0.45593999997E+02  0.45594000000E+02  0.51100000000E-03 0.  1.
         11   -1    0    0    0    0 -0.00000000000E+00 -0.00000000000E+00 -0.45593999997E+02  0.45594000000E+02  0.51100000000E-03 0. -1.
    9900012    2    1    2    0    0  0.81150479514E+00  0.61705846869E+01  0.31272761489E+02  0.59301948715E+02  0.50000008548E+02 0.  0.
         12    1    1    2    0    0 -0.81150479514E+00 -0.61705846869E+01 -0.31272761489E+02  0.31886051285E+02  0.00000000000E+00 0. -1.
         11    1    3    3    0    0  0.16326757445E+01  0.12667234926E+02  0.36007205587E+02  0.38205278761E+02  0.51100000000E-03 0.  1.
        -11    1    3    3    0    0  0.65791368164E+01 -0.98777803435E+01 -0.39314802380E+00  0.11874769530E+02  0.51100000000E-03 0. -1.
        -12    1    3    3    0    0 -0.74003077657E+01  0.33811301043E+01 -0.43412960747E+01  0.92219004233E+01  0.00000000000E+00 0.  1.
</event>
<event>
 7    1  0.6246445E-012  0.5930195E+02  0.7816164E-02  0.1266605E+00
        -11   -1    0    0    0    0  0.00000000000E+00  0.00000000000E+00  0.45593999997E+02  0.45594000000E+02  0.51100000000E-03 0. -1.
         11   -1    0    0    0    0 -0.00000000000E+00 -0.00000000000E+00 -0.45593999997E+02  0.45594000000E+02  0.51100000000E-03 0.  1.
    9900012    2    1    2    0    0  0.37610097242E+01  0.30849975306E+02  0.71311882932E+01  0.59301952628E+02  0.50000015686E+02 0.  0.
         12    1    1    2    0    0 -0.37610097242E+01 -0.30849975306E+02 -0.71311882932E+01  0.31886047372E+02  0.00000000000E+00 0. -1.
         11    1    3    3    0    0 -0.13979528113E+01 -0.26332802047E+01  0.11242850251E+02  0.11631428061E+02  0.51100000000E-03 0. -1.
        -11    1    3    3    0    0  0.11013252708E+01 -0.65486600651E+01 -0.33232817504E+01  0.74257705225E+01  0.51100000000E-03 0.  1.
        -12    1    3    3    0    0  0.40576372647E+01  0.40031915575E+02 -0.78838020754E+00  0.40244754045E+02  0.00000000000E+00 0.  1.
</event>
<event>
 7    1  0.6246445E-012  0.5930195E+02  0.7816164E-02  0.1266605E+00
        -11   -1    0    0    0    0  0.00000000000E+00  0.00000000000E+00  0.45593999997E+02  0.45594000000E+02  0.51100000000E-03 0. -1.
         11   -1    0    0    0    0 -0.00000000000E+00 -0.00000000000E+00 -0.45593999997E+02  0.45594000000E+02  0.51100000000E-03 0.  1.
    9900012    2    1    2    0    0 -0.23731041156E+02  0.17305080978E+02 -0.12413390481E+02  0.59301946540E+02  0.50000004582E+02 0.  0.
         12    1    1    2    0    0  0.23731041156E+02 -0.17305080978E+02  0.12413390481E+02  0.31886053460E+02  0.00000000000E+00 0. -1.
         11    1    3    3    0    0  0.40325992974E+01  0.13354197028E+02 -0.23656850782E+02  0.27463485295E+02  0.51100000000E-03 0.  1.
        -11    1    3    3    0    0 -0.10446893696E+02  0.62002250765E+01  0.63280313507E+01  0.13697604168E+02  0.51100000000E-03 0. -1.
        -12    1    3    3    0    0 -0.17316746757E+02 -0.22493411257E+01  0.49154289506E+01  0.18140857078E+02  0.00000000000E+00 0.  1.
</event>
<event>
 7    1  0.6246445E-012  0.5930192E+02  0.7816164E-02  0.1266605E+00
        -11   -1    0    0    0    0  0.00000000000E+00  0.00000000000E+00  0.45593999997E+02  0.45594000000E+02  0.51100000000E-03 0.  1.
         11   -1    0    0    0    0 -0.00000000000E+00 -0.00000000000E+00 -0.45593999997E+02  0.45594000000E+02  0.51100000000E-03 0. -1.
    9900012    2    1    2    0    0  0.49938402168E+01  0.17918393071E+02  0.25898157035E+02  0.59301924855E+02  0.49999965033E+02 0.  0.
         12    1    1    2    0    0 -0.49938402168E+01 -0.17918393071E+02 -0.25898157035E+02  0.31886075145E+02  0.00000000000E+00 0. -1.
         11    1    3    3    0    0 -0.90954027003E+01  0.91675630770E+01 -0.34359267443E+01  0.13363238975E+02  0.51100000000E-03 0. -1.
        -11    1    3    3    0    0 -0.81514220043E+01  0.61975299745E+01  0.17089765675E+01  0.10381505654E+02  0.51100000000E-03 0.  1.
        -12    1    3    3    0    0  0.22240664921E+02  0.25533000191E+01  0.27625107212E+02  0.35557180226E+02  0.00000000000E+00 0.  1.
</event>
<event>
 7    1  0.6246445E-012  0.5930203E+02  0.7816164E-02  0.1266604E+00
        -11   -1    0    0    0    0  0.00000000000E+00  0.00000000000E+00  0.45593999997E+02  0.45594000000E+02  0.51100000000E-03 0.  1.
         11   -1    0    0    0    0 -0.00000000000E+00 -0.00000000000E+00 -0.45593999997E+02  0.45594000000E+02  0.51100000000E-03 0. -1.
    9900012    2    1    2    0    0  0.88291146387E+01  0.15986594175E+02  0.26137914638E+02  0.59302030668E+02  0.50000158011E+02 0.  0.
         12    1    1    2    0    0 -0.88291146387E+01 -0.15986594175E+02 -0.26137914638E+02  0.31885969332E+02  0.00000000000E+00 0. -1.
         11    1    3    3    0    0  0.12038684025E+02  0.16211002881E+02  0.19851528792E+02  0.28316244863E+02  0.51100000000E-03 0. -1.
        -11    1    3    3    0    0  0.33490071170E+01 -0.55362961624E+01  0.16507617998E+02  0.17730422332E+02  0.51100000000E-03 0.  1.
        -12    1    3    3    0    0 -0.65585765035E+01  0.53118874556E+01 -0.10221232152E+02  0.13255363473E+02  0.00000000000E+00 0.  1.
</event>
<event>
 7    1  0.6246445E-012  0.5930194E+02  0.7816164E-02  0.1266605E+00
        -11   -1    0    0    0    0  0.00000000000E+00  0.00000000000E+00  0.45593999997E+02  0.45594000000E+02  0.51100000000E-03 0.  1.
         11   -1    0    0    0    0 -0.00000000000E+00 -0.00000000000E+00 -0.45593999997E+02  0.45594000000E+02  0.51100000000E-03 0. -1.
    9900012    2    1    2    0    0  0.68535426619E+01  0.16897798643E+02  0.26157489815E+02  0.59301938477E+02  0.49999989877E+02 0.  0.
         12    1    1    2    0    0 -0.68535426619E+01 -0.16897798643E+02 -0.26157489815E+02  0.31886061523E+02  0.00000000000E+00 0. -1.
         11    1    3    3    0    0  0.57687899311E+01  0.84671486017E+01 -0.50495437150E+01  0.11422321774E+02  0.51100000000E-03 0. -1.
        -11    1    3    3    0    0 -0.11549348707E+02  0.14060929304E+02  0.28456748697E+02  0.33776970485E+02  0.51100000000E-03 0.  1.
         12    1    3    3    0    0  0.12634101438E+02 -0.56302792626E+01  0.27502848325E+01  0.14102646219E+02  0.00000000000E+00 0. -1.
</event>
<event>
 7    1  0.6246445E-012  0.5930195E+02  0.7816164E-02  0.1266605E+00
        -11   -1    0    0    0    0  0.00000000000E+00  0.00000000000E+00  0.45593999997E+02  0.45594000000E+02  0.51100000000E-03 0. -1.
         11   -1    0    0    0    0 -0.00000000000E+00 -0.00000000000E+00 -0.45593999997E+02  0.45594000000E+02  0.51100000000E-03 0.  1.
    9900012    2    1    2    0    0  0.96758581669E+01 -0.22117784280E+02 -0.20830304928E+02  0.59301949506E+02  0.50000009990E+02 0.  0.
         12    1    1    2    0    0 -0.96758581669E+01  0.22117784280E+02  0.20830304928E+02  0.31886050494E+02  0.00000000000E+00 0. -1.
         11    1    3    3    0    0  0.94643816987E+01  0.17227624274E+01 -0.15189446871E+02  0.17979480744E+02  0.51100000000E-03 0. -1.
        -11    1    3    3    0    0 -0.83586528720E+01 -0.20177141195E+02 -0.16234142788E+02  0.27212708373E+02  0.51100000000E-03 0.  1.
        -12    1    3    3    0    0  0.85701293401E+01 -0.36634055122E+01  0.10593284731E+02  0.14109760389E+02  0.00000000000E+00 0.  1.
</event>
<event>
 7    1  0.6246445E-012  0.5930194E+02  0.7816164E-02  0.1266605E+00
        -11   -1    0    0    0    0  0.00000000000E+00  0.00000000000E+00  0.45593999997E+02  0.45594000000E+02  0.51100000000E-03 0. -1.
         11   -1    0    0    0    0 -0.00000000000E+00 -0.00000000000E+00 -0.45593999997E+02  0.45594000000E+02  0.51100000000E-03 0.  1.
    9900012    2    1    2    0    0 -0.13102490950E+02 -0.28501311532E+02  0.57202216513E+01  0.59301937780E+02  0.49999988606E+02 0.  0.
         12    1    1    2    0    0  0.13102490950E+02  0.28501311532E+02 -0.57202216513E+01  0.31886062220E+02  0.00000000000E+00 0. -1.
         11    1    3    3    0    0  0.79712804452E+01  0.41669067021E+01  0.89195547085E+01  0.12667394359E+02  0.51100000000E-03 0. -1.
        -11    1    3    3    0    0  0.23340158542E+01  0.17795832274E+01 -0.40209418699E+01  0.49782045210E+01  0.51100000000E-03 0.  1.
        -12    1    3    3    0    0 -0.23407787249E+02 -0.34447801462E+02  0.82160881279E+00  0.41656338899E+02  0.00000000000E+00 0.  1.
</event>
<event>
 7    1  0.6246445E-012  0.5930196E+02  0.7816164E-02  0.1266605E+00
        -11   -1    0    0    0    0  0.00000000000E+00  0.00000000000E+00  0.45593999997E+02  0.45594000000E+02  0.51100000000E-03 0.  1.
         11   -1    0    0    0    0 -0.00000000000E+00 -0.00000000000E+00 -0.45593999997E+02  0.45594000000E+02  0.51100000000E-03 0. -1.
    9900012    2    1    2    0    0  0.18184991114E+02  0.11831593711E+02  0.23367484145E+02  0.59301955610E+02  0.50000021124E+02 0.  0.
         12    1    1    2    0    0 -0.18184991114E+02 -0.11831593711E+02 -0.23367484145E+02  0.31886044390E+02  0.00000000000E+00 0. -1.
         11    1    3    3    0    0 -0.17041915593E+01  0.20331256499E+01 -0.69583899881E+01  0.74469497290E+01  0.51100000000E-03 0. -1.
        -11    1    3    3    0    0  0.23544796721E+02 -0.61707669916E+01  0.24316341114E+02  0.34405235987E+02  0.51100000000E-03 0.  1.
         12    1    3    3    0    0 -0.36556140483E+01  0.15969235053E+02  0.60095330191E+01  0.17449769894E+02  0.00000000000E+00 0. -1.
</event>
<event>
 7    1  0.6246445E-012  0.5930200E+02  0.7816164E-02  0.1266605E+00
        -11   -1    0    0    0    0  0.00000000000E+00  0.00000000000E+00  0.45593999997E+02  0.45594000000E+02  0.51100000000E-03 0. -1.
         11   -1    0    0    0    0 -0.00000000000E+00 -0.00000000000E+00 -0.45593999997E+02  0.45594000000E+02  0.51100000000E-03 0.  1.
    9900012    2    1    2    0    0 -0.74811327554E+01  0.22691032487E+02  0.21115560353E+02  0.59301996932E+02  0.50000096485E+02 0.  0.
         12    1    1    2    0    0  0.74811327554E+01 -0.22691032487E+02 -0.21115560353E+02  0.31886003068E+02  0.00000000000E+00 0. -1.
         11    1    3    3    0    0 -0.44910400472E+01 -0.63570858493E+01 -0.43647710790E+01  0.89237440592E+01  0.51100000000E-03 0. -1.
        -11    1    3    3    0    0  0.12674431162E+02  0.23297717522E+02  0.12975715573E+02  0.29526158604E+02  0.51100000000E-03 0.  1.
         12    1    3    3    0    0 -0.15664523870E+02  0.57504008137E+01  0.12504615859E+02  0.20852094269E+02  0.00000000000E+00 0. -1.
</event>
<event>
 7    1  0.6246445E-012  0.5930194E+02  0.7816164E-02  0.1266605E+00
        -11   -1    0    0    0    0  0.00000000000E+00  0.00000000000E+00  0.45593999997E+02  0.45594000000E+02  0.51100000000E-03 0. -1.
         11   -1    0    0    0    0 -0.00000000000E+00 -0.00000000000E+00 -0.45593999997E+02  0.45594000000E+02  0.51100000000E-03 0.  1.
    9900012    2    1    2    0    0 -0.19201516221E+02  0.15665545768E+02 -0.20065229879E+02  0.59301937222E+02  0.49999987588E+02 0.  0.
         12    1    1    2    0    0  0.19201516221E+02 -0.15665545768E+02  0.20065229879E+02  0.31886062778E+02  0.00000000000E+00 0. -1.
         11    1    3    3    0    0  0.89447155372E+01  0.88226070993E+01 -0.83711824817E+01  0.15097119873E+02  0.51100000000E-03 0. -1.
        -11    1    3    3    0    0  0.46343790965E+01 -0.88408783528E-01 -0.95684572923E+01  0.10632058170E+02  0.51100000000E-03 0.  1.
        -12    1    3    3    0    0 -0.32780610855E+02  0.69313474524E+01 -0.21255901046E+01  0.33572759178E+02  0.00000000000E+00 0.  1.
</event>
<event>
 7    1  0.6246445E-012  0.5930194E+02  0.7816164E-02  0.1266605E+00
        -11   -1    0    0    0    0  0.00000000000E+00  0.00000000000E+00  0.45593999997E+02  0.45594000000E+02  0.51100000000E-03 0.  1.
         11   -1    0    0    0    0 -0.00000000000E+00 -0.00000000000E+00 -0.45593999997E+02  0.45594000000E+02  0.51100000000E-03 0. -1.
    9900012    2    1    2    0    0  0.21373837802E+02  0.18401739532E+02  0.14874676871E+02  0.59301937650E+02  0.49999988369E+02 0.  0.
         12    1    1    2    0    0 -0.21373837802E+02 -0.18401739532E+02 -0.14874676871E+02  0.31886062350E+02  0.00000000000E+00 0. -1.
         11    1    3    3    0    0  0.47416990426E+00 -0.94584244306E+01 -0.11229411077E+01  0.95366465175E+01  0.51100000000E-03 0. -1.
        -11    1    3    3    0    0  0.46639065535E+01 -0.14161563969E+01  0.15538715834E+02  0.16285245264E+02  0.51100000000E-03 0.  1.
         12    1    3    3    0    0  0.16235761344E+02  0.29276320359E+02  0.45890214432E+00  0.33480045869E+02  0.00000000000E+00 0. -1.
</event>
<event>
 7    1  0.6246445E-012  0.5930193E+02  0.7816164E-02  0.1266605E+00
        -11   -1    0    0    0    0  0.00000000000E+00  0.00000000000E+00  0.45593999997E+02  0.45594000000E+02  0.51100000000E-03 0.  1.
         11   -1    0    0    0    0 -0.00000000000E+00 -0.00000000000E+00 -0.45593999997E+02  0.45594000000E+02  0.51100000000E-03 0. -1.
    9900012    2    1    2    0    0 -0.23363346173E+02 -0.18347753846E+02  0.11585988338E+02  0.59301934997E+02  0.49999983531E+02 0.  0.
         12    1    1    2    0    0  0.23363346173E+02  0.18347753846E+02 -0.11585988338E+02  0.31886065003E+02  0.00000000000E+00 0. -1.
         11    1    3    3    0    0 -0.15255759490E+02 -0.84939952040E+01 -0.10485074561E+02  0.20367202580E+02  0.51100000000E-03 0. -1.
        -11    1    3    3    0    0 -0.70038510381E+01 -0.36212024829E+01 -0.61582303150E+01  0.10004540852E+02  0.51100000000E-03 0.  1.
        -12    1    3    3    0    0 -0.11037356452E+01 -0.62325561587E+01  0.28229293214E+02  0.28930191565E+02  0.00000000000E+00 0.  1.
</event>
<event>
 7    1  0.6246445E-012  0.5930193E+02  0.7816164E-02  0.1266605E+00
        -11   -1    0    0    0    0  0.00000000000E+00  0.00000000000E+00  0.45593999997E+02  0.45594000000E+02  0.51100000000E-03 0. -1.
         11   -1    0    0    0    0 -0.00000000000E+00 -0.00000000000E+00 -0.45593999997E+02  0.45594000000E+02  0.51100000000E-03 0.  1.
    9900012    2    1    2    0    0  0.10542479537E+02  0.80549736328E-01 -0.30092711151E+02  0.59301927375E+02  0.49999969629E+02 0.  0.
         12    1    1    2    0    0 -0.10542479537E+02 -0.80549736328E-01  0.30092711151E+02  0.31886072625E+02  0.00000000000E+00 0. -1.
         11    1    3    3    0    0 -0.21530360547E+01  0.52115107477E+01 -0.35450465476E+02  0.35896112760E+02  0.51100000000E-03 0. -1.
        -11    1    3    3    0    0 -0.28135254133E+01  0.55375775788E+00 -0.36101088888E+01  0.46103643409E+01  0.51100000000E-03 0.  1.
         12    1    3    3    0    0  0.15509041005E+02 -0.56847187692E+01  0.89678632139E+01  0.18795450274E+02  0.00000000000E+00 0. -1.
</event>
<event>
 7    1  0.6246445E-012  0.5930193E+02  0.7816164E-02  0.1266605E+00
        -11   -1    0    0    0    0  0.00000000000E+00  0.00000000000E+00  0.45593999997E+02  0.45594000000E+02  0.51100000000E-03 0. -1.
         11   -1    0    0    0    0 -0.00000000000E+00 -0.00000000000E+00 -0.45593999997E+02  0.45594000000E+02  0.51100000000E-03 0.  1.
    9900012    2    1    2    0    0 -0.27741641253E+01  0.24122824169E+02  0.20666757113E+02  0.59301929654E+02  0.49999973787E+02 0.  0.
         12    1    1    2    0    0  0.27741641253E+01 -0.24122824169E+02 -0.20666757113E+02  0.31886070346E+02  0.00000000000E+00 0. -1.
         11    1    3    3    0    0  0.18977364641E+01  0.27244008072E+02 -0.35729063058E+01  0.27542749304E+02  0.51100000000E-03 0. -1.
        -11    1    3    3    0    0 -0.10908771319E+01  0.31497401208E+01 -0.24326509893E+01  0.41265805266E+01  0.51100000000E-03 0.  1.
         12    1    3    3    0    0 -0.35810234576E+01 -0.62709240234E+01  0.26672314408E+02  0.27632599824E+02  0.00000000000E+00 0. -1.
</event>
<event>
 7    1  0.6246445E-012  0.5930201E+02  0.7816164E-02  0.1266605E+00
        -11   -1    0    0    0    0  0.00000000000E+00  0.00000000000E+00  0.45593999997E+02  0.45594000000E+02  0.51100000000E-03 0.  1.
         11   -1    0    0    0    0 -0.00000000000E+00 -0.00000000000E+00 -0.45593999997E+02  0.45594000000E+02  0.51100000000E-03 0. -1.
    9900012    2    1    2    0    0 -0.22317055490E+02  0.73471297570E+01  0.21556549662E+02  0.59302013819E+02  0.50000127282E+02 0.  0.
         12    1    1    2    0    0  0.22317055490E+02 -0.73471297570E+01 -0.21556549662E+02  0.31885986181E+02  0.00000000000E+00 0. -1.
         11    1    3    3    0    0  0.52366226528E+01 -0.10300199630E+02  0.16536700047E+02  0.20173715025E+02  0.51100000000E-03 0. -1.
        -11    1    3    3    0    0 -0.11270252606E+01  0.42029754584E+00  0.73959470230E+01  0.74931214185E+01  0.51100000000E-03 0.  1.
        -12    1    3    3    0    0 -0.26426652883E+02  0.17227031841E+02 -0.23760974074E+01  0.31635177375E+02  0.00000000000E+00 0.  1.
</event>
<event>
 7    1  0.6246445E-012  0.5930196E+02  0.7816164E-02  0.1266605E+00
        -11   -1    0    0    0    0  0.00000000000E+00  0.00000000000E+00  0.45593999997E+02  0.45594000000E+02  0.51100000000E-03 0.  1.
         11   -1    0    0    0    0 -0.00000000000E+00 -0.00000000000E+00 -0.45593999997E+02  0.45594000000E+02  0.51100000000E-03 0. -1.
    9900012    2    1    2    0    0  0.38561622461E+01  0.20991068412E+02  0.23690184210E+02  0.59301956529E+02  0.50000022799E+02 0.  0.
         12    1    1    2    0    0 -0.38561622461E+01 -0.20991068412E+02 -0.23690184210E+02  0.31886043471E+02  0.00000000000E+00 0. -1.
         11    1    3    3    0    0 -0.13944776840E+02  0.14674604031E+02  0.92018806986E+01  0.22236803126E+02  0.51100000000E-03 0. -1.
        -11    1    3    3    0    0 -0.57080575752E+01  0.86427398782E+01  0.59548326911E+01  0.11947338889E+02  0.51100000000E-03 0.  1.
         12    1    3    3    0    0  0.23508996661E+02 -0.23262754977E+01  0.85334708207E+01  0.25117814514E+02  0.00000000000E+00 0. -1.
</event>
<event>
 7    1  0.6246445E-012  0.5930200E+02  0.7816164E-02  0.1266605E+00
        -11   -1    0    0    0    0  0.00000000000E+00  0.00000000000E+00  0.45593999997E+02  0.45594000000E+02  0.51100000000E-03 0. -1.
         11   -1    0    0    0    0 -0.00000000000E+00 -0.00000000000E+00 -0.45593999997E+02  0.45594000000E+02  0.51100000000E-03 0.  1.
    9900012    2    1    2    0    0 -0.29420843108E+02  0.11566718670E+02 -0.41643601030E+01  0.59302001740E+02  0.50000105253E+02 0.  0.
         12    1    1    2    0    0  0.29420843108E+02 -0.11566718670E+02  0.41643601030E+01  0.31885998260E+02  0.00000000000E+00 0. -1.
         11    1    3    3    0    0 -0.20912438714E+01  0.14314316803E+02 -0.16910985464E+02  0.22254311854E+02  0.51100000000E-03 0. -1.
        -11    1    3    3    0    0 -0.93863399684E+01  0.33634099636E+01 -0.49355226931E+01  0.11125434333E+02  0.51100000000E-03 0.  1.
         12    1    3    3    0    0 -0.17943259268E+02 -0.61110080968E+01  0.17682148054E+02  0.25922255553E+02  0.00000000000E+00 0. -1.
</event>
<event>
 7    1  0.6246445E-012  0.5930196E+02  0.7816164E-02  0.1266605E+00
        -11   -1    0    0    0    0  0.00000000000E+00  0.00000000000E+00  0.45593999997E+02  0.45594000000E+02  0.51100000000E-03 0.  1.
         11   -1    0    0    0    0 -0.00000000000E+00 -0.00000000000E+00 -0.45593999997E+02  0.45594000000E+02  0.51100000000E-03 0. -1.
    9900012    2    1    2    0    0 -0.51382549353E+01  0.29977976932E+02 -0.95728029386E+01  0.59301963545E+02  0.50000035594E+02 0.  0.
         12    1    1    2    0    0  0.51382549353E+01 -0.29977976932E+02  0.95728029386E+01  0.31886036455E+02  0.00000000000E+00 0. -1.
         11    1    3    3    0    0 -0.16410940227E+01  0.36424269056E+02 -0.63768803754E+01  0.37014661547E+02  0.51100000000E-03 0.  1.
        -11    1    3    3    0    0 -0.53605361848E+01 -0.96509161892E+00 -0.11173554495E+02  0.12430409098E+02  0.51100000000E-03 0. -1.
        -12    1    3    3    0    0  0.18633752721E+01 -0.54812005052E+01  0.79776319321E+01  0.98568928992E+01  0.00000000000E+00 0.  1.
</event>
<event>
 7    1  0.6246445E-012  0.5930196E+02  0.7816164E-02  0.1266605E+00
        -11   -1    0    0    0    0  0.00000000000E+00  0.00000000000E+00  0.45593999997E+02  0.45594000000E+02  0.51100000000E-03 0.  1.
         11   -1    0    0    0    0 -0.00000000000E+00 -0.00000000000E+00 -0.45593999997E+02  0.45594000000E+02  0.51100000000E-03 0. -1.
    9900012    2    1    2    0    0 -0.26871919609E+02 -0.74701799280E+00  0.17148226628E+02  0.59301956410E+02  0.50000022582E+02 0.  0.
         12    1    1    2    0    0  0.26871919609E+02  0.74701799280E+00 -0.17148226628E+02  0.31886043590E+02  0.00000000000E+00 0. -1.
         11    1    3    3    0    0 -0.32082665552E+01  0.61677339788E+01 -0.48399037884E+01  0.84710439536E+01  0.51100000000E-03 0. -1.
        -11    1    3    3    0    0 -0.33628240886E+01  0.42484466546E+01 -0.99767615315E+01  0.11353134182E+02  0.51100000000E-03 0.  1.
        -12    1    3    3    0    0 -0.20300828966E+02 -0.11163198626E+02  0.31964891948E+02  0.39477778274E+02  0.00000000000E+00 0.  1.
</event>
<event>
 7    1  0.6246445E-012  0.5930195E+02  0.7816164E-02  0.1266605E+00
        -11   -1    0    0    0    0  0.00000000000E+00  0.00000000000E+00  0.45593999997E+02  0.45594000000E+02  0.51100000000E-03 0. -1.
         11   -1    0    0    0    0 -0.00000000000E+00 -0.00000000000E+00 -0.45593999997E+02  0.45594000000E+02  0.51100000000E-03 0.  1.
    9900012    2    1    2    0    0 -0.91737311326E+01 -0.14117680073E+02 -0.27078659844E+02  0.59301952072E+02  0.50000014670E+02 0.  0.
         12    1    1    2    0    0  0.91737311326E+01  0.14117680073E+02  0.27078659844E+02  0.31886047928E+02  0.00000000000E+00 0. -1.
         11    1    3    3    0    0 -0.14432111865E+02  0.44607949346E+01 -0.11177980568E+02  0.18791801249E+02  0.51100000000E-03 0. -1.
        -11    1    3    3    0    0 -0.82778767873E+01  0.51547005800E+01 -0.59996372728E+01  0.11449446705E+02  0.51100000000E-03 0.  1.
        -12    1    3    3    0    0  0.13536257519E+02 -0.23733175588E+02 -0.99010420032E+01  0.29060704119E+02  0.00000000000E+00 0.  1.
</event>
<event>
 7    1  0.6246445E-012  0.5930196E+02  0.7816164E-02  0.1266605E+00
        -11   -1    0    0    0    0  0.00000000000E+00  0.00000000000E+00  0.45593999997E+02  0.45594000000E+02  0.51100000000E-03 0.  1.
         11   -1    0    0    0    0 -0.00000000000E+00 -0.00000000000E+00 -0.45593999997E+02  0.45594000000E+02  0.51100000000E-03 0. -1.
    9900012    2    1    2    0    0 -0.20781172737E+02  0.22603356977E+02  0.85994594837E+01  0.59301959318E+02  0.50000027886E+02 0.  0.
         12    1    1    2    0    0  0.20781172737E+02 -0.22603356977E+02 -0.85994594837E+01  0.31886040682E+02  0.00000000000E+00 0. -1.
         11    1    3    3    0    0 -0.30606886731E+02  0.96106311398E+01  0.37877648900E+01  0.32303140860E+02  0.51100000000E-03 0. -1.
        -11    1    3    3    0    0  0.19667092027E+01  0.49213934330E+00  0.10856096081E+02  0.11043775106E+02  0.51100000000E-03 0.  1.
        -12    1    3    3    0    0  0.78590047922E+01  0.12500586494E+02 -0.60444014870E+01  0.15955043352E+02  0.00000000000E+00 0.  1.
</event>
<event>
 7    1  0.6246445E-012  0.5930190E+02  0.7816164E-02  0.1266605E+00
        -11   -1    0    0    0    0  0.00000000000E+00  0.00000000000E+00  0.45593999997E+02  0.45594000000E+02  0.51100000000E-03 0. -1.
         11   -1    0    0    0    0 -0.00000000000E+00 -0.00000000000E+00 -0.45593999997E+02  0.45594000000E+02  0.51100000000E-03 0.  1.
    9900012    2    1    2    0    0  0.57249390086E+01 -0.65645707947E+01 -0.30673352438E+02  0.59301904815E+02  0.49999928486E+02 0.  0.
         12    1    1    2    0    0 -0.57249390086E+01  0.65645707947E+01  0.30673352438E+02  0.31886095185E+02  0.00000000000E+00 0. -1.
         11    1    3    3    0    0  0.17640689096E+02  0.29101489426E+01  0.16369988650E+01  0.17953903314E+02  0.51100000000E-03 0. -1.
        -11    1    3    3    0    0  0.43770471807E+01  0.68618084001E+00 -0.14486915475E+02  0.15149260919E+02  0.51100000000E-03 0.  1.
         12    1    3    3    0    0 -0.16292797268E+02 -0.10160900577E+02 -0.17823435828E+02  0.26198740582E+02  0.00000000000E+00 0. -1.
</event>
<event>
 7    1  0.6246445E-012  0.5930193E+02  0.7816164E-02  0.1266605E+00
        -11   -1    0    0    0    0  0.00000000000E+00  0.00000000000E+00  0.45593999997E+02  0.45594000000E+02  0.51100000000E-03 0. -1.
         11   -1    0    0    0    0 -0.00000000000E+00 -0.00000000000E+00 -0.45593999997E+02  0.45594000000E+02  0.51100000000E-03 0.  1.
    9900012    2    1    2    0    0 -0.21607908594E+02 -0.67669856981E+01 -0.22450556227E+02  0.59301932758E+02  0.49999979447E+02 0.  0.
         12    1    1    2    0    0  0.21607908594E+02  0.67669856981E+01  0.22450556227E+02  0.31886067242E+02  0.00000000000E+00 0. -1.
         11    1    3    3    0    0 -0.83730971181E+01 -0.62462491969E+01 -0.10970447696E+02  0.15148435803E+02  0.51100000000E-03 0. -1.
        -11    1    3    3    0    0 -0.12283351331E+02 -0.14205022404E+02 -0.20449435460E+02  0.27764055761E+02  0.51100000000E-03 0.  1.
        -12    1    3    3    0    0 -0.95146014498E+00  0.13684285903E+02  0.89693269281E+01  0.16389441193E+02  0.00000000000E+00 0.  1.
</event>
<event>
 7    1  0.6246445E-012  0.5930195E+02  0.7816164E-02  0.1266605E+00
        -11   -1    0    0    0    0  0.00000000000E+00  0.00000000000E+00  0.45593999997E+02  0.45594000000E+02  0.51100000000E-03 0.  1.
         11   -1    0    0    0    0 -0.00000000000E+00 -0.00000000000E+00 -0.45593999997E+02  0.45594000000E+02  0.51100000000E-03 0. -1.
    9900012    2    1    2    0    0 -0.57932557184E+01  0.16580242423E+01  0.31311486042E+02  0.59301952669E+02  0.50000015760E+02 0.  0.
         12    1    1    2    0    0  0.57932557184E+01 -0.16580242423E+01 -0.31311486042E+02  0.31886047331E+02  0.00000000000E+00 0. -1.
         11    1    3    3    0    0  0.32424480541E+00  0.12891886974E+00  0.69306461485E+01  0.69394244045E+01  0.51100000000E-03 0. -1.
        -11    1    3    3    0    0 -0.16964678569E+02  0.18338456043E+02  0.72178615829E+01  0.26003784630E+02  0.51100000000E-03 0.  1.
         12    1    3    3    0    0  0.10847178046E+02 -0.16809350670E+02  0.17162978311E+02  0.26358743635E+02  0.00000000000E+00 0. -1.
</event>
<event>
 7    1  0.6246445E-012  0.5930193E+02  0.7816164E-02  0.1266605E+00
        -11   -1    0    0    0    0  0.00000000000E+00  0.00000000000E+00  0.45593999997E+02  0.45594000000E+02  0.51100000000E-03 0.  1.
         11   -1    0    0    0    0 -0.00000000000E+00 -0.00000000000E+00 -0.45593999997E+02  0.45594000000E+02  0.51100000000E-03 0. -1.
    9900012    2    1    2    0    0  0.12208371405E+01 -0.90452841882E+01  0.30551827320E+02  0.59301925266E+02  0.49999965782E+02 0.  0.
         12    1    1    2    0    0 -0.12208371405E+01  0.90452841882E+01 -0.30551827320E+02  0.31886074734E+02  0.00000000000E+00 0. -1.
         11    1    3    3    0    0 -0.91745296713E+00 -0.11766633754E+02  0.59635138792E+01  0.13223421943E+02  0.51100000000E-03 0. -1.
        -11    1    3    3    0    0 -0.15353268020E+02  0.11615002995E+02  0.13787263810E+02  0.23679522315E+02  0.51100000000E-03 0.  1.
         12    1    3    3    0    0  0.17491558127E+02 -0.88936534289E+01  0.10801049631E+02  0.22398981007E+02  0.00000000000E+00 0. -1.
</event>
<event>
 7    1  0.6246445E-012  0.5930195E+02  0.7816164E-02  0.1266605E+00
        -11   -1    0    0    0    0  0.00000000000E+00  0.00000000000E+00  0.45593999997E+02  0.45594000000E+02  0.51100000000E-03 0. -1.
         11   -1    0    0    0    0 -0.00000000000E+00 -0.00000000000E+00 -0.45593999997E+02  0.45594000000E+02  0.51100000000E-03 0.  1.
    9900012    2    1    2    0    0  0.17472784871E+02 -0.14468028983E+02 -0.22407547564E+02  0.59301948792E+02  0.50000008689E+02 0.  0.
         12    1    1    2    0    0 -0.17472784871E+02  0.14468028983E+02  0.22407547564E+02  0.31886051208E+02  0.00000000000E+00 0. -1.
         11    1    3    3    0    0  0.77540652078E+01 -0.12891117027E+02  0.44473870705E+00  0.15050057084E+02  0.51100000000E-03 0. -1.
        -11    1    3    3    0    0 -0.13498730368E+02 -0.18237131439E+01 -0.13627161916E+02  0.19267620333E+02  0.51100000000E-03 0.  1.
         12    1    3    3    0    0  0.23217450031E+02  0.24680118789E+00 -0.92251243553E+01  0.24984271375E+02  0.00000000000E+00 0. -1.
</event>
<event>
 7    1  0.6246445E-012  0.5930194E+02  0.7816164E-02  0.1266605E+00
        -11   -1    0    0    0    0  0.00000000000E+00  0.00000000000E+00  0.45593999997E+02  0.45594000000E+02  0.51100000000E-03 0. -1.
         11   -1    0    0    0    0 -0.00000000000E+00 -0.00000000000E+00 -0.45593999997E+02  0.45594000000E+02  0.51100000000E-03 0.  1.
    9900012    2    1    2    0    0  0.10379010643E+02  0.25218025879E+02 -0.16524170979E+02  0.59301938505E+02  0.49999989928E+02 0.  0.
         12    1    1    2    0    0 -0.10379010643E+02 -0.25218025879E+02  0.16524170979E+02  0.31886061495E+02  0.00000000000E+00 0. -1.
         11    1    3    3    0    0 -0.14945058012E+01  0.14355706482E+02  0.10322590879E+02  0.17744738344E+02  0.51100000000E-03 0. -1.
        -11    1    3    3    0    0  0.11838451344E+02  0.33355698574E+01  0.13498732742E+01  0.12373241880E+02  0.51100000000E-03 0.  1.
         12    1    3    3    0    0  0.35065099699E-01  0.75267495391E+01 -0.28196635131E+02  0.29183958281E+02  0.00000000000E+00 0. -1.
</event>
<event>
 7    1  0.6246445E-012  0.5930194E+02  0.7816164E-02  0.1266605E+00
        -11   -1    0    0    0    0  0.00000000000E+00  0.00000000000E+00  0.45593999997E+02  0.45594000000E+02  0.51100000000E-03 0. -1.
         11   -1    0    0    0    0 -0.00000000000E+00 -0.00000000000E+00 -0.45593999997E+02  0.45594000000E+02  0.51100000000E-03 0.  1.
    9900012    2    1    2    0    0 -0.17630001557E+00  0.31045192780E+02  0.72722772128E+01  0.59301935767E+02  0.49999984934E+02 0.  0.
         12    1    1    2    0    0  0.17630001557E+00 -0.31045192780E+02 -0.72722772128E+01  0.31886064233E+02  0.00000000000E+00 0. -1.
         11    1    3    3    0    0  0.45827658605E+01  0.12751961300E+02  0.15329731032E+02  0.20460080980E+02  0.51100000000E-03 0. -1.
        -11    1    3    3    0    0  0.15170635965E+01 -0.91571319021E+01  0.81698275447E+00  0.93178327797E+01  0.51100000000E-03 0.  1.
         12    1    3    3    0    0 -0.62761294725E+01  0.27450363382E+02 -0.88744365740E+01  0.29524022007E+02  0.00000000000E+00 0. -1.
</event>
<event>
 7    1  0.6246445E-012  0.5930195E+02  0.7816164E-02  0.1266605E+00
        -11   -1    0    0    0    0  0.00000000000E+00  0.00000000000E+00  0.45593999997E+02  0.45594000000E+02  0.51100000000E-03 0.  1.
         11   -1    0    0    0    0 -0.00000000000E+00 -0.00000000000E+00 -0.45593999997E+02  0.45594000000E+02  0.51100000000E-03 0. -1.
    9900012    2    1    2    0    0  0.15972813216E+02  0.36372675085E+01  0.27356164947E+02  0.59301949170E+02  0.50000009378E+02 0.  0.
         12    1    1    2    0    0 -0.15972813216E+02 -0.36372675085E+01 -0.27356164947E+02  0.31886050830E+02  0.00000000000E+00 0. -1.
         11    1    3    3    0    0  0.85893510193E+01 -0.45515433101E+01  0.11442032287E+02  0.15013780355E+02  0.51100000000E-03 0. -1.
        -11    1    3    3    0    0  0.18288469793E+02  0.39760402027E+01  0.23732467818E+02  0.30224279182E+02  0.51100000000E-03 0.  1.
         12    1    3    3    0    0 -0.10905007597E+02  0.42127706160E+01 -0.78183351579E+01  0.14063889633E+02  0.00000000000E+00 0. -1.
</event>
<event>
 7    1  0.6246445E-012  0.5930193E+02  0.7816164E-02  0.1266605E+00
        -11   -1    0    0    0    0  0.00000000000E+00  0.00000000000E+00  0.45593999997E+02  0.45594000000E+02  0.51100000000E-03 0.  1.
         11   -1    0    0    0    0 -0.00000000000E+00 -0.00000000000E+00 -0.45593999997E+02  0.45594000000E+02  0.51100000000E-03 0. -1.
    9900012    2    1    2    0    0  0.14175075212E+02 -0.53332878333E+01  0.28059667662E+02  0.59301926775E+02  0.49999968536E+02 0.  0.
         12    1    1    2    0    0 -0.14175075212E+02  0.53332878333E+01 -0.28059667662E+02  0.31886073225E+02  0.00000000000E+00 0. -1.
         11    1    3    3    0    0 -0.27205791503E+01 -0.15781932350E+01  0.99934352819E+01  0.10476688112E+02  0.51100000000E-03 0. -1.
        -11    1    3    3    0    0 -0.93651086989E+00  0.75085338646E+01  0.25393692021E+02  0.26497070180E+02  0.51100000000E-03 0.  1.
        -12    1    3    3    0    0  0.17832165233E+02 -0.11263628463E+02 -0.73274596411E+01  0.22328168483E+02  0.00000000000E+00 0.  1.
</event>
<event>
 7    1  0.6246445E-012  0.5930194E+02  0.7816164E-02  0.1266605E+00
        -11   -1    0    0    0    0  0.00000000000E+00  0.00000000000E+00  0.45593999997E+02  0.45594000000E+02  0.51100000000E-03 0.  1.
         11   -1    0    0    0    0 -0.00000000000E+00 -0.00000000000E+00 -0.45593999997E+02  0.45594000000E+02  0.51100000000E-03 0. -1.
    9900012    2    1    2    0    0 -0.10944468641E+02 -0.25431314255E+02  0.15817316739E+02  0.59301942744E+02  0.49999997658E+02 0.  0.
         12    1    1    2    0    0  0.10944468641E+02  0.25431314255E+02 -0.15817316739E+02  0.31886057256E+02  0.00000000000E+00 0. -1.
         11    1    3    3    0    0  0.25815712978E+01  0.21551642678E+01 -0.83085066627E+01  0.89632877122E+01  0.51100000000E-03 0. -1.
        -11    1    3    3    0    0 -0.15374975218E+02 -0.13306150229E+02  0.28751011798E+02  0.35214544957E+02  0.51100000000E-03 0.  1.
         12    1    3    3    0    0  0.18489352799E+01 -0.14280328294E+02 -0.46251883966E+01  0.15124110074E+02  0.00000000000E+00 0. -1.
</event>
<event>
 7    1  0.7566637E-012  0.5930194E+02  0.7816164E-02  0.1266605E+00
        -11   -1    0    0    0    0  0.00000000000E+00  0.00000000000E+00  0.45593999997E+02  0.45594000000E+02  0.51100000000E-03 0.  1.
         11   -1    0    0    0    0 -0.00000000000E+00 -0.00000000000E+00 -0.45593999997E+02  0.45594000000E+02  0.51100000000E-03 0. -1.
    9900012    2    1    2    0    0 -0.25132630198E+02  0.19622596725E+02  0.15893543872E+00  0.59301942492E+02  0.49999997199E+02 0.  0.
         12    1    1    2    0    0  0.25132630198E+02 -0.19622596725E+02 -0.15893543872E+00  0.31886057508E+02  0.00000000000E+00 0. -1.
         11    1    3    3    0    0 -0.13134463575E+02 -0.59701918613E+01 -0.56225324133E+01  0.15484514693E+02  0.51100000000E-03 0. -1.
        -11    1    3    3    0    0 -0.22656111313E+02  0.20228999178E+02  0.85811416385E+01  0.31561808878E+02  0.51100000000E-03 0.  1.
         12    1    3    3    0    0  0.10657944690E+02  0.53637894083E+01 -0.27996737865E+01  0.12255618921E+02  0.00000000000E+00 0. -1.
</event>
<event>
 7    1  0.6246445E-012  0.5930196E+02  0.7816164E-02  0.1266605E+00
        -11   -1    0    0    0    0  0.00000000000E+00  0.00000000000E+00  0.45593999997E+02  0.45594000000E+02  0.51100000000E-03 0.  1.
         11   -1    0    0    0    0 -0.00000000000E+00 -0.00000000000E+00 -0.45593999997E+02  0.45594000000E+02  0.51100000000E-03 0. -1.
    9900012    2    1    2    0    0  0.12402233970E+02 -0.25609284471E+02  0.14389884979E+02  0.59301958410E+02  0.50000026230E+02 0.  0.
         12    1    1    2    0    0 -0.12402233970E+02  0.25609284471E+02 -0.14389884979E+02  0.31886041590E+02  0.00000000000E+00 0. -1.
         11    1    3    3    0    0  0.19091466186E+02 -0.16696269993E+02 -0.44531050836E+01  0.25750333162E+02  0.51100000000E-03 0. -1.
        -11    1    3    3    0    0  0.88917251263E+01 -0.25932365327E+01  0.12552065887E+02  0.15599423378E+02  0.51100000000E-03 0.  1.
         12    1    3    3    0    0 -0.15580957343E+02 -0.63197779457E+01  0.62909241749E+01  0.17952201870E+02  0.00000000000E+00 0. -1.
</event>
<event>
 7    1  0.6246445E-012  0.5930195E+02  0.7816164E-02  0.1266605E+00
        -11   -1    0    0    0    0  0.00000000000E+00  0.00000000000E+00  0.45593999997E+02  0.45594000000E+02  0.51100000000E-03 0. -1.
         11   -1    0    0    0    0 -0.00000000000E+00 -0.00000000000E+00 -0.45593999997E+02  0.45594000000E+02  0.51100000000E-03 0.  1.
    9900012    2    1    2    0    0  0.16626077984E+01  0.31523532367E+02  0.44969503675E+01  0.59301954146E+02  0.50000018453E+02 0.  0.
         12    1    1    2    0    0 -0.16626077984E+01 -0.31523532367E+02 -0.44969503675E+01  0.31886045854E+02  0.00000000000E+00 0. -1.
         11    1    3    3    0    0 -0.13133099061E+02 -0.19690732341E+01 -0.10757496302E+02  0.17090326717E+02  0.51100000000E-03 0. -1.
        -11    1    3    3    0    0  0.10444219732E+02  0.10174646326E+02  0.11771468097E+01  0.14628425361E+02  0.51100000000E-03 0.  1.
        -12    1    3    3    0    0  0.43514871277E+01  0.23317959276E+02  0.14077299859E+02  0.27583202068E+02  0.00000000000E+00 0.  1.
</event>
<event>
 7    1  0.6246445E-012  0.5930195E+02  0.7816164E-02  0.1266605E+00
        -11   -1    0    0    0    0  0.00000000000E+00  0.00000000000E+00  0.45593999997E+02  0.45594000000E+02  0.51100000000E-03 0.  1.
         11   -1    0    0    0    0 -0.00000000000E+00 -0.00000000000E+00 -0.45593999997E+02  0.45594000000E+02  0.51100000000E-03 0. -1.
    9900012    2    1    2    0    0  0.34875129538E+01  0.44863573390E+01  0.31375627710E+02  0.59301950339E+02  0.50000011511E+02 0.  0.
         12    1    1    2    0    0 -0.34875129538E+01 -0.44863573390E+01 -0.31375627710E+02  0.31886049661E+02  0.00000000000E+00 0. -1.
         11    1    3    3    0    0 -0.14506976939E+02 -0.44578111179E+00  0.12429537446E+02  0.19108754593E+02  0.51100000000E-03 0. -1.
        -11    1    3    3    0    0  0.66753514980E+01 -0.12097333885E+02  0.12817020725E+02  0.18846268205E+02  0.51100000000E-03 0.  1.
         12    1    3    3    0    0  0.11319138395E+02  0.17029472336E+02  0.61290695385E+01  0.21346927541E+02  0.00000000000E+00 0. -1.
</event>
<event>
 7    1  0.6246445E-012  0.5930200E+02  0.7816164E-02  0.1266605E+00
        -11   -1    0    0    0    0  0.00000000000E+00  0.00000000000E+00  0.45593999997E+02  0.45594000000E+02  0.51100000000E-03 0.  1.
         11   -1    0    0    0    0 -0.00000000000E+00 -0.00000000000E+00 -0.45593999997E+02  0.45594000000E+02  0.51100000000E-03 0. -1.
    9900012    2    1    2    0    0  0.28827259208E+02  0.13319063669E+02  0.28824788173E+01  0.59301999709E+02  0.50000101549E+02 0.  0.
         12    1    1    2    0    0 -0.28827259208E+02 -0.13319063669E+02 -0.28824788173E+01  0.31886000291E+02  0.00000000000E+00 0. -1.
         11    1    3    3    0    0 -0.12655094274E+02  0.77809464196E+01  0.15488849644E+01  0.14936317591E+02  0.51100000000E-03 0.  1.
        -11    1    3    3    0    0  0.23759247278E+02  0.71204369111E+01 -0.53224567936E+01  0.25367912795E+02  0.51100000000E-03 0. -1.
        -12    1    3    3    0    0  0.17723106204E+02 -0.15823196617E+01  0.66560506465E+01  0.18997769323E+02  0.00000000000E+00 0.  1.
</event>
<event>
 7    1  0.6246445E-012  0.5930200E+02  0.7816164E-02  0.1266605E+00
        -11   -1    0    0    0    0  0.00000000000E+00  0.00000000000E+00  0.45593999997E+02  0.45594000000E+02  0.51100000000E-03 0. -1.
         11   -1    0    0    0    0 -0.00000000000E+00 -0.00000000000E+00 -0.45593999997E+02  0.45594000000E+02  0.51100000000E-03 0.  1.
    9900012    2    1    2    0    0 -0.18558014387E+02  0.20361988711E+02 -0.16053238327E+02  0.59302000831E+02  0.50000103595E+02 0.  0.
         12    1    1    2    0    0  0.18558014387E+02 -0.20361988711E+02  0.16053238327E+02  0.31885999169E+02  0.00000000000E+00 0. -1.
         11    1    3    3    0    0 -0.11542490047E+01  0.65118157095E+01 -0.90413629881E+00  0.66748406204E+01  0.51100000000E-03 0. -1.
        -11    1    3    3    0    0 -0.17584947090E+02  0.62375116829E+01 -0.30349394002E+02  0.35626150967E+02  0.51100000000E-03 0.  1.
         12    1    3    3    0    0  0.18118170839E+00  0.76126613188E+01  0.15200291975E+02  0.17001009243E+02  0.00000000000E+00 0. -1.
</event>
<event>
 7    1  0.6246445E-012  0.5930195E+02  0.7816164E-02  0.1266605E+00
        -11   -1    0    0    0    0  0.00000000000E+00  0.00000000000E+00  0.45593999997E+02  0.45594000000E+02  0.51100000000E-03 0.  1.
         11   -1    0    0    0    0 -0.00000000000E+00 -0.00000000000E+00 -0.45593999997E+02  0.45594000000E+02  0.51100000000E-03 0. -1.
    9900012    2    1    2    0    0 -0.21077627902E+02 -0.16617901050E+02  0.17213351182E+02  0.59301945177E+02  0.50000002096E+02 0.  0.
         12    1    1    2    0    0  0.21077627902E+02  0.16617901050E+02 -0.17213351182E+02  0.31886054823E+02  0.00000000000E+00 0. -1.
         11    1    3    3    0    0 -0.87178312564E+01 -0.14099267765E+02 -0.24814220956E+01  0.16761485292E+02  0.51100000000E-03 0. -1.
        -11    1    3    3    0    0 -0.56068409201E+01 -0.84649382828E+01 -0.83132675478E+01  0.13122585981E+02  0.51100000000E-03 0.  1.
        -12    1    3    3    0    0 -0.67529557251E+01  0.59463049976E+01  0.28008040825E+02  0.29417873904E+02  0.00000000000E+00 0.  1.
</event>
<event>
 7    1  0.6246445E-012  0.5930195E+02  0.7816164E-02  0.1266605E+00
        -11   -1    0    0    0    0  0.00000000000E+00  0.00000000000E+00  0.45593999997E+02  0.45594000000E+02  0.51100000000E-03 0. -1.
         11   -1    0    0    0    0 -0.00000000000E+00 -0.00000000000E+00 -0.45593999997E+02  0.45594000000E+02  0.51100000000E-03 0.  1.
    9900012    2    1    2    0    0  0.99404968392E+01 -0.17129482386E+02 -0.24989752386E+02  0.59301947116E+02  0.50000005632E+02 0.  0.
         12    1    1    2    0    0 -0.99404968392E+01  0.17129482386E+02  0.24989752386E+02  0.31886052884E+02  0.00000000000E+00 0. -1.
         11    1    3    3    0    0 -0.14079836586E+02 -0.36700108361E+01 -0.20169117591E+02  0.24869742308E+02  0.51100000000E-03 0. -1.
        -11    1    3    3    0    0 -0.15155187935E+01 -0.56051518505E+01  0.30790360852E+01  0.65722893998E+01  0.51100000000E-03 0.  1.
        -12    1    3    3    0    0  0.25535852219E+02 -0.78543196991E+01 -0.78996708806E+01  0.27859915407E+02  0.00000000000E+00 0.  1.
</event>
<event>
 7    1  0.6246445E-012  0.5930195E+02  0.7816164E-02  0.1266605E+00
        -11   -1    0    0    0    0  0.00000000000E+00  0.00000000000E+00  0.45593999997E+02  0.45594000000E+02  0.51100000000E-03 0.  1.
         11   -1    0    0    0    0 -0.00000000000E+00 -0.00000000000E+00 -0.45593999997E+02  0.45594000000E+02  0.51100000000E-03 0. -1.
    9900012    2    1    2    0    0  0.16909660878E+01 -0.29242105046E+01  0.31706624780E+02  0.59301946178E+02  0.50000003922E+02 0.  0.
         12    1    1    2    0    0 -0.16909660878E+01  0.29242105046E+01 -0.31706624780E+02  0.31886053822E+02  0.00000000000E+00 0. -1.
         11    1    3    3    0    0  0.14649604349E+02  0.87458552895E+01  0.11284964466E+02  0.20456082606E+02  0.51100000000E-03 0. -1.
        -11    1    3    3    0    0  0.60681914369E+01 -0.49251720281E+01  0.16533837564E+02  0.18287920922E+02  0.51100000000E-03 0.  1.
         12    1    3    3    0    0 -0.19026829698E+02 -0.67448937659E+01  0.38878227500E+01  0.20557942650E+02  0.00000000000E+00 0. -1.
</event>
<event>
 7    1  0.6246445E-012  0.5930177E+02  0.7816164E-02  0.1266605E+00
        -11   -1    0    0    0    0  0.00000000000E+00  0.00000000000E+00  0.45593999997E+02  0.45594000000E+02  0.51100000000E-03 0.  1.
         11   -1    0    0    0    0 -0.00000000000E+00 -0.00000000000E+00 -0.45593999997E+02  0.45594000000E+02  0.51100000000E-03 0. -1.
    9900012    2    1    2    0    0  0.13856919051E+02  0.10795063682E+02  0.26611724117E+02  0.59301773099E+02  0.49999688267E+02 0.  0.
         12    1    1    2    0    0 -0.13856919051E+02 -0.10795063682E+02 -0.26611724117E+02  0.31886226901E+02  0.00000000000E+00 0. -1.
         11    1    3    3    0    0  0.17900482206E+02  0.19754903073E+02  0.25906072816E+02  0.37172679049E+02  0.51100000000E-03 0. -1.
        -11    1    3    3    0    0  0.24575831323E+01  0.53782976253E+01  0.22134684524E+01  0.63138928602E+01  0.51100000000E-03 0.  1.
         12    1    3    3    0    0 -0.65011462871E+01 -0.14338137016E+02 -0.15078171522E+01  0.15815201191E+02  0.00000000000E+00 0. -1.
</event>
<event>
 7    1  0.6246445E-012  0.5930194E+02  0.7816164E-02  0.1266605E+00
        -11   -1    0    0    0    0  0.00000000000E+00  0.00000000000E+00  0.45593999997E+02  0.45594000000E+02  0.51100000000E-03 0.  1.
         11   -1    0    0    0    0 -0.00000000000E+00 -0.00000000000E+00 -0.45593999997E+02  0.45594000000E+02  0.51100000000E-03 0. -1.
    9900012    2    1    2    0    0 -0.31069393034E+02  0.68855709872E+01  0.20006832494E+01  0.59301937139E+02  0.49999987437E+02 0.  0.
         12    1    1    2    0    0  0.31069393034E+02 -0.68855709872E+01 -0.20006832494E+01  0.31886062861E+02  0.00000000000E+00 0. -1.
         11    1    3    3    0    0 -0.62094736591E+01  0.82081830823E+01  0.16838903854E+02  0.19735260726E+02  0.51100000000E-03 0. -1.
        -11    1    3    3    0    0 -0.18325512540E+01  0.94614397530E+01 -0.96048404681E+01  0.13606250291E+02  0.51100000000E-03 0.  1.
        -12    1    3    3    0    0 -0.23027368120E+02 -0.10784051848E+02 -0.52333801369E+01  0.25960426123E+02  0.00000000000E+00 0.  1.
</event>
<event>
 7    1  0.6246445E-012  0.5930195E+02  0.7816164E-02  0.1266605E+00
        -11   -1    0    0    0    0  0.00000000000E+00  0.00000000000E+00  0.45593999997E+02  0.45594000000E+02  0.51100000000E-03 0.  1.
         11   -1    0    0    0    0 -0.00000000000E+00 -0.00000000000E+00 -0.45593999997E+02  0.45594000000E+02  0.51100000000E-03 0. -1.
    9900012    2    1    2    0    0  0.10027020689E+02 -0.14354428510E+01  0.30234392065E+02  0.59301951270E+02  0.50000013209E+02 0.  0.
         12    1    1    2    0    0 -0.10027020689E+02  0.14354428510E+01 -0.30234392065E+02  0.31886048730E+02  0.00000000000E+00 0. -1.
         11    1    3    3    0    0 -0.29523291663E+01 -0.15527562755E+02  0.22378638352E+02  0.27397534695E+02  0.51100000000E-03 0. -1.
        -11    1    3    3    0    0 -0.13325612633E+01 -0.18978578873E+01  0.10067605549E+02  0.10331227702E+02  0.51100000000E-03 0.  1.
         12    1    3    3    0    0  0.14311911118E+02  0.15989977792E+02 -0.22118518353E+01  0.21573188874E+02  0.00000000000E+00 0. -1.
</event>
<event>
 7    1  0.6246445E-012  0.5930195E+02  0.7816164E-02  0.1266605E+00
        -11   -1    0    0    0    0  0.00000000000E+00  0.00000000000E+00  0.45593999997E+02  0.45594000000E+02  0.51100000000E-03 0. -1.
         11   -1    0    0    0    0 -0.00000000000E+00 -0.00000000000E+00 -0.45593999997E+02  0.45594000000E+02  0.51100000000E-03 0.  1.
    9900012    2    1    2    0    0  0.95748873240E+00  0.16697781574E+02 -0.27147510943E+02  0.59301952196E+02  0.50000014898E+02 0.  0.
         12    1    1    2    0    0 -0.95748873240E+00 -0.16697781574E+02  0.27147510943E+02  0.31886047804E+02  0.00000000000E+00 0. -1.
         11    1    3    3    0    0 -0.23390815273E+01 -0.13227062915E+01  0.13625503076E+01  0.30128720396E+01  0.51100000000E-03 0. -1.
        -11    1    3    3    0    0  0.56878204008E+01  0.71625252295E+01  0.11539687583E+02  0.14724722692E+02  0.51100000000E-03 0.  1.
        -12    1    3    3    0    0 -0.23912501411E+01  0.10857962636E+02 -0.40049748834E+02  0.41564357465E+02  0.00000000000E+00 0.  1.
</event>
<event>
 7    1  0.6246445E-012  0.5930194E+02  0.7816164E-02  0.1266605E+00
        -11   -1    0    0    0    0  0.00000000000E+00  0.00000000000E+00  0.45593999997E+02  0.45594000000E+02  0.51100000000E-03 0. -1.
         11   -1    0    0    0    0 -0.00000000000E+00 -0.00000000000E+00 -0.45593999997E+02  0.45594000000E+02  0.51100000000E-03 0.  1.
    9900012    2    1    2    0    0  0.26106898607E+01  0.24822428300E+02 -0.19843181649E+02  0.59301944957E+02  0.50000001695E+02 0.  0.
         12    1    1    2    0    0 -0.26106898607E+01 -0.24822428300E+02  0.19843181649E+02  0.31886055043E+02  0.00000000000E+00 0. -1.
         11    1    3    3    0    0 -0.52119079151E+01 -0.22077265323E+01 -0.19151881894E+01  0.59754486542E+01  0.51100000000E-03 0. -1.
        -11    1    3    3    0    0  0.37342044341E+01  0.71944573932E+01  0.13612738704E+02  0.15843331570E+02  0.51100000000E-03 0.  1.
        -12    1    3    3    0    0  0.40883933417E+01  0.19835697439E+02 -0.31540732164E+02  0.37483164733E+02  0.00000000000E+00 0.  1.
</event>
<event>
 7    1  0.6246445E-012  0.5930194E+02  0.7816164E-02  0.1266605E+00
        -11   -1    0    0    0    0  0.00000000000E+00  0.00000000000E+00  0.45593999997E+02  0.45594000000E+02  0.51100000000E-03 0.  1.
         11   -1    0    0    0    0 -0.00000000000E+00 -0.00000000000E+00 -0.45593999997E+02  0.45594000000E+02  0.51100000000E-03 0. -1.
    9900012    2    1    2    0    0  0.67262819355E+01  0.28932732987E+02  0.11592024707E+02  0.59301938099E+02  0.49999989187E+02 0.  0.
         12    1    1    2    0    0 -0.67262819355E+01 -0.28932732987E+02 -0.11592024707E+02  0.31886061901E+02  0.00000000000E+00 0. -1.
         11    1    3    3    0    0  0.24526748463E+02  0.87514365360E+01  0.12268715761E+02  0.28786636106E+02  0.51100000000E-03 0. -1.
        -11    1    3    3    0    0 -0.39936227261E+01  0.10164896413E+02  0.56822914907E+01  0.12311075437E+02  0.51100000000E-03 0.  1.
        -12    1    3    3    0    0 -0.13806843802E+02  0.10016400038E+02 -0.63589825444E+01  0.18204226556E+02  0.00000000000E+00 0.  1.
</event>
<event>
 7    1  0.6246445E-012  0.5930193E+02  0.7816164E-02  0.1266605E+00
        -11   -1    0    0    0    0  0.00000000000E+00  0.00000000000E+00  0.45593999997E+02  0.45594000000E+02  0.51100000000E-03 0.  1.
         11   -1    0    0    0    0 -0.00000000000E+00 -0.00000000000E+00 -0.45593999997E+02  0.45594000000E+02  0.51100000000E-03 0. -1.
    9900012    2    1    2    0    0 -0.16076323707E+02  0.26668273453E+02  0.68612356351E+01  0.59301928631E+02  0.49999971921E+02 0.  0.
         12    1    1    2    0    0  0.16076323707E+02 -0.26668273453E+02 -0.68612356351E+01  0.31886071369E+02  0.00000000000E+00 0. -1.
         11    1    3    3    0    0 -0.10588656738E+02  0.12982735820E+02  0.42085555709E+01  0.17273766849E+02  0.51100000000E-03 0. -1.
        -11    1    3    3    0    0 -0.13484325116E+02  0.20189825507E+02  0.12900308066E+02  0.27493163265E+02  0.51100000000E-03 0.  1.
         12    1    3    3    0    0  0.79966581471E+01 -0.65042878741E+01 -0.10247628002E+02  0.14534998518E+02  0.00000000000E+00 0. -1.
</event>
<event>
 7    1  0.6246445E-012  0.5930195E+02  0.7816164E-02  0.1266605E+00
        -11   -1    0    0    0    0  0.00000000000E+00  0.00000000000E+00  0.45593999997E+02  0.45594000000E+02  0.51100000000E-03 0.  1.
         11   -1    0    0    0    0 -0.00000000000E+00 -0.00000000000E+00 -0.45593999997E+02  0.45594000000E+02  0.51100000000E-03 0. -1.
    9900012    2    1    2    0    0 -0.44933594755E+01  0.31564004557E+02  0.49350997014E+00  0.59301949521E+02  0.50000010018E+02 0.  0.
         12    1    1    2    0    0  0.44933594755E+01 -0.31564004557E+02 -0.49350997014E+00  0.31886050479E+02  0.00000000000E+00 0. -1.
         11    1    3    3    0    0  0.17230323955E+01  0.15468248295E+02  0.88737336817E+01  0.17915878311E+02  0.51100000000E-03 0. -1.
        -11    1    3    3    0    0 -0.53058358734E+01  0.19821543805E+02  0.98469116896E+01  0.22759770719E+02  0.51100000000E-03 0.  1.
         12    1    3    3    0    0 -0.91055599757E+00 -0.37257875421E+01 -0.18227135401E+02  0.18626300491E+02  0.00000000000E+00 0. -1.
</event>
<event>
 7    1  0.6246445E-012  0.5930194E+02  0.7816164E-02  0.1266605E+00
        -11   -1    0    0    0    0  0.00000000000E+00  0.00000000000E+00  0.45593999997E+02  0.45594000000E+02  0.51100000000E-03 0.  1.
         11   -1    0    0    0    0 -0.00000000000E+00 -0.00000000000E+00 -0.45593999997E+02  0.45594000000E+02  0.51100000000E-03 0. -1.
    9900012    2    1    2    0    0 -0.18495414581E+02  0.20291367086E+02  0.16214226315E+02  0.59301936058E+02  0.49999985464E+02 0.  0.
         12    1    1    2    0    0  0.18495414581E+02 -0.20291367086E+02 -0.16214226315E+02  0.31886063942E+02  0.00000000000E+00 0. -1.
         11    1    3    3    0    0 -0.57010431597E+01  0.16561563388E+02  0.14128970866E+02  0.22503668433E+02  0.51100000000E-03 0. -1.
        -11    1    3    3    0    0  0.86535874177E+01  0.11957328483E+01  0.10465397909E+02  0.13632274421E+02  0.51100000000E-03 0.  1.
         12    1    3    3    0    0 -0.21447958839E+02  0.25340708501E+01 -0.83801424603E+01  0.23165993203E+02  0.00000000000E+00 0. -1.
</event>
<event>
 7    1  0.6246445E-012  0.5930197E+02  0.7816164E-02  0.1266605E+00
        -11   -1    0    0    0    0  0.00000000000E+00  0.00000000000E+00  0.45593999997E+02  0.45594000000E+02  0.51100000000E-03 0. -1.
         11   -1    0    0    0    0 -0.00000000000E+00 -0.00000000000E+00 -0.45593999997E+02  0.45594000000E+02  0.51100000000E-03 0.  1.
    9900012    2    1    2    0    0  0.26626775359E+02 -0.11176770520E+02  0.13520852686E+02  0.59301971357E+02  0.50000049842E+02 0.  0.
         12    1    1    2    0    0 -0.26626775359E+02  0.11176770520E+02 -0.13520852686E+02  0.31886028643E+02  0.00000000000E+00 0. -1.
         11    1    3    3    0    0  0.92487467052E+01 -0.15077651037E+02  0.29443500777E+01  0.17931650065E+02  0.51100000000E-03 0. -1.
        -11    1    3    3    0    0  0.52961595822E+01 -0.75769358741E+01  0.20137273201E+02  0.22157821098E+02  0.51100000000E-03 0.  1.
        -12    1    3    3    0    0  0.12081869071E+02  0.11477816392E+02 -0.95607705929E+01  0.19212500194E+02  0.00000000000E+00 0.  1.
</event>
<event>
 7    1  0.6246445E-012  0.5930195E+02  0.7816164E-02  0.1266605E+00
        -11   -1    0    0    0    0  0.00000000000E+00  0.00000000000E+00  0.45593999997E+02  0.45594000000E+02  0.51100000000E-03 0.  1.
         11   -1    0    0    0    0 -0.00000000000E+00 -0.00000000000E+00 -0.45593999997E+02  0.45594000000E+02  0.51100000000E-03 0. -1.
    9900012    2    1    2    0    0 -0.70178935433E+01  0.17596446555E+02  0.25648285186E+02  0.59301948282E+02  0.50000007759E+02 0.  0.
         12    1    1    2    0    0  0.70178935433E+01 -0.17596446555E+02 -0.25648285186E+02  0.31886051718E+02  0.00000000000E+00 0. -1.
         11    1    3    3    0    0 -0.43532254131E+01 -0.12208655262E+02  0.34311136316E+01  0.13407996711E+02  0.51100000000E-03 0. -1.
        -11    1    3    3    0    0  0.19453450059E+01  0.16402964490E+02  0.26377979363E+02  0.31122972332E+02  0.51100000000E-03 0.  1.
        -12    1    3    3    0    0 -0.46100131361E+01  0.13402137327E+02 -0.41608078082E+01  0.14770979238E+02  0.00000000000E+00 0.  1.
</event>
<event>
 7    1  0.6246445E-012  0.5930207E+02  0.7816164E-02  0.1266604E+00
        -11   -1    0    0    0    0  0.00000000000E+00  0.00000000000E+00  0.45593999997E+02  0.45594000000E+02  0.51100000000E-03 0. -1.
         11   -1    0    0    0    0 -0.00000000000E+00 -0.00000000000E+00 -0.45593999997E+02  0.45594000000E+02  0.51100000000E-03 0.  1.
    9900012    2    1    2    0    0 -0.13290266025E+01  0.30888990549E+02 -0.77984855536E+01  0.59302071665E+02  0.50000232780E+02 0.  0.
         12    1    1    2    0    0  0.13290266025E+01 -0.30888990549E+02  0.77984855536E+01  0.31885928335E+02  0.00000000000E+00 0. -1.
         11    1    3    3    0    0  0.49799195895E+01  0.46015654936E+01 -0.72129862430E+01  0.98995542785E+01  0.51100000000E-03 0. -1.
        -11    1    3    3    0    0 -0.11286403885E+02 -0.85735089187E+01 -0.64117616188E+00  0.14187990519E+02  0.51100000000E-03 0.  1.
         12    1    3    3    0    0  0.49774576928E+01  0.34860933974E+02  0.55676851323E-01  0.35214526868E+02  0.00000000000E+00 0. -1.
</event>
<event>
 7    1  0.6246445E-012  0.5930196E+02  0.7816164E-02  0.1266605E+00
        -11   -1    0    0    0    0  0.00000000000E+00  0.00000000000E+00  0.45593999997E+02  0.45594000000E+02  0.51100000000E-03 0.  1.
         11   -1    0    0    0    0 -0.00000000000E+00 -0.00000000000E+00 -0.45593999997E+02  0.45594000000E+02  0.51100000000E-03 0. -1.
    9900012    2    1    2    0    0  0.53829257770E+01  0.36761801817E+01  0.31212648773E+02  0.59301958633E+02  0.50000026637E+02 0.  0.
         12    1    1    2    0    0 -0.53829257770E+01 -0.36761801817E+01 -0.31212648773E+02  0.31886041367E+02  0.00000000000E+00 0. -1.
         11    1    3    3    0    0  0.19926746464E+02  0.18919482980E+01  0.41246441447E+01  0.20436912256E+02  0.51100000000E-03 0. -1.
        -11    1    3    3    0    0  0.10561311611E+01 -0.55287324154E+01  0.19029684518E+02  0.19844676572E+02  0.51100000000E-03 0.  1.
         12    1    3    3    0    0 -0.15599951848E+02  0.73129642991E+01  0.80583201099E+01  0.19020369804E+02  0.00000000000E+00 0. -1.
</event>
<event>
 7    1  0.6246445E-012  0.5930194E+02  0.7816164E-02  0.1266605E+00
        -11   -1    0    0    0    0  0.00000000000E+00  0.00000000000E+00  0.45593999997E+02  0.45594000000E+02  0.51100000000E-03 0.  1.
         11   -1    0    0    0    0 -0.00000000000E+00 -0.00000000000E+00 -0.45593999997E+02  0.45594000000E+02  0.51100000000E-03 0. -1.
    9900012    2    1    2    0    0  0.10461071547E+01  0.15182351281E+02  0.28020041015E+02  0.59301939894E+02  0.49999992462E+02 0.  0.
         12    1    1    2    0    0 -0.10461071547E+01 -0.15182351281E+02 -0.28020041015E+02  0.31886060106E+02  0.00000000000E+00 0. -1.
         11    1    3    3    0    0  0.52562428000E+01  0.16235901621E+02  0.10435572109E+02  0.20003343603E+02  0.51100000000E-03 0. -1.
        -11    1    3    3    0    0  0.93230809110E+01 -0.18771537895E+01 -0.65978504860E+01  0.11574764590E+02  0.51100000000E-03 0.  1.
        -12    1    3    3    0    0 -0.13533216556E+02  0.82360344938E+00  0.24182319392E+02  0.27723831701E+02  0.00000000000E+00 0.  1.
</event>
<event>
 7    1  0.6246445E-012  0.5930194E+02  0.7816164E-02  0.1266605E+00
        -11   -1    0    0    0    0  0.00000000000E+00  0.00000000000E+00  0.45593999997E+02  0.45594000000E+02  0.51100000000E-03 0. -1.
         11   -1    0    0    0    0 -0.00000000000E+00 -0.00000000000E+00 -0.45593999997E+02  0.45594000000E+02  0.51100000000E-03 0.  1.
    9900012    2    1    2    0    0  0.28284846601E+02  0.76028802351E+01 -0.12604951528E+02  0.59301935048E+02  0.49999983623E+02 0.  0.
         12    1    1    2    0    0 -0.28284846601E+02 -0.76028802351E+01  0.12604951528E+02  0.31886064952E+02  0.00000000000E+00 0. -1.
         11    1    3    3    0    0  0.22180502134E+02 -0.31934638244E+01  0.10584172945E+02  0.24783010376E+02  0.51100000000E-03 0. -1.
        -11    1    3    3    0    0  0.39289061187E+00 -0.46489227528E+01 -0.15791309593E+02  0.16466095613E+02  0.51100000000E-03 0.  1.
        -12    1    3    3    0    0  0.57114538550E+01  0.15445266812E+02 -0.73978148799E+01  0.18052829059E+02  0.00000000000E+00 0.  1.
</event>
<event>
 7    1  0.6246445E-012  0.5930193E+02  0.7816164E-02  0.1266605E+00
        -11   -1    0    0    0    0  0.00000000000E+00  0.00000000000E+00  0.45593999997E+02  0.45594000000E+02  0.51100000000E-03 0.  1.
         11   -1    0    0    0    0 -0.00000000000E+00 -0.00000000000E+00 -0.45593999997E+02  0.45594000000E+02  0.51100000000E-03 0. -1.
    9900012    2    1    2    0    0 -0.23274859186E+02 -0.10741240477E+01  0.21768063282E+02  0.59301931073E+02  0.49999976373E+02 0.  0.
         12    1    1    2    0    0  0.23274859186E+02  0.10741240477E+01 -0.21768063282E+02  0.31886068927E+02  0.00000000000E+00 0. -1.
         11    1    3    3    0    0  0.36823558634E+01 -0.94865171089E+01  0.61112141196E+01  0.11870159638E+02  0.51100000000E-03 0. -1.
        -11    1    3    3    0    0 -0.21397852702E+02 -0.10394123145E+02  0.14339926586E+02  0.27776597901E+02  0.51100000000E-03 0.  1.
         12    1    3    3    0    0 -0.55593623475E+01  0.18806516206E+02  0.13169225760E+01  0.19655173533E+02  0.00000000000E+00 0. -1.
</event>
<event>
 7    1  0.6246445E-012  0.5930194E+02  0.7816164E-02  0.1266605E+00
        -11   -1    0    0    0    0  0.00000000000E+00  0.00000000000E+00  0.45593999997E+02  0.45594000000E+02  0.51100000000E-03 0.  1.
         11   -1    0    0    0    0 -0.00000000000E+00 -0.00000000000E+00 -0.45593999997E+02  0.45594000000E+02  0.51100000000E-03 0. -1.
    9900012    2    1    2    0    0  0.12098049213E+01  0.41985218692E+01  0.31585270207E+02  0.59301944930E+02  0.50000001646E+02 0.  0.
         12    1    1    2    0    0 -0.12098049213E+01 -0.41985218692E+01 -0.31585270207E+02  0.31886055070E+02  0.00000000000E+00 0. -1.
         11    1    3    3    0    0 -0.97277959811E+01  0.11452176780E+02 -0.82219404185E+00  0.15048533847E+02  0.51100000000E-03 0. -1.
        -11    1    3    3    0    0  0.11228048108E+02  0.82797954124E+01  0.10811662306E+02  0.17649819219E+02  0.51100000000E-03 0.  1.
        -12    1    3    3    0    0 -0.29044720522E+00 -0.15533450323E+02  0.21595801944E+02  0.26603591865E+02  0.00000000000E+00 0.  1.
</event>
<event>
 7    1  0.6246445E-012  0.5930195E+02  0.7816164E-02  0.1266605E+00
        -11   -1    0    0    0    0  0.00000000000E+00  0.00000000000E+00  0.45593999997E+02  0.45594000000E+02  0.51100000000E-03 0.  1.
         11   -1    0    0    0    0 -0.00000000000E+00 -0.00000000000E+00 -0.45593999997E+02  0.45594000000E+02  0.51100000000E-03 0. -1.
    9900012    2    1    2    0    0 -0.67327851633E+00  0.17413540383E+02  0.26702729135E+02  0.59301946059E+02  0.50000003705E+02 0.  0.
         12    1    1    2    0    0  0.67327851633E+00 -0.17413540383E+02 -0.26702729135E+02  0.31886053941E+02  0.00000000000E+00 0. -1.
         11    1    3    3    0    0  0.29696186794E+01 -0.64433469330E+01  0.10564572807E+02  0.12725783027E+02  0.51100000000E-03 0. -1.
        -11    1    3    3    0    0  0.48575328348E-01  0.24892907160E+02  0.25999974615E+02  0.35995247835E+02  0.51100000000E-03 0.  1.
         12    1    3    3    0    0 -0.36914725241E+01 -0.10360198443E+01 -0.98618182861E+01  0.10580915198E+02  0.00000000000E+00 0. -1.
</event>
<event>
 7    1  0.6246445E-012  0.5930195E+02  0.7816164E-02  0.1266605E+00
        -11   -1    0    0    0    0  0.00000000000E+00  0.00000000000E+00  0.45593999997E+02  0.45594000000E+02  0.51100000000E-03 0. -1.
         11   -1    0    0    0    0 -0.00000000000E+00 -0.00000000000E+00 -0.45593999997E+02  0.45594000000E+02  0.51100000000E-03 0.  1.
    9900012    2    1    2    0    0 -0.25066977236E+02 -0.94698672779E+01 -0.17282613932E+02  0.59301945395E+02  0.50000002493E+02 0.  0.
         12    1    1    2    0    0  0.25066977236E+02  0.94698672779E+01  0.17282613932E+02  0.31886054605E+02  0.00000000000E+00 0. -1.
         11    1    3    3    0    0  0.43167170462E+01 -0.19432362627E+02 -0.18648249301E+02  0.27276509410E+02  0.51100000000E-03 0. -1.
        -11    1    3    3    0    0  0.97831463274E-01  0.98485482099E+00 -0.57788469325E+00  0.11460632589E+01  0.51100000000E-03 0.  1.
        -12    1    3    3    0    0 -0.29481525745E+02  0.89776405283E+01  0.19435200629E+01  0.30879372726E+02  0.00000000000E+00 0.  1.
</event>
<event>
 7    1  0.6246445E-012  0.5930197E+02  0.7816164E-02  0.1266605E+00
        -11   -1    0    0    0    0  0.00000000000E+00  0.00000000000E+00  0.45593999997E+02  0.45594000000E+02  0.51100000000E-03 0.  1.
         11   -1    0    0    0    0 -0.00000000000E+00 -0.00000000000E+00 -0.45593999997E+02  0.45594000000E+02  0.51100000000E-03 0. -1.
    9900012    2    1    2    0    0 -0.62926306499E+01  0.24964010680E+02  0.18812761391E+02  0.59301968248E+02  0.50000044172E+02 0.  0.
         12    1    1    2    0    0  0.62926306499E+01 -0.24964010680E+02 -0.18812761391E+02  0.31886031752E+02  0.00000000000E+00 0. -1.
         11    1    3    3    0    0  0.47611131853E+01  0.15091315979E+02  0.14449737250E+02  0.21429207255E+02  0.51100000000E-03 0. -1.
        -11    1    3    3    0    0 -0.11087413043E+02  0.16742461931E+02  0.15100963819E+02  0.25125283442E+02  0.51100000000E-03 0.  1.
         12    1    3    3    0    0  0.33669208176E-01 -0.68697672302E+01 -0.10737939677E+02  0.12747477551E+02  0.00000000000E+00 0. -1.
</event>
<event>
 7    1  0.6246445E-012  0.5930192E+02  0.7816164E-02  0.1266605E+00
        -11   -1    0    0    0    0  0.00000000000E+00  0.00000000000E+00  0.45593999997E+02  0.45594000000E+02  0.51100000000E-03 0. -1.
         11   -1    0    0    0    0 -0.00000000000E+00 -0.00000000000E+00 -0.45593999997E+02  0.45594000000E+02  0.51100000000E-03 0.  1.
    9900012    2    1    2    0    0 -0.26635112059E+02 -0.11284427449E+02 -0.13414720646E+02  0.59301917970E+02  0.49999952477E+02 0.  0.
         12    1    1    2    0    0  0.26635112059E+02  0.11284427449E+02  0.13414720646E+02  0.31886082030E+02  0.00000000000E+00 0. -1.
         11    1    3    3    0    0 -0.13299208132E+02  0.13743206848E+02 -0.11582299281E+02  0.22358316759E+02  0.51100000000E-03 0. -1.
        -11    1    3    3    0    0 -0.18762787896E+02 -0.13074186570E+02 -0.50670018693E+01  0.23423301908E+02  0.51100000000E-03 0.  1.
         12    1    3    3    0    0  0.54268839686E+01 -0.11953447728E+02  0.32345805044E+01  0.13520299302E+02  0.00000000000E+00 0. -1.
</event>
<event>
 7    1  0.6246445E-012  0.5930195E+02  0.7816164E-02  0.1266605E+00
        -11   -1    0    0    0    0  0.00000000000E+00  0.00000000000E+00  0.45593999997E+02  0.45594000000E+02  0.51100000000E-03 0.  1.
         11   -1    0    0    0    0 -0.00000000000E+00 -0.00000000000E+00 -0.45593999997E+02  0.45594000000E+02  0.51100000000E-03 0. -1.
    9900012    2    1    2    0    0 -0.30254703159E+02 -0.42359276580E+01  0.91339992535E+01  0.59301951504E+02  0.50000013634E+02 0.  0.
         12    1    1    2    0    0  0.30254703159E+02  0.42359276580E+01 -0.91339992535E+01  0.31886048496E+02  0.00000000000E+00 0. -1.
         11    1    3    3    0    0 -0.17061051283E+02  0.63437068293E+01 -0.56614409142E+01  0.19062371329E+02  0.51100000000E-03 0. -1.
        -11    1    3    3    0    0 -0.12980171748E+02  0.89367021625E+01  0.18431337664E-01  0.15759119395E+02  0.51100000000E-03 0.  1.
         12    1    3    3    0    0 -0.21348012856E+00 -0.19516336650E+02  0.14777008830E+02  0.24480460779E+02  0.00000000000E+00 0. -1.
</event>
<event>
 7    1  0.6246445E-012  0.5930197E+02  0.7816164E-02  0.1266605E+00
        -11   -1    0    0    0    0  0.00000000000E+00  0.00000000000E+00  0.45593999997E+02  0.45594000000E+02  0.51100000000E-03 0. -1.
         11   -1    0    0    0    0 -0.00000000000E+00 -0.00000000000E+00 -0.45593999997E+02  0.45594000000E+02  0.51100000000E-03 0.  1.
    9900012    2    1    2    0    0  0.87917040321E+01 -0.26120080587E+02 -0.16036413209E+02  0.59301965152E+02  0.50000038526E+02 0.  0.
         12    1    1    2    0    0 -0.87917040321E+01  0.26120080587E+02  0.16036413209E+02  0.31886034848E+02  0.00000000000E+00 0. -1.
         11    1    3    3    0    0  0.66024670112E+00 -0.69553234641E+00  0.76236855906E+01  0.76837668625E+01  0.51100000000E-03 0. -1.
        -11    1    3    3    0    0 -0.76333780697E+01 -0.26169373976E+01  0.67106482501E+01  0.10495219021E+02  0.51100000000E-03 0.  1.
        -12    1    3    3    0    0  0.15764835401E+02 -0.22807610843E+02 -0.30370747050E+02  0.41122979269E+02  0.00000000000E+00 0.  1.
</event>
<event>
 7    1  0.6246445E-012  0.5930185E+02  0.7816164E-02  0.1266605E+00
        -11   -1    0    0    0    0  0.00000000000E+00  0.00000000000E+00  0.45593999997E+02  0.45594000000E+02  0.51100000000E-03 0.  1.
         11   -1    0    0    0    0 -0.00000000000E+00 -0.00000000000E+00 -0.45593999997E+02  0.45594000000E+02  0.51100000000E-03 0. -1.
    9900012    2    1    2    0    0  0.22778310788E+02 -0.92524986618E+01  0.20304336785E+02  0.59301854637E+02  0.49999836973E+02 0.  0.
         12    1    1    2    0    0 -0.22778310788E+02  0.92524986618E+01 -0.20304336785E+02  0.31886145363E+02  0.00000000000E+00 0. -1.
         11    1    3    3    0    0  0.30257855512E+01  0.23331723293E+01 -0.45317420198E+01  0.59275422660E+01  0.51100000000E-03 0. -1.
        -11    1    3    3    0    0  0.15056535368E+02  0.10786351309E+02  0.24241139481E+02  0.30507006989E+02  0.51100000000E-03 0.  1.
         12    1    3    3    0    0  0.46959898687E+01 -0.22372022300E+02  0.59493932315E+00  0.22867305382E+02  0.00000000000E+00 0. -1.
</event>
<event>
 7    1  0.6246445E-012  0.5930195E+02  0.7816164E-02  0.1266605E+00
        -11   -1    0    0    0    0  0.00000000000E+00  0.00000000000E+00  0.45593999997E+02  0.45594000000E+02  0.51100000000E-03 0.  1.
         11   -1    0    0    0    0 -0.00000000000E+00 -0.00000000000E+00 -0.45593999997E+02  0.45594000000E+02  0.51100000000E-03 0. -1.
    9900012    2    1    2    0    0 -0.49581251857E+01  0.25609793617E+02  0.18337820658E+02  0.59301949744E+02  0.50000010424E+02 0.  0.
         12    1    1    2    0    0  0.49581251857E+01 -0.25609793617E+02 -0.18337820658E+02  0.31886050256E+02  0.00000000000E+00 0. -1.
         11    1    3    3    0    0 -0.20968726664E+02  0.16096944024E+02  0.46852557755E+01  0.26846801053E+02  0.51100000000E-03 0. -1.
        -11    1    3    3    0    0  0.46757223507E+01  0.13191783013E+02 -0.43569843192E+00  0.14002690882E+02  0.51100000000E-03 0.  1.
        -12    1    3    3    0    0  0.11334879128E+02 -0.36789334194E+01  0.14088263314E+02  0.18452457808E+02  0.00000000000E+00 0.  1.
</event>
<event>
 7    1  0.6246445E-012  0.5930195E+02  0.7816164E-02  0.1266605E+00
        -11   -1    0    0    0    0  0.00000000000E+00  0.00000000000E+00  0.45593999997E+02  0.45594000000E+02  0.51100000000E-03 0.  1.
         11   -1    0    0    0    0 -0.00000000000E+00 -0.00000000000E+00 -0.45593999997E+02  0.45594000000E+02  0.51100000000E-03 0. -1.
    9900012    2    1    2    0    0  0.91687205080E+01 -0.30428666516E+02 -0.25983168484E+01  0.59301946119E+02  0.50000003813E+02 0.  0.
         12    1    1    2    0    0 -0.91687205080E+01  0.30428666516E+02  0.25983168484E+01  0.31886053881E+02  0.00000000000E+00 0. -1.
         11    1    3    3    0    0  0.11956098798E+02 -0.31593090495E+01 -0.15850401968E+02  0.20103849755E+02  0.51100000000E-03 0. -1.
        -11    1    3    3    0    0  0.64493534688E+01 -0.22930183466E+02  0.18434099923E+01  0.23891120414E+02  0.51100000000E-03 0.  1.
        -12    1    3    3    0    0 -0.92367317593E+01 -0.43391740000E+01  0.11408675127E+02  0.15306975951E+02  0.00000000000E+00 0.  1.
</event>
<event>
 7    1  0.6246445E-012  0.5930179E+02  0.7816164E-02  0.1266605E+00
        -11   -1    0    0    0    0  0.00000000000E+00  0.00000000000E+00  0.45593999997E+02  0.45594000000E+02  0.51100000000E-03 0.  1.
         11   -1    0    0    0    0 -0.00000000000E+00 -0.00000000000E+00 -0.45593999997E+02  0.45594000000E+02  0.51100000000E-03 0. -1.
    9900012    2    1    2    0    0  0.23278029201E+01  0.18924645658E+02  0.25557177725E+02  0.59301792747E+02  0.49999724099E+02 0.  0.
         12    1    1    2    0    0 -0.23278029201E+01 -0.18924645658E+02 -0.25557177725E+02  0.31886207253E+02  0.00000000000E+00 0. -1.
         11    1    3    3    0    0  0.51895202516E+01  0.22110374922E-01 -0.10643699470E+02  0.11841450417E+02  0.51100000000E-03 0. -1.
        -11    1    3    3    0    0 -0.97012026102E+01  0.13105886978E+00  0.65477336087E+01  0.11704841912E+02  0.51100000000E-03 0.  1.
        -12    1    3    3    0    0  0.68394852786E+01  0.18771476413E+02  0.29653143586E+02  0.35755500418E+02  0.00000000000E+00 0.  1.
</event>
<event>
 7    1  0.6246445E-012  0.5930195E+02  0.7816164E-02  0.1266605E+00
        -11   -1    0    0    0    0  0.00000000000E+00  0.00000000000E+00  0.45593999997E+02  0.45594000000E+02  0.51100000000E-03 0.  1.
         11   -1    0    0    0    0 -0.00000000000E+00 -0.00000000000E+00 -0.45593999997E+02  0.45594000000E+02  0.51100000000E-03 0. -1.
    9900012    2    1    2    0    0 -0.15451191876E+02 -0.10807220884E+02  0.25713510932E+02  0.59301952925E+02  0.50000016226E+02 0.  0.
         12    1    1    2    0    0  0.15451191876E+02  0.10807220884E+02 -0.25713510932E+02  0.31886047075E+02  0.00000000000E+00 0. -1.
         11    1    3    3    0    0 -0.48011277904E+01  0.57740036920E+01 -0.41593761212E+01  0.85843087476E+01  0.51100000000E-03 0. -1.
        -11    1    3    3    0    0 -0.10081025848E+02 -0.95527713924E+01  0.37703483874E+02  0.40180035091E+02  0.51100000000E-03 0.  1.
         12    1    3    3    0    0 -0.56903823803E+00 -0.70284531836E+01 -0.78305968213E+01  0.10537609086E+02  0.00000000000E+00 0. -1.
</event>
<event>
 7    1  0.6246445E-012  0.5930194E+02  0.7816164E-02  0.1266605E+00
        -11   -1    0    0    0    0  0.00000000000E+00  0.00000000000E+00  0.45593999997E+02  0.45594000000E+02  0.51100000000E-03 0.  1.
         11   -1    0    0    0    0 -0.00000000000E+00 -0.00000000000E+00 -0.45593999997E+02  0.45594000000E+02  0.51100000000E-03 0. -1.
    9900012    2    1    2    0    0  0.85638948215E+01 -0.28094484656E+02 -0.12412913052E+02  0.59301940773E+02  0.49999994064E+02 0.  0.
         12    1    1    2    0    0 -0.85638948215E+01  0.28094484656E+02  0.12412913052E+02  0.31886059227E+02  0.00000000000E+00 0. -1.
         11    1    3    3    0    0  0.89223547965E+01 -0.12339152572E+01  0.15305743175E+01  0.91363898767E+01  0.51100000000E-03 0. -1.
        -11    1    3    3    0    0  0.86182481504E+01 -0.61799560563E+01  0.11853756747E+02  0.15905269797E+02  0.51100000000E-03 0.  1.
        -12    1    3    3    0    0 -0.89767081254E+01 -0.20680613342E+02 -0.25797244117E+02  0.34260281099E+02  0.00000000000E+00 0.  1.
</event>
<event>
 7    1  0.6246445E-012  0.5930196E+02  0.7816164E-02  0.1266605E+00
        -11   -1    0    0    0    0  0.00000000000E+00  0.00000000000E+00  0.45593999997E+02  0.45594000000E+02  0.51100000000E-03 0.  1.
         11   -1    0    0    0    0 -0.00000000000E+00 -0.00000000000E+00 -0.45593999997E+02  0.45594000000E+02  0.51100000000E-03 0. -1.
    9900012    2    1    2    0    0  0.28175849493E+02  0.14896487061E+02  0.96748375482E+00  0.59301955306E+02  0.50000020570E+02 0.  0.
         12    1    1    2    0    0 -0.28175849493E+02 -0.14896487061E+02 -0.96748375482E+00  0.31886044694E+02  0.00000000000E+00 0. -1.
         11    1    3    3    0    0  0.55993746255E+01 -0.44757551043E+01 -0.80227791607E+01  0.10758734390E+02  0.51100000000E-03 0. -1.
        -11    1    3    3    0    0  0.11766218799E+02  0.13516320249E+01 -0.13367705574E+02  0.17859629518E+02  0.51100000000E-03 0.  1.
        -12    1    3    3    0    0  0.10810256068E+02  0.18020610140E+02  0.22357968490E+02  0.30683591398E+02  0.00000000000E+00 0.  1.
</event>
<event>
 7    1  0.6246445E-012  0.5930194E+02  0.7816164E-02  0.1266605E+00
        -11   -1    0    0    0    0  0.00000000000E+00  0.00000000000E+00  0.45593999997E+02  0.45594000000E+02  0.51100000000E-03 0. -1.
         11   -1    0    0    0    0 -0.00000000000E+00 -0.00000000000E+00 -0.45593999997E+02  0.45594000000E+02  0.51100000000E-03 0.  1.
    9900012    2    1    2    0    0 -0.26449036560E+02  0.75995533827E+01 -0.16106394664E+02  0.59301941987E+02  0.49999996278E+02 0.  0.
         12    1    1    2    0    0  0.26449036560E+02 -0.75995533827E+01  0.16106394664E+02  0.31886058013E+02  0.00000000000E+00 0. -1.
         11    1    3    3    0    0  0.47158214621E+00  0.25454943858E+01  0.92733131145E+01  0.96278900996E+01  0.51100000000E-03 0. -1.
        -11    1    3    3    0    0  0.52718412731E+01 -0.60620142968E+01 -0.83823931200E+01  0.11610548756E+02  0.51100000000E-03 0.  1.
        -12    1    3    3    0    0 -0.32192459979E+02  0.11116073294E+02 -0.16997314658E+02  0.38063503131E+02  0.00000000000E+00 0.  1.
</event>
<event>
 7    1  0.6246445E-012  0.5930196E+02  0.7816164E-02  0.1266605E+00
        -11   -1    0    0    0    0  0.00000000000E+00  0.00000000000E+00  0.45593999997E+02  0.45594000000E+02  0.51100000000E-03 0.  1.
         11   -1    0    0    0    0 -0.00000000000E+00 -0.00000000000E+00 -0.45593999997E+02  0.45594000000E+02  0.51100000000E-03 0. -1.
    9900012    2    1    2    0    0  0.21992347840E+01 -0.31674375340E+02  0.29354779765E+01  0.59301957321E+02  0.50000024243E+02 0.  0.
         12    1    1    2    0    0 -0.21992347840E+01  0.31674375340E+02 -0.29354779765E+01  0.31886042679E+02  0.00000000000E+00 0. -1.
         11    1    3    3    0    0  0.81514018498E+00 -0.33264912683E+02  0.41885622922E+01  0.33537485351E+02  0.51100000000E-03 0.  1.
        -11    1    3    3    0    0  0.11963192870E+02 -0.53221705183E+01 -0.44166572936E+00  0.13101089708E+02  0.51100000000E-03 0. -1.
         12    1    3    3    0    0 -0.10579098271E+02  0.69127078610E+01 -0.81141858632E+00  0.12663382262E+02  0.00000000000E+00 0. -1.
</event>
<event>
 7    1  0.6246445E-012  0.5930194E+02  0.7816164E-02  0.1266605E+00
        -11   -1    0    0    0    0  0.00000000000E+00  0.00000000000E+00  0.45593999997E+02  0.45594000000E+02  0.51100000000E-03 0.  1.
         11   -1    0    0    0    0 -0.00000000000E+00 -0.00000000000E+00 -0.45593999997E+02  0.45594000000E+02  0.51100000000E-03 0. -1.
    9900012    2    1    2    0    0  0.27957096816E+02 -0.15309333798E+02  0.86358670316E+00  0.59301941201E+02  0.49999994846E+02 0.  0.
         12    1    1    2    0    0 -0.27957096816E+02  0.15309333798E+02 -0.86358670316E+00  0.31886058799E+02  0.00000000000E+00 0. -1.
         11    1    3    3    0    0  0.28166786379E+02 -0.93477252988E+01  0.16984734427E+02  0.34193991095E+02  0.51100000000E-03 0.  1.
        -11    1    3    3    0    0  0.73307894193E+01  0.50609771307E+00 -0.12565752927E+02  0.14556605212E+02  0.51100000000E-03 0. -1.
        -12    1    3    3    0    0 -0.75404789821E+01 -0.64677062120E+01 -0.35553947970E+01  0.10551344895E+02  0.00000000000E+00 0.  1.
</event>
<event>
 7    1  0.6783302E-012  0.5930194E+02  0.7816164E-02  0.1266605E+00
        -11   -1    0    0    0    0  0.00000000000E+00  0.00000000000E+00  0.45593999997E+02  0.45594000000E+02  0.51100000000E-03 0. -1.
         11   -1    0    0    0    0 -0.00000000000E+00 -0.00000000000E+00 -0.45593999997E+02  0.45594000000E+02  0.51100000000E-03 0.  1.
    9900012    2    1    2    0    0  0.25769715466E+01  0.97672137678E+00 -0.31766741027E+02  0.59301943447E+02  0.49999998941E+02 0.  0.
         12    1    1    2    0    0 -0.25769715466E+01 -0.97672137678E+00  0.31766741027E+02  0.31886056553E+02  0.00000000000E+00 0. -1.
         11    1    3    3    0    0 -0.94592187637E+01 -0.14138958494E-01 -0.20991766060E+02  0.23024579521E+02  0.51100000000E-03 0. -1.
        -11    1    3    3    0    0  0.98510039237E+01  0.38820815139E+01 -0.22035820897E+02  0.24447704146E+02  0.51100000000E-03 0.  1.
         12    1    3    3    0    0  0.21851863866E+01 -0.28912211786E+01  0.11260845930E+02  0.11829659779E+02  0.00000000000E+00 0. -1.
</event>
<event>
 7    1  0.6246445E-012  0.5930193E+02  0.7816164E-02  0.1266605E+00
        -11   -1    0    0    0    0  0.00000000000E+00  0.00000000000E+00  0.45593999997E+02  0.45594000000E+02  0.51100000000E-03 0.  1.
         11   -1    0    0    0    0 -0.00000000000E+00 -0.00000000000E+00 -0.45593999997E+02  0.45594000000E+02  0.51100000000E-03 0. -1.
    9900012    2    1    2    0    0  0.14092816015E+02  0.28458195210E+02  0.28714426870E+01  0.59301929045E+02  0.49999972675E+02 0.  0.
         12    1    1    2    0    0 -0.14092816015E+02 -0.28458195210E+02 -0.28714426870E+01  0.31886070955E+02  0.00000000000E+00 0. -1.
         11    1    3    3    0    0  0.86222027953E+01 -0.74784711328E+01  0.10810192337E+02  0.15720374364E+02  0.51100000000E-03 0. -1.
        -11    1    3    3    0    0 -0.37452597257E+01  0.68818909358E+00  0.37248134948E+01  0.53268011483E+01  0.51100000000E-03 0.  1.
        -12    1    3    3    0    0  0.92158729455E+01  0.35248477249E+02 -0.11663563145E+02  0.38254753532E+02  0.00000000000E+00 0.  1.
</event>
<event>
 7    1  0.6246445E-012  0.5930196E+02  0.7816164E-02  0.1266605E+00
        -11   -1    0    0    0    0  0.00000000000E+00  0.00000000000E+00  0.45593999997E+02  0.45594000000E+02  0.51100000000E-03 0.  1.
         11   -1    0    0    0    0 -0.00000000000E+00 -0.00000000000E+00 -0.45593999997E+02  0.45594000000E+02  0.51100000000E-03 0. -1.
    9900012    2    1    2    0    0 -0.22610105521E+02  0.10517617233E+01  0.22458775859E+02  0.59301957795E+02  0.50000025109E+02 0.  0.
         12    1    1    2    0    0  0.22610105521E+02 -0.10517617233E+01 -0.22458775859E+02  0.31886042205E+02  0.00000000000E+00 0. -1.
         11    1    3    3    0    0  0.11914645601E+02 -0.93513199044E+01  0.95300462682E+00  0.15176105621E+02  0.51100000000E-03 0. -1.
        -11    1    3    3    0    0 -0.12302777980E+02  0.60886564253E+01  0.13098899303E+01  0.13789339903E+02  0.51100000000E-03 0.  1.
        -12    1    3    3    0    0 -0.22221973142E+02  0.43144252025E+01  0.20195881302E+02  0.30336512270E+02  0.00000000000E+00 0.  1.
</event>
<event>
 7    1  0.6246445E-012  0.5930198E+02  0.7816164E-02  0.1266605E+00
        -11   -1    0    0    0    0  0.00000000000E+00  0.00000000000E+00  0.45593999997E+02  0.45594000000E+02  0.51100000000E-03 0. -1.
         11   -1    0    0    0    0 -0.00000000000E+00 -0.00000000000E+00 -0.45593999997E+02  0.45594000000E+02  0.51100000000E-03 0.  1.
    9900012    2    1    2    0    0  0.13223703019E+02 -0.29014435067E+02  0.12100327243E+00  0.59301977897E+02  0.50000061770E+02 0.  0.
         12    1    1    2    0    0 -0.13223703019E+02  0.29014435067E+02 -0.12100327243E+00  0.31886022103E+02  0.00000000000E+00 0. -1.
         11    1    3    3    0    0 -0.11168708342E+02 -0.77797545644E+01 -0.15228242494E+02  0.20424592942E+02  0.51100000000E-03 0. -1.
        -11    1    3    3    0    0  0.11776399904E+02 -0.19551711075E+02  0.80334430612E+01  0.24196884269E+02  0.51100000000E-03 0.  1.
        -12    1    3    3    0    0  0.12616011457E+02 -0.16829694271E+01  0.73158027052E+01  0.14680500686E+02  0.00000000000E+00 0.  1.
</event>
<event>
 7    1  0.6246445E-012  0.5930194E+02  0.7816164E-02  0.1266605E+00
        -11   -1    0    0    0    0  0.00000000000E+00  0.00000000000E+00  0.45593999997E+02  0.45594000000E+02  0.51100000000E-03 0. -1.
         11   -1    0    0    0    0 -0.00000000000E+00 -0.00000000000E+00 -0.45593999997E+02  0.45594000000E+02  0.51100000000E-03 0.  1.
    9900012    2    1    2    0    0  0.12954303801E+02  0.16171354442E+02  0.24236218988E+02  0.59301937178E+02  0.49999987507E+02 0.  0.
         12    1    1    2    0    0 -0.12954303801E+02 -0.16171354442E+02 -0.24236218988E+02  0.31886062822E+02  0.00000000000E+00 0. -1.
         11    1    3    3    0    0 -0.33671498751E+01  0.93747197718E+01  0.41478068252E+01  0.10790151565E+02  0.51100000000E-03 0. -1.
        -11    1    3    3    0    0 -0.11459467513E+02 -0.66852731501E+01  0.55500542198E+01  0.14381076972E+02  0.51100000000E-03 0.  1.
         12    1    3    3    0    0  0.27780921189E+02  0.13481907821E+02  0.14538357943E+02  0.34130708640E+02  0.00000000000E+00 0. -1.
</event>
<event>
 7    1  0.6246445E-012  0.5930195E+02  0.7816164E-02  0.1266605E+00
        -11   -1    0    0    0    0  0.00000000000E+00  0.00000000000E+00  0.45593999997E+02  0.45594000000E+02  0.51100000000E-03 0.  1.
         11   -1    0    0    0    0 -0.00000000000E+00 -0.00000000000E+00 -0.45593999997E+02  0.45594000000E+02  0.51100000000E-03 0. -1.
    9900012    2    1    2    0    0 -0.15249454681E+02 -0.19513347874E+02 -0.20084915426E+02  0.59301945980E+02  0.50000003560E+02 0.  0.
         12    1    1    2    0    0  0.15249454681E+02  0.19513347874E+02  0.20084915426E+02  0.31886054020E+02  0.00000000000E+00 0. -1.
         11    1    3    3    0    0  0.73261430838E+01  0.53984851585E+01 -0.13513200714E+02  0.16291795735E+02  0.51100000000E-03 0. -1.
        -11    1    3    3    0    0 -0.58893123014E+01 -0.10153657954E+02 -0.15127402513E+02  0.19147299452E+02  0.51100000000E-03 0.  1.
         12    1    3    3    0    0 -0.16686285464E+02 -0.14758175078E+02  0.85556878007E+01  0.23862850793E+02  0.00000000000E+00 0. -1.
</event>
<event>
 7    1  0.6246445E-012  0.5930195E+02  0.7816164E-02  0.1266605E+00
        -11   -1    0    0    0    0  0.00000000000E+00  0.00000000000E+00  0.45593999997E+02  0.45594000000E+02  0.51100000000E-03 0.  1.
         11   -1    0    0    0    0 -0.00000000000E+00 -0.00000000000E+00 -0.45593999997E+02  0.45594000000E+02  0.51100000000E-03 0. -1.
    9900012    2    1    2    0    0  0.24851677834E+02  0.16348501869E+02  0.11482187055E+02  0.59301952517E+02  0.50000015482E+02 0.  0.
         12    1    1    2    0    0 -0.24851677834E+02 -0.16348501869E+02 -0.11482187055E+02  0.31886047483E+02  0.00000000000E+00 0. -1.
         11    1    3    3    0    0  0.87069234624E+00  0.64179532496E+01 -0.11464894736E+02  0.13167841153E+02  0.51100000000E-03 0. -1.
        -11    1    3    3    0    0 -0.45822908102E+01 -0.56824468147E+01  0.26145545423E+01  0.77539336202E+01  0.51100000000E-03 0.  1.
         12    1    3    3    0    0  0.28563276298E+02  0.15612995434E+02  0.20332527248E+02  0.38380177743E+02  0.00000000000E+00 0. -1.
</event>
<event>
 7    1  0.6246445E-012  0.5930195E+02  0.7816164E-02  0.1266605E+00
        -11   -1    0    0    0    0  0.00000000000E+00  0.00000000000E+00  0.45593999997E+02  0.45594000000E+02  0.51100000000E-03 0.  1.
         11   -1    0    0    0    0 -0.00000000000E+00 -0.00000000000E+00 -0.45593999997E+02  0.45594000000E+02  0.51100000000E-03 0. -1.
    9900012    2    1    2    0    0 -0.30449379778E+02  0.14992218464E+01  0.93438724825E+01  0.59301947438E+02  0.50000006220E+02 0.  0.
         12    1    1    2    0    0  0.30449379778E+02 -0.14992218464E+01 -0.93438724825E+01  0.31886052562E+02  0.00000000000E+00 0. -1.
         11    1    3    3    0    0 -0.12027424924E+02 -0.17812050078E+02  0.15961250620E+02  0.26771058998E+02  0.51100000000E-03 0. -1.
        -11    1    3    3    0    0 -0.62690457765E+01 -0.11546302467E+01  0.27622330771E+01  0.69472323834E+01  0.51100000000E-03 0.  1.
        -12    1    3    3    0    0 -0.12152909077E+02  0.20465902171E+02 -0.93796112146E+01  0.25583656057E+02  0.00000000000E+00 0.  1.
</event>
<event>
 7    1  0.6246445E-012  0.5930195E+02  0.7816164E-02  0.1266605E+00
        -11   -1    0    0    0    0  0.00000000000E+00  0.00000000000E+00  0.45593999997E+02  0.45594000000E+02  0.51100000000E-03 0. -1.
         11   -1    0    0    0    0 -0.00000000000E+00 -0.00000000000E+00 -0.45593999997E+02  0.45594000000E+02  0.51100000000E-03 0.  1.
    9900012    2    1    2    0    0 -0.88564471765E+01  0.16962367029E+02 -0.25506111943E+02  0.59301948218E+02  0.50000007641E+02 0.  0.
         12    1    1    2    0    0  0.88564471765E+01 -0.16962367029E+02  0.25506111943E+02  0.31886051782E+02  0.00000000000E+00 0. -1.
         11    1    3    3    0    0 -0.14063615146E+01  0.97400591518E+01  0.26591064076E+01  0.10193990982E+02  0.51100000000E-03 0. -1.
        -11    1    3    3    0    0 -0.14595307940E+02  0.76818763441E+01 -0.35322884433E+02  0.38983847975E+02  0.51100000000E-03 0.  1.
         12    1    3    3    0    0  0.71452222783E+01 -0.45956846715E+00  0.71576660818E+01  0.10124109261E+02  0.00000000000E+00 0. -1.
</event>
<event>
 7    1  0.6246445E-012  0.5930187E+02  0.7816164E-02  0.1266605E+00
        -11   -1    0    0    0    0  0.00000000000E+00  0.00000000000E+00  0.45593999997E+02  0.45594000000E+02  0.51100000000E-03 0.  1.
         11   -1    0    0    0    0 -0.00000000000E+00 -0.00000000000E+00 -0.45593999997E+02  0.45594000000E+02  0.51100000000E-03 0. -1.
    9900012    2    1    2    0    0  0.20185679326E+02 -0.23236772702E+02  0.83256302734E+01  0.59301868612E+02  0.49999862460E+02 0.  0.
         12    1    1    2    0    0 -0.20185679326E+02  0.23236772702E+02 -0.83256302734E+01  0.31886131388E+02  0.00000000000E+00 0. -1.
         11    1    3    3    0    0  0.61275614444E+01  0.62082296912E+01 -0.13953413665E+02  0.16455603250E+02  0.51100000000E-03 0. -1.
        -11    1    3    3    0    0  0.32576854572E+01 -0.60223592377E+01  0.14288089512E+02  0.15843952395E+02  0.51100000000E-03 0.  1.
        -12    1    3    3    0    0  0.10800432424E+02 -0.23422643155E+02  0.79909544269E+01  0.27002312967E+02  0.00000000000E+00 0.  1.
</event>
<event>
 7    1  0.6246445E-012  0.5930196E+02  0.7816164E-02  0.1266605E+00
        -11   -1    0    0    0    0  0.00000000000E+00  0.00000000000E+00  0.45593999997E+02  0.45594000000E+02  0.51100000000E-03 0.  1.
         11   -1    0    0    0    0 -0.00000000000E+00 -0.00000000000E+00 -0.45593999997E+02  0.45594000000E+02  0.51100000000E-03 0. -1.
    9900012    2    1    2    0    0 -0.98565897985E+01  0.18453311811E+02  0.24063305773E+02  0.59301956596E+02  0.50000022921E+02 0.  0.
         12    1    1    2    0    0  0.98565897985E+01 -0.18453311811E+02 -0.24063305773E+02  0.31886043404E+02  0.00000000000E+00 0. -1.
         11    1    3    3    0    0  0.11094331354E+02 -0.48041274926E+00 -0.40866269304E+01  0.11832814734E+02  0.51100000000E-03 0. -1.
        -11    1    3    3    0    0  0.39081808847E+00  0.78946024034E+01  0.20941275390E+02  0.22383353214E+02  0.51100000000E-03 0.  1.
        -12    1    3    3    0    0 -0.21341739241E+02  0.11039122157E+02  0.72086573136E+01  0.25085788648E+02  0.00000000000E+00 0.  1.
</event>
<event>
 7    1  0.6246445E-012  0.5930198E+02  0.7816164E-02  0.1266605E+00
        -11   -1    0    0    0    0  0.00000000000E+00  0.00000000000E+00  0.45593999997E+02  0.45594000000E+02  0.51100000000E-03 0. -1.
         11   -1    0    0    0    0 -0.00000000000E+00 -0.00000000000E+00 -0.45593999997E+02  0.45594000000E+02  0.51100000000E-03 0.  1.
    9900012    2    1    2    0    0 -0.19720481152E+02  0.23732400890E+02 -0.80370356423E+01  0.59301981578E+02  0.50000068483E+02 0.  0.
         12    1    1    2    0    0  0.19720481152E+02 -0.23732400890E+02  0.80370356423E+01  0.31886018422E+02  0.00000000000E+00 0. -1.
         11    1    3    3    0    0 -0.22449921083E+02  0.73104192757E+00 -0.40928351439E+01  0.22831659569E+02  0.51100000000E-03 0. -1.
        -11    1    3    3    0    0  0.14426122646E+01 -0.53855200314E+01  0.41196413915E+01  0.69322724708E+01  0.51100000000E-03 0.  1.
        -12    1    3    3    0    0  0.12868276663E+01  0.28386878994E+02 -0.80638418898E+01  0.29538049538E+02  0.00000000000E+00 0.  1.
</event>
<event>
 7    1  0.6246445E-012  0.5930194E+02  0.7816164E-02  0.1266605E+00
        -11   -1    0    0    0    0  0.00000000000E+00  0.00000000000E+00  0.45593999997E+02  0.45594000000E+02  0.51100000000E-03 0. -1.
         11   -1    0    0    0    0 -0.00000000000E+00 -0.00000000000E+00 -0.45593999997E+02  0.45594000000E+02  0.51100000000E-03 0.  1.
    9900012    2    1    2    0    0  0.23242991267E+02  0.82375443716E+01 -0.20214524241E+02  0.59301940811E+02  0.49999994134E+02 0.  0.
         12    1    1    2    0    0 -0.23242991267E+02 -0.82375443716E+01  0.20214524241E+02  0.31886059189E+02  0.00000000000E+00 0. -1.
         11    1    3    3    0    0 -0.18469408613E+01  0.82836694347E+01 -0.28138719656E+01  0.89413782801E+01  0.51100000000E-03 0. -1.
        -11    1    3    3    0    0 -0.60605641772E+01  0.75602276276E+01  0.53268605091E+01  0.11057256580E+02  0.51100000000E-03 0.  1.
        -12    1    3    3    0    0  0.31150496305E+02 -0.76063526907E+01 -0.22727512784E+02  0.39303305951E+02  0.00000000000E+00 0.  1.
</event>
<event>
 7    1  0.6246445E-012  0.5930189E+02  0.7816164E-02  0.1266605E+00
        -11   -1    0    0    0    0  0.00000000000E+00  0.00000000000E+00  0.45593999997E+02  0.45594000000E+02  0.51100000000E-03 0.  1.
         11   -1    0    0    0    0 -0.00000000000E+00 -0.00000000000E+00 -0.45593999997E+02  0.45594000000E+02  0.51100000000E-03 0. -1.
    9900012    2    1    2    0    0  0.24712584902E+02  0.13240288600E+02 -0.15189033694E+02  0.59301892691E+02  0.49999906374E+02 0.  0.
         12    1    1    2    0    0 -0.24712584902E+02 -0.13240288600E+02  0.15189033694E+02  0.31886107309E+02  0.00000000000E+00 0. -1.
         11    1    3    3    0    0  0.52409368673E+01  0.33489678383E+01 -0.10010960926E+02  0.11785683848E+02  0.51100000000E-03 0. -1.
        -11    1    3    3    0    0 -0.53021046090E+01 -0.13391433708E+01 -0.16999918502E+02  0.17857851147E+02  0.51100000000E-03 0.  1.
        -12    1    3    3    0    0  0.24773752644E+02  0.11230464133E+02  0.11821845734E+02  0.29658357696E+02  0.00000000000E+00 0.  1.
</event>
<event>
 7    1  0.6246445E-012  0.5930191E+02  0.7816164E-02  0.1266605E+00
        -11   -1    0    0    0    0  0.00000000000E+00  0.00000000000E+00  0.45593999997E+02  0.45594000000E+02  0.51100000000E-03 0.  1.
         11   -1    0    0    0    0 -0.00000000000E+00 -0.00000000000E+00 -0.45593999997E+02  0.45594000000E+02  0.51100000000E-03 0. -1.
    9900012    2    1    2    0    0  0.69875793648E+01  0.59551483355E+00  0.31105336505E+02  0.59301908010E+02  0.49999934313E+02 0.  0.
         12    1    1    2    0    0 -0.69875793648E+01 -0.59551483355E+00 -0.31105336505E+02  0.31886091990E+02  0.00000000000E+00 0. -1.
         11    1    3    3    0    0 -0.14048347841E+02  0.51558118383E+01 -0.16561256558E+01  0.15055936544E+02  0.51100000000E-03 0. -1.
        -11    1    3    3    0    0  0.48092480990E+01 -0.64582610092E+01  0.48076242880E+00  0.80665441990E+01  0.51100000000E-03 0.  1.
        -12    1    3    3    0    0  0.16226679107E+02  0.18979640044E+01  0.32280699732E+02  0.36179427267E+02  0.00000000000E+00 0.  1.
</event>
<event>
 7    1  0.6246445E-012  0.5930194E+02  0.7816164E-02  0.1266605E+00
        -11   -1    0    0    0    0  0.00000000000E+00  0.00000000000E+00  0.45593999997E+02  0.45594000000E+02  0.51100000000E-03 0.  1.
         11   -1    0    0    0    0 -0.00000000000E+00 -0.00000000000E+00 -0.45593999997E+02  0.45594000000E+02  0.51100000000E-03 0. -1.
    9900012    2    1    2    0    0 -0.19999990813E+02  0.26805736409E+01  0.24688778492E+02  0.59301938924E+02  0.49999990691E+02 0.  0.
         12    1    1    2    0    0  0.19999990813E+02 -0.26805736409E+01 -0.24688778492E+02  0.31886061076E+02  0.00000000000E+00 0. -1.
         11    1    3    3    0    0 -0.48295567441E+01  0.45368484604E+01  0.51746036566E+01  0.84073857745E+01  0.51100000000E-03 0.  1.
        -11    1    3    3    0    0 -0.26394293123E+02  0.42878310742E+00  0.26559913232E+02  0.37446916503E+02  0.51100000000E-03 0. -1.
         12    1    3    3    0    0  0.11223859055E+02 -0.22850579270E+01 -0.70457383969E+01  0.13447636646E+02  0.00000000000E+00 0. -1.
</event>
<event>
 7    1  0.6246445E-012  0.5930192E+02  0.7816164E-02  0.1266605E+00
        -11   -1    0    0    0    0  0.00000000000E+00  0.00000000000E+00  0.45593999997E+02  0.45594000000E+02  0.51100000000E-03 0.  1.
         11   -1    0    0    0    0 -0.00000000000E+00 -0.00000000000E+00 -0.45593999997E+02  0.45594000000E+02  0.51100000000E-03 0. -1.
    9900012    2    1    2    0    0 -0.22809947726E+01 -0.31654038357E+02  0.30888342562E+01  0.59301921870E+02  0.49999959590E+02 0.  0.
         12    1    1    2    0    0  0.22809947726E+01  0.31654038357E+02 -0.30888342562E+01  0.31886078130E+02  0.00000000000E+00 0. -1.
         11    1    3    3    0    0  0.82285713149E+01  0.28536490749E+01  0.37890332584E+01  0.94978667195E+01  0.51100000000E-03 0. -1.
        -11    1    3    3    0    0  0.79730330202E+01  0.12204683852E+01 -0.47736111150E+01  0.93726283379E+01  0.51100000000E-03 0.  1.
        -12    1    3    3    0    0 -0.18482599108E+02 -0.35728155817E+02  0.40734121129E+01  0.40431426813E+02  0.00000000000E+00 0.  1.
</event>
<event>
 7    1  0.6246445E-012  0.5930195E+02  0.7816164E-02  0.1266605E+00
        -11   -1    0    0    0    0  0.00000000000E+00  0.00000000000E+00  0.45593999997E+02  0.45594000000E+02  0.51100000000E-03 0.  1.
         11   -1    0    0    0    0 -0.00000000000E+00 -0.00000000000E+00 -0.45593999997E+02  0.45594000000E+02  0.51100000000E-03 0. -1.
    9900012    2    1    2    0    0 -0.17551376529E+02  0.11327257401E+02  0.24090716486E+02  0.59301949773E+02  0.50000010478E+02 0.  0.
         12    1    1    2    0    0  0.17551376529E+02 -0.11327257401E+02 -0.24090716486E+02  0.31886050227E+02  0.00000000000E+00 0. -1.
         11    1    3    3    0    0  0.31907042541E+01  0.61058856828E+01 -0.10926583202E+02  0.12917145750E+02  0.51100000000E-03 0. -1.
        -11    1    3    3    0    0  0.82830944375E+00 -0.56758761503E+01  0.36944831944E+01  0.68228200139E+01  0.51100000000E-03 0.  1.
        -12    1    3    3    0    0 -0.21570390226E+02  0.10897247869E+02  0.31322816493E+02  0.39561984009E+02  0.00000000000E+00 0.  1.
</event>
<event>
 7    1  0.6246445E-012  0.5930194E+02  0.7816164E-02  0.1266605E+00
        -11   -1    0    0    0    0  0.00000000000E+00  0.00000000000E+00  0.45593999997E+02  0.45594000000E+02  0.51100000000E-03 0. -1.
         11   -1    0    0    0    0 -0.00000000000E+00 -0.00000000000E+00 -0.45593999997E+02  0.45594000000E+02  0.51100000000E-03 0.  1.
    9900012    2    1    2    0    0 -0.51453416739E+01  0.10757504713E+02 -0.29572322887E+02  0.59301941455E+02  0.49999995308E+02 0.  0.
         12    1    1    2    0    0  0.51453416739E+01 -0.10757504713E+02  0.29572322887E+02  0.31886058545E+02  0.00000000000E+00 0. -1.
         11    1    3    3    0    0 -0.28892735323E+01  0.14700157083E+02 -0.17862068033E+02  0.23313000546E+02  0.51100000000E-03 0. -1.
        -11    1    3    3    0    0  0.95139214457E+01  0.11176108606E+02 -0.69861504345E+01  0.16255042387E+02  0.51100000000E-03 0.  1.
         12    1    3    3    0    0 -0.11769989587E+02 -0.15118760975E+02 -0.47241044196E+01  0.19733898522E+02  0.00000000000E+00 0. -1.
</event>
<event>
 7    1  0.6246445E-012  0.5930191E+02  0.7816164E-02  0.1266605E+00
        -11   -1    0    0    0    0  0.00000000000E+00  0.00000000000E+00  0.45593999997E+02  0.45594000000E+02  0.51100000000E-03 0. -1.
         11   -1    0    0    0    0 -0.00000000000E+00 -0.00000000000E+00 -0.45593999997E+02  0.45594000000E+02  0.51100000000E-03 0.  1.
    9900012    2    1    2    0    0 -0.29752443297E+02  0.11461729522E+02 -0.37899313995E+00  0.59301909591E+02  0.49999937196E+02 0.  0.
         12    1    1    2    0    0  0.29752443297E+02 -0.11461729522E+02  0.37899313995E+00  0.31886090409E+02  0.00000000000E+00 0. -1.
         11    1    3    3    0    0 -0.18750718698E+02 -0.26418530502E+01  0.45712214139E+01  0.19479858950E+02  0.51100000000E-03 0. -1.
        -11    1    3    3    0    0 -0.16467336482E+02 -0.68565613476E+01 -0.17010809461E+01  0.17918685247E+02  0.51100000000E-03 0.  1.
         12    1    3    3    0    0  0.54656118835E+01  0.20960143920E+02 -0.32491336077E+01  0.21903365395E+02  0.00000000000E+00 0. -1.
</event>
<event>
 7    1  0.6246445E-012  0.5930190E+02  0.7816164E-02  0.1266605E+00
        -11   -1    0    0    0    0  0.00000000000E+00  0.00000000000E+00  0.45593999997E+02  0.45594000000E+02  0.51100000000E-03 0.  1.
         11   -1    0    0    0    0 -0.00000000000E+00 -0.00000000000E+00 -0.45593999997E+02  0.45594000000E+02  0.51100000000E-03 0. -1.
    9900012    2    1    2    0    0  0.67013109334E+01  0.30293951451E+02  0.73547637148E+01  0.59301896255E+02  0.49999912874E+02 0.  0.
         12    1    1    2    0    0 -0.67013109334E+01 -0.30293951451E+02 -0.73547637148E+01  0.31886103745E+02  0.00000000000E+00 0. -1.
         11    1    3    3    0    0 -0.96183156301E+01 -0.88454317581E+01 -0.43824474918E+01  0.13782579759E+02  0.51100000000E-03 0. -1.
        -11    1    3    3    0    0  0.39261677879E+01  0.34892196419E+01  0.48577108983E+01  0.71544952751E+01  0.51100000000E-03 0.  1.
        -12    1    3    3    0    0  0.12393458776E+02  0.35650163567E+02  0.68795003083E+01  0.38364821220E+02  0.00000000000E+00 0.  1.
</event>
<event>
 7    1  0.6246445E-012  0.5930181E+02  0.7816164E-02  0.1266605E+00
        -11   -1    0    0    0    0  0.00000000000E+00  0.00000000000E+00  0.45593999997E+02  0.45594000000E+02  0.51100000000E-03 0.  1.
         11   -1    0    0    0    0 -0.00000000000E+00 -0.00000000000E+00 -0.45593999997E+02  0.45594000000E+02  0.51100000000E-03 0. -1.
    9900012    2    1    2    0    0 -0.28826478934E+02 -0.13074091041E+02  0.38511826718E+01  0.59301806244E+02  0.49999748715E+02 0.  0.
         12    1    1    2    0    0  0.28826478934E+02  0.13074091041E+02 -0.38511826718E+01  0.31886193756E+02  0.00000000000E+00 0. -1.
         11    1    3    3    0    0 -0.48591391738E+01 -0.55333742152E+01 -0.54995648778E+01  0.91910107073E+01  0.51100000000E-03 0. -1.
        -11    1    3    3    0    0 -0.11401089726E+02 -0.14617934638E+02 -0.13608954064E+02  0.22997227898E+02  0.51100000000E-03 0.  1.
         12    1    3    3    0    0 -0.12566250034E+02  0.70772178123E+01  0.22959701614E+02  0.27113567638E+02  0.00000000000E+00 0. -1.
</event>
<event>
 7    1  0.6246445E-012  0.5930188E+02  0.7816164E-02  0.1266605E+00
        -11   -1    0    0    0    0  0.00000000000E+00  0.00000000000E+00  0.45593999997E+02  0.45594000000E+02  0.51100000000E-03 0.  1.
         11   -1    0    0    0    0 -0.00000000000E+00 -0.00000000000E+00 -0.45593999997E+02  0.45594000000E+02  0.51100000000E-03 0. -1.
    9900012    2    1    2    0    0 -0.11554021087E+01 -0.30542638826E+02  0.90849672468E+01  0.59301884364E+02  0.49999891188E+02 0.  0.
         12    1    1    2    0    0  0.11554021087E+01  0.30542638826E+02 -0.90849672468E+01  0.31886115636E+02  0.00000000000E+00 0. -1.
         11    1    3    3    0    0 -0.28705396724E+00 -0.15025437603E+02 -0.28812267086E+01  0.15301883634E+02  0.51100000000E-03 0. -1.
        -11    1    3    3    0    0  0.35275125732E+00 -0.23559529806E+02 -0.59688583652E+01  0.24306442532E+02  0.51100000000E-03 0.  1.
         12    1    3    3    0    0 -0.12210993988E+01  0.80423285827E+01  0.17935052321E+02  0.19693558198E+02  0.00000000000E+00 0. -1.
</event>
<event>
 7    1  0.6246445E-012  0.5930195E+02  0.7816164E-02  0.1266605E+00
        -11   -1    0    0    0    0  0.00000000000E+00  0.00000000000E+00  0.45593999997E+02  0.45594000000E+02  0.51100000000E-03 0. -1.
         11   -1    0    0    0    0 -0.00000000000E+00 -0.00000000000E+00 -0.45593999997E+02  0.45594000000E+02  0.51100000000E-03 0.  1.
    9900012    2    1    2    0    0  0.22684187689E+02  0.12911510199E+02  0.18315039216E+02  0.59301950884E+02  0.50000012505E+02 0.  0.
         12    1    1    2    0    0 -0.22684187689E+02 -0.12911510199E+02 -0.18315039216E+02  0.31886049116E+02  0.00000000000E+00 0. -1.
         11    1    3    3    0    0 -0.19539655528E+01 -0.64795532665E+00 -0.12142152096E+01  0.23900096910E+01  0.51100000000E-03 0. -1.
        -11    1    3    3    0    0 -0.97328616195E+01 -0.60673175137E+01  0.12042312403E+02  0.16630039849E+02  0.51100000000E-03 0.  1.
         12    1    3    3    0    0  0.34371014861E+02  0.19626783040E+02  0.74869420226E+01  0.40281901344E+02  0.00000000000E+00 0. -1.
</event>
<event>
 7    1  0.6246445E-012  0.5930203E+02  0.7816164E-02  0.1266604E+00
        -11   -1    0    0    0    0  0.00000000000E+00  0.00000000000E+00  0.45593999997E+02  0.45594000000E+02  0.51100000000E-03 0.  1.
         11   -1    0    0    0    0 -0.00000000000E+00 -0.00000000000E+00 -0.45593999997E+02  0.45594000000E+02  0.51100000000E-03 0. -1.
    9900012    2    1    2    0    0 -0.12798002854E+02 -0.18711309639E+02  0.22423488116E+02  0.59302034361E+02  0.50000164746E+02 0.  0.
         12    1    1    2    0    0  0.12798002854E+02  0.18711309639E+02 -0.22423488116E+02  0.31885965639E+02  0.00000000000E+00 0. -1.
         11    1    3    3    0    0 -0.59773763157E+01  0.54259786249E+01  0.14524370410E+00  0.80741171439E+01  0.51100000000E-03 0. -1.
        -11    1    3    3    0    0 -0.92889902799E+01  0.87413955804E+01  0.32616121748E+01  0.13165692209E+02  0.51100000000E-03 0.  1.
         12    1    3    3    0    0  0.24683637421E+01 -0.32878683844E+02  0.19016632237E+02  0.38062225008E+02  0.00000000000E+00 0. -1.
</event>
<event>
 7    1  0.6246445E-012  0.5930196E+02  0.7816164E-02  0.1266605E+00
        -11   -1    0    0    0    0  0.00000000000E+00  0.00000000000E+00  0.45593999997E+02  0.45594000000E+02  0.51100000000E-03 0.  1.
         11   -1    0    0    0    0 -0.00000000000E+00 -0.00000000000E+00 -0.45593999997E+02  0.45594000000E+02  0.51100000000E-03 0. -1.
    9900012    2    1    2    0    0  0.19953569440E+02  0.18607048107E+02 -0.16503092984E+02  0.59301964644E+02  0.50000037599E+02 0.  0.
         12    1    1    2    0    0 -0.19953569440E+02 -0.18607048107E+02  0.16503092984E+02  0.31886035356E+02  0.00000000000E+00 0. -1.
         11    1    3    3    0    0 -0.33538688570E+01  0.23253880430E+02 -0.54787058244E+01  0.24124833867E+02  0.51100000000E-03 0. -1.
        -11    1    3    3    0    0  0.91426899004E+01  0.91420185467E+01 -0.88246866536E+00  0.12959322240E+02  0.51100000000E-03 0.  1.
        -12    1    3    3    0    0  0.14164748397E+02 -0.13788850869E+02 -0.10141918494E+02  0.22217808537E+02  0.00000000000E+00 0.  1.
</event>
<event>
 7    1  0.6246445E-012  0.5930194E+02  0.7816164E-02  0.1266605E+00
        -11   -1    0    0    0    0  0.00000000000E+00  0.00000000000E+00  0.45593999997E+02  0.45594000000E+02  0.51100000000E-03 0.  1.
         11   -1    0    0    0    0 -0.00000000000E+00 -0.00000000000E+00 -0.45593999997E+02  0.45594000000E+02  0.51100000000E-03 0. -1.
    9900012    2    1    2    0    0  0.53069346533E+01 -0.31426141225E+02 -0.97714295931E+00  0.59301941666E+02  0.49999995692E+02 0.  0.
         12    1    1    2    0    0 -0.53069346533E+01  0.31426141225E+02  0.97714295931E+00  0.31886058334E+02  0.00000000000E+00 0. -1.
         11    1    3    3    0    0 -0.19986931166E+01 -0.11909849754E+01  0.15135130593E+02  0.15312916042E+02  0.51100000000E-03 0. -1.
        -11    1    3    3    0    0  0.93000514897E+01 -0.23589076285E+02  0.11521641458E+01  0.25382335593E+02  0.51100000000E-03 0.  1.
         12    1    3    3    0    0 -0.19944237199E+01 -0.66460799651E+01 -0.17264437698E+02  0.18606690031E+02  0.00000000000E+00 0. -1.
</event>
<event>
 7    1  0.6246445E-012  0.5930217E+02  0.7816164E-02  0.1266604E+00
        -11   -1    0    0    0    0  0.00000000000E+00  0.00000000000E+00  0.45593999997E+02  0.45594000000E+02  0.51100000000E-03 0.  1.
         11   -1    0    0    0    0 -0.00000000000E+00 -0.00000000000E+00 -0.45593999997E+02  0.45594000000E+02  0.51100000000E-03 0. -1.
    9900012    2    1    2    0    0  0.97366519224E+01 -0.97874006174E+01  0.28742135733E+02  0.59302172929E+02  0.50000417459E+02 0.  0.
         12    1    1    2    0    0 -0.97366519224E+01  0.97874006174E+01 -0.28742135733E+02  0.31885827071E+02  0.00000000000E+00 0. -1.
         11    1    3    3    0    0  0.12415912468E+02 -0.13138834903E+02  0.34445285196E+02  0.38900662430E+02  0.51100000000E-03 0.  1.
        -11    1    3    3    0    0 -0.85798452204E+01 -0.41274752909E+01 -0.47041436255E+00  0.95326327012E+01  0.51100000000E-03 0. -1.
        -12    1    3    3    0    0  0.59005846743E+01  0.74789095766E+01 -0.52327350999E+01  0.10868877798E+02  0.00000000000E+00 0.  1.
</event>
<event>
 7    1  0.6246445E-012  0.5930194E+02  0.7816164E-02  0.1266605E+00
        -11   -1    0    0    0    0  0.00000000000E+00  0.00000000000E+00  0.45593999997E+02  0.45594000000E+02  0.51100000000E-03 0.  1.
         11   -1    0    0    0    0 -0.00000000000E+00 -0.00000000000E+00 -0.45593999997E+02  0.45594000000E+02  0.51100000000E-03 0. -1.
    9900012    2    1    2    0    0 -0.22473933856E+02 -0.12069955922E+02  0.19130061907E+02  0.59301940233E+02  0.49999993079E+02 0.  0.
         12    1    1    2    0    0  0.22473933856E+02  0.12069955922E+02 -0.19130061907E+02  0.31886059767E+02  0.00000000000E+00 0. -1.
         11    1    3    3    0    0 -0.13988538905E+02 -0.20768649903E+02  0.19270258278E+02  0.31596817780E+02  0.51100000000E-03 0. -1.
        -11    1    3    3    0    0 -0.98939872628E+01 -0.67845838444E+01 -0.15392778394E+01  0.12095079100E+02  0.51100000000E-03 0.  1.
         12    1    3    3    0    0  0.14085923117E+01  0.15483277826E+02  0.13990814682E+01  0.15610043353E+02  0.00000000000E+00 0. -1.
</event>
<event>
 7    1  0.6246445E-012  0.5930192E+02  0.7816164E-02  0.1266605E+00
        -11   -1    0    0    0    0  0.00000000000E+00  0.00000000000E+00  0.45593999997E+02  0.45594000000E+02  0.51100000000E-03 0. -1.
         11   -1    0    0    0    0 -0.00000000000E+00 -0.00000000000E+00 -0.45593999997E+02  0.45594000000E+02  0.51100000000E-03 0.  1.
    9900012    2    1    2    0    0 -0.17471953176E+01  0.19988720454E+00 -0.31837545461E+02  0.59301922358E+02  0.49999960480E+02 0.  0.
         12    1    1    2    0    0  0.17471953176E+01 -0.19988720454E+00  0.31837545461E+02  0.31886077642E+02  0.00000000000E+00 0. -1.
         11    1    3    3    0    0 -0.59500434214E+01 -0.14682003137E+02 -0.10059374360E+02  0.18765799892E+02  0.51100000000E-03 0.  1.
        -11    1    3    3    0    0  0.73708445495E+01 -0.80456049183E+01 -0.86702815578E+01  0.13936817801E+02  0.51100000000E-03 0. -1.
        -12    1    3    3    0    0 -0.31679964458E+01  0.22927495259E+02 -0.13107889543E+02  0.26599304665E+02  0.00000000000E+00 0.  1.
</event>
<event>
 7    1  0.6246445E-012  0.5930195E+02  0.7816164E-02  0.1266605E+00
        -11   -1    0    0    0    0  0.00000000000E+00  0.00000000000E+00  0.45593999997E+02  0.45594000000E+02  0.51100000000E-03 0. -1.
         11   -1    0    0    0    0 -0.00000000000E+00 -0.00000000000E+00 -0.45593999997E+02  0.45594000000E+02  0.51100000000E-03 0.  1.
    9900012    2    1    2    0    0 -0.17034192831E+02 -0.16410411837E+02 -0.21383522962E+02  0.59301946680E+02  0.50000004838E+02 0.  0.
         12    1    1    2    0    0  0.17034192831E+02  0.16410411837E+02  0.21383522962E+02  0.31886053320E+02  0.00000000000E+00 0. -1.
         11    1    3    3    0    0 -0.19392209138E+02  0.30716218462E+01  0.22467979989E+01  0.19762103571E+02  0.51100000000E-03 0. -1.
        -11    1    3    3    0    0  0.66406975680E+01 -0.21392277438E+02 -0.89369972374E+01  0.24116349601E+02  0.51100000000E-03 0.  1.
        -12    1    3    3    0    0 -0.42826812610E+01  0.19102437554E+01 -0.14693323723E+02  0.15423493509E+02  0.00000000000E+00 0.  1.
</event>
<event>
 7    1  0.6246445E-012  0.5930192E+02  0.7816164E-02  0.1266605E+00
        -11   -1    0    0    0    0  0.00000000000E+00  0.00000000000E+00  0.45593999997E+02  0.45594000000E+02  0.51100000000E-03 0. -1.
         11   -1    0    0    0    0 -0.00000000000E+00 -0.00000000000E+00 -0.45593999997E+02  0.45594000000E+02  0.51100000000E-03 0.  1.
    9900012    2    1    2    0    0 -0.20137121023E+02 -0.21452647201E+02  0.12288308903E+02  0.59301917602E+02  0.49999951806E+02 0.  0.
         12    1    1    2    0    0  0.20137121023E+02  0.21452647201E+02 -0.12288308903E+02  0.31886082398E+02  0.00000000000E+00 0. -1.
         11    1    3    3    0    0 -0.20662407769E+02 -0.13173046405E+01  0.65057103285E+01  0.21702411236E+02  0.51100000000E-03 0. -1.
        -11    1    3    3    0    0 -0.15140352998E+02 -0.12924516882E+02  0.30735538337E+01  0.20142496343E+02  0.51100000000E-03 0.  1.
         12    1    3    3    0    0  0.15665639744E+02 -0.72108256785E+01  0.27090447404E+01  0.17457010023E+02  0.00000000000E+00 0. -1.
</event>
<event>
 7    1  0.6246445E-012  0.5930195E+02  0.7816164E-02  0.1266605E+00
        -11   -1    0    0    0    0  0.00000000000E+00  0.00000000000E+00  0.45593999997E+02  0.45594000000E+02  0.51100000000E-03 0. -1.
         11   -1    0    0    0    0 -0.00000000000E+00 -0.00000000000E+00 -0.45593999997E+02  0.45594000000E+02  0.51100000000E-03 0.  1.
    9900012    2    1    2    0    0 -0.20754387912E+02 -0.37659133568E+01 -0.23912197214E+02  0.59301954516E+02  0.50000019128E+02 0.  0.
         12    1    1    2    0    0  0.20754387912E+02  0.37659133568E+01  0.23912197214E+02  0.31886045484E+02  0.00000000000E+00 0. -1.
         11    1    3    3    0    0 -0.40985102659E+01 -0.15501908841E+02 -0.33342812496E+01  0.16377557688E+02  0.51100000000E-03 0. -1.
        -11    1    3    3    0    0 -0.14645708870E+02 -0.58482615232E+01 -0.19657754675E+02  0.25201711654E+02  0.51100000000E-03 0.  1.
        -12    1    3    3    0    0 -0.20101687770E+01  0.17584257007E+02 -0.92016128903E+00  0.17722685175E+02  0.00000000000E+00 0.  1.
</event>
<event>
 7    1  0.6246445E-012  0.5930196E+02  0.7816164E-02  0.1266605E+00
        -11   -1    0    0    0    0  0.00000000000E+00  0.00000000000E+00  0.45593999997E+02  0.45594000000E+02  0.51100000000E-03 0.  1.
         11   -1    0    0    0    0 -0.00000000000E+00 -0.00000000000E+00 -0.45593999997E+02  0.45594000000E+02  0.51100000000E-03 0. -1.
    9900012    2    1    2    0    0  0.22891856329E+01  0.10036527245E+02  0.30178589878E+02  0.59301960155E+02  0.50000029412E+02 0.  0.
         12    1    1    2    0    0 -0.22891856329E+01 -0.10036527245E+02 -0.30178589878E+02  0.31886039845E+02  0.00000000000E+00 0. -1.
         11    1    3    3    0    0  0.62669080110E+00 -0.10058820068E+02  0.20588461131E+02  0.22922856160E+02  0.51100000000E-03 0. -1.
        -11    1    3    3    0    0  0.26918087827E+01 -0.67844847685E+01  0.55685289894E+01  0.91806091009E+01  0.51100000000E-03 0.  1.
         12    1    3    3    0    0 -0.10293139509E+01  0.26879832081E+02  0.40215997572E+01  0.27198494894E+02  0.00000000000E+00 0. -1.
</event>
<event>
 7    1  0.6246445E-012  0.5930198E+02  0.7816164E-02  0.1266605E+00
        -11   -1    0    0    0    0  0.00000000000E+00  0.00000000000E+00  0.45593999997E+02  0.45594000000E+02  0.51100000000E-03 0.  1.
         11   -1    0    0    0    0 -0.00000000000E+00 -0.00000000000E+00 -0.45593999997E+02  0.45594000000E+02  0.51100000000E-03 0. -1.
    9900012    2    1    2    0    0 -0.17142806832E+02  0.18535830776E+02  0.19474742987E+02  0.59301976996E+02  0.50000060126E+02 0.  0.
         12    1    1    2    0    0  0.17142806832E+02 -0.18535830776E+02 -0.19474742987E+02  0.31886023004E+02  0.00000000000E+00 0. -1.
         11    1    3    3    0    0 -0.28959375940E+02  0.71451463417E+01  0.20729849733E+02  0.36323893532E+02  0.51100000000E-03 0. -1.
        -11    1    3    3    0    0 -0.29843149226E+01 -0.10522691805E+01  0.14001202988E+01  0.34603096823E+01  0.51100000000E-03 0.  1.
        -12    1    3    3    0    0  0.14800884031E+02  0.12442953614E+02 -0.26552270450E+01  0.19517773782E+02  0.00000000000E+00 0.  1.
</event>
<event>
 7    1  0.6246445E-012  0.5930194E+02  0.7816164E-02  0.1266605E+00
        -11   -1    0    0    0    0  0.00000000000E+00  0.00000000000E+00  0.45593999997E+02  0.45594000000E+02  0.51100000000E-03 0. -1.
         11   -1    0    0    0    0 -0.00000000000E+00 -0.00000000000E+00 -0.45593999997E+02  0.45594000000E+02  0.51100000000E-03 0.  1.
    9900012    2    1    2    0    0 -0.15344118551E+02  0.24105852029E+02 -0.14148730591E+02  0.59301942648E+02  0.49999997483E+02 0.  0.
         12    1    1    2    0    0  0.15344118551E+02 -0.24105852029E+02  0.14148730591E+02  0.31886057352E+02  0.00000000000E+00 0. -1.
         11    1    3    3    0    0 -0.15169418278E+02  0.16047093712E+02 -0.28953116588E+02  0.36412956868E+02  0.51100000000E-03 0. -1.
        -11    1    3    3    0    0 -0.22090791479E+01  0.49228806017E+01 -0.19388415066E+01  0.57335757385E+01  0.51100000000E-03 0.  1.
         12    1    3    3    0    0  0.20343788748E+01  0.31358777154E+01  0.16743227503E+02  0.17155410041E+02  0.00000000000E+00 0. -1.
</event>
<event>
 7    1  0.6246445E-012  0.5930187E+02  0.7816164E-02  0.1266605E+00
        -11   -1    0    0    0    0  0.00000000000E+00  0.00000000000E+00  0.45593999997E+02  0.45594000000E+02  0.51100000000E-03 0. -1.
         11   -1    0    0    0    0 -0.00000000000E+00 -0.00000000000E+00 -0.45593999997E+02  0.45594000000E+02  0.51100000000E-03 0.  1.
    9900012    2    1    2    0    0  0.95730167892E+01 -0.17278781556E+02 -0.25030502662E+02  0.59301874396E+02  0.49999873009E+02 0.  0.
         12    1    1    2    0    0 -0.95730167892E+01  0.17278781556E+02  0.25030502662E+02  0.31886125604E+02  0.00000000000E+00 0. -1.
         11    1    3    3    0    0  0.22557609433E+02 -0.32622511237E+01 -0.93104772209E+01  0.24620581067E+02  0.51100000000E-03 0. -1.
        -11    1    3    3    0    0 -0.60522471846E+01 -0.83564319116E+01  0.54704788196E+01  0.11678432645E+02  0.51100000000E-03 0.  1.
        -12    1    3    3    0    0 -0.69323454594E+01 -0.56600985202E+01 -0.21190504261E+02  0.23002860684E+02  0.00000000000E+00 0.  1.
</event>
<event>
 7    1  0.6246445E-012  0.5930192E+02  0.7816164E-02  0.1266605E+00
        -11   -1    0    0    0    0  0.00000000000E+00  0.00000000000E+00  0.45593999997E+02  0.45594000000E+02  0.51100000000E-03 0.  1.
         11   -1    0    0    0    0 -0.00000000000E+00 -0.00000000000E+00 -0.45593999997E+02  0.45594000000E+02  0.51100000000E-03 0. -1.
    9900012    2    1    2    0    0  0.18907283208E+02  0.13796726669E+02  0.21653803324E+02  0.59301918028E+02  0.49999952583E+02 0.  0.
         12    1    1    2    0    0 -0.18907283208E+02 -0.13796726669E+02 -0.21653803324E+02  0.31886081972E+02  0.00000000000E+00 0. -1.
         11    1    3    3    0    0  0.24849967563E+01 -0.18702788463E+01  0.11669251507E+02  0.12076613054E+02  0.51100000000E-03 0.  1.
        -11    1    3    3    0    0  0.76004296809E+01 -0.99554786085E+01 -0.78524977612E+01  0.14783091930E+02  0.51100000000E-03 0. -1.
         12    1    3    3    0    0  0.88218567711E+01  0.25622484124E+02  0.17837049578E+02  0.32442213045E+02  0.00000000000E+00 0. -1.
</event>
<event>
 7    1  0.6246445E-012  0.5930194E+02  0.7816164E-02  0.1266605E+00
        -11   -1    0    0    0    0  0.00000000000E+00  0.00000000000E+00  0.45593999997E+02  0.45594000000E+02  0.51100000000E-03 0. -1.
         11   -1    0    0    0    0 -0.00000000000E+00 -0.00000000000E+00 -0.45593999997E+02  0.45594000000E+02  0.51100000000E-03 0.  1.
    9900012    2    1    2    0    0  0.14394109612E+02  0.23996723090E+02 -0.15286852250E+02  0.59301937805E+02  0.49999988652E+02 0.  0.
         12    1    1    2    0    0 -0.14394109612E+02 -0.23996723090E+02  0.15286852250E+02  0.31886062195E+02  0.00000000000E+00 0. -1.
         11    1    3    3    0    0 -0.36537066049E+00  0.13592945671E+01  0.58256069407E+01  0.59932356810E+01  0.51100000000E-03 0. -1.
        -11    1    3    3    0    0 -0.59108397309E+01 -0.91747085126E+01 -0.61465419343E+01  0.12525704796E+02  0.51100000000E-03 0.  1.
        -12    1    3    3    0    0  0.20670320004E+02  0.31812137035E+02 -0.14965917256E+02  0.40782997329E+02  0.00000000000E+00 0.  1.
</event>
<event>
 7    1  0.6246445E-012  0.5930191E+02  0.7816164E-02  0.1266605E+00
        -11   -1    0    0    0    0  0.00000000000E+00  0.00000000000E+00  0.45593999997E+02  0.45594000000E+02  0.51100000000E-03 0.  1.
         11   -1    0    0    0    0 -0.00000000000E+00 -0.00000000000E+00 -0.45593999997E+02  0.45594000000E+02  0.51100000000E-03 0. -1.
    9900012    2    1    2    0    0 -0.14232737922E+02  0.17420873059E+02  0.22597902243E+02  0.59301908476E+02  0.49999935162E+02 0.  0.
         12    1    1    2    0    0  0.14232737922E+02 -0.17420873059E+02 -0.22597902243E+02  0.31886091524E+02  0.00000000000E+00 0. -1.
         11    1    3    3    0    0 -0.13212012010E+02 -0.10649225126E+02  0.10428047757E+02  0.19917515844E+02  0.51100000000E-03 0. -1.
        -11    1    3    3    0    0 -0.64933539645E+01  0.40949978324E+01  0.12639479118E+02  0.14788140032E+02  0.51100000000E-03 0.  1.
         12    1    3    3    0    0  0.54726280523E+01  0.23975100352E+02 -0.46962463181E+00  0.24596252600E+02  0.00000000000E+00 0. -1.
</event>
<event>
 7    1  0.6246445E-012  0.5930195E+02  0.7816164E-02  0.1266605E+00
        -11   -1    0    0    0    0  0.00000000000E+00  0.00000000000E+00  0.45593999997E+02  0.45594000000E+02  0.51100000000E-03 0. -1.
         11   -1    0    0    0    0 -0.00000000000E+00 -0.00000000000E+00 -0.45593999997E+02  0.45594000000E+02  0.51100000000E-03 0.  1.
    9900012    2    1    2    0    0 -0.19806923038E+02 -0.23859311627E+02 -0.74255690380E+01  0.59301952470E+02  0.50000015397E+02 0.  0.
         12    1    1    2    0    0  0.19806923038E+02  0.23859311627E+02  0.74255690380E+01  0.31886047530E+02  0.00000000000E+00 0. -1.
         11    1    3    3    0    0 -0.85879601209E+01 -0.93575750167E+01 -0.10714418526E+02  0.16616739567E+02  0.51100000000E-03 0. -1.
        -11    1    3    3    0    0 -0.15796600274E+02 -0.15693157154E+02 -0.12958737975E+02  0.25763087001E+02  0.51100000000E-03 0.  1.
         12    1    3    3    0    0  0.45776373569E+01  0.11914205443E+01  0.16247587463E+02  0.16922125902E+02  0.00000000000E+00 0. -1.
</event>
<event>
 7    1  0.6246445E-012  0.5930195E+02  0.7816164E-02  0.1266605E+00
        -11   -1    0    0    0    0  0.00000000000E+00  0.00000000000E+00  0.45593999997E+02  0.45594000000E+02  0.51100000000E-03 0.  1.
         11   -1    0    0    0    0 -0.00000000000E+00 -0.00000000000E+00 -0.45593999997E+02  0.45594000000E+02  0.51100000000E-03 0. -1.
    9900012    2    1    2    0    0  0.14651480497E+02 -0.15070786946E+02  0.23977606823E+02  0.59301950874E+02  0.50000012485E+02 0.  0.
         12    1    1    2    0    0 -0.14651480497E+02  0.15070786946E+02 -0.23977606823E+02  0.31886049126E+02  0.00000000000E+00 0. -1.
         11    1    3    3    0    0  0.36473541516E+01 -0.25528602302E+01  0.21860275159E+02  0.22309009793E+02  0.51100000000E-03 0. -1.
        -11    1    3    3    0    0 -0.31417033498E+01 -0.25776297952E+00  0.14309882158E+02  0.14652967935E+02  0.51100000000E-03 0.  1.
         12    1    3    3    0    0  0.14145829695E+02 -0.12260163736E+02 -0.12192550493E+02  0.22339973145E+02  0.00000000000E+00 0. -1.
</event>
<event>
 7    1  0.6246445E-012  0.5930195E+02  0.7816164E-02  0.1266605E+00
        -11   -1    0    0    0    0  0.00000000000E+00  0.00000000000E+00  0.45593999997E+02  0.45594000000E+02  0.51100000000E-03 0.  1.
         11   -1    0    0    0    0 -0.00000000000E+00 -0.00000000000E+00 -0.45593999997E+02  0.45594000000E+02  0.51100000000E-03 0. -1.
    9900012    2    1    2    0    0 -0.27807672700E+01 -0.11950473224E+02  0.29430825656E+02  0.59301953276E+02  0.50000016866E+02 0.  0.
         12    1    1    2    0    0  0.27807672700E+01  0.11950473224E+02 -0.29430825656E+02  0.31886046724E+02  0.00000000000E+00 0. -1.
         11    1    3    3    0    0 -0.34512648495E+01  0.20428114625E+01 -0.30964019962E+01  0.50667556992E+01  0.51100000000E-03 0. -1.
        -11    1    3    3    0    0 -0.17337778140E+02 -0.18491258334E+01  0.31789099072E+01  0.17723523511E+02  0.51100000000E-03 0.  1.
        -12    1    3    3    0    0  0.18008275719E+02 -0.12144158853E+02  0.29348317745E+02  0.36511674066E+02  0.00000000000E+00 0.  1.
</event>
<event>
 7    1  0.6246445E-012  0.5930194E+02  0.7816164E-02  0.1266605E+00
        -11   -1    0    0    0    0  0.00000000000E+00  0.00000000000E+00  0.45593999997E+02  0.45594000000E+02  0.51100000000E-03 0.  1.
         11   -1    0    0    0    0 -0.00000000000E+00 -0.00000000000E+00 -0.45593999997E+02  0.45594000000E+02  0.51100000000E-03 0. -1.
    9900012    2    1    2    0    0  0.27442267073E+02 -0.16208282575E+02 -0.96651699660E+00  0.59301943466E+02  0.49999998976E+02 0.  0.
         12    1    1    2    0    0 -0.27442267073E+02  0.16208282575E+02  0.96651699660E+00  0.31886056534E+02  0.00000000000E+00 0. -1.
         11    1    3    3    0    0  0.28667827244E+02 -0.67481404001E+01 -0.12105621919E+02  0.31842232963E+02  0.51100000000E-03 0. -1.
        -11    1    3    3    0    0 -0.11037550491E+01  0.77801281628E+01  0.35373692954E+01  0.86175200163E+01  0.51100000000E-03 0.  1.
        -12    1    3    3    0    0 -0.12180512189E+00 -0.17240270338E+02  0.76017356269E+01  0.18842190487E+02  0.00000000000E+00 0.  1.
</event>
<event>
 7    1  0.6246445E-012  0.5930190E+02  0.7816164E-02  0.1266605E+00
        -11   -1    0    0    0    0  0.00000000000E+00  0.00000000000E+00  0.45593999997E+02  0.45594000000E+02  0.51100000000E-03 0. -1.
         11   -1    0    0    0    0 -0.00000000000E+00 -0.00000000000E+00 -0.45593999997E+02  0.45594000000E+02  0.51100000000E-03 0.  1.
    9900012    2    1    2    0    0  0.41868296375E+01  0.30786030388E+02 -0.71703472182E+01  0.59301904461E+02  0.49999927840E+02 0.  0.
         12    1    1    2    0    0 -0.41868296375E+01 -0.30786030388E+02  0.71703472182E+01  0.31886095539E+02  0.00000000000E+00 0. -1.
         11    1    3    3    0    0  0.17265266834E+01 -0.87921526156E+01 -0.68901555551E+01  0.11302968010E+02  0.51100000000E-03 0. -1.
        -11    1    3    3    0    0  0.14588234851E+02  0.17451189154E+02  0.55599445792E+00  0.22752356561E+02  0.51100000000E-03 0.  1.
         12    1    3    3    0    0 -0.12127931897E+02  0.22126993850E+02 -0.83618612099E+00  0.25246579890E+02  0.00000000000E+00 0. -1.
</event>
<event>
 7    1  0.6246445E-012  0.5930197E+02  0.7816164E-02  0.1266605E+00
        -11   -1    0    0    0    0  0.00000000000E+00  0.00000000000E+00  0.45593999997E+02  0.45594000000E+02  0.51100000000E-03 0.  1.
         11   -1    0    0    0    0 -0.00000000000E+00 -0.00000000000E+00 -0.45593999997E+02  0.45594000000E+02  0.51100000000E-03 0. -1.
    9900012    2    1    2    0    0  0.96129153604E+00  0.30976760798E+02  0.74990221217E+01  0.59301966636E+02  0.50000041231E+02 0.  0.
         12    1    1    2    0    0 -0.96129153604E+00 -0.30976760798E+02 -0.74990221217E+01  0.31886033364E+02  0.00000000000E+00 0. -1.
         11    1    3    3    0    0  0.46861444746E+01 -0.44664223670E+01 -0.35160778639E+01  0.73669316953E+01  0.51100000000E-03 0. -1.
        -11    1    3    3    0    0 -0.97671450526E+01 -0.24256698388E+01 -0.38939420008E+01  0.10790911973E+02  0.51100000000E-03 0.  1.
        -12    1    3    3    0    0  0.60422921140E+01  0.37868853003E+02  0.14909041986E+02  0.41144122967E+02  0.00000000000E+00 0.  1.
</event>
<event>
 7    1  0.6246445E-012  0.5930193E+02  0.7816164E-02  0.1266605E+00
        -11   -1    0    0    0    0  0.00000000000E+00  0.00000000000E+00  0.45593999997E+02  0.45594000000E+02  0.51100000000E-03 0. -1.
         11   -1    0    0    0    0 -0.00000000000E+00 -0.00000000000E+00 -0.45593999997E+02  0.45594000000E+02  0.51100000000E-03 0.  1.
    9900012    2    1    2    0    0 -0.19763559768E+02  0.16994196608E+02 -0.18366280339E+02  0.59301933034E+02  0.49999979950E+02 0.  0.
         12    1    1    2    0    0  0.19763559768E+02 -0.16994196608E+02  0.18366280339E+02  0.31886066966E+02  0.00000000000E+00 0. -1.
         11    1    3    3    0    0 -0.28507857397E+01 -0.98375159305E+00  0.10285725746E+02  0.10718717317E+02  0.51100000000E-03 0. -1.
        -11    1    3    3    0    0  0.88319363426E+01  0.58176906726E+01 -0.57140151775E+01  0.12020756799E+02  0.51100000000E-03 0.  1.
        -12    1    3    3    0    0 -0.25744710370E+02  0.12160257529E+02 -0.22937990908E+02  0.36562458918E+02  0.00000000000E+00 0.  1.
</event>
<event>
 7    1  0.6246445E-012  0.5930192E+02  0.7816164E-02  0.1266605E+00
        -11   -1    0    0    0    0  0.00000000000E+00  0.00000000000E+00  0.45593999997E+02  0.45594000000E+02  0.51100000000E-03 0.  1.
         11   -1    0    0    0    0 -0.00000000000E+00 -0.00000000000E+00 -0.45593999997E+02  0.45594000000E+02  0.51100000000E-03 0. -1.
    9900012    2    1    2    0    0  0.11563482276E+01 -0.12536205719E+02  0.29295537690E+02  0.59301919595E+02  0.49999955440E+02 0.  0.
         12    1    1    2    0    0 -0.11563482276E+01  0.12536205719E+02 -0.29295537690E+02  0.31886080405E+02  0.00000000000E+00 0. -1.
         11    1    3    3    0    0  0.75051044369E+01  0.36657481301E+01 -0.14194118476E+00  0.83537087286E+01  0.51100000000E-03 0. -1.
        -11    1    3    3    0    0  0.14786245842E+02 -0.13279247726E+02  0.10803165711E+02  0.22620342082E+02  0.51100000000E-03 0.  1.
         12    1    3    3    0    0 -0.21135002051E+02 -0.29227061231E+01  0.18634313164E+02  0.28327868784E+02  0.00000000000E+00 0. -1.
</event>
<event>
 7    1  0.6246445E-012  0.5930195E+02  0.7816164E-02  0.1266605E+00
        -11   -1    0    0    0    0  0.00000000000E+00  0.00000000000E+00  0.45593999997E+02  0.45594000000E+02  0.51100000000E-03 0. -1.
         11   -1    0    0    0    0 -0.00000000000E+00 -0.00000000000E+00 -0.45593999997E+02  0.45594000000E+02  0.51100000000E-03 0.  1.
    9900012    2    1    2    0    0  0.44238080136E+01 -0.26396583756E+02 -0.17331193689E+02  0.59301953114E+02  0.50000016571E+02 0.  0.
         12    1    1    2    0    0 -0.44238080136E+01  0.26396583756E+02  0.17331193689E+02  0.31886046886E+02  0.00000000000E+00 0. -1.
         11    1    3    3    0    0  0.17493075812E+01 -0.19147022295E+02 -0.15842730558E+02  0.24913061867E+02  0.51100000000E-03 0. -1.
        -11    1    3    3    0    0  0.42692751486E+01 -0.15552789154E+02 -0.12571551626E+02  0.20448957707E+02  0.51100000000E-03 0.  1.
         12    1    3    3    0    0 -0.15947747162E+01  0.83032276931E+01  0.11083088495E+02  0.13939933540E+02  0.00000000000E+00 0. -1.
</event>
<event>
 7    1  0.6246445E-012  0.5930194E+02  0.7816164E-02  0.1266605E+00
        -11   -1    0    0    0    0  0.00000000000E+00  0.00000000000E+00  0.45593999997E+02  0.45594000000E+02  0.51100000000E-03 0.  1.
         11   -1    0    0    0    0 -0.00000000000E+00 -0.00000000000E+00 -0.45593999997E+02  0.45594000000E+02  0.51100000000E-03 0. -1.
    9900012    2    1    2    0    0  0.28217991479E+02  0.14717893935E+02  0.19619830465E+01  0.59301939998E+02  0.49999992651E+02 0.  0.
         12    1    1    2    0    0 -0.28217991479E+02 -0.14717893935E+02 -0.19619830465E+01  0.31886060002E+02  0.00000000000E+00 0. -1.
         11    1    3    3    0    0 -0.94688285608E+01 -0.44483125524E+00  0.99237618203E+01  0.13723616072E+02  0.51100000000E-03 0. -1.
        -11    1    3    3    0    0  0.92517693208E+01  0.37476094464E+01  0.62761715606E+01  0.11791104352E+02  0.51100000000E-03 0.  1.
         12    1    3    3    0    0  0.28435050719E+02  0.11415115744E+02 -0.14237950334E+02  0.33787219574E+02  0.00000000000E+00 0. -1.
</event>
<event>
 7    1  0.6246445E-012  0.5930199E+02  0.7816164E-02  0.1266605E+00
        -11   -1    0    0    0    0  0.00000000000E+00  0.00000000000E+00  0.45593999997E+02  0.45594000000E+02  0.51100000000E-03 0. -1.
         11   -1    0    0    0    0 -0.00000000000E+00 -0.00000000000E+00 -0.45593999997E+02  0.45594000000E+02  0.51100000000E-03 0.  1.
    9900012    2    1    2    0    0  0.10322664697E+02 -0.12828425664E+02 -0.27305520239E+02  0.59301994497E+02  0.50000092043E+02 0.  0.
         12    1    1    2    0    0 -0.10322664697E+02  0.12828425664E+02  0.27305520239E+02  0.31886005503E+02  0.00000000000E+00 0. -1.
         11    1    3    3    0    0  0.38375531677E+01 -0.28396078425E+02 -0.79924864638E+01  0.29748007065E+02  0.51100000000E-03 0. -1.
        -11    1    3    3    0    0 -0.38047676335E+01  0.29643018212E+01 -0.92253897854E+01  0.10410146924E+02  0.51100000000E-03 0.  1.
        -12    1    3    3    0    0  0.10289879163E+02  0.12603350940E+02 -0.10087643990E+02  0.19143840507E+02  0.00000000000E+00 0.  1.
</event>
<event>
 7    1  0.6246445E-012  0.5930195E+02  0.7816164E-02  0.1266605E+00
        -11   -1    0    0    0    0  0.00000000000E+00  0.00000000000E+00  0.45593999997E+02  0.45594000000E+02  0.51100000000E-03 0.  1.
         11   -1    0    0    0    0 -0.00000000000E+00 -0.00000000000E+00 -0.45593999997E+02  0.45594000000E+02  0.51100000000E-03 0. -1.
    9900012    2    1    2    0    0 -0.23340981891E+02  0.17481076732E+02 -0.12896927602E+02  0.59301949431E+02  0.50000009854E+02 0.  0.
         12    1    1    2    0    0  0.23340981891E+02 -0.17481076732E+02  0.12896927602E+02  0.31886050569E+02  0.00000000000E+00 0. -1.
         11    1    3    3    0    0 -0.13827760972E+01  0.27711957371E+01 -0.16626439955E+02  0.16912424468E+02  0.51100000000E-03 0. -1.
        -11    1    3    3    0    0 -0.72266560196E+01  0.88201122694E+01 -0.14354690506E+02  0.18332377845E+02  0.51100000000E-03 0.  1.
        -12    1    3    3    0    0 -0.14731549774E+02  0.58897687255E+01  0.18084202859E+02  0.24057147117E+02  0.00000000000E+00 0.  1.
</event>
<event>
 7    1  0.6246445E-012  0.5930194E+02  0.7816164E-02  0.1266605E+00
        -11   -1    0    0    0    0  0.00000000000E+00  0.00000000000E+00  0.45593999997E+02  0.45594000000E+02  0.51100000000E-03 0.  1.
         11   -1    0    0    0    0 -0.00000000000E+00 -0.00000000000E+00 -0.45593999997E+02  0.45594000000E+02  0.51100000000E-03 0. -1.
    9900012    2    1    2    0    0 -0.22671483459E+02 -0.15579459777E+02  0.16124670143E+02  0.59301941661E+02  0.49999995683E+02 0.  0.
         12    1    1    2    0    0  0.22671483459E+02  0.15579459777E+02 -0.16124670143E+02  0.31886058339E+02  0.00000000000E+00 0. -1.
         11    1    3    3    0    0 -0.10144911130E+02 -0.94327535624E+01 -0.10536824199E+02  0.17404617953E+02  0.51100000000E-03 0. -1.
        -11    1    3    3    0    0 -0.11959250046E+02 -0.21838433223E+01 -0.25426622470E+01  0.12420062998E+02  0.51100000000E-03 0.  1.
         12    1    3    3    0    0 -0.56732228264E+00 -0.39628628926E+01  0.29204156589E+02  0.29477260710E+02  0.00000000000E+00 0. -1.
</event>
<event>
 7    1  0.6246445E-012  0.5930195E+02  0.7816164E-02  0.1266605E+00
        -11   -1    0    0    0    0  0.00000000000E+00  0.00000000000E+00  0.45593999997E+02  0.45594000000E+02  0.51100000000E-03 0. -1.
         11   -1    0    0    0    0 -0.00000000000E+00 -0.00000000000E+00 -0.45593999997E+02  0.45594000000E+02  0.51100000000E-03 0.  1.
    9900012    2    1    2    0    0 -0.47437389591E+01 -0.31011151335E+02 -0.57031155289E+01  0.59301951433E+02  0.50000013506E+02 0.  0.
         12    1    1    2    0    0  0.47437389591E+01  0.31011151335E+02  0.57031155289E+01  0.31886048567E+02  0.00000000000E+00 0. -1.
         11    1    3    3    0    0 -0.10955164885E+02 -0.23095205774E+01 -0.41794612964E+00  0.11203758395E+02  0.51100000000E-03 0. -1.
        -11    1    3    3    0    0 -0.76808186938E+01  0.52612711963E+01  0.41761564313E+01  0.10203736238E+02  0.51100000000E-03 0.  1.
        -12    1    3    3    0    0  0.13892244619E+02 -0.33962901954E+02 -0.94613258306E+01  0.37894456800E+02  0.00000000000E+00 0.  1.
</event>
<event>
 7    1  0.6246445E-012  0.5930211E+02  0.7816164E-02  0.1266604E+00
        -11   -1    0    0    0    0  0.00000000000E+00  0.00000000000E+00  0.45593999997E+02  0.45594000000E+02  0.51100000000E-03 0.  1.
         11   -1    0    0    0    0 -0.00000000000E+00 -0.00000000000E+00 -0.45593999997E+02  0.45594000000E+02  0.51100000000E-03 0. -1.
    9900012    2    1    2    0    0  0.10530295890E+02 -0.30096726250E+02 -0.98820641133E-01  0.59302112400E+02  0.50000307070E+02 0.  0.
         12    1    1    2    0    0 -0.10530295890E+02  0.30096726250E+02  0.98820641133E-01  0.31885887600E+02  0.00000000000E+00 0. -1.
         11    1    3    3    0    0  0.13150200819E+02 -0.54645531500E+01  0.13173294667E+02  0.19399093158E+02  0.51100000000E-03 0. -1.
        -11    1    3    3    0    0 -0.13936734353E+02 -0.47607033064E+01 -0.60501443196E+01  0.15921718090E+02  0.51100000000E-03 0.  1.
         12    1    3    3    0    0  0.11316829424E+02 -0.19871469794E+02 -0.72219709887E+01  0.23981301152E+02  0.00000000000E+00 0. -1.
</event>
<event>
 7    1  0.6246445E-012  0.5930195E+02  0.7816164E-02  0.1266605E+00
        -11   -1    0    0    0    0  0.00000000000E+00  0.00000000000E+00  0.45593999997E+02  0.45594000000E+02  0.51100000000E-03 0.  1.
         11   -1    0    0    0    0 -0.00000000000E+00 -0.00000000000E+00 -0.45593999997E+02  0.45594000000E+02  0.51100000000E-03 0. -1.
    9900012    2    1    2    0    0 -0.17393944289E+02  0.26712943426E+02 -0.76778769048E+00  0.59301950662E+02  0.50000012100E+02 0.  0.
         12    1    1    2    0    0  0.17393944289E+02 -0.26712943426E+02  0.76778769048E+00  0.31886049338E+02  0.00000000000E+00 0. -1.
         11    1    3    3    0    0 -0.21830410758E+02  0.14924488144E+02 -0.24283163757E+01  0.26555675493E+02  0.51100000000E-03 0.  1.
        -11    1    3    3    0    0 -0.96070896242E+01 -0.40215145232E+01  0.46201494408E+01  0.11393618004E+02  0.51100000000E-03 0. -1.
         12    1    3    3    0    0  0.14043556093E+02  0.15809969806E+02 -0.29596207556E+01  0.21352657165E+02  0.00000000000E+00 0. -1.
</event>
<event>
 7    1  0.6246445E-012  0.5930196E+02  0.7816164E-02  0.1266605E+00
        -11   -1    0    0    0    0  0.00000000000E+00  0.00000000000E+00  0.45593999997E+02  0.45594000000E+02  0.51100000000E-03 0. -1.
         11   -1    0    0    0    0 -0.00000000000E+00 -0.00000000000E+00 -0.45593999997E+02  0.45594000000E+02  0.51100000000E-03 0.  1.
    9900012    2    1    2    0    0 -0.33396554167E+01 -0.29415316815E+02 -0.11845055445E+02  0.59301960733E+02  0.50000030467E+02 0.  0.
         12    1    1    2    0    0  0.33396554167E+01  0.29415316815E+02  0.11845055445E+02  0.31886039267E+02  0.00000000000E+00 0. -1.
         11    1    3    3    0    0 -0.42704335884E+01  0.70318338186E+01 -0.12998206669E+02  0.15382999277E+02  0.51100000000E-03 0. -1.
        -11    1    3    3    0    0 -0.48133625068E+01 -0.89669496992E+01 -0.94705110027E+01  0.13901986349E+02  0.51100000000E-03 0.  1.
        -12    1    3    3    0    0  0.57441406785E+01 -0.27480200934E+02  0.10623662226E+02  0.30016975107E+02  0.00000000000E+00 0.  1.
</event>
<event>
 7    1  0.6246445E-012  0.5930197E+02  0.7816164E-02  0.1266605E+00
        -11   -1    0    0    0    0  0.00000000000E+00  0.00000000000E+00  0.45593999997E+02  0.45594000000E+02  0.51100000000E-03 0. -1.
         11   -1    0    0    0    0 -0.00000000000E+00 -0.00000000000E+00 -0.45593999997E+02  0.45594000000E+02  0.51100000000E-03 0.  1.
    9900012    2    1    2    0    0  0.18659157701E+02  0.62131618033E+01  0.25098834975E+02  0.59301967590E+02  0.50000042973E+02 0.  0.
         12    1    1    2    0    0 -0.18659157701E+02 -0.62131618033E+01 -0.25098834975E+02  0.31886032410E+02  0.00000000000E+00 0. -1.
         11    1    3    3    0    0  0.31566157279E+00  0.53886577283E+01 -0.42145823552E+01  0.68483559363E+01  0.51100000000E-03 0.  1.
        -11    1    3    3    0    0  0.10262841263E+02 -0.60568935781E+01  0.37308550005E+02  0.39165543202E+02  0.51100000000E-03 0. -1.
         12    1    3    3    0    0  0.80806548651E+01  0.68813976531E+01 -0.79951326740E+01  0.13288068452E+02  0.00000000000E+00 0. -1.
</event>
<event>
 7    1  0.6246445E-012  0.5930197E+02  0.7816164E-02  0.1266605E+00
        -11   -1    0    0    0    0  0.00000000000E+00  0.00000000000E+00  0.45593999997E+02  0.45594000000E+02  0.51100000000E-03 0. -1.
         11   -1    0    0    0    0 -0.00000000000E+00 -0.00000000000E+00 -0.45593999997E+02  0.45594000000E+02  0.51100000000E-03 0.  1.
    9900012    2    1    2    0    0  0.44369077220E+00 -0.99569427275E+01 -0.30288302862E+02  0.59301970767E+02  0.50000048767E+02 0.  0.
         12    1    1    2    0    0 -0.44369077220E+00  0.99569427275E+01  0.30288302862E+02  0.31886029233E+02  0.00000000000E+00 0. -1.
         11    1    3    3    0    0 -0.25131523506E+01 -0.19558169771E+02  0.14505620354E+01  0.19772255056E+02  0.51100000000E-03 0. -1.
        -11    1    3    3    0    0 -0.46181035016E+01 -0.23115643953E+01 -0.21445037727E+02  0.22058101760E+02  0.51100000000E-03 0.  1.
        -12    1    3    3    0    0  0.75749466245E+01  0.11912791439E+02 -0.10293827171E+02  0.17471613951E+02  0.00000000000E+00 0.  1.
</event>
<event>
 7    1  0.6246445E-012  0.5930190E+02  0.7816164E-02  0.1266605E+00
        -11   -1    0    0    0    0  0.00000000000E+00  0.00000000000E+00  0.45593999997E+02  0.45594000000E+02  0.51100000000E-03 0. -1.
         11   -1    0    0    0    0 -0.00000000000E+00 -0.00000000000E+00 -0.45593999997E+02  0.45594000000E+02  0.51100000000E-03 0.  1.
    9900012    2    1    2    0    0  0.54540794307E+01  0.53658124212E+01 -0.30954557732E+02  0.59301896918E+02  0.49999914083E+02 0.  0.
         12    1    1    2    0    0 -0.54540794307E+01 -0.53658124212E+01  0.30954557732E+02  0.31886103082E+02  0.00000000000E+00 0. -1.
         11    1    3    3    0    0 -0.26378455436E+01  0.45061849970E+01  0.66524458406E+01  0.84568888051E+01  0.51100000000E-03 0. -1.
        -11    1    3    3    0    0  0.12848418309E+02 -0.81452213654E+01 -0.40012989215E+01  0.15730126429E+02  0.51100000000E-03 0.  1.
        -12    1    3    3    0    0 -0.47564933352E+01  0.90048487896E+01 -0.33605704651E+02  0.35114881684E+02  0.00000000000E+00 0.  1.
</event>
<event>
 7    1  0.6246445E-012  0.5930196E+02  0.7816164E-02  0.1266605E+00
        -11   -1    0    0    0    0  0.00000000000E+00  0.00000000000E+00  0.45593999997E+02  0.45594000000E+02  0.51100000000E-03 0. -1.
         11   -1    0    0    0    0 -0.00000000000E+00 -0.00000000000E+00 -0.45593999997E+02  0.45594000000E+02  0.51100000000E-03 0.  1.
    9900012    2    1    2    0    0  0.29949556469E+02 -0.45074634081E+01 -0.99712810785E+01  0.59301959082E+02  0.50000027455E+02 0.  0.
         12    1    1    2    0    0 -0.29949556469E+02  0.45074634081E+01  0.99712810785E+01  0.31886040918E+02  0.00000000000E+00 0. -1.
         11    1    3    3    0    0 -0.29964371132E+01  0.10561270904E+02  0.89398489183E+00  0.11014458123E+02  0.51100000000E-03 0. -1.
        -11    1    3    3    0    0  0.24220635219E+02 -0.30589196721E+01  0.66745196225E+01  0.25308997855E+02  0.51100000000E-03 0.  1.
        -12    1    3    3    0    0  0.87253583629E+01 -0.12009814640E+02 -0.17539785593E+02  0.22978503104E+02  0.00000000000E+00 0.  1.
</event>
<event>
 7    1  0.6246445E-012  0.5930196E+02  0.7816164E-02  0.1266605E+00
        -11   -1    0    0    0    0  0.00000000000E+00  0.00000000000E+00  0.45593999997E+02  0.45594000000E+02  0.51100000000E-03 0.  1.
         11   -1    0    0    0    0 -0.00000000000E+00 -0.00000000000E+00 -0.45593999997E+02  0.45594000000E+02  0.51100000000E-03 0. -1.
    9900012    2    1    2    0    0 -0.16839908746E+02 -0.17759987040E+02  0.20438200414E+02  0.59301957561E+02  0.50000024682E+02 0.  0.
         12    1    1    2    0    0  0.16839908746E+02  0.17759987040E+02 -0.20438200414E+02  0.31886042439E+02  0.00000000000E+00 0. -1.
         11    1    3    3    0    0 -0.21859934971E+02 -0.16705852812E+00 -0.79999784620E+01  0.23278408905E+02  0.51100000000E-03 0. -1.
        -11    1    3    3    0    0 -0.32948880245E+01 -0.10808446866E+02  0.16127269089E+02  0.19691816048E+02  0.51100000000E-03 0.  1.
        -12    1    3    3    0    0  0.83149142496E+01 -0.67844816464E+01  0.12310909787E+02  0.16331732608E+02  0.00000000000E+00 0.  1.
</event>
<event>
 7    1  0.6246445E-012  0.5930197E+02  0.7816164E-02  0.1266605E+00
        -11   -1    0    0    0    0  0.00000000000E+00  0.00000000000E+00  0.45593999997E+02  0.45594000000E+02  0.51100000000E-03 0. -1.
         11   -1    0    0    0    0 -0.00000000000E+00 -0.00000000000E+00 -0.45593999997E+02  0.45594000000E+02  0.51100000000E-03 0.  1.
    9900012    2    1    2    0    0 -0.65258311363E+01  0.22431650659E+02  0.21701465505E+02  0.59301968130E+02  0.50000043957E+02 0.  0.
         12    1    1    2    0    0  0.65258311363E+01 -0.22431650659E+02 -0.21701465505E+02  0.31886031870E+02  0.00000000000E+00 0. -1.
         11    1    3    3    0    0  0.18570990603E+02  0.98764560926E+01  0.60377437614E+01  0.21883336741E+02  0.51100000000E-03 0. -1.
        -11    1    3    3    0    0 -0.47368015583E+01 -0.37080520137E+01 -0.15202104982E+01  0.62046739608E+01  0.51100000000E-03 0.  1.
         12    1    3    3    0    0 -0.20360020181E+02  0.16263246581E+02  0.17183932242E+02  0.31213957429E+02  0.00000000000E+00 0. -1.
</event>
<event>
 7    1  0.6246445E-012  0.5930195E+02  0.7816164E-02  0.1266605E+00
        -11   -1    0    0    0    0  0.00000000000E+00  0.00000000000E+00  0.45593999997E+02  0.45594000000E+02  0.51100000000E-03 0.  1.
         11   -1    0    0    0    0 -0.00000000000E+00 -0.00000000000E+00 -0.45593999997E+02  0.45594000000E+02  0.51100000000E-03 0. -1.
    9900012    2    1    2    0    0  0.13357473030E+02  0.21091821930E+02  0.19835153324E+02  0.59301947478E+02  0.50000006292E+02 0.  0.
         12    1    1    2    0    0 -0.13357473030E+02 -0.21091821930E+02 -0.19835153324E+02  0.31886052522E+02  0.00000000000E+00 0. -1.
         11    1    3    3    0    0 -0.42721687876E+01  0.52057691827E+01 -0.72625844399E+01  0.99043723648E+01  0.51100000000E-03 0. -1.
        -11    1    3    3    0    0 -0.21316744099E+01  0.11701239209E+02 -0.37971929866E+01  0.12485259695E+02  0.51100000000E-03 0.  1.
         12    1    3    3    0    0  0.19761316227E+02  0.41848135378E+01  0.30894930751E+02  0.36912315418E+02  0.00000000000E+00 0. -1.
</event>
<event>
 7    1  0.6246445E-012  0.5930191E+02  0.7816164E-02  0.1266605E+00
        -11   -1    0    0    0    0  0.00000000000E+00  0.00000000000E+00  0.45593999997E+02  0.45594000000E+02  0.51100000000E-03 0. -1.
         11   -1    0    0    0    0 -0.00000000000E+00 -0.00000000000E+00 -0.45593999997E+02  0.45594000000E+02  0.51100000000E-03 0.  1.
    9900012    2    1    2    0    0  0.29316143441E+02  0.78441605557E+01 -0.97854820137E+01  0.59301909313E+02  0.49999936688E+02 0.  0.
         12    1    1    2    0    0 -0.29316143441E+02 -0.78441605557E+01  0.97854820137E+01  0.31886090687E+02  0.00000000000E+00 0. -1.
         11    1    3    3    0    0  0.58390032207E+01  0.16743862558E+02 -0.11149891947E+02  0.20946860926E+02  0.51100000000E-03 0. -1.
        -11    1    3    3    0    0  0.19737428702E+01  0.96714518534E+01 -0.48038908217E+00  0.98824802454E+01  0.51100000000E-03 0.  1.
         12    1    3    3    0    0  0.21503397350E+02 -0.18571153856E+02  0.18447990152E+01  0.28472568141E+02  0.00000000000E+00 0. -1.
</event>
<event>
 7    1  0.6246445E-012  0.5930194E+02  0.7816164E-02  0.1266605E+00
        -11   -1    0    0    0    0  0.00000000000E+00  0.00000000000E+00  0.45593999997E+02  0.45594000000E+02  0.51100000000E-03 0. -1.
         11   -1    0    0    0    0 -0.00000000000E+00 -0.00000000000E+00 -0.45593999997E+02  0.45594000000E+02  0.51100000000E-03 0.  1.
    9900012    2    1    2    0    0  0.28232261281E+02  0.14371921962E+02  0.36205239101E+01  0.59301938604E+02  0.49999990109E+02 0.  0.
         12    1    1    2    0    0 -0.28232261281E+02 -0.14371921962E+02 -0.36205239101E+01  0.31886061396E+02  0.00000000000E+00 0. -1.
         11    1    3    3    0    0  0.18177020591E+02  0.58374869595E+01 -0.42420008762E+01  0.19556965594E+02  0.51100000000E-03 0. -1.
        -11    1    3    3    0    0 -0.11678572754E+02  0.10626662840E+02 -0.17538822178E+01  0.15886822457E+02  0.51100000000E-03 0.  1.
         12    1    3    3    0    0  0.21733813444E+02 -0.20922278373E+01  0.96164070040E+01  0.23858150553E+02  0.00000000000E+00 0. -1.
</event>
<event>
 7    1  0.6246445E-012  0.5930191E+02  0.7816164E-02  0.1266605E+00
        -11   -1    0    0    0    0  0.00000000000E+00  0.00000000000E+00  0.45593999997E+02  0.45594000000E+02  0.51100000000E-03 0.  1.
         11   -1    0    0    0    0 -0.00000000000E+00 -0.00000000000E+00 -0.45593999997E+02  0.45594000000E+02  0.51100000000E-03 0. -1.
    9900012    2    1    2    0    0  0.11045933389E+02 -0.17469190319E+02  0.24280395652E+02  0.59301907925E+02  0.49999934157E+02 0.  0.
         12    1    1    2    0    0 -0.11045933389E+02  0.17469190319E+02 -0.24280395652E+02  0.31886092075E+02  0.00000000000E+00 0. -1.
         11    1    3    3    0    0 -0.14149106542E+01  0.37766158826E+01  0.58815531998E+01  0.71314422095E+01  0.51100000000E-03 0.  1.
        -11    1    3    3    0    0 -0.75762042926E+01  0.76946455042E+01  0.12434463681E+02  0.16468828987E+02  0.51100000000E-03 0. -1.
        -12    1    3    3    0    0  0.20037048336E+02 -0.28940451706E+02  0.59643787712E+01  0.35701636728E+02  0.00000000000E+00 0.  1.
</event>
<event>
 7    1  0.6246445E-012  0.5930199E+02  0.7816164E-02  0.1266605E+00
        -11   -1    0    0    0    0  0.00000000000E+00  0.00000000000E+00  0.45593999997E+02  0.45594000000E+02  0.51100000000E-03 0. -1.
         11   -1    0    0    0    0 -0.00000000000E+00 -0.00000000000E+00 -0.45593999997E+02  0.45594000000E+02  0.51100000000E-03 0.  1.
    9900012    2    1    2    0    0 -0.13017547901E+02 -0.15718074108E+02 -0.24499050135E+02  0.59301986381E+02  0.50000077242E+02 0.  0.
         12    1    1    2    0    0  0.13017547901E+02  0.15718074108E+02  0.24499050135E+02  0.31886013619E+02  0.00000000000E+00 0. -1.
         11    1    3    3    0    0  0.11580862124E+02  0.35699049071E+01 -0.29154369626E+01  0.12464363663E+02  0.51100000000E-03 0. -1.
        -11    1    3    3    0    0 -0.36491084855E+01 -0.33002101513E+01  0.66134302576E+01  0.82428659952E+01  0.51100000000E-03 0.  1.
        -12    1    3    3    0    0 -0.20949301539E+02 -0.15987768863E+02 -0.28197043430E+02  0.38594756722E+02  0.00000000000E+00 0.  1.
</event>
<event>
 7    1  0.6246445E-012  0.5930194E+02  0.7816164E-02  0.1266605E+00
        -11   -1    0    0    0    0  0.00000000000E+00  0.00000000000E+00  0.45593999997E+02  0.45594000000E+02  0.51100000000E-03 0.  1.
         11   -1    0    0    0    0 -0.00000000000E+00 -0.00000000000E+00 -0.45593999997E+02  0.45594000000E+02  0.51100000000E-03 0. -1.
    9900012    2    1    2    0    0  0.43730610359E+01 -0.53988010759E+01  0.31119926737E+02  0.59301944176E+02  0.50000000270E+02 0.  0.
         12    1    1    2    0    0 -0.43730610359E+01  0.53988010759E+01 -0.31119926737E+02  0.31886055824E+02  0.00000000000E+00 0. -1.
         11    1    3    3    0    0 -0.12322840958E+01 -0.10237013513E+01 -0.62787420405E+01  0.64798989515E+01  0.51100000000E-03 0. -1.
        -11    1    3    3    0    0  0.19016707348E+02  0.79476454824E-01  0.88672372252E+01  0.20982596864E+02  0.51100000000E-03 0.  1.
         12    1    3    3    0    0 -0.13411362217E+02 -0.44545761794E+01  0.28531431553E+02  0.31839448360E+02  0.00000000000E+00 0. -1.
</event>
<event>
 7    1  0.6246445E-012  0.5930196E+02  0.7816164E-02  0.1266605E+00
        -11   -1    0    0    0    0  0.00000000000E+00  0.00000000000E+00  0.45593999997E+02  0.45594000000E+02  0.51100000000E-03 0.  1.
         11   -1    0    0    0    0 -0.00000000000E+00 -0.00000000000E+00 -0.45593999997E+02  0.45594000000E+02  0.51100000000E-03 0. -1.
    9900012    2    1    2    0    0 -0.11123335563E+02  0.28500930806E+02  0.89826376426E+01  0.59301961835E+02  0.50000032475E+02 0.  0.
         12    1    1    2    0    0  0.11123335563E+02 -0.28500930806E+02 -0.89826376426E+01  0.31886038165E+02  0.00000000000E+00 0. -1.
         11    1    3    3    0    0  0.90683564142E+00 -0.10749887923E+02  0.10610768082E+02  0.15131782473E+02  0.51100000000E-03 0. -1.
        -11    1    3    3    0    0 -0.12817946809E+01 -0.54212241789E-01  0.29000795889E+01  0.31711825009E+01  0.51100000000E-03 0.  1.
        -12    1    3    3    0    0 -0.10748376523E+02  0.39305030971E+02 -0.45282100287E+01  0.40998996861E+02  0.00000000000E+00 0.  1.
</event>
<event>
 7    1  0.6246445E-012  0.5930194E+02  0.7816164E-02  0.1266605E+00
        -11   -1    0    0    0    0  0.00000000000E+00  0.00000000000E+00  0.45593999997E+02  0.45594000000E+02  0.51100000000E-03 0.  1.
         11   -1    0    0    0    0 -0.00000000000E+00 -0.00000000000E+00 -0.45593999997E+02  0.45594000000E+02  0.51100000000E-03 0. -1.
    9900012    2    1    2    0    0 -0.21695895909E+02 -0.17543413101E+02  0.15434944050E+02  0.59301941285E+02  0.49999994999E+02 0.  0.
         12    1    1    2    0    0  0.21695895909E+02  0.17543413101E+02 -0.15434944050E+02  0.31886058715E+02  0.00000000000E+00 0. -1.
         11    1    3    3    0    0 -0.35583783215E+01 -0.28143992358E+01  0.89013263929E+00  0.46233359941E+01  0.51100000000E-03 0. -1.
        -11    1    3    3    0    0 -0.10568368572E+02 -0.21817301216E+01  0.30893496182E+02  0.32723973891E+02  0.51100000000E-03 0.  1.
         12    1    3    3    0    0 -0.75691490159E+01 -0.12547283743E+02 -0.16348684772E+02  0.21954631400E+02  0.00000000000E+00 0. -1.
</event>
<event>
 7    1  0.6246445E-012  0.5930196E+02  0.7816164E-02  0.1266605E+00
        -11   -1    0    0    0    0  0.00000000000E+00  0.00000000000E+00  0.45593999997E+02  0.45594000000E+02  0.51100000000E-03 0. -1.
         11   -1    0    0    0    0 -0.00000000000E+00 -0.00000000000E+00 -0.45593999997E+02  0.45594000000E+02  0.51100000000E-03 0.  1.
    9900012    2    1    2    0    0  0.64714863747E+01 -0.27967171366E+02 -0.13880812994E+02  0.59301956353E+02  0.50000022478E+02 0.  0.
         12    1    1    2    0    0 -0.64714863747E+01  0.27967171366E+02  0.13880812994E+02  0.31886043647E+02  0.00000000000E+00 0. -1.
         11    1    3    3    0    0  0.51032817999E+01 -0.11421339533E+02  0.12047145678E+02  0.17367331433E+02  0.51100000000E-03 0. -1.
        -11    1    3    3    0    0  0.72922574027E+01  0.48268650338E+01 -0.13828763452E+01  0.88536993020E+01  0.51100000000E-03 0.  1.
        -12    1    3    3    0    0 -0.59240528279E+01 -0.21372696866E+02 -0.24545082327E+02  0.33080925617E+02  0.00000000000E+00 0.  1.
</event>
<event>
 7    1  0.6246445E-012  0.5930193E+02  0.7816164E-02  0.1266605E+00
        -11   -1    0    0    0    0  0.00000000000E+00  0.00000000000E+00  0.45593999997E+02  0.45594000000E+02  0.51100000000E-03 0.  1.
         11   -1    0    0    0    0 -0.00000000000E+00 -0.00000000000E+00 -0.45593999997E+02  0.45594000000E+02  0.51100000000E-03 0. -1.
    9900012    2    1    2    0    0 -0.26976841801E+02 -0.12022699481E+02  0.12017742895E+02  0.59301930303E+02  0.49999974970E+02 0.  0.
         12    1    1    2    0    0  0.26976841801E+02  0.12022699481E+02 -0.12017742895E+02  0.31886069697E+02  0.00000000000E+00 0. -1.
         11    1    3    3    0    0 -0.89777994942E+01 -0.92339025818E+00  0.21168355880E+02  0.23012014780E+02  0.51100000000E-03 0. -1.
        -11    1    3    3    0    0 -0.28458380104E+01 -0.17993558618E+01  0.97655901214E+01  0.10329725368E+02  0.51100000000E-03 0.  1.
         12    1    3    3    0    0 -0.15153204297E+02 -0.92999533611E+01 -0.18916203106E+02  0.25960190155E+02  0.00000000000E+00 0. -1.
</event>
<event>
 7    1  0.6246445E-012  0.5930197E+02  0.7816164E-02  0.1266605E+00
        -11   -1    0    0    0    0  0.00000000000E+00  0.00000000000E+00  0.45593999997E+02  0.45594000000E+02  0.51100000000E-03 0.  1.
         11   -1    0    0    0    0 -0.00000000000E+00 -0.00000000000E+00 -0.45593999997E+02  0.45594000000E+02  0.51100000000E-03 0. -1.
    9900012    2    1    2    0    0  0.51556788715E+01 -0.21270095904E+02  0.23188804144E+02  0.59301974189E+02  0.50000055007E+02 0.  0.
         12    1    1    2    0    0 -0.51556788715E+01  0.21270095904E+02 -0.23188804144E+02  0.31886025811E+02  0.00000000000E+00 0. -1.
         11    1    3    3    0    0  0.59773650985E+01 -0.32182594397E+01  0.14264855144E+02  0.15797853648E+02  0.51100000000E-03 0. -1.
        -11    1    3    3    0    0  0.16985183943E+02 -0.94135588040E+01  0.12904809364E+02  0.23316210411E+02  0.51100000000E-03 0.  1.
         12    1    3    3    0    0 -0.17806870170E+02 -0.86382776601E+01 -0.39808603638E+01  0.20187910130E+02  0.00000000000E+00 0. -1.
</event>
<event>
 7    1  0.6246445E-012  0.5930183E+02  0.7816164E-02  0.1266605E+00
        -11   -1    0    0    0    0  0.00000000000E+00  0.00000000000E+00  0.45593999997E+02  0.45594000000E+02  0.51100000000E-03 0.  1.
         11   -1    0    0    0    0 -0.00000000000E+00 -0.00000000000E+00 -0.45593999997E+02  0.45594000000E+02  0.51100000000E-03 0. -1.
    9900012    2    1    2    0    0  0.10949783114E+02 -0.21837748419E+02  0.20492501433E+02  0.59301833387E+02  0.49999798218E+02 0.  0.
         12    1    1    2    0    0 -0.10949783114E+02  0.21837748419E+02 -0.20492501433E+02  0.31886166613E+02  0.00000000000E+00 0. -1.
         11    1    3    3    0    0  0.79658288582E+01  0.45247967145E+01 -0.20013464518E+01  0.93772918578E+01  0.51100000000E-03 0. -1.
        -11    1    3    3    0    0  0.50700101916E+01  0.81067625362E+01  0.80269189164E+01  0.12484231242E+02  0.51100000000E-03 0.  1.
         12    1    3    3    0    0 -0.20860559359E+01 -0.34469307670E+02  0.14466928969E+02  0.37440310287E+02  0.00000000000E+00 0. -1.
</event>
<event>
 7    1  0.6246445E-012  0.5930194E+02  0.7816164E-02  0.1266605E+00
        -11   -1    0    0    0    0  0.00000000000E+00  0.00000000000E+00  0.45593999997E+02  0.45594000000E+02  0.51100000000E-03 0.  1.
         11   -1    0    0    0    0 -0.00000000000E+00 -0.00000000000E+00 -0.45593999997E+02  0.45594000000E+02  0.51100000000E-03 0. -1.
    9900012    2    1    2    0    0 -0.13657510596E+02 -0.13235911993E+02  0.25593038036E+02  0.59301944147E+02  0.50000000218E+02 0.  0.
         12    1    1    2    0    0  0.13657510596E+02  0.13235911993E+02 -0.25593038036E+02  0.31886055853E+02  0.00000000000E+00 0. -1.
         11    1    3    3    0    0 -0.91291610249E+01  0.12932612593E+01 -0.38444546677E+01  0.99896915696E+01  0.51100000000E-03 0. -1.
        -11    1    3    3    0    0 -0.17315968190E+02 -0.18197590577E+02  0.24593367118E+02  0.35154356254E+02  0.51100000000E-03 0.  1.
        -12    1    3    3    0    0  0.12787618619E+02  0.36684173251E+01  0.48441255859E+01  0.14157896324E+02  0.00000000000E+00 0.  1.
</event>
<event>
 7    1  0.6246445E-012  0.5930193E+02  0.7816164E-02  0.1266605E+00
        -11   -1    0    0    0    0  0.00000000000E+00  0.00000000000E+00  0.45593999997E+02  0.45594000000E+02  0.51100000000E-03 0.  1.
         11   -1    0    0    0    0 -0.00000000000E+00 -0.00000000000E+00 -0.45593999997E+02  0.45594000000E+02  0.51100000000E-03 0. -1.
    9900012    2    1    2    0    0  0.26510542748E+02  0.75105979390E+01  0.16046921485E+02  0.59301927063E+02  0.49999969061E+02 0.  0.
         12    1    1    2    0    0 -0.26510542748E+02 -0.75105979390E+01 -0.16046921485E+02  0.31886072937E+02  0.00000000000E+00 0. -1.
         11    1    3    3    0    0  0.96557027466E+00 -0.40586060985E+01 -0.33979863782E+01  0.53806060166E+01  0.51100000000E-03 0. -1.
        -11    1    3    3    0    0 -0.10051445442E+02 -0.47264198245E+01  0.51620823305E+01  0.12248171050E+02  0.51100000000E-03 0.  1.
         12    1    3    3    0    0  0.35596417915E+02  0.16295623862E+02  0.14282825533E+02  0.41673149996E+02  0.00000000000E+00 0. -1.
</event>
<event>
 7    1  0.6246445E-012  0.5930196E+02  0.7816164E-02  0.1266605E+00
        -11   -1    0    0    0    0  0.00000000000E+00  0.00000000000E+00  0.45593999997E+02  0.45594000000E+02  0.51100000000E-03 0. -1.
         11   -1    0    0    0    0 -0.00000000000E+00 -0.00000000000E+00 -0.45593999997E+02  0.45594000000E+02  0.51100000000E-03 0.  1.
    9900012    2    1    2    0    0 -0.45056996019E+01  0.40584306808E+01 -0.31304112170E+02  0.59301958740E+02  0.50000026831E+02 0.  0.
         12    1    1    2    0    0  0.45056996019E+01 -0.40584306808E+01  0.31304112170E+02  0.31886041260E+02  0.00000000000E+00 0. -1.
         11    1    3    3    0    0 -0.13392566393E+02  0.46083719519E+01 -0.17162681500E+02  0.22252091209E+02  0.51100000000E-03 0. -1.
        -11    1    3    3    0    0 -0.11107839804E+01 -0.15794538315E+02 -0.84751082038E+01  0.17959085193E+02  0.51100000000E-03 0.  1.
         12    1    3    3    0    0  0.99976507718E+01  0.15244597044E+02 -0.56663224667E+01  0.19090782338E+02  0.00000000000E+00 0. -1.
</event>
<event>
 7    1  0.6246445E-012  0.5930201E+02  0.7816164E-02  0.1266605E+00
        -11   -1    0    0    0    0  0.00000000000E+00  0.00000000000E+00  0.45593999997E+02  0.45594000000E+02  0.51100000000E-03 0.  1.
         11   -1    0    0    0    0 -0.00000000000E+00 -0.00000000000E+00 -0.45593999997E+02  0.45594000000E+02  0.51100000000E-03 0. -1.
    9900012    2    1    2    0    0  0.29785456783E+01 -0.17748938804E+02  0.26321465875E+02  0.59302013598E+02  0.50000126880E+02 0.  0.
         12    1    1    2    0    0 -0.29785456783E+01  0.17748938804E+02 -0.26321465875E+02  0.31885986402E+02  0.00000000000E+00 0. -1.
         11    1    3    3    0    0 -0.41137068465E+01 -0.24904305007E+01  0.71825025199E+01  0.86436780833E+01  0.51100000000E-03 0. -1.
        -11    1    3    3    0    0 -0.10272283863E+02 -0.22807444527E+02  0.19505890173E+02  0.31720326186E+02  0.51100000000E-03 0.  1.
        -12    1    3    3    0    0  0.17364536388E+02  0.75489362240E+01 -0.36692681862E+00  0.18938009330E+02  0.00000000000E+00 0.  1.
</event>
<event>
 7    1  0.6246445E-012  0.5930194E+02  0.7816164E-02  0.1266605E+00
        -11   -1    0    0    0    0  0.00000000000E+00  0.00000000000E+00  0.45593999997E+02  0.45594000000E+02  0.51100000000E-03 0.  1.
         11   -1    0    0    0    0 -0.00000000000E+00 -0.00000000000E+00 -0.45593999997E+02  0.45594000000E+02  0.51100000000E-03 0. -1.
    9900012    2    1    2    0    0  0.14733531242E+02 -0.26757334067E+02  0.91481766091E+01  0.59301937144E+02  0.49999987445E+02 0.  0.
         12    1    1    2    0    0 -0.14733531242E+02  0.26757334067E+02 -0.91481766091E+01  0.31886062856E+02  0.00000000000E+00 0. -1.
         11    1    3    3    0    0  0.11020270969E+02 -0.16890990660E+02  0.19417678930E+01  0.20261352386E+02  0.51100000000E-03 0. -1.
        -11    1    3    3    0    0  0.12266891225E+02 -0.20402255046E+02  0.28776496724E+00  0.23807802087E+02  0.51100000000E-03 0.  1.
         12    1    3    3    0    0 -0.85536309521E+01  0.10535911640E+02  0.69186437488E+01  0.15232782670E+02  0.00000000000E+00 0. -1.
</event>
<event>
 7    1  0.6246445E-012  0.5930195E+02  0.7816164E-02  0.1266605E+00
        -11   -1    0    0    0    0  0.00000000000E+00  0.00000000000E+00  0.45593999997E+02  0.45594000000E+02  0.51100000000E-03 0.  1.
         11   -1    0    0    0    0 -0.00000000000E+00 -0.00000000000E+00 -0.45593999997E+02  0.45594000000E+02  0.51100000000E-03 0. -1.
    9900012    2    1    2    0    0  0.30468441467E+01  0.20063242872E+02  0.24594776923E+02  0.59301952491E+02  0.50000015436E+02 0.  0.
         12    1    1    2    0    0 -0.30468441467E+01 -0.20063242872E+02 -0.24594776923E+02  0.31886047509E+02  0.00000000000E+00 0. -1.
         11    1    3    3    0    0 -0.24233914549E-01 -0.54418598527E+00 -0.24714396249E+01  0.25307587300E+01  0.51100000000E-03 0. -1.
        -11    1    3    3    0    0 -0.73046935796E+01  0.17533585940E+01 -0.10836141874E+02  0.13185400473E+02  0.51100000000E-03 0.  1.
        -12    1    3    3    0    0  0.10375771641E+02  0.18854070264E+02  0.37902358422E+02  0.43585793289E+02  0.00000000000E+00 0.  1.
</event>
<event>
 7    1  0.6246445E-012  0.5930197E+02  0.7816164E-02  0.1266605E+00
        -11   -1    0    0    0    0  0.00000000000E+00  0.00000000000E+00  0.45593999997E+02  0.45594000000E+02  0.51100000000E-03 0.  1.
         11   -1    0    0    0    0 -0.00000000000E+00 -0.00000000000E+00 -0.45593999997E+02  0.45594000000E+02  0.51100000000E-03 0. -1.
    9900012    2    1    2    0    0  0.17111881565E+02  0.12035819116E+02  0.24063280137E+02  0.59301970403E+02  0.50000048102E+02 0.  0.
         12    1    1    2    0    0 -0.17111881565E+02 -0.12035819116E+02 -0.24063280137E+02  0.31886029597E+02  0.00000000000E+00 0. -1.
         11    1    3    3    0    0 -0.25397962290E+01 -0.65241864031E+01 -0.12455237621E+01  0.71110409090E+01  0.51100000000E-03 0. -1.
        -11    1    3    3    0    0  0.23130106556E+02  0.83975265842E+01 -0.97285211749E-01  0.24607514029E+02  0.51100000000E-03 0.  1.
         12    1    3    3    0    0 -0.34784287618E+01  0.10162478935E+02  0.25406089111E+02  0.27583415464E+02  0.00000000000E+00 0. -1.
</event>
<event>
 7    1  0.6246445E-012  0.5930194E+02  0.7816164E-02  0.1266605E+00
        -11   -1    0    0    0    0  0.00000000000E+00  0.00000000000E+00  0.45593999997E+02  0.45594000000E+02  0.51100000000E-03 0.  1.
         11   -1    0    0    0    0 -0.00000000000E+00 -0.00000000000E+00 -0.45593999997E+02  0.45594000000E+02  0.51100000000E-03 0. -1.
    9900012    2    1    2    0    0  0.16883087225E+02 -0.19953676384E+02  0.18262885176E+02  0.59301940187E+02  0.49999992995E+02 0.  0.
         12    1    1    2    0    0 -0.16883087225E+02  0.19953676384E+02 -0.18262885176E+02  0.31886059813E+02  0.00000000000E+00 0. -1.
         11    1    3    3    0    0  0.57758647388E+01 -0.98448104849E+01 -0.82454463074E+01  0.14080777395E+02  0.51100000000E-03 0. -1.
        -11    1    3    3    0    0  0.19304597461E+02  0.30939049069E+01  0.81852661573E+01  0.21195242698E+02  0.51100000000E-03 0.  1.
        -12    1    3    3    0    0 -0.81973749749E+01 -0.13202770806E+02  0.18323065326E+02  0.24025920094E+02  0.00000000000E+00 0.  1.
</event>
<event>
 7    1  0.6246445E-012  0.5930194E+02  0.7816164E-02  0.1266605E+00
        -11   -1    0    0    0    0  0.00000000000E+00  0.00000000000E+00  0.45593999997E+02  0.45594000000E+02  0.51100000000E-03 0.  1.
         11   -1    0    0    0    0 -0.00000000000E+00 -0.00000000000E+00 -0.45593999997E+02  0.45594000000E+02  0.51100000000E-03 0. -1.
    9900012    2    1    2    0    0 -0.22122643989E+01  0.19839777061E+02  0.24863824354E+02  0.59301943030E+02  0.49999998180E+02 0.  0.
         12    1    1    2    0    0  0.22122643989E+01 -0.19839777061E+02 -0.24863824354E+02  0.31886056970E+02  0.00000000000E+00 0. -1.
         11    1    3    3    0    0 -0.18708646227E+02  0.18181566809E+01  0.47263390321E+01  0.19381883765E+02  0.51100000000E-03 0. -1.
        -11    1    3    3    0    0  0.31275008819E+00  0.76611786502E+01  0.19207888859E+02  0.20681742325E+02  0.51100000000E-03 0.  1.
         12    1    3    3    0    0  0.16183631740E+02  0.10360441730E+02  0.92959646304E+00  0.19238316941E+02  0.00000000000E+00 0. -1.
</event>
<event>
 7    1  0.6246445E-012  0.5930194E+02  0.7816164E-02  0.1266605E+00
        -11   -1    0    0    0    0  0.00000000000E+00  0.00000000000E+00  0.45593999997E+02  0.45594000000E+02  0.51100000000E-03 0.  1.
         11   -1    0    0    0    0 -0.00000000000E+00 -0.00000000000E+00 -0.45593999997E+02  0.45594000000E+02  0.51100000000E-03 0. -1.
    9900012    2    1    2    0    0 -0.75745582786E+00 -0.23647228110E+02  0.21376517997E+02  0.59301942572E+02  0.49999997345E+02 0.  0.
         12    1    1    2    0    0  0.75745582786E+00  0.23647228110E+02 -0.21376517997E+02  0.31886057428E+02  0.00000000000E+00 0. -1.
         11    1    3    3    0    0 -0.36391926710E+01 -0.95429617298E+01  0.11946483832E+01  0.10282948356E+02  0.51100000000E-03 0. -1.
        -11    1    3    3    0    0  0.80402591074E+01 -0.11620638167E+02  0.32497909715E+02  0.35437256300E+02  0.51100000000E-03 0.  1.
         12    1    3    3    0    0 -0.51585222642E+01 -0.24836282128E+01 -0.12316040101E+02  0.13581737916E+02  0.00000000000E+00 0. -1.
</event>
<event>
 7    1  0.6246445E-012  0.5930195E+02  0.7816164E-02  0.1266605E+00
        -11   -1    0    0    0    0  0.00000000000E+00  0.00000000000E+00  0.45593999997E+02  0.45594000000E+02  0.51100000000E-03 0.  1.
         11   -1    0    0    0    0 -0.00000000000E+00 -0.00000000000E+00 -0.45593999997E+02  0.45594000000E+02  0.51100000000E-03 0. -1.
    9900012    2    1    2    0    0 -0.13524280129E+02  0.20203951941E+02  0.20630415465E+02  0.59301954944E+02  0.50000019909E+02 0.  0.
         12    1    1    2    0    0  0.13524280129E+02 -0.20203951941E+02 -0.20630415465E+02  0.31886045056E+02  0.00000000000E+00 0. -1.
         11    1    3    3    0    0 -0.13807472838E+02  0.23433581161E+02  0.94623320963E+01  0.28797825633E+02  0.51100000000E-03 0.  1.
        -11    1    3    3    0    0  0.13796324341E+02  0.57544272725E+00  0.84982368830E+01  0.16213874615E+02  0.51100000000E-03 0. -1.
         12    1    3    3    0    0 -0.13513131632E+02 -0.38050719473E+01  0.26698464860E+01  0.14290254696E+02  0.00000000000E+00 0. -1.
</event>
<event>
 7    1  0.6246445E-012  0.5930194E+02  0.7816164E-02  0.1266605E+00
        -11   -1    0    0    0    0  0.00000000000E+00  0.00000000000E+00  0.45593999997E+02  0.45594000000E+02  0.51100000000E-03 0. -1.
         11   -1    0    0    0    0 -0.00000000000E+00 -0.00000000000E+00 -0.45593999997E+02  0.45594000000E+02  0.51100000000E-03 0.  1.
    9900012    2    1    2    0    0 -0.22961564898E+02 -0.21037067073E+02 -0.68504902226E+01  0.59301939255E+02  0.49999991295E+02 0.  0.
         12    1    1    2    0    0  0.22961564898E+02  0.21037067073E+02  0.68504902226E+01  0.31886060745E+02  0.00000000000E+00 0. -1.
         11    1    3    3    0    0  0.19491546294E+01  0.12339939804E+01  0.15464672121E+02  0.15635793200E+02  0.51100000000E-03 0. -1.
        -11    1    3    3    0    0 -0.14026523850E+02 -0.16909631727E+01 -0.10168345883E+02  0.17406837335E+02  0.51100000000E-03 0.  1.
        -12    1    3    3    0    0 -0.10884195677E+02 -0.20580097880E+02 -0.12146816461E+02  0.26259308720E+02  0.00000000000E+00 0.  1.
</event>
<event>
 7    1  0.6246445E-012  0.5930195E+02  0.7816164E-02  0.1266605E+00
        -11   -1    0    0    0    0  0.00000000000E+00  0.00000000000E+00  0.45593999997E+02  0.45594000000E+02  0.51100000000E-03 0. -1.
         11   -1    0    0    0    0 -0.00000000000E+00 -0.00000000000E+00 -0.45593999997E+02  0.45594000000E+02  0.51100000000E-03 0.  1.
    9900012    2    1    2    0    0  0.12355518231E+02  0.12523698462E+02 -0.26593572465E+02  0.59301953673E+02  0.50000017590E+02 0.  0.
         12    1    1    2    0    0 -0.12355518231E+02 -0.12523698462E+02  0.26593572465E+02  0.31886046327E+02  0.00000000000E+00 0. -1.
         11    1    3    3    0    0  0.36829327605E+01 -0.17046950161E+00 -0.65758099805E+01  0.75388547359E+01  0.51100000000E-03 0.  1.
        -11    1    3    3    0    0  0.26713670291E+02  0.23362910044E+01 -0.13064042491E+02  0.29828637960E+02  0.51100000000E-03 0. -1.
         12    1    3    3    0    0 -0.18041084821E+02  0.10357876959E+02 -0.69537199944E+01  0.21934460977E+02  0.00000000000E+00 0. -1.
</event>
<event>
 7    1  0.6246445E-012  0.5930195E+02  0.7816164E-02  0.1266605E+00
        -11   -1    0    0    0    0  0.00000000000E+00  0.00000000000E+00  0.45593999997E+02  0.45594000000E+02  0.51100000000E-03 0.  1.
         11   -1    0    0    0    0 -0.00000000000E+00 -0.00000000000E+00 -0.45593999997E+02  0.45594000000E+02  0.51100000000E-03 0. -1.
    9900012    2    1    2    0    0  0.95642117733E+01  0.17853283477E+02  0.24627349792E+02  0.59301949202E+02  0.50000009436E+02 0.  0.
         12    1    1    2    0    0 -0.95642117733E+01 -0.17853283477E+02 -0.24627349792E+02  0.31886050798E+02  0.00000000000E+00 0. -1.
         11    1    3    3    0    0 -0.37325430366E+01  0.15996992986E+02  0.21287025146E+02  0.26888159140E+02  0.51100000000E-03 0. -1.
        -11    1    3    3    0    0  0.21419794535E+02  0.51537041626E+01  0.66968273184E+01  0.23026414418E+02  0.51100000000E-03 0.  1.
         12    1    3    3    0    0 -0.81230397255E+01 -0.32974136713E+01 -0.33565026723E+01  0.93873756445E+01  0.00000000000E+00 0. -1.
</event>
<event>
 7    1  0.6246445E-012  0.5930195E+02  0.7816164E-02  0.1266605E+00
        -11   -1    0    0    0    0  0.00000000000E+00  0.00000000000E+00  0.45593999997E+02  0.45594000000E+02  0.51100000000E-03 0. -1.
         11   -1    0    0    0    0 -0.00000000000E+00 -0.00000000000E+00 -0.45593999997E+02  0.45594000000E+02  0.51100000000E-03 0.  1.
    9900012    2    1    2    0    0  0.28256073717E+02 -0.96237779678E+00 -0.14744086892E+02  0.59301953346E+02  0.50000016995E+02 0.  0.
         12    1    1    2    0    0 -0.28256073717E+02  0.96237779678E+00  0.14744086892E+02  0.31886046654E+02  0.00000000000E+00 0. -1.
         11    1    3    3    0    0 -0.16691407672E+01 -0.59432002950E+01 -0.39727558179E+01  0.73410114901E+01  0.51100000000E-03 0. -1.
        -11    1    3    3    0    0 -0.32504103825E+01 -0.75500227647E+01 -0.14121606921E+02  0.16339761127E+02  0.51100000000E-03 0.  1.
        -12    1    3    3    0    0  0.33175624867E+02  0.12530845263E+02  0.33502758468E+01  0.35621180729E+02  0.00000000000E+00 0.  1.
</event>
<event>
 7    1  0.6246445E-012  0.5930195E+02  0.7816164E-02  0.1266605E+00
        -11   -1    0    0    0    0  0.00000000000E+00  0.00000000000E+00  0.45593999997E+02  0.45594000000E+02  0.51100000000E-03 0.  1.
         11   -1    0    0    0    0 -0.00000000000E+00 -0.00000000000E+00 -0.45593999997E+02  0.45594000000E+02  0.51100000000E-03 0. -1.
    9900012    2    1    2    0    0 -0.30718083259E+02 -0.29297328436E+01  0.80334601263E+01  0.59301945757E+02  0.50000003153E+02 0.  0.
         12    1    1    2    0    0  0.30718083259E+02  0.29297328436E+01 -0.80334601263E+01  0.31886054243E+02  0.00000000000E+00 0. -1.
         11    1    3    3    0    0 -0.13096692335E+02  0.14458430201E+02 -0.10583360800E+02  0.22194077590E+02  0.51100000000E-03 0. -1.
        -11    1    3    3    0    0 -0.82440592109E+01  0.34444215804E+00  0.14420456308E+02  0.16614232244E+02  0.51100000000E-03 0.  1.
        -12    1    3    3    0    0 -0.93773317130E+01 -0.17732605202E+02  0.41963646188E+01  0.20493635923E+02  0.00000000000E+00 0.  1.
</event>
<event>
 7    1  0.6246445E-012  0.5930195E+02  0.7816164E-02  0.1266605E+00
        -11   -1    0    0    0    0  0.00000000000E+00  0.00000000000E+00  0.45593999997E+02  0.45594000000E+02  0.51100000000E-03 0.  1.
         11   -1    0    0    0    0 -0.00000000000E+00 -0.00000000000E+00 -0.45593999997E+02  0.45594000000E+02  0.51100000000E-03 0. -1.
    9900012    2    1    2    0    0 -0.22714201345E+01  0.64262784432E+01  0.31149054670E+02  0.59301952724E+02  0.50000015859E+02 0.  0.
         12    1    1    2    0    0  0.22714201345E+01 -0.64262784432E+01 -0.31149054670E+02  0.31886047276E+02  0.00000000000E+00 0. -1.
         11    1    3    3    0    0 -0.58988666859E+01  0.22212096358E+01  0.82658559859E+00  0.63571726764E+01  0.51100000000E-03 0. -1.
        -11    1    3    3    0    0 -0.16557048718E+02  0.11272090482E+02  0.67972038728E+01  0.21151781647E+02  0.51100000000E-03 0.  1.
        -12    1    3    3    0    0  0.20184495269E+02 -0.70670216751E+01  0.23525265199E+02  0.31792998401E+02  0.00000000000E+00 0.  1.
</event>
<event>
 7    1  0.6246445E-012  0.5930197E+02  0.7816164E-02  0.1266605E+00
        -11   -1    0    0    0    0  0.00000000000E+00  0.00000000000E+00  0.45593999997E+02  0.45594000000E+02  0.51100000000E-03 0.  1.
         11   -1    0    0    0    0 -0.00000000000E+00 -0.00000000000E+00 -0.45593999997E+02  0.45594000000E+02  0.51100000000E-03 0. -1.
    9900012    2    1    2    0    0 -0.16461016292E+02  0.22607769435E+02  0.15318052063E+02  0.59301968337E+02  0.50000044335E+02 0.  0.
         12    1    1    2    0    0  0.16461016292E+02 -0.22607769435E+02 -0.15318052063E+02  0.31886031663E+02  0.00000000000E+00 0. -1.
         11    1    3    3    0    0 -0.20230600900E+01  0.20789669787E+02 -0.23242248374E+01  0.21016782897E+02  0.51100000000E-03 0. -1.
        -11    1    3    3    0    0  0.89361250810E+01  0.36866207776E+01  0.92516664493E+01  0.13380539472E+02  0.51100000000E-03 0.  1.
        -12    1    3    3    0    0 -0.23374081283E+02 -0.18685211297E+01  0.83906104511E+01  0.24904645968E+02  0.00000000000E+00 0.  1.
</event>
<event>
 7    1  0.6246445E-012  0.5930193E+02  0.7816164E-02  0.1266605E+00
        -11   -1    0    0    0    0  0.00000000000E+00  0.00000000000E+00  0.45593999997E+02  0.45594000000E+02  0.51100000000E-03 0.  1.
         11   -1    0    0    0    0 -0.00000000000E+00 -0.00000000000E+00 -0.45593999997E+02  0.45594000000E+02  0.51100000000E-03 0. -1.
    9900012    2    1    2    0    0 -0.10887738754E+02  0.27450947016E+02  0.12025967495E+02  0.59301933427E+02  0.49999980668E+02 0.  0.
         12    1    1    2    0    0  0.10887738754E+02 -0.27450947016E+02 -0.12025967495E+02  0.31886066573E+02  0.00000000000E+00 0. -1.
         11    1    3    3    0    0 -0.47230162192E+01 -0.30944335978E+01 -0.46623959442E+01  0.73225909144E+01  0.51100000000E-03 0. -1.
        -11    1    3    3    0    0 -0.93472697343E+01 -0.69180037873E+01  0.38574179171E+01  0.12251934587E+02  0.51100000000E-03 0.  1.
        -12    1    3    3    0    0  0.31825471994E+01  0.37463384402E+02  0.12830945522E+02  0.39727407926E+02  0.00000000000E+00 0.  1.
</event>
<event>
 7    1  0.6246445E-012  0.5930194E+02  0.7816164E-02  0.1266605E+00
        -11   -1    0    0    0    0  0.00000000000E+00  0.00000000000E+00  0.45593999997E+02  0.45594000000E+02  0.51100000000E-03 0.  1.
         11   -1    0    0    0    0 -0.00000000000E+00 -0.00000000000E+00 -0.45593999997E+02  0.45594000000E+02  0.51100000000E-03 0. -1.
    9900012    2    1    2    0    0  0.54077077959E+01  0.16085933033E+02  0.26994822395E+02  0.59301937507E+02  0.49999988108E+02 0.  0.
         12    1    1    2    0    0 -0.54077077959E+01 -0.16085933033E+02 -0.26994822395E+02  0.31886062493E+02  0.00000000000E+00 0. -1.
         11    1    3    3    0    0 -0.15471835060E+02  0.15843110790E+01  0.52884863128E+01  0.16427288561E+02  0.51100000000E-03 0. -1.
        -11    1    3    3    0    0  0.24866063535E+01  0.26983324463E+01  0.20672619722E+02  0.20995747559E+02  0.51100000000E-03 0.  1.
        -12    1    3    3    0    0  0.18392936502E+02  0.11803289508E+02  0.10337163606E+01  0.21878901387E+02  0.00000000000E+00 0.  1.
</event>
<event>
 7    1  0.6246445E-012  0.5930191E+02  0.7816164E-02  0.1266605E+00
        -11   -1    0    0    0    0  0.00000000000E+00  0.00000000000E+00  0.45593999997E+02  0.45594000000E+02  0.51100000000E-03 0. -1.
         11   -1    0    0    0    0 -0.00000000000E+00 -0.00000000000E+00 -0.45593999997E+02  0.45594000000E+02  0.51100000000E-03 0.  1.
    9900012    2    1    2    0    0  0.24756151780E+02 -0.66066661290E+01 -0.18979140265E+02  0.59301908150E+02  0.49999934567E+02 0.  0.
         12    1    1    2    0    0 -0.24756151780E+02  0.66066661290E+01  0.18979140265E+02  0.31886091850E+02  0.00000000000E+00 0. -1.
         11    1    3    3    0    0 -0.63491196449E+01  0.31274691424E+01  0.72419769225E+01  0.10126135171E+02  0.51100000000E-03 0. -1.
        -11    1    3    3    0    0 -0.45252523499E+01 -0.36337481894E+00 -0.13937752022E+01  0.47489535336E+01  0.51100000000E-03 0.  1.
        -12    1    3    3    0    0  0.35630523774E+02 -0.93707604525E+01 -0.24827341986E+02  0.44426819445E+02  0.00000000000E+00 0.  1.
</event>
<event>
 7    1  0.6246445E-012  0.5930173E+02  0.7816164E-02  0.1266605E+00
        -11   -1    0    0    0    0  0.00000000000E+00  0.00000000000E+00  0.45593999997E+02  0.45594000000E+02  0.51100000000E-03 0.  1.
         11   -1    0    0    0    0 -0.00000000000E+00 -0.00000000000E+00 -0.45593999997E+02  0.45594000000E+02  0.51100000000E-03 0. -1.
    9900012    2    1    2    0    0  0.20092508924E+02  0.52575445057E+01  0.24194696119E+02  0.59301733216E+02  0.49999615529E+02 0.  0.
         12    1    1    2    0    0 -0.20092508924E+02 -0.52575445057E+01 -0.24194696119E+02  0.31886266784E+02  0.00000000000E+00 0. -1.
         11    1    3    3    0    0 -0.54708741669E+00 -0.71851658319E+01  0.67718703308E+01  0.98885863859E+01  0.51100000000E-03 0. -1.
        -11    1    3    3    0    0  0.24755492928E+02 -0.53972242481E+01  0.18025357058E+02  0.31094661230E+02  0.51100000000E-03 0.  1.
         12    1    3    3    0    0 -0.41158965873E+01  0.17839934586E+02 -0.60253126967E+00  0.18318485600E+02  0.00000000000E+00 0. -1.
</event>
<event>
 7    1  0.6546168E-012  0.5930194E+02  0.7816164E-02  0.1266605E+00
        -11   -1    0    0    0    0  0.00000000000E+00  0.00000000000E+00  0.45593999997E+02  0.45594000000E+02  0.51100000000E-03 0. -1.
         11   -1    0    0    0    0 -0.00000000000E+00 -0.00000000000E+00 -0.45593999997E+02  0.45594000000E+02  0.51100000000E-03 0.  1.
    9900012    2    1    2    0    0 -0.11112414854E+02  0.19027594047E+02 -0.23047464097E+02  0.59301941912E+02  0.49999996142E+02 0.  0.
         12    1    1    2    0    0  0.11112414854E+02 -0.19027594047E+02  0.23047464097E+02  0.31886058088E+02  0.00000000000E+00 0. -1.
         11    1    3    3    0    0 -0.13252576010E+00  0.17298653859E+02 -0.14375756146E+02  0.22492740016E+02  0.51100000000E-03 0. -1.
        -11    1    3    3    0    0 -0.26872171164E+01  0.17618570568E+02 -0.36031216927E+01  0.18182894458E+02  0.51100000000E-03 0.  1.
         12    1    3    3    0    0 -0.82926719771E+01 -0.15889630380E+02 -0.50685862581E+01  0.18626307438E+02  0.00000000000E+00 0. -1.
</event>
<event>
 7    1  0.6246445E-012  0.5930193E+02  0.7816164E-02  0.1266605E+00
        -11   -1    0    0    0    0  0.00000000000E+00  0.00000000000E+00  0.45593999997E+02  0.45594000000E+02  0.51100000000E-03 0.  1.
         11   -1    0    0    0    0 -0.00000000000E+00 -0.00000000000E+00 -0.45593999997E+02  0.45594000000E+02  0.51100000000E-03 0. -1.
    9900012    2    1    2    0    0  0.49309351575E+01  0.79113007298E+01  0.30492927949E+02  0.59301930068E+02  0.49999974542E+02 0.  0.
         12    1    1    2    0    0 -0.49309351575E+01 -0.79113007298E+01 -0.30492927949E+02  0.31886069932E+02  0.00000000000E+00 0. -1.
         11    1    3    3    0    0 -0.19029829202E+01  0.22125477213E+01 -0.46149631290E+01  0.54602743847E+01  0.51100000000E-03 0. -1.
        -11    1    3    3    0    0  0.15275459348E+02  0.16418390880E+02  0.85806515571E+01  0.24011055761E+02  0.51100000000E-03 0.  1.
         12    1    3    3    0    0 -0.84415412705E+01 -0.10719637871E+02  0.26527239521E+02  0.29830599922E+02  0.00000000000E+00 0. -1.
</event>
<event>
 7    1  0.6246445E-012  0.5930194E+02  0.7816164E-02  0.1266605E+00
        -11   -1    0    0    0    0  0.00000000000E+00  0.00000000000E+00  0.45593999997E+02  0.45594000000E+02  0.51100000000E-03 0.  1.
         11   -1    0    0    0    0 -0.00000000000E+00 -0.00000000000E+00 -0.45593999997E+02  0.45594000000E+02  0.51100000000E-03 0. -1.
    9900012    2    1    2    0    0  0.24924555735E+02  0.84916732205E+00  0.19868729512E+02  0.59301937588E+02  0.49999988256E+02 0.  0.
         12    1    1    2    0    0 -0.24924555735E+02 -0.84916732205E+00 -0.19868729512E+02  0.31886062412E+02  0.00000000000E+00 0. -1.
         11    1    3    3    0    0  0.73176853020E+01  0.52607977241E+00 -0.48950924383E+01  0.88197056837E+01  0.51100000000E-03 0. -1.
        -11    1    3    3    0    0  0.16489951572E+02  0.16854021518E+02  0.24368769152E+02  0.33908899340E+02  0.51100000000E-03 0.  1.
         12    1    3    3    0    0  0.11169188606E+01 -0.16530933968E+02  0.39505279756E+00  0.16573332565E+02  0.00000000000E+00 0. -1.
</event>
<event>
 7    1  0.6246445E-012  0.5930196E+02  0.7816164E-02  0.1266605E+00
        -11   -1    0    0    0    0  0.00000000000E+00  0.00000000000E+00  0.45593999997E+02  0.45594000000E+02  0.51100000000E-03 0. -1.
         11   -1    0    0    0    0 -0.00000000000E+00 -0.00000000000E+00 -0.45593999997E+02  0.45594000000E+02  0.51100000000E-03 0.  1.
    9900012    2    1    2    0    0 -0.29898510907E+02 -0.58259718964E+01 -0.94263968394E+01  0.59301955084E+02  0.50000020164E+02 0.  0.
         12    1    1    2    0    0  0.29898510907E+02  0.58259718964E+01  0.94263968394E+01  0.31886044916E+02  0.00000000000E+00 0. -1.
         11    1    3    3    0    0  0.10520156186E+02  0.77166159652E+01 -0.40736627259E+01  0.13668012891E+02  0.51100000000E-03 0. -1.
        -11    1    3    3    0    0  0.57748596047E+00 -0.65222000099E+00  0.18637581163E+01  0.20572981168E+01  0.51100000000E-03 0.  1.
        -12    1    3    3    0    0 -0.40996153054E+02 -0.12890367861E+02 -0.72164922299E+01  0.43576644076E+02  0.00000000000E+00 0.  1.
</event>
<event>
 7    1  0.6246445E-012  0.5930198E+02  0.7816164E-02  0.1266605E+00
        -11   -1    0    0    0    0  0.00000000000E+00  0.00000000000E+00  0.45593999997E+02  0.45594000000E+02  0.51100000000E-03 0.  1.
         11   -1    0    0    0    0 -0.00000000000E+00 -0.00000000000E+00 -0.45593999997E+02  0.45594000000E+02  0.51100000000E-03 0. -1.
    9900012    2    1    2    0    0 -0.11007397884E+02 -0.94760826331E+01  0.28385896819E+02  0.59301982869E+02  0.50000070838E+02 0.  0.
         12    1    1    2    0    0  0.11007397884E+02  0.94760826331E+01 -0.28385896819E+02  0.31886017131E+02  0.00000000000E+00 0. -1.
         11    1    3    3    0    0 -0.13844561012E+02 -0.15959803263E+02  0.25086124938E-01  0.21127891977E+02  0.51100000000E-03 0. -1.
        -11    1    3    3    0    0  0.96014334814E+01  0.88432113968E+01  0.54080304700E+01  0.14129285422E+02  0.51100000000E-03 0.  1.
        -12    1    3    3    0    0 -0.67642703530E+01 -0.23594907668E+01  0.22952780224E+02  0.24044805470E+02  0.00000000000E+00 0.  1.
</event>
<event>
 7    1  0.6246445E-012  0.5930195E+02  0.7816164E-02  0.1266605E+00
        -11   -1    0    0    0    0  0.00000000000E+00  0.00000000000E+00  0.45593999997E+02  0.45594000000E+02  0.51100000000E-03 0.  1.
         11   -1    0    0    0    0 -0.00000000000E+00 -0.00000000000E+00 -0.45593999997E+02  0.45594000000E+02  0.51100000000E-03 0. -1.
    9900012    2    1    2    0    0  0.10462320645E+02 -0.93579940562E+01  0.28630193176E+02  0.59301950271E+02  0.50000011385E+02 0.  0.
         12    1    1    2    0    0 -0.10462320645E+02  0.93579940562E+01 -0.28630193176E+02  0.31886049729E+02  0.00000000000E+00 0. -1.
         11    1    3    3    0    0 -0.12760974524E+02 -0.58111174353E+01  0.77280263127E+01  0.16010432461E+02  0.51100000000E-03 0. -1.
        -11    1    3    3    0    0  0.63017229510E+01  0.79117623806E+00 -0.75738067437E+01  0.98843422059E+01  0.51100000000E-03 0.  1.
        -12    1    3    3    0    0  0.16921572218E+02 -0.43380528590E+01  0.28475973607E+02  0.33407175604E+02  0.00000000000E+00 0.  1.
</event>
<event>
 7    1  0.6246445E-012  0.5930191E+02  0.7816164E-02  0.1266605E+00
        -11   -1    0    0    0    0  0.00000000000E+00  0.00000000000E+00  0.45593999997E+02  0.45594000000E+02  0.51100000000E-03 0.  1.
         11   -1    0    0    0    0 -0.00000000000E+00 -0.00000000000E+00 -0.45593999997E+02  0.45594000000E+02  0.51100000000E-03 0. -1.
    9900012    2    1    2    0    0 -0.38292495021E+01 -0.17889344199E+02  0.26115722965E+02  0.59301909402E+02  0.49999936851E+02 0.  0.
         12    1    1    2    0    0  0.38292495021E+01  0.17889344199E+02 -0.26115722965E+02  0.31886090598E+02  0.00000000000E+00 0. -1.
         11    1    3    3    0    0  0.63269121879E+01 -0.18054200817E+02 -0.54192705963E+01  0.19883472509E+02  0.51100000000E-03 0. -1.
        -11    1    3    3    0    0  0.45678587900E+01  0.55143249805E+01  0.54812907872E+01  0.90176306684E+01  0.51100000000E-03 0.  1.
         12    1    3    3    0    0 -0.14724020480E+02 -0.53494683625E+01  0.26053702774E+02  0.30400806225E+02  0.00000000000E+00 0. -1.
</event>
<event>
 7    1  0.6868053E-012  0.5930196E+02  0.7816164E-02  0.1266605E+00
        -11   -1    0    0    0    0  0.00000000000E+00  0.00000000000E+00  0.45593999997E+02  0.45594000000E+02  0.51100000000E-03 0. -1.
         11   -1    0    0    0    0 -0.00000000000E+00 -0.00000000000E+00 -0.45593999997E+02  0.45594000000E+02  0.51100000000E-03 0.  1.
    9900012    2    1    2    0    0 -0.29338307980E+02 -0.12488699064E+02 -0.12424943032E+00  0.59301962972E+02  0.50000034549E+02 0.  0.
         12    1    1    2    0    0  0.29338307980E+02  0.12488699064E+02  0.12424943032E+00  0.31886037028E+02  0.00000000000E+00 0. -1.
         11    1    3    3    0    0 -0.12826723453E+02 -0.18980168675E+02 -0.74093118092E+01  0.24076327361E+02  0.51100000000E-03 0. -1.
        -11    1    3    3    0    0 -0.18127143956E+02  0.20731756099E+01 -0.74876281999E+01  0.19721966977E+02  0.51100000000E-03 0.  1.
         12    1    3    3    0    0  0.16155594287E+01  0.44182940013E+01  0.14772690579E+02  0.15503668633E+02  0.00000000000E+00 0. -1.
</event>
<event>
 7    1  0.6246445E-012  0.5930193E+02  0.7816164E-02  0.1266605E+00
        -11   -1    0    0    0    0  0.00000000000E+00  0.00000000000E+00  0.45593999997E+02  0.45594000000E+02  0.51100000000E-03 0. -1.
         11   -1    0    0    0    0 -0.00000000000E+00 -0.00000000000E+00 -0.45593999997E+02  0.45594000000E+02  0.51100000000E-03 0.  1.
    9900012    2    1    2    0    0 -0.16794769290E+02 -0.20341085679E+02 -0.17913604084E+02  0.59301933240E+02  0.49999980327E+02 0.  0.
         12    1    1    2    0    0  0.16794769290E+02  0.20341085679E+02  0.17913604084E+02  0.31886066760E+02  0.00000000000E+00 0. -1.
         11    1    3    3    0    0 -0.19414846537E+02  0.18201202998E+01  0.29627783398E+01  0.19723771437E+02  0.51100000000E-03 0. -1.
        -11    1    3    3    0    0 -0.39953788363E+01 -0.26164298131E+01  0.47104482514E+01  0.67079862852E+01  0.51100000000E-03 0.  1.
        -12    1    3    3    0    0  0.66154560833E+01 -0.19544776166E+02 -0.25586830675E+02  0.32870175518E+02  0.00000000000E+00 0.  1.
</event>
<event>
 7    1  0.6246445E-012  0.5930194E+02  0.7816164E-02  0.1266605E+00
        -11   -1    0    0    0    0  0.00000000000E+00  0.00000000000E+00  0.45593999997E+02  0.45594000000E+02  0.51100000000E-03 0.  1.
         11   -1    0    0    0    0 -0.00000000000E+00 -0.00000000000E+00 -0.45593999997E+02  0.45594000000E+02  0.51100000000E-03 0. -1.
    9900012    2    1    2    0    0  0.18573523158E+02 -0.10144547138E+02  0.23850228577E+02  0.59301937177E+02  0.49999987507E+02 0.  0.
         12    1    1    2    0    0 -0.18573523158E+02  0.10144547138E+02 -0.23850228577E+02  0.31886062823E+02  0.00000000000E+00 0. -1.
         11    1    3    3    0    0 -0.78061455760E+01 -0.90284932871E+01  0.11114469986E+02  0.16308925259E+02  0.51100000000E-03 0. -1.
        -11    1    3    3    0    0  0.22123890342E+02 -0.13413491348E+02  0.14816472865E+02  0.29814696753E+02  0.51100000000E-03 0.  1.
        -12    1    3    3    0    0  0.42557783917E+01  0.12297437497E+02 -0.20807142740E+01  0.13178315165E+02  0.00000000000E+00 0.  1.
</event>
<event>
 7    1  0.6246445E-012  0.5930193E+02  0.7816164E-02  0.1266605E+00
        -11   -1    0    0    0    0  0.00000000000E+00  0.00000000000E+00  0.45593999997E+02  0.45594000000E+02  0.51100000000E-03 0. -1.
         11   -1    0    0    0    0 -0.00000000000E+00 -0.00000000000E+00 -0.45593999997E+02  0.45594000000E+02  0.51100000000E-03 0.  1.
    9900012    2    1    2    0    0 -0.28743360096E+02  0.72284033842E+01 -0.11759726500E+02  0.59301925729E+02  0.49999966627E+02 0.  0.
         12    1    1    2    0    0  0.28743360096E+02 -0.72284033842E+01  0.11759726500E+02  0.31886074271E+02  0.00000000000E+00 0. -1.
         11    1    3    3    0    0  0.24577700904E+01  0.29369619995E+01  0.16162113588E+01  0.41567438003E+01  0.51100000000E-03 0. -1.
        -11    1    3    3    0    0 -0.27816592154E+02  0.20487841302E+02 -0.11398831380E+01  0.34566078374E+02  0.51100000000E-03 0.  1.
        -12    1    3    3    0    0 -0.33845380317E+01 -0.16196399917E+02 -0.12236054721E+02  0.20579103555E+02  0.00000000000E+00 0.  1.
</event>
<event>
 7    1  0.6246445E-012  0.5930192E+02  0.7816164E-02  0.1266605E+00
        -11   -1    0    0    0    0  0.00000000000E+00  0.00000000000E+00  0.45593999997E+02  0.45594000000E+02  0.51100000000E-03 0.  1.
         11   -1    0    0    0    0 -0.00000000000E+00 -0.00000000000E+00 -0.45593999997E+02  0.45594000000E+02  0.51100000000E-03 0. -1.
    9900012    2    1    2    0    0  0.30500759114E+02  0.18374264338E+01  0.91131672453E+01  0.59301917461E+02  0.49999951548E+02 0.  0.
         12    1    1    2    0    0 -0.30500759114E+02 -0.18374264338E+01 -0.91131672453E+01  0.31886082539E+02  0.00000000000E+00 0. -1.
         11    1    3    3    0    0  0.29479802197E+02 -0.11465953514E+02 -0.98353441679E+01  0.33124927513E+02  0.51100000000E-03 0. -1.
        -11    1    3    3    0    0 -0.19860814898E+01  0.45264372763E+01 -0.14888465566E+00  0.49452321485E+01  0.51100000000E-03 0.  1.
        -12    1    3    3    0    0  0.30070384073E+01  0.87769426717E+01  0.19097396069E+02  0.21231757800E+02  0.00000000000E+00 0.  1.
</event>
<event>
 7    1  0.6246445E-012  0.5930195E+02  0.7816164E-02  0.1266605E+00
        -11   -1    0    0    0    0  0.00000000000E+00  0.00000000000E+00  0.45593999997E+02  0.45594000000E+02  0.51100000000E-03 0. -1.
         11   -1    0    0    0    0 -0.00000000000E+00 -0.00000000000E+00 -0.45593999997E+02  0.45594000000E+02  0.51100000000E-03 0.  1.
    9900012    2    1    2    0    0  0.27604962732E+00 -0.25469867647E+02 -0.19181502184E+02  0.59301946820E+02  0.50000005092E+02 0.  0.
         12    1    1    2    0    0 -0.27604962732E+00  0.25469867647E+02  0.19181502184E+02  0.31886053180E+02  0.00000000000E+00 0. -1.
         11    1    3    3    0    0 -0.11861517485E+02 -0.13668479991E+02 -0.13348329604E+01  0.18146755126E+02  0.51100000000E-03 0. -1.
        -11    1    3    3    0    0 -0.10148975890E+02 -0.10267122241E+02 -0.96251193137E+01  0.17351035496E+02  0.51100000000E-03 0.  1.
         12    1    3    3    0    0  0.22286543002E+02 -0.15342654155E+01 -0.82215499101E+01  0.23804156197E+02  0.00000000000E+00 0. -1.
</event>
<event>
 7    1  0.6246445E-012  0.5930178E+02  0.7816164E-02  0.1266605E+00
        -11   -1    0    0    0    0  0.00000000000E+00  0.00000000000E+00  0.45593999997E+02  0.45594000000E+02  0.51100000000E-03 0.  1.
         11   -1    0    0    0    0 -0.00000000000E+00 -0.00000000000E+00 -0.45593999997E+02  0.45594000000E+02  0.51100000000E-03 0. -1.
    9900012    2    1    2    0    0 -0.31777149493E+02  0.83609529670E+00 -0.24989524960E+01  0.59301779641E+02  0.49999700197E+02 0.  0.
         12    1    1    2    0    0  0.31777149493E+02 -0.83609529670E+00  0.24989524960E+01  0.31886220359E+02  0.00000000000E+00 0. -1.
         11    1    3    3    0    0 -0.37067762469E+02  0.66822145308E+01 -0.96349985472E+01  0.38878068403E+02  0.51100000000E-03 0.  1.
        -11    1    3    3    0    0 -0.47866190139E+01  0.22534006598E+01 -0.65186380424E+00  0.53305218129E+01  0.51100000000E-03 0. -1.
        -12    1    3    3    0    0  0.10077231990E+02 -0.80995198939E+01  0.77879098554E+01  0.15093189425E+02  0.00000000000E+00 0.  1.
</event>
<event>
 7    1  0.6246445E-012  0.5930194E+02  0.7816164E-02  0.1266605E+00
        -11   -1    0    0    0    0  0.00000000000E+00  0.00000000000E+00  0.45593999997E+02  0.45594000000E+02  0.51100000000E-03 0.  1.
         11   -1    0    0    0    0 -0.00000000000E+00 -0.00000000000E+00 -0.45593999997E+02  0.45594000000E+02  0.51100000000E-03 0. -1.
    9900012    2    1    2    0    0 -0.23985407453E+02  0.25757490656E+01  0.20851534664E+02  0.59301941107E+02  0.49999994673E+02 0.  0.
         12    1    1    2    0    0  0.23985407453E+02 -0.25757490656E+01 -0.20851534664E+02  0.31886058893E+02  0.00000000000E+00 0. -1.
         11    1    3    3    0    0 -0.52039656884E+01  0.30096420526E+01 -0.85017789947E+01  0.10412466111E+02  0.51100000000E-03 0. -1.
        -11    1    3    3    0    0 -0.11023090167E+02  0.13778556219E+02  0.29117267519E+01  0.17883939198E+02  0.51100000000E-03 0.  1.
        -12    1    3    3    0    0 -0.77583515976E+01 -0.14212449207E+02  0.26441586907E+02  0.31005535798E+02  0.00000000000E+00 0.  1.
</event>
<event>
 7    1  0.6246445E-012  0.5930196E+02  0.7816164E-02  0.1266605E+00
        -11   -1    0    0    0    0  0.00000000000E+00  0.00000000000E+00  0.45593999997E+02  0.45594000000E+02  0.51100000000E-03 0. -1.
         11   -1    0    0    0    0 -0.00000000000E+00 -0.00000000000E+00 -0.45593999997E+02  0.45594000000E+02  0.51100000000E-03 0.  1.
    9900012    2    1    2    0    0  0.10944374976E+02 -0.29473610104E+02  0.53147561777E+01  0.59301958079E+02  0.50000025626E+02 0.  0.
         12    1    1    2    0    0 -0.10944374976E+02  0.29473610104E+02 -0.53147561777E+01  0.31886041921E+02  0.00000000000E+00 0. -1.
         11    1    3    3    0    0  0.55981037234E+01  0.65852945722E+01 -0.27203090952E+01  0.90611782752E+01  0.51100000000E-03 0. -1.
        -11    1    3    3    0    0  0.18106727799E+02 -0.10445977972E+02  0.47546436238E+01  0.21437786351E+02  0.51100000000E-03 0.  1.
        -12    1    3    3    0    0 -0.12760456546E+02 -0.25612926704E+02  0.32804216490E+01  0.28802993452E+02  0.00000000000E+00 0.  1.
</event>
<event>
 7    1  0.6246445E-012  0.5930196E+02  0.7816164E-02  0.1266605E+00
        -11   -1    0    0    0    0  0.00000000000E+00  0.00000000000E+00  0.45593999997E+02  0.45594000000E+02  0.51100000000E-03 0. -1.
         11   -1    0    0    0    0 -0.00000000000E+00 -0.00000000000E+00 -0.45593999997E+02  0.45594000000E+02  0.51100000000E-03 0.  1.
    9900012    2    1    2    0    0  0.92636162742E+01 -0.10956169014E+02 -0.28475732418E+02  0.59301959752E+02  0.50000028678E+02 0.  0.
         12    1    1    2    0    0 -0.92636162742E+01  0.10956169014E+02  0.28475732418E+02  0.31886040248E+02  0.00000000000E+00 0. -1.
         11    1    3    3    0    0 -0.18726295750E+01 -0.69477951079E+01 -0.23356334685E+01  0.75653012066E+01  0.51100000000E-03 0. -1.
        -11    1    3    3    0    0 -0.14631145435E+01  0.10123668305E+02  0.78063843306E+01  0.12867361839E+02  0.51100000000E-03 0.  1.
        -12    1    3    3    0    0  0.12599360393E+02 -0.14132042211E+02 -0.33946483280E+02  0.38869296706E+02  0.00000000000E+00 0.  1.
</event>
<event>
 7    1  0.6246445E-012  0.5930194E+02  0.7816164E-02  0.1266605E+00
        -11   -1    0    0    0    0  0.00000000000E+00  0.00000000000E+00  0.45593999997E+02  0.45594000000E+02  0.51100000000E-03 0.  1.
         11   -1    0    0    0    0 -0.00000000000E+00 -0.00000000000E+00 -0.45593999997E+02  0.45594000000E+02  0.51100000000E-03 0. -1.
    9900012    2    1    2    0    0 -0.12938000112E+02  0.21742096331E+02  0.19406448666E+02  0.59301939572E+02  0.49999991874E+02 0.  0.
         12    1    1    2    0    0  0.12938000112E+02 -0.21742096331E+02 -0.19406448666E+02  0.31886060428E+02  0.00000000000E+00 0. -1.
         11    1    3    3    0    0 -0.84603363111E+01 -0.15675357335E+01  0.78491719704E+01  0.11646628682E+02  0.51100000000E-03 0.  1.
        -11    1    3    3    0    0  0.10818323937E+02  0.23214640664E+02  0.17741362044E+02  0.31156244982E+02  0.51100000000E-03 0. -1.
         12    1    3    3    0    0 -0.15295987738E+02  0.94991400206E-01 -0.61840853482E+01  0.16499065908E+02  0.00000000000E+00 0. -1.
</event>
<event>
 7    1  0.6246445E-012  0.5930193E+02  0.7816164E-02  0.1266605E+00
        -11   -1    0    0    0    0  0.00000000000E+00  0.00000000000E+00  0.45593999997E+02  0.45594000000E+02  0.51100000000E-03 0. -1.
         11   -1    0    0    0    0 -0.00000000000E+00 -0.00000000000E+00 -0.45593999997E+02  0.45594000000E+02  0.51100000000E-03 0.  1.
    9900012    2    1    2    0    0 -0.12553347697E+02  0.19568092353E+02 -0.21822578689E+02  0.59301925965E+02  0.49999967057E+02 0.  0.
         12    1    1    2    0    0  0.12553347697E+02 -0.19568092353E+02  0.21822578689E+02  0.31886074035E+02  0.00000000000E+00 0. -1.
         11    1    3    3    0    0  0.13190661446E+02  0.71585023929E+01 -0.50902849597E+01  0.15847671978E+02  0.51100000000E-03 0. -1.
        -11    1    3    3    0    0  0.57083478194E+01  0.20457176035E+01  0.57035049603E+00  0.60906071364E+01  0.51100000000E-03 0.  1.
        -12    1    3    3    0    0 -0.31452356963E+02  0.10363872357E+02 -0.17302644225E+02  0.37363646850E+02  0.00000000000E+00 0.  1.
</event>
<event>
 7    1  0.6246445E-012  0.5930194E+02  0.7816164E-02  0.1266605E+00
        -11   -1    0    0    0    0  0.00000000000E+00  0.00000000000E+00  0.45593999997E+02  0.45594000000E+02  0.51100000000E-03 0. -1.
         11   -1    0    0    0    0 -0.00000000000E+00 -0.00000000000E+00 -0.45593999997E+02  0.45594000000E+02  0.51100000000E-03 0.  1.
    9900012    2    1    2    0    0  0.26633765365E+01  0.29511955634E+02  0.11775908736E+02  0.59301935231E+02  0.49999983957E+02 0.  0.
         12    1    1    2    0    0 -0.26633765365E+01 -0.29511955634E+02 -0.11775908736E+02  0.31886064769E+02  0.00000000000E+00 0. -1.
         11    1    3    3    0    0  0.99065966878E+01  0.47492740915E+01  0.11780052208E+02  0.16107945015E+02  0.51100000000E-03 0. -1.
        -11    1    3    3    0    0  0.11635844287E+02  0.14442784949E+01 -0.50561367350E+01  0.12768842218E+02  0.51100000000E-03 0.  1.
        -12    1    3    3    0    0 -0.18879064438E+02  0.23318403047E+02  0.50519932635E+01  0.30425147998E+02  0.00000000000E+00 0.  1.
</event>
<event>
 7    1  0.6246445E-012  0.5930193E+02  0.7816164E-02  0.1266605E+00
        -11   -1    0    0    0    0  0.00000000000E+00  0.00000000000E+00  0.45593999997E+02  0.45594000000E+02  0.51100000000E-03 0.  1.
         11   -1    0    0    0    0 -0.00000000000E+00 -0.00000000000E+00 -0.45593999997E+02  0.45594000000E+02  0.51100000000E-03 0. -1.
    9900012    2    1    2    0    0  0.20183302717E+01  0.13107089911E+02  0.28997447728E+02  0.59301930349E+02  0.49999975054E+02 0.  0.
         12    1    1    2    0    0 -0.20183302717E+01 -0.13107089911E+02 -0.28997447728E+02  0.31886069651E+02  0.00000000000E+00 0. -1.
         11    1    3    3    0    0 -0.12026615405E+01 -0.49895707342E+01  0.15536971314E+02  0.16362753092E+02  0.51100000000E-03 0. -1.
        -11    1    3    3    0    0 -0.78820191749E+01  0.21408531082E+01  0.20655419331E+02  0.22211614671E+02  0.51100000000E-03 0.  1.
         12    1    3    3    0    0  0.11103010987E+02  0.15955807537E+02 -0.71949429170E+01  0.20727562585E+02  0.00000000000E+00 0. -1.
</event>
<event>
 7    1  0.6246445E-012  0.5930193E+02  0.7816164E-02  0.1266605E+00
        -11   -1    0    0    0    0  0.00000000000E+00  0.00000000000E+00  0.45593999997E+02  0.45594000000E+02  0.51100000000E-03 0.  1.
         11   -1    0    0    0    0 -0.00000000000E+00 -0.00000000000E+00 -0.45593999997E+02  0.45594000000E+02  0.51100000000E-03 0. -1.
    9900012    2    1    2    0    0  0.18385321911E+02 -0.40765739889E+01  0.25730973081E+02  0.59301929484E+02  0.49999973476E+02 0.  0.
         12    1    1    2    0    0 -0.18385321911E+02  0.40765739889E+01 -0.25730973081E+02  0.31886070516E+02  0.00000000000E+00 0. -1.
         11    1    3    3    0    0  0.20319870874E+02 -0.29091766873E+01  0.28544510624E+02  0.35158918476E+02  0.51100000000E-03 0. -1.
        -11    1    3    3    0    0  0.67314126507E+01  0.10930557212E+01  0.77306326429E+01  0.10308703527E+02  0.51100000000E-03 0.  1.
         12    1    3    3    0    0 -0.86659616143E+01 -0.22604530228E+01 -0.10544170186E+02  0.13834307481E+02  0.00000000000E+00 0. -1.
</event>
<event>
 7    1  0.6246445E-012  0.5930195E+02  0.7816164E-02  0.1266605E+00
        -11   -1    0    0    0    0  0.00000000000E+00  0.00000000000E+00  0.45593999997E+02  0.45594000000E+02  0.51100000000E-03 0.  1.
         11   -1    0    0    0    0 -0.00000000000E+00 -0.00000000000E+00 -0.45593999997E+02  0.45594000000E+02  0.51100000000E-03 0. -1.
    9900012    2    1    2    0    0  0.26196114815E+00 -0.30161103511E+02  0.10342128993E+02  0.59301946297E+02  0.50000004138E+02 0.  0.
         12    1    1    2    0    0 -0.26196114815E+00  0.30161103511E+02 -0.10342128993E+02  0.31886053703E+02  0.00000000000E+00 0. -1.
         11    1    3    3    0    0 -0.85298961644E+01 -0.24499251283E+02  0.15020985858E+02  0.29976698591E+02  0.51100000000E-03 0. -1.
        -11    1    3    3    0    0 -0.55575744547E+01 -0.45252826612E+01  0.75701282548E+01  0.10424569969E+02  0.51100000000E-03 0.  1.
         12    1    3    3    0    0  0.14349431767E+02 -0.11365695667E+01 -0.12248985120E+02  0.18900677736E+02  0.00000000000E+00 0. -1.
</event>
<event>
 7    1  0.6246445E-012  0.5930196E+02  0.7816164E-02  0.1266605E+00
        -11   -1    0    0    0    0  0.00000000000E+00  0.00000000000E+00  0.45593999997E+02  0.45594000000E+02  0.51100000000E-03 0. -1.
         11   -1    0    0    0    0 -0.00000000000E+00 -0.00000000000E+00 -0.45593999997E+02  0.45594000000E+02  0.51100000000E-03 0.  1.
    9900012    2    1    2    0    0 -0.62078477316E+01  0.16322360135E+02 -0.26678882532E+02  0.59301959371E+02  0.50000027983E+02 0.  0.
         12    1    1    2    0    0  0.62078477316E+01 -0.16322360135E+02  0.26678882532E+02  0.31886040629E+02  0.00000000000E+00 0. -1.
         11    1    3    3    0    0 -0.12139726157E+02  0.41730475951E+01  0.71670653101E+01  0.14702180207E+02  0.51100000000E-03 0. -1.
        -11    1    3    3    0    0 -0.69189315018E+01 -0.32082095573E+01 -0.38747783787E+01  0.85544216307E+01  0.51100000000E-03 0.  1.
         12    1    3    3    0    0  0.12850809928E+02  0.15357522098E+02 -0.29971169463E+02  0.36045357534E+02  0.00000000000E+00 0. -1.
</event>
<event>
 7    1  0.6246445E-012  0.5930197E+02  0.7816164E-02  0.1266605E+00
        -11   -1    0    0    0    0  0.00000000000E+00  0.00000000000E+00  0.45593999997E+02  0.45594000000E+02  0.51100000000E-03 0. -1.
         11   -1    0    0    0    0 -0.00000000000E+00 -0.00000000000E+00 -0.45593999997E+02  0.45594000000E+02  0.51100000000E-03 0.  1.
    9900012    2    1    2    0    0 -0.28192662765E+02 -0.14728106106E+02 -0.22305930207E+01  0.59301970325E+02  0.50000047959E+02 0.  0.
         12    1    1    2    0    0  0.28192662765E+02  0.14728106106E+02  0.22305930207E+01  0.31886029675E+02  0.00000000000E+00 0. -1.
         11    1    3    3    0    0 -0.23736888812E+01  0.76993782399E+01  0.18653543823E+01  0.82700889608E+01  0.51100000000E-03 0. -1.
        -11    1    3    3    0    0  0.13433828378E+01  0.81485434266E+01 -0.58099678815E+01  0.10097483076E+02  0.51100000000E-03 0.  1.
         12    1    3    3    0    0 -0.27162356722E+02 -0.30576027772E+02  0.17140204785E+01  0.40934398288E+02  0.00000000000E+00 0. -1.
</event>
<event>
 7    1  0.6246445E-012  0.5930160E+02  0.7816164E-02  0.1266606E+00
        -11   -1    0    0    0    0  0.00000000000E+00  0.00000000000E+00  0.45593999997E+02  0.45594000000E+02  0.51100000000E-03 0.  1.
         11   -1    0    0    0    0 -0.00000000000E+00 -0.00000000000E+00 -0.45593999997E+02  0.45594000000E+02  0.51100000000E-03 0. -1.
    9900012    2    1    2    0    0 -0.95824245708E+01 -0.80521808568E+01  0.29327151724E+02  0.59301603129E+02  0.49999378278E+02 0.  0.
         12    1    1    2    0    0  0.95824245708E+01  0.80521808568E+01 -0.29327151724E+02  0.31886396871E+02  0.00000000000E+00 0. -1.
         11    1    3    3    0    0 -0.32684080159E+01 -0.68460465493E+01 -0.85575343389E+01  0.11436006232E+02  0.51100000000E-03 0. -1.
        -11    1    3    3    0    0  0.89542985548E+01 -0.37591993170E+01  0.37965760332E+01  0.10427129612E+02  0.51100000000E-03 0.  1.
         12    1    3    3    0    0 -0.15268315110E+02  0.25530650095E+01  0.34088110029E+02  0.37438467285E+02  0.00000000000E+00 0. -1.
</event>
<event>
 7    1  0.6246445E-012  0.5930193E+02  0.7816164E-02  0.1266605E+00
        -11   -1    0    0    0    0  0.00000000000E+00  0.00000000000E+00  0.45593999997E+02  0.45594000000E+02  0.51100000000E-03 0. -1.
         11   -1    0    0    0    0 -0.00000000000E+00 -0.00000000000E+00 -0.45593999997E+02  0.45594000000E+02  0.51100000000E-03 0.  1.
    9900012    2    1    2    0    0  0.24513495226E+02  0.19338706979E+02  0.64671768530E+01  0.59301930749E+02  0.49999975783E+02 0.  0.
         12    1    1    2    0    0 -0.24513495226E+02 -0.19338706979E+02 -0.64671768530E+01  0.31886069251E+02  0.00000000000E+00 0. -1.
         11    1    3    3    0    0  0.13950847857E+01  0.37283612856E+01  0.70650516998E+01  0.81093708275E+01  0.51100000000E-03 0. -1.
        -11    1    3    3    0    0 -0.18539007817E+01  0.24580971949E+02 -0.59211948586E+00  0.24657893986E+02  0.51100000000E-03 0.  1.
         12    1    3    3    0    0  0.24972311222E+02 -0.89706262558E+01 -0.57553609926E-02  0.26534665936E+02  0.00000000000E+00 0. -1.
</event>
<event>
 7    1  0.6246445E-012  0.5930194E+02  0.7816164E-02  0.1266605E+00
        -11   -1    0    0    0    0  0.00000000000E+00  0.00000000000E+00  0.45593999997E+02  0.45594000000E+02  0.51100000000E-03 0.  1.
         11   -1    0    0    0    0 -0.00000000000E+00 -0.00000000000E+00 -0.45593999997E+02  0.45594000000E+02  0.51100000000E-03 0. -1.
    9900012    2    1    2    0    0  0.24932549243E+02 -0.16787911202E+02  0.10642128461E+02  0.59301939214E+02  0.49999991220E+02 0.  0.
         12    1    1    2    0    0 -0.24932549243E+02  0.16787911202E+02 -0.10642128461E+02  0.31886060786E+02  0.00000000000E+00 0. -1.
         11    1    3    3    0    0  0.13698333659E+02  0.74051310740E+01 -0.75930269475E+01  0.17324386562E+02  0.51100000000E-03 0. -1.
        -11    1    3    3    0    0  0.83500711192E+00 -0.21648862173E+02  0.10000637522E+01  0.21688028910E+02  0.51100000000E-03 0.  1.
        -12    1    3    3    0    0  0.10399208472E+02 -0.25441801032E+01  0.17235091656E+02  0.20289523741E+02  0.00000000000E+00 0.  1.
</event>
<event>
 7    1  0.6246445E-012  0.5930194E+02  0.7816164E-02  0.1266605E+00
        -11   -1    0    0    0    0  0.00000000000E+00  0.00000000000E+00  0.45593999997E+02  0.45594000000E+02  0.51100000000E-03 0.  1.
         11   -1    0    0    0    0 -0.00000000000E+00 -0.00000000000E+00 -0.45593999997E+02  0.45594000000E+02  0.51100000000E-03 0. -1.
    9900012    2    1    2    0    0  0.11221440020E+02  0.11766085383E+02  0.27429172295E+02  0.59301937619E+02  0.49999988312E+02 0.  0.
         12    1    1    2    0    0 -0.11221440020E+02 -0.11766085383E+02 -0.27429172295E+02  0.31886062381E+02  0.00000000000E+00 0. -1.
         11    1    3    3    0    0  0.56836058093E+01  0.11745788277E+02  0.13647278032E+02  0.18881607856E+02  0.51100000000E-03 0. -1.
        -11    1    3    3    0    0  0.76723447920E+01  0.75088123737E+01  0.24744942173E+02  0.26973307200E+02  0.51100000000E-03 0.  1.
         12    1    3    3    0    0 -0.21345105812E+01 -0.74885152681E+01 -0.10963047911E+02  0.13447022564E+02  0.00000000000E+00 0. -1.
</event>
<event>
 7    1  0.6575457E-012  0.5930206E+02  0.7816164E-02  0.1266604E+00
        -11   -1    0    0    0    0  0.00000000000E+00  0.00000000000E+00  0.45593999997E+02  0.45594000000E+02  0.51100000000E-03 0. -1.
         11   -1    0    0    0    0 -0.00000000000E+00 -0.00000000000E+00 -0.45593999997E+02  0.45594000000E+02  0.51100000000E-03 0.  1.
    9900012    2    1    2    0    0  0.16011997739E+02 -0.15009916697E+02 -0.23130748829E+02  0.59302059332E+02  0.50000210288E+02 0.  0.
         12    1    1    2    0    0 -0.16011997739E+02  0.15009916697E+02  0.23130748829E+02  0.31885940668E+02  0.00000000000E+00 0. -1.
         11    1    3    3    0    0  0.25764676168E+01 -0.14349955183E+02 -0.11570034910E+02  0.18612498683E+02  0.51100000000E-03 0. -1.
        -11    1    3    3    0    0  0.46007695274E+01 -0.11010138780E+02 -0.20982423821E+02  0.24138192680E+02  0.51100000000E-03 0.  1.
         12    1    3    3    0    0  0.88347605953E+01  0.10350177265E+02  0.94217099018E+01  0.16551367970E+02  0.00000000000E+00 0. -1.
</event>
<event>
 7    1  0.6246445E-012  0.5930196E+02  0.7816164E-02  0.1266605E+00
        -11   -1    0    0    0    0  0.00000000000E+00  0.00000000000E+00  0.45593999997E+02  0.45594000000E+02  0.51100000000E-03 0. -1.
         11   -1    0    0    0    0 -0.00000000000E+00 -0.00000000000E+00 -0.45593999997E+02  0.45594000000E+02  0.51100000000E-03 0.  1.
    9900012    2    1    2    0    0 -0.15408602070E+02  0.18711827103E+02 -0.20716219779E+02  0.59301964605E+02  0.50000037529E+02 0.  0.
         12    1    1    2    0    0  0.15408602070E+02 -0.18711827103E+02  0.20716219779E+02  0.31886035395E+02  0.00000000000E+00 0. -1.
         11    1    3    3    0    0  0.33570429796E+01  0.54750553435E+01  0.49664042347E+01  0.81185675993E+01  0.51100000000E-03 0. -1.
        -11    1    3    3    0    0 -0.15802219602E+02 -0.11930185125E+01  0.54364795260E+01  0.16753768156E+02  0.51100000000E-03 0.  1.
        -12    1    3    3    0    0 -0.29634254474E+01  0.14429790272E+02 -0.31119103539E+02  0.34429628850E+02  0.00000000000E+00 0.  1.
</event>
<event>
 7    1  0.6246445E-012  0.5930194E+02  0.7816164E-02  0.1266605E+00
        -11   -1    0    0    0    0  0.00000000000E+00  0.00000000000E+00  0.45593999997E+02  0.45594000000E+02  0.51100000000E-03 0. -1.
         11   -1    0    0    0    0 -0.00000000000E+00 -0.00000000000E+00 -0.45593999997E+02  0.45594000000E+02  0.51100000000E-03 0.  1.
    9900012    2    1    2    0    0  0.14392448143E+02  0.21176153088E+02 -0.19003919624E+02  0.59301937461E+02  0.49999988025E+02 0.  0.
         12    1    1    2    0    0 -0.14392448143E+02 -0.21176153088E+02  0.19003919624E+02  0.31886062539E+02  0.00000000000E+00 0. -1.
         11    1    3    3    0    0 -0.84813415052E+01 -0.16496038023E+01 -0.69951267088E+01  0.11116930528E+02  0.51100000000E-03 0. -1.
        -11    1    3    3    0    0 -0.43920155887E+01 -0.41446524529E+01  0.33110401304E+01  0.68870118261E+01  0.51100000000E-03 0.  1.
        -12    1    3    3    0    0  0.27265805237E+02  0.26970409343E+02 -0.15319833046E+02  0.41297995107E+02  0.00000000000E+00 0.  1.
</event>
<event>
 7    1  0.6246445E-012  0.5930194E+02  0.7816164E-02  0.1266605E+00
        -11   -1    0    0    0    0  0.00000000000E+00  0.00000000000E+00  0.45593999997E+02  0.45594000000E+02  0.51100000000E-03 0. -1.
         11   -1    0    0    0    0 -0.00000000000E+00 -0.00000000000E+00 -0.45593999997E+02  0.45594000000E+02  0.51100000000E-03 0.  1.
    9900012    2    1    2    0    0 -0.30787577706E+02 -0.31939097354E+01 -0.76579826065E+01  0.59301941950E+02  0.49999996210E+02 0.  0.
         12    1    1    2    0    0  0.30787577706E+02  0.31939097354E+01  0.76579826065E+01  0.31886058050E+02  0.00000000000E+00 0. -1.
         11    1    3    3    0    0 -0.22282822897E+01  0.99900484621E+01 -0.80792375098E+01  0.13039953575E+02  0.51100000000E-03 0. -1.
        -11    1    3    3    0    0 -0.16179166303E+02  0.88816892006E+01  0.76025872526E+01  0.19961191310E+02  0.51100000000E-03 0.  1.
         12    1    3    3    0    0 -0.12380129113E+02 -0.22065647398E+02 -0.71813323493E+01  0.26300797065E+02  0.00000000000E+00 0. -1.
</event>
<event>
 7    1  0.6246445E-012  0.5930193E+02  0.7816164E-02  0.1266605E+00
        -11   -1    0    0    0    0  0.00000000000E+00  0.00000000000E+00  0.45593999997E+02  0.45594000000E+02  0.51100000000E-03 0.  1.
         11   -1    0    0    0    0 -0.00000000000E+00 -0.00000000000E+00 -0.45593999997E+02  0.45594000000E+02  0.51100000000E-03 0. -1.
    9900012    2    1    2    0    0 -0.88258829390E+01 -0.18415451103E+02  0.24488695868E+02  0.59301932912E+02  0.49999979728E+02 0.  0.
         12    1    1    2    0    0  0.88258829390E+01  0.18415451103E+02 -0.24488695868E+02  0.31886067088E+02  0.00000000000E+00 0. -1.
         11    1    3    3    0    0 -0.13494007627E+02 -0.40541138985E+01 -0.95550275747E+00  0.14122218916E+02  0.51100000000E-03 0. -1.
        -11    1    3    3    0    0 -0.76802743013E+01 -0.26557402191E+01 -0.55371517088E+01  0.98335964307E+01  0.51100000000E-03 0.  1.
        -12    1    3    3    0    0  0.12348398989E+02 -0.11705596986E+02  0.30981350335E+02  0.35346117565E+02  0.00000000000E+00 0.  1.
</event>
<event>
 7    1  0.6246445E-012  0.5930194E+02  0.7816164E-02  0.1266605E+00
        -11   -1    0    0    0    0  0.00000000000E+00  0.00000000000E+00  0.45593999997E+02  0.45594000000E+02  0.51100000000E-03 0. -1.
         11   -1    0    0    0    0 -0.00000000000E+00 -0.00000000000E+00 -0.45593999997E+02  0.45594000000E+02  0.51100000000E-03 0.  1.
    9900012    2    1    2    0    0 -0.25362597924E+02  0.45631203244E+01 -0.18778639421E+02  0.59301941306E+02  0.49999995036E+02 0.  0.
         12    1    1    2    0    0  0.25362597924E+02 -0.45631203244E+01  0.18778639421E+02  0.31886058694E+02  0.00000000000E+00 0. -1.
         11    1    3    3    0    0 -0.10424724023E+02  0.11525950649E+02  0.36138159255E+01  0.15955628321E+02  0.51100000000E-03 0. -1.
        -11    1    3    3    0    0 -0.15466731501E+02  0.83080934634E+01 -0.17217830669E+01  0.17641109305E+02  0.51100000000E-03 0.  1.
        -12    1    3    3    0    0  0.52885760064E+00 -0.15270923788E+02 -0.20670672280E+02  0.25705203679E+02  0.00000000000E+00 0.  1.
</event>
<event>
 7    1  0.6246445E-012  0.5930197E+02  0.7816164E-02  0.1266605E+00
        -11   -1    0    0    0    0  0.00000000000E+00  0.00000000000E+00  0.45593999997E+02  0.45594000000E+02  0.51100000000E-03 0.  1.
         11   -1    0    0    0    0 -0.00000000000E+00 -0.00000000000E+00 -0.45593999997E+02  0.45594000000E+02  0.51100000000E-03 0. -1.
    9900012    2    1    2    0    0 -0.86229744460E+01  0.40150547904E+01  0.30434229007E+02  0.59301974088E+02  0.50000054822E+02 0.  0.
         12    1    1    2    0    0  0.86229744460E+01 -0.40150547904E+01 -0.30434229007E+02  0.31886025912E+02  0.00000000000E+00 0. -1.
         11    1    3    3    0    0  0.33533700519E+01 -0.10767486359E+02  0.24760947317E+01  0.11546207108E+02  0.51100000000E-03 0. -1.
        -11    1    3    3    0    0 -0.97399514837E+01  0.63333184476E+01 -0.57286762206E+01  0.12953582862E+02  0.51100000000E-03 0.  1.
        -12    1    3    3    0    0 -0.22363930142E+01  0.84492227020E+01  0.33686810496E+02  0.34802184117E+02  0.00000000000E+00 0.  1.
</event>
<event>
 7    1  0.6246445E-012  0.5930196E+02  0.7816164E-02  0.1266605E+00
        -11   -1    0    0    0    0  0.00000000000E+00  0.00000000000E+00  0.45593999997E+02  0.45594000000E+02  0.51100000000E-03 0. -1.
         11   -1    0    0    0    0 -0.00000000000E+00 -0.00000000000E+00 -0.45593999997E+02  0.45594000000E+02  0.51100000000E-03 0.  1.
    9900012    2    1    2    0    0 -0.26531120240E+02  0.17651709363E+02 -0.11119338027E+01  0.59301959458E+02  0.50000028142E+02 0.  0.
         12    1    1    2    0    0  0.26531120240E+02 -0.17651709363E+02  0.11119338027E+01  0.31886040542E+02  0.00000000000E+00 0. -1.
         11    1    3    3    0    0 -0.90560600340E+00  0.11565790931E+02  0.10536385442E+02  0.15671728065E+02  0.51100000000E-03 0. -1.
        -11    1    3    3    0    0 -0.59126821303E+01  0.17805655375E+02 -0.80513788200E+01  0.20416313929E+02  0.51100000000E-03 0.  1.
        -12    1    3    3    0    0 -0.19712832106E+02 -0.11719736942E+02 -0.35969404249E+01  0.23213917465E+02  0.00000000000E+00 0.  1.
</event>
<event>
 7    1  0.6246445E-012  0.5930194E+02  0.7816164E-02  0.1266605E+00
        -11   -1    0    0    0    0  0.00000000000E+00  0.00000000000E+00  0.45593999997E+02  0.45594000000E+02  0.51100000000E-03 0.  1.
         11   -1    0    0    0    0 -0.00000000000E+00 -0.00000000000E+00 -0.45593999997E+02  0.45594000000E+02  0.51100000000E-03 0. -1.
    9900012    2    1    2    0    0 -0.41701957900E+00  0.31657215602E+02  0.37905003144E+01  0.59301935683E+02  0.49999984780E+02 0.  0.
         12    1    1    2    0    0  0.41701957900E+00 -0.31657215602E+02 -0.37905003144E+01  0.31886064317E+02  0.00000000000E+00 0. -1.
         11    1    3    3    0    0 -0.24580532438E+01 -0.37296193517E+01  0.39393100133E+01  0.59556905477E+01  0.51100000000E-03 0. -1.
        -11    1    3    3    0    0 -0.97140982414E+01  0.13786719698E+02  0.16543381242E+02  0.23624580585E+02  0.51100000000E-03 0.  1.
         12    1    3    3    0    0  0.11755131906E+02  0.21600115256E+02 -0.16692190940E+02  0.29721664549E+02  0.00000000000E+00 0. -1.
</event>
<event>
 7    1  0.6246445E-012  0.5930199E+02  0.7816164E-02  0.1266605E+00
        -11   -1    0    0    0    0  0.00000000000E+00  0.00000000000E+00  0.45593999997E+02  0.45594000000E+02  0.51100000000E-03 0.  1.
         11   -1    0    0    0    0 -0.00000000000E+00 -0.00000000000E+00 -0.45593999997E+02  0.45594000000E+02  0.51100000000E-03 0. -1.
    9900012    2    1    2    0    0 -0.25185586122E+02 -0.28724543247E+01  0.19343034862E+02  0.59301988336E+02  0.50000080808E+02 0.  0.
         12    1    1    2    0    0  0.25185586122E+02  0.28724543247E+01 -0.19343034862E+02  0.31886011664E+02  0.00000000000E+00 0. -1.
         11    1    3    3    0    0 -0.14364526744E+01 -0.20415909810E+02  0.37938954520E+01  0.20815052549E+02  0.51100000000E-03 0. -1.
        -11    1    3    3    0    0 -0.58951516813E+01 -0.30058782140E+01  0.77065193060E+01  0.10157684641E+02  0.51100000000E-03 0.  1.
        -12    1    3    3    0    0 -0.17853981766E+02  0.20549333700E+02  0.78426201038E+01  0.28329251146E+02  0.00000000000E+00 0.  1.
</event>
<event>
 7    1  0.6246445E-012  0.5930193E+02  0.7816164E-02  0.1266605E+00
        -11   -1    0    0    0    0  0.00000000000E+00  0.00000000000E+00  0.45593999997E+02  0.45594000000E+02  0.51100000000E-03 0. -1.
         11   -1    0    0    0    0 -0.00000000000E+00 -0.00000000000E+00 -0.45593999997E+02  0.45594000000E+02  0.51100000000E-03 0.  1.
    9900012    2    1    2    0    0 -0.42251854795E+01 -0.26282308640E+02 -0.17553052043E+02  0.59301928185E+02  0.49999971107E+02 0.  0.
         12    1    1    2    0    0  0.42251854795E+01  0.26282308640E+02  0.17553052043E+02  0.31886071815E+02  0.00000000000E+00 0. -1.
         11    1    3    3    0    0 -0.63036060748E+01 -0.17440909396E+02 -0.52284463040E+01  0.19268041445E+02  0.51100000000E-03 0. -1.
        -11    1    3    3    0    0 -0.15631278039E+02  0.13335491436E+01  0.87981057068E+00  0.15712710566E+02  0.51100000000E-03 0.  1.
        -12    1    3    3    0    0  0.17709698634E+02 -0.10174948387E+02 -0.13204416310E+02  0.24321176174E+02  0.00000000000E+00 0.  1.
</event>
<event>
 7    1  0.6246445E-012  0.5930193E+02  0.7816164E-02  0.1266605E+00
        -11   -1    0    0    0    0  0.00000000000E+00  0.00000000000E+00  0.45593999997E+02  0.45594000000E+02  0.51100000000E-03 0.  1.
         11   -1    0    0    0    0 -0.00000000000E+00 -0.00000000000E+00 -0.45593999997E+02  0.45594000000E+02  0.51100000000E-03 0. -1.
    9900012    2    1    2    0    0 -0.20012082878E+01 -0.13815752602E+01  0.31793203435E+02  0.59301931420E+02  0.49999977007E+02 0.  0.
         12    1    1    2    0    0  0.20012082878E+01  0.13815752602E+01 -0.31793203435E+02  0.31886068580E+02  0.00000000000E+00 0. -1.
         11    1    3    3    0    0 -0.70218509585E+01 -0.62534460346E+01  0.17416983516E+02  0.19793011223E+02  0.51100000000E-03 0. -1.
        -11    1    3    3    0    0 -0.42404681282E+01 -0.42743914994E+01  0.23078902171E+02  0.23851367221E+02  0.51100000000E-03 0.  1.
        -12    1    3    3    0    0  0.92611107989E+01  0.91462622738E+01 -0.87026822526E+01  0.15657552976E+02  0.00000000000E+00 0.  1.
</event>
<event>
 7    1  0.6246445E-012  0.5930194E+02  0.7816164E-02  0.1266605E+00
        -11   -1    0    0    0    0  0.00000000000E+00  0.00000000000E+00  0.45593999997E+02  0.45594000000E+02  0.51100000000E-03 0.  1.
         11   -1    0    0    0    0 -0.00000000000E+00 -0.00000000000E+00 -0.45593999997E+02  0.45594000000E+02  0.51100000000E-03 0. -1.
    9900012    2    1    2    0    0 -0.11061520474E+02 -0.27684572514E+02  0.11310514207E+02  0.59301944708E+02  0.50000001240E+02 0.  0.
         12    1    1    2    0    0  0.11061520474E+02  0.27684572514E+02 -0.11310514207E+02  0.31886055292E+02  0.00000000000E+00 0. -1.
         11    1    3    3    0    0 -0.17987847299E+00 -0.14128392188E+02  0.17365311106E+01  0.14235847802E+02  0.51100000000E-03 0. -1.
        -11    1    3    3    0    0 -0.23988102349E+02 -0.14206707236E+02  0.14026100688E+02  0.31208830250E+02  0.51100000000E-03 0.  1.
         12    1    3    3    0    0  0.13106460348E+02  0.65052690968E+00 -0.44521175915E+01  0.13857266656E+02  0.00000000000E+00 0. -1.
</event>
<event>
 7    1  0.6246445E-012  0.5930194E+02  0.7816164E-02  0.1266605E+00
        -11   -1    0    0    0    0  0.00000000000E+00  0.00000000000E+00  0.45593999997E+02  0.45594000000E+02  0.51100000000E-03 0. -1.
         11   -1    0    0    0    0 -0.00000000000E+00 -0.00000000000E+00 -0.45593999997E+02  0.45594000000E+02  0.51100000000E-03 0.  1.
    9900012    2    1    2    0    0  0.18019226653E+02 -0.23929242880E+02 -0.10927921075E+02  0.59301942655E+02  0.49999997497E+02 0.  0.
         12    1    1    2    0    0 -0.18019226653E+02  0.23929242880E+02  0.10927921075E+02  0.31886057345E+02  0.00000000000E+00 0. -1.
         11    1    3    3    0    0  0.54043092671E+01 -0.88459395931E+00 -0.61809918959E+01  0.82579492737E+01  0.51100000000E-03 0. -1.
        -11    1    3    3    0    0  0.15502657328E+02 -0.18070607711E+02 -0.22270032139E+02  0.32601128493E+02  0.51100000000E-03 0.  1.
        -12    1    3    3    0    0 -0.28877399428E+01 -0.49740412097E+01  0.17523102960E+02  0.18442864889E+02  0.00000000000E+00 0.  1.
</event>
<event>
 7    1  0.6246445E-012  0.5930196E+02  0.7816164E-02  0.1266605E+00
        -11   -1    0    0    0    0  0.00000000000E+00  0.00000000000E+00  0.45593999997E+02  0.45594000000E+02  0.51100000000E-03 0. -1.
         11   -1    0    0    0    0 -0.00000000000E+00 -0.00000000000E+00 -0.45593999997E+02  0.45594000000E+02  0.51100000000E-03 0.  1.
    9900012    2    1    2    0    0  0.12153266693E+02 -0.11894168575E+02 -0.26973073420E+02  0.59301955605E+02  0.50000021115E+02 0.  0.
         12    1    1    2    0    0 -0.12153266693E+02  0.11894168575E+02  0.26973073420E+02  0.31886044395E+02  0.00000000000E+00 0. -1.
         11    1    3    3    0    0  0.29679473983E+01 -0.12181487030E+02 -0.13076584322E+02  0.18116136338E+02  0.51100000000E-03 0. -1.
        -11    1    3    3    0    0 -0.11721576328E+02 -0.67978004160E+01  0.23821246768E+01  0.13757905376E+02  0.51100000000E-03 0.  1.
         12    1    3    3    0    0  0.20906895622E+02  0.70851188708E+01 -0.16278613775E+02  0.27427913891E+02  0.00000000000E+00 0. -1.
</event>
<event>
 7    1  0.6246445E-012  0.5930188E+02  0.7816164E-02  0.1266605E+00
        -11   -1    0    0    0    0  0.00000000000E+00  0.00000000000E+00  0.45593999997E+02  0.45594000000E+02  0.51100000000E-03 0.  1.
         11   -1    0    0    0    0 -0.00000000000E+00 -0.00000000000E+00 -0.45593999997E+02  0.45594000000E+02  0.51100000000E-03 0. -1.
    9900012    2    1    2    0    0 -0.15365429560E+02 -0.13594957010E+02  0.24409119866E+02  0.59301883675E+02  0.49999889931E+02 0.  0.
         12    1    1    2    0    0  0.15365429560E+02  0.13594957010E+02 -0.24409119866E+02  0.31886116325E+02  0.00000000000E+00 0. -1.
         11    1    3    3    0    0 -0.55119646288E+01  0.30768255841E+01 -0.11088250698E+02  0.12759228564E+02  0.51100000000E-03 0. -1.
        -11    1    3    3    0    0 -0.12396639191E+02 -0.10789747565E+02  0.79438981558E+01  0.18253789577E+02  0.51100000000E-03 0.  1.
         12    1    3    3    0    0  0.25431742602E+01 -0.58820350287E+01  0.27553472408E+02  0.28288865533E+02  0.00000000000E+00 0. -1.
</event>
<event>
 7    1  0.6246445E-012  0.5930197E+02  0.7816164E-02  0.1266605E+00
        -11   -1    0    0    0    0  0.00000000000E+00  0.00000000000E+00  0.45593999997E+02  0.45594000000E+02  0.51100000000E-03 0. -1.
         11   -1    0    0    0    0 -0.00000000000E+00 -0.00000000000E+00 -0.45593999997E+02  0.45594000000E+02  0.51100000000E-03 0.  1.
    9900012    2    1    2    0    0  0.17861993133E+02  0.18946969627E+02 -0.18403272405E+02  0.59301970270E+02  0.50000047860E+02 0.  0.
         12    1    1    2    0    0 -0.17861993133E+02 -0.18946969627E+02  0.18403272405E+02  0.31886029730E+02  0.00000000000E+00 0. -1.
         11    1    3    3    0    0  0.27728575698E+01  0.20993824291E+02  0.29086721434E+01  0.21374980032E+02  0.51100000000E-03 0. -1.
        -11    1    3    3    0    0 -0.22313141037E+01  0.53539307129E+01  0.35009510834E+01  0.67749535391E+01  0.51100000000E-03 0.  1.
        -12    1    3    3    0    0  0.17320449667E+02 -0.74007853771E+01 -0.24812895632E+02  0.31152036699E+02  0.00000000000E+00 0.  1.
</event>
<event>
 7    1  0.6246445E-012  0.5930192E+02  0.7816164E-02  0.1266605E+00
        -11   -1    0    0    0    0  0.00000000000E+00  0.00000000000E+00  0.45593999997E+02  0.45594000000E+02  0.51100000000E-03 0. -1.
         11   -1    0    0    0    0 -0.00000000000E+00 -0.00000000000E+00 -0.45593999997E+02  0.45594000000E+02  0.51100000000E-03 0.  1.
    9900012    2    1    2    0    0  0.18467543755E+02  0.24944513750E+02  0.73104711925E+01  0.59301922667E+02  0.49999961044E+02 0.  0.
         12    1    1    2    0    0 -0.18467543755E+02 -0.24944513750E+02 -0.73104711925E+01  0.31886077333E+02  0.00000000000E+00 0. -1.
         11    1    3    3    0    0  0.50952498268E+01  0.83996310162E+01  0.23402245488E+00  0.98270106735E+01  0.51100000000E-03 0. -1.
        -11    1    3    3    0    0  0.13843795762E+02  0.30461562239E+02  0.10623115457E+02  0.35105669591E+02  0.51100000000E-03 0.  1.
         12    1    3    3    0    0 -0.47150183318E+00 -0.13916679505E+02 -0.35466667198E+01  0.14369242403E+02  0.00000000000E+00 0. -1.
</event>
<event>
 7    1  0.6246445E-012  0.5930194E+02  0.7816164E-02  0.1266605E+00
        -11   -1    0    0    0    0  0.00000000000E+00  0.00000000000E+00  0.45593999997E+02  0.45594000000E+02  0.51100000000E-03 0.  1.
         11   -1    0    0    0    0 -0.00000000000E+00 -0.00000000000E+00 -0.45593999997E+02  0.45594000000E+02  0.51100000000E-03 0. -1.
    9900012    2    1    2    0    0 -0.23285722621E+02 -0.21592185255E+02 -0.28763247255E+01  0.59301943706E+02  0.49999999413E+02 0.  0.
         12    1    1    2    0    0  0.23285722621E+02  0.21592185255E+02  0.28763247255E+01  0.31886056294E+02  0.00000000000E+00 0. -1.
         11    1    3    3    0    0 -0.17144889627E+02 -0.25651865631E+02 -0.40825218675E+01  0.31122860340E+02  0.51100000000E-03 0. -1.
        -11    1    3    3    0    0 -0.13496964146E+02  0.34244765117E+01 -0.82474221526E+01  0.16183789821E+02  0.51100000000E-03 0.  1.
        -12    1    3    3    0    0  0.73561311516E+01  0.63520386466E+00  0.94536192946E+01  0.11995293545E+02  0.00000000000E+00 0.  1.
</event>
<event>
 7    1  0.6246445E-012  0.5930194E+02  0.7816164E-02  0.1266605E+00
        -11   -1    0    0    0    0  0.00000000000E+00  0.00000000000E+00  0.45593999997E+02  0.45594000000E+02  0.51100000000E-03 0.  1.
         11   -1    0    0    0    0 -0.00000000000E+00 -0.00000000000E+00 -0.45593999997E+02  0.45594000000E+02  0.51100000000E-03 0. -1.
    9900012    2    1    2    0    0  0.26448240710E+02  0.62647540867E+01  0.16672268954E+02  0.59301935137E+02  0.49999983785E+02 0.  0.
         12    1    1    2    0    0 -0.26448240710E+02 -0.62647540867E+01 -0.16672268954E+02  0.31886064863E+02  0.00000000000E+00 0. -1.
         11    1    3    3    0    0  0.15770585383E+02  0.11240354735E+02  0.27379907377E+01  0.19558975726E+02  0.51100000000E-03 0.  1.
        -11    1    3    3    0    0  0.14131847503E+02  0.12769615031E+02  0.85684105443E+01  0.20885158400E+02  0.51100000000E-03 0. -1.
         12    1    3    3    0    0 -0.34541921765E+01 -0.17745215679E+02  0.53658676722E+01  0.18857801011E+02  0.00000000000E+00 0. -1.
</event>
<event>
 7    1  0.6246445E-012  0.5930197E+02  0.7816164E-02  0.1266605E+00
        -11   -1    0    0    0    0  0.00000000000E+00  0.00000000000E+00  0.45593999997E+02  0.45594000000E+02  0.51100000000E-03 0.  1.
         11   -1    0    0    0    0 -0.00000000000E+00 -0.00000000000E+00 -0.45593999997E+02  0.45594000000E+02  0.51100000000E-03 0. -1.
    9900012    2    1    2    0    0 -0.13181972776E+02  0.27173135035E+01  0.28906237444E+02  0.59301972306E+02  0.50000051572E+02 0.  0.
         12    1    1    2    0    0  0.13181972776E+02 -0.27173135035E+01 -0.28906237444E+02  0.31886027694E+02  0.00000000000E+00 0. -1.
         11    1    3    3    0    0  0.34128043599E+01  0.19596013194E+02  0.25379555715E+02  0.32245508451E+02  0.51100000000E-03 0. -1.
        -11    1    3    3    0    0 -0.61135315242E+01 -0.17988192508E+01  0.57175470076E+01  0.85616214843E+01  0.51100000000E-03 0.  1.
        -12    1    3    3    0    0 -0.10481245612E+02 -0.15079880439E+02 -0.21908652788E+01  0.18494842371E+02  0.00000000000E+00 0.  1.
</event>
<event>
 7    1  0.6246445E-012  0.5930194E+02  0.7816164E-02  0.1266605E+00
        -11   -1    0    0    0    0  0.00000000000E+00  0.00000000000E+00  0.45593999997E+02  0.45594000000E+02  0.51100000000E-03 0.  1.
         11   -1    0    0    0    0 -0.00000000000E+00 -0.00000000000E+00 -0.45593999997E+02  0.45594000000E+02  0.51100000000E-03 0. -1.
    9900012    2    1    2    0    0  0.31779222094E+02  0.25823407517E+01 -0.36478311087E+00  0.59301944938E+02  0.50000001661E+02 0.  0.
         12    1    1    2    0    0 -0.31779222094E+02 -0.25823407517E+01  0.36478311087E+00  0.31886055062E+02  0.00000000000E+00 0. -1.
         11    1    3    3    0    0  0.26574980226E+02  0.78520649178E+01 -0.63422003821E+01  0.28427240517E+02  0.51100000000E-03 0. -1.
        -11    1    3    3    0    0 -0.82404764346E+00  0.11369455071E+02 -0.18055541315E+01  0.11541385927E+02  0.51100000000E-03 0.  1.
         12    1    3    3    0    0  0.60282895118E+01 -0.16639179237E+02  0.77829714028E+01  0.19333318494E+02  0.00000000000E+00 0. -1.
</event>
<event>
 7    1  0.6246445E-012  0.5930190E+02  0.7816164E-02  0.1266605E+00
        -11   -1    0    0    0    0  0.00000000000E+00  0.00000000000E+00  0.45593999997E+02  0.45594000000E+02  0.51100000000E-03 0.  1.
         11   -1    0    0    0    0 -0.00000000000E+00 -0.00000000000E+00 -0.45593999997E+02  0.45594000000E+02  0.51100000000E-03 0. -1.
    9900012    2    1    2    0    0  0.78262470648E+01  0.18860401030E+02  0.24489973727E+02  0.59301895137E+02  0.49999910836E+02 0.  0.
         12    1    1    2    0    0 -0.78262470648E+01 -0.18860401030E+02 -0.24489973727E+02  0.31886104863E+02  0.00000000000E+00 0. -1.
         11    1    3    3    0    0  0.14897785499E+02 -0.96078793959E+01  0.16489527326E+01  0.17803775011E+02  0.51100000000E-03 0. -1.
        -11    1    3    3    0    0 -0.10348080799E+02  0.82409365277E+01  0.13752142971E+02  0.19081856504E+02  0.51100000000E-03 0.  1.
        -12    1    3    3    0    0  0.32765423646E+01  0.20227343898E+02  0.90888780234E+01  0.22416263622E+02  0.00000000000E+00 0.  1.
</event>
<event>
 7    1  0.6246445E-012  0.5930170E+02  0.7816164E-02  0.1266606E+00
        -11   -1    0    0    0    0  0.00000000000E+00  0.00000000000E+00  0.45593999997E+02  0.45594000000E+02  0.51100000000E-03 0.  1.
         11   -1    0    0    0    0 -0.00000000000E+00 -0.00000000000E+00 -0.45593999997E+02  0.45594000000E+02  0.51100000000E-03 0. -1.
    9900012    2    1    2    0    0 -0.15333008681E+02  0.41756155489E+01  0.27644158248E+02  0.59301695641E+02  0.49999547000E+02 0.  0.
         12    1    1    2    0    0  0.15333008681E+02 -0.41756155489E+01 -0.27644158248E+02  0.31886304359E+02  0.00000000000E+00 0. -1.
         11    1    3    3    0    0  0.76896859989E+01 -0.70114240639E+01  0.11453613058E+02  0.15475031196E+02  0.51100000000E-03 0. -1.
        -11    1    3    3    0    0  0.60005452716E+01 -0.34923562735E+01 -0.10396299807E+01  0.70202511818E+01  0.51100000000E-03 0.  1.
        -12    1    3    3    0    0 -0.29023239952E+02  0.14679395886E+02  0.17230175171E+02  0.36806413263E+02  0.00000000000E+00 0.  1.
</event>
<event>
 7    1  0.6246445E-012  0.5930194E+02  0.7816164E-02  0.1266605E+00
        -11   -1    0    0    0    0  0.00000000000E+00  0.00000000000E+00  0.45593999997E+02  0.45594000000E+02  0.51100000000E-03 0. -1.
         11   -1    0    0    0    0 -0.00000000000E+00 -0.00000000000E+00 -0.45593999997E+02  0.45594000000E+02  0.51100000000E-03 0.  1.
    9900012    2    1    2    0    0  0.21623698781E+02  0.29403065178E+01 -0.23248468590E+02  0.59301936537E+02  0.49999986339E+02 0.  0.
         12    1    1    2    0    0 -0.21623698781E+02 -0.29403065178E+01  0.23248468590E+02  0.31886063463E+02  0.00000000000E+00 0. -1.
         11    1    3    3    0    0 -0.97534063970E+01  0.45712389263E+01  0.50440472970E+00  0.10783301260E+02  0.51100000000E-03 0. -1.
        -11    1    3    3    0    0 -0.33935818180E+01  0.21259433722E+01  0.25596132000E+01  0.47526469227E+01  0.51100000000E-03 0.  1.
        -12    1    3    3    0    0  0.34770686996E+02 -0.37568757807E+01 -0.26312486520E+02  0.43765988355E+02  0.00000000000E+00 0.  1.
</event>
<event>
 7    1  0.6246445E-012  0.5930194E+02  0.7816164E-02  0.1266605E+00
        -11   -1    0    0    0    0  0.00000000000E+00  0.00000000000E+00  0.45593999997E+02  0.45594000000E+02  0.51100000000E-03 0.  1.
         11   -1    0    0    0    0 -0.00000000000E+00 -0.00000000000E+00 -0.45593999997E+02  0.45594000000E+02  0.51100000000E-03 0. -1.
    9900012    2    1    2    0    0 -0.21755238335E+02  0.20878985855E+02  0.10368131640E+02  0.59301943501E+02  0.49999999039E+02 0.  0.
         12    1    1    2    0    0  0.21755238335E+02 -0.20878985855E+02 -0.10368131640E+02  0.31886056499E+02  0.00000000000E+00 0. -1.
         11    1    3    3    0    0 -0.24599239074E+01  0.10172436117E+02  0.63228433238E+01  0.12227347633E+02  0.51100000000E-03 0. -1.
        -11    1    3    3    0    0 -0.90070321809E+00  0.22253582080E+02  0.10206399701E+02  0.24499056651E+02  0.51100000000E-03 0.  1.
         12    1    3    3    0    0 -0.18394611210E+02 -0.11547032341E+02 -0.61611113847E+01  0.22575539217E+02  0.00000000000E+00 0. -1.
</event>
<event>
 7    1  0.6246445E-012  0.5930191E+02  0.7816164E-02  0.1266605E+00
        -11   -1    0    0    0    0  0.00000000000E+00  0.00000000000E+00  0.45593999997E+02  0.45594000000E+02  0.51100000000E-03 0. -1.
         11   -1    0    0    0    0 -0.00000000000E+00 -0.00000000000E+00 -0.45593999997E+02  0.45594000000E+02  0.51100000000E-03 0.  1.
    9900012    2    1    2    0    0  0.21545499830E+02  0.17731884633E+02  0.15430313860E+02  0.59301907712E+02  0.49999933769E+02 0.  0.
         12    1    1    2    0    0 -0.21545499830E+02 -0.17731884633E+02 -0.15430313860E+02  0.31886092288E+02  0.00000000000E+00 0. -1.
         11    1    3    3    0    0 -0.11169905837E+01  0.22974044548E+02  0.70616182463E+01  0.24060773956E+02  0.51100000000E-03 0. -1.
        -11    1    3    3    0    0 -0.32938100795E+01  0.52658422572E+01  0.19783010282E+01  0.65185853325E+01  0.51100000000E-03 0.  1.
        -12    1    3    3    0    0  0.25956300494E+02 -0.10508002172E+02  0.63903945853E+01  0.28722548423E+02  0.00000000000E+00 0.  1.
</event>
<event>
 7    1  0.6246445E-012  0.5930197E+02  0.7816164E-02  0.1266605E+00
        -11   -1    0    0    0    0  0.00000000000E+00  0.00000000000E+00  0.45593999997E+02  0.45594000000E+02  0.51100000000E-03 0.  1.
         11   -1    0    0    0    0 -0.00000000000E+00 -0.00000000000E+00 -0.45593999997E+02  0.45594000000E+02  0.51100000000E-03 0. -1.
    9900012    2    1    2    0    0 -0.11882548825E+02 -0.99535927641E+01  0.27864847891E+02  0.59301972911E+02  0.50000052677E+02 0.  0.
         12    1    1    2    0    0  0.11882548825E+02  0.99535927641E+01 -0.27864847891E+02  0.31886027089E+02  0.00000000000E+00 0. -1.
         11    1    3    3    0    0 -0.11133100041E+01 -0.50863562604E+01 -0.98715198166E+01  0.11160527896E+02  0.51100000000E-03 0. -1.
        -11    1    3    3    0    0  0.30386911192E+01  0.68397592652E+01  0.14977056296E+01  0.76327631260E+01  0.51100000000E-03 0.  1.
         12    1    3    3    0    0 -0.13807929940E+02 -0.11706995769E+02  0.36238662078E+02  0.40508681889E+02  0.00000000000E+00 0. -1.
</event>
<event>
 7    1  0.6246445E-012  0.5930194E+02  0.7816164E-02  0.1266605E+00
        -11   -1    0    0    0    0  0.00000000000E+00  0.00000000000E+00  0.45593999997E+02  0.45594000000E+02  0.51100000000E-03 0.  1.
         11   -1    0    0    0    0 -0.00000000000E+00 -0.00000000000E+00 -0.45593999997E+02  0.45594000000E+02  0.51100000000E-03 0. -1.
    9900012    2    1    2    0    0  0.31463967231E+02 -0.34551512282E+01  0.38473074064E+01  0.59301935987E+02  0.49999985336E+02 0.  0.
         12    1    1    2    0    0 -0.31463967231E+02  0.34551512282E+01 -0.38473074064E+01  0.31886064013E+02  0.00000000000E+00 0. -1.
         11    1    3    3    0    0 -0.32445311696E+01  0.69810258173E+01  0.13135501904E+02  0.15225081757E+02  0.51100000000E-03 0.  1.
        -11    1    3    3    0    0  0.50411936249E+01 -0.90074342586E+01  0.45852820777E+01  0.11294791591E+02  0.51100000000E-03 0. -1.
        -12    1    3    3    0    0  0.29667304776E+02 -0.14287427868E+01 -0.13873476575E+02  0.32782062640E+02  0.00000000000E+00 0.  1.
</event>
<event>
 7    1  0.6246445E-012  0.5930195E+02  0.7816164E-02  0.1266605E+00
        -11   -1    0    0    0    0  0.00000000000E+00  0.00000000000E+00  0.45593999997E+02  0.45594000000E+02  0.51100000000E-03 0.  1.
         11   -1    0    0    0    0 -0.00000000000E+00 -0.00000000000E+00 -0.45593999997E+02  0.45594000000E+02  0.51100000000E-03 0. -1.
    9900012    2    1    2    0    0 -0.24550339100E+02 -0.15825797899E+02  0.12788484715E+02  0.59301947087E+02  0.50000005580E+02 0.  0.
         12    1    1    2    0    0  0.24550339100E+02  0.15825797899E+02 -0.12788484715E+02  0.31886052913E+02  0.00000000000E+00 0. -1.
         11    1    3    3    0    0  0.33136166746E+01  0.56118196241E+01 -0.21535141210E+01  0.68636869312E+01  0.51100000000E-03 0. -1.
        -11    1    3    3    0    0 -0.39521376259E+01 -0.16546568252E+02 -0.81277520033E+01  0.18853876673E+02  0.51100000000E-03 0.  1.
        -12    1    3    3    0    0 -0.23911818149E+02 -0.48910492707E+01  0.23069750839E+02  0.33584383483E+02  0.00000000000E+00 0.  1.
</event>
<event>
 7    1  0.6246445E-012  0.5930195E+02  0.7816164E-02  0.1266605E+00
        -11   -1    0    0    0    0  0.00000000000E+00  0.00000000000E+00  0.45593999997E+02  0.45594000000E+02  0.51100000000E-03 0.  1.
         11   -1    0    0    0    0 -0.00000000000E+00 -0.00000000000E+00 -0.45593999997E+02  0.45594000000E+02  0.51100000000E-03 0. -1.
    9900012    2    1    2    0    0  0.25375036534E+02  0.72439780558E+01  0.17898402228E+02  0.59301945062E+02  0.50000001886E+02 0.  0.
         12    1    1    2    0    0 -0.25375036534E+02 -0.72439780558E+01 -0.17898402228E+02  0.31886054938E+02  0.00000000000E+00 0. -1.
         11    1    3    3    0    0 -0.45557439504E+01  0.81113046335E+00 -0.23299913324E+01  0.51808875147E+01  0.51100000000E-03 0. -1.
        -11    1    3    3    0    0  0.29074290699E+02  0.20676746974E+02  0.11955919684E+02  0.37626935310E+02  0.51100000000E-03 0.  1.
         12    1    3    3    0    0  0.85648978570E+00 -0.14243899381E+02  0.82724738773E+01  0.16494122238E+02  0.00000000000E+00 0. -1.
</event>
<event>
 7    1  0.6246445E-012  0.5930193E+02  0.7816164E-02  0.1266605E+00
        -11   -1    0    0    0    0  0.00000000000E+00  0.00000000000E+00  0.45593999997E+02  0.45594000000E+02  0.51100000000E-03 0.  1.
         11   -1    0    0    0    0 -0.00000000000E+00 -0.00000000000E+00 -0.45593999997E+02  0.45594000000E+02  0.51100000000E-03 0. -1.
    9900012    2    1    2    0    0 -0.31600711864E+02 -0.42221881363E+01  0.53842349502E+00  0.59301925252E+02  0.49999965758E+02 0.  0.
         12    1    1    2    0    0  0.31600711864E+02  0.42221881363E+01 -0.53842349502E+00  0.31886074748E+02  0.00000000000E+00 0. -1.
         11    1    3    3    0    0 -0.64562565992E+01  0.66441115093E+01 -0.27717191008E+00  0.92684568053E+01  0.51100000000E-03 0. -1.
        -11    1    3    3    0    0  0.59305815356E+01  0.95760157427E+01 -0.51094940552E+01  0.12368460075E+02  0.51100000000E-03 0.  1.
         12    1    3    3    0    0 -0.31075036800E+02 -0.20442315388E+02  0.59250894603E+01  0.37665008372E+02  0.00000000000E+00 0. -1.
</event>
<event>
 7    1  0.6246445E-012  0.5930197E+02  0.7816164E-02  0.1266605E+00
        -11   -1    0    0    0    0  0.00000000000E+00  0.00000000000E+00  0.45593999997E+02  0.45594000000E+02  0.51100000000E-03 0.  1.
         11   -1    0    0    0    0 -0.00000000000E+00 -0.00000000000E+00 -0.45593999997E+02  0.45594000000E+02  0.51100000000E-03 0. -1.
    9900012    2    1    2    0    0 -0.13325558601E+02 -0.37257119925E+01  0.28727470718E+02  0.59301968329E+02  0.50000044320E+02 0.  0.
         12    1    1    2    0    0  0.13325558601E+02  0.37257119925E+01 -0.28727470718E+02  0.31886031671E+02  0.00000000000E+00 0. -1.
         11    1    3    3    0    0  0.11427022660E+01  0.11510804290E+02  0.11579165223E+02  0.16367084389E+02  0.51100000000E-03 0. -1.
        -11    1    3    3    0    0  0.16501460305E-01  0.10067884153E+02  0.59950417435E+01  0.11717640094E+02  0.51100000000E-03 0.  1.
        -12    1    3    3    0    0 -0.14484762328E+02 -0.25304400435E+02  0.11153263751E+02  0.31217243846E+02  0.00000000000E+00 0.  1.
</event>
<event>
 7    1  0.6246445E-012  0.5930195E+02  0.7816164E-02  0.1266605E+00
        -11   -1    0    0    0    0  0.00000000000E+00  0.00000000000E+00  0.45593999997E+02  0.45594000000E+02  0.51100000000E-03 0.  1.
         11   -1    0    0    0    0 -0.00000000000E+00 -0.00000000000E+00 -0.45593999997E+02  0.45594000000E+02  0.51100000000E-03 0. -1.
    9900012    2    1    2    0    0  0.14120187148E+02 -0.94549055910E+01  0.26980463172E+02  0.59301947911E+02  0.50000007083E+02 0.  0.
         12    1    1    2    0    0 -0.14120187148E+02  0.94549055910E+01 -0.26980463172E+02  0.31886052089E+02  0.00000000000E+00 0. -1.
         11    1    3    3    0    0  0.25535486999E+01 -0.78807474688E+01 -0.10685247380E+01  0.83527562521E+01  0.51100000000E-03 0. -1.
        -11    1    3    3    0    0  0.24634908098E+02 -0.73499454976E+01  0.92163931568E+01  0.27310113492E+02  0.51100000000E-03 0.  1.
         12    1    3    3    0    0 -0.13068269651E+02  0.57757873754E+01  0.18832594753E+02  0.23639078168E+02  0.00000000000E+00 0. -1.
</event>
<event>
 7    1  0.6246445E-012  0.5930193E+02  0.7816164E-02  0.1266605E+00
        -11   -1    0    0    0    0  0.00000000000E+00  0.00000000000E+00  0.45593999997E+02  0.45594000000E+02  0.51100000000E-03 0.  1.
         11   -1    0    0    0    0 -0.00000000000E+00 -0.00000000000E+00 -0.45593999997E+02  0.45594000000E+02  0.51100000000E-03 0. -1.
    9900012    2    1    2    0    0  0.26027446770E+02 -0.30581446783E+01  0.18164283381E+02  0.59301930550E+02  0.49999975420E+02 0.  0.
         12    1    1    2    0    0 -0.26027446770E+02  0.30581446783E+01 -0.18164283381E+02  0.31886069450E+02  0.00000000000E+00 0. -1.
         11    1    3    3    0    0  0.13596479102E+01  0.18886982269E+01  0.10706357053E+02  0.10956363678E+02  0.51100000000E-03 0.  1.
        -11    1    3    3    0    0  0.27920537585E+02  0.86829258594E+01 -0.49180333651E+01  0.29650239003E+02  0.51100000000E-03 0. -1.
         12    1    3    3    0    0 -0.32527387254E+01 -0.13629768765E+02  0.12375959693E+02  0.18695327869E+02  0.00000000000E+00 0. -1.
</event>
<event>
 7    1  0.6885812E-012  0.5930196E+02  0.7816164E-02  0.1266605E+00
        -11   -1    0    0    0    0  0.00000000000E+00  0.00000000000E+00  0.45593999997E+02  0.45594000000E+02  0.51100000000E-03 0. -1.
         11   -1    0    0    0    0 -0.00000000000E+00 -0.00000000000E+00 -0.45593999997E+02  0.45594000000E+02  0.51100000000E-03 0.  1.
    9900012    2    1    2    0    0 -0.29720704973E+02 -0.81306957913E+00 -0.11521206717E+02  0.59301959317E+02  0.50000027883E+02 0.  0.
         12    1    1    2    0    0  0.29720704973E+02  0.81306957913E+00  0.11521206717E+02  0.31886040683E+02  0.00000000000E+00 0. -1.
         11    1    3    3    0    0 -0.63239967837E+01  0.10175876856E+02 -0.90406988688E+01  0.15009185235E+02  0.51100000000E-03 0. -1.
        -11    1    3    3    0    0 -0.22696080269E+02  0.88579284839E+01 -0.12489155255E+01  0.24395383720E+02  0.51100000000E-03 0.  1.
         12    1    3    3    0    0 -0.70062792057E+00 -0.19846874919E+02 -0.12315923224E+01  0.19897390362E+02  0.00000000000E+00 0. -1.
</event>
<event>
 7    1  0.6246445E-012  0.5930187E+02  0.7816164E-02  0.1266605E+00
        -11   -1    0    0    0    0  0.00000000000E+00  0.00000000000E+00  0.45593999997E+02  0.45594000000E+02  0.51100000000E-03 0. -1.
         11   -1    0    0    0    0 -0.00000000000E+00 -0.00000000000E+00 -0.45593999997E+02  0.45594000000E+02  0.51100000000E-03 0.  1.
    9900012    2    1    2    0    0 -0.31241795643E+02  0.47038774609E+01 -0.43068227669E+01  0.59301874796E+02  0.49999873737E+02 0.  0.
         12    1    1    2    0    0  0.31241795643E+02 -0.47038774609E+01  0.43068227669E+01  0.31886125204E+02  0.00000000000E+00 0. -1.
         11    1    3    3    0    0 -0.39020008947E+02  0.42265981437E+01 -0.59566882294E+00  0.39252771261E+02  0.51100000000E-03 0. -1.
        -11    1    3    3    0    0 -0.35154523279E+01  0.61091205773E+01 -0.18984263115E+01  0.72995740984E+01  0.51100000000E-03 0.  1.
         12    1    3    3    0    0  0.11293665631E+02 -0.56318412600E+01 -0.18127276324E+01  0.12749529436E+02  0.00000000000E+00 0. -1.
</event>
<event>
 7    1  0.7226499E-012  0.5930194E+02  0.7816164E-02  0.1266605E+00
        -11   -1    0    0    0    0  0.00000000000E+00  0.00000000000E+00  0.45593999997E+02  0.45594000000E+02  0.51100000000E-03 0. -1.
         11   -1    0    0    0    0 -0.00000000000E+00 -0.00000000000E+00 -0.45593999997E+02  0.45594000000E+02  0.51100000000E-03 0.  1.
    9900012    2    1    2    0    0  0.19192381698E+01 -0.23887126039E+02 -0.21034320931E+02  0.59301938428E+02  0.49999989787E+02 0.  0.
         12    1    1    2    0    0 -0.19192381698E+01  0.23887126039E+02  0.21034320931E+02  0.31886061572E+02  0.00000000000E+00 0. -1.
         11    1    3    3    0    0 -0.78887613228E+01  0.60227362106E+01 -0.26894671009E+01  0.10282953866E+02  0.51100000000E-03 0. -1.
        -11    1    3    3    0    0  0.20772913054E+01 -0.26009357909E+01 -0.20298641802E+02  0.20569756086E+02  0.51100000000E-03 0.  1.
         12    1    3    3    0    0  0.77307081872E+01 -0.27308926459E+02  0.19537879720E+01  0.28449228476E+02  0.00000000000E+00 0. -1.
</event>
<event>
 7    1  0.6246445E-012  0.5930195E+02  0.7816164E-02  0.1266605E+00
        -11   -1    0    0    0    0  0.00000000000E+00  0.00000000000E+00  0.45593999997E+02  0.45594000000E+02  0.51100000000E-03 0. -1.
         11   -1    0    0    0    0 -0.00000000000E+00 -0.00000000000E+00 -0.45593999997E+02  0.45594000000E+02  0.51100000000E-03 0.  1.
    9900012    2    1    2    0    0  0.16778835677E+01  0.31705047453E+02 -0.29487491381E+01  0.59301945858E+02  0.50000003338E+02 0.  0.
         12    1    1    2    0    0 -0.16778835677E+01 -0.31705047453E+02  0.29487491381E+01  0.31886054142E+02  0.00000000000E+00 0. -1.
         11    1    3    3    0    0 -0.62775335967E+01  0.33499881673E+02  0.11548859286E+02  0.35986464833E+02  0.51100000000E-03 0.  1.
        -11    1    3    3    0    0  0.55522165384E+01  0.63669031006E+01 -0.11553082935E+02  0.14312172761E+02  0.51100000000E-03 0. -1.
        -12    1    3    3    0    0  0.24032006260E+01 -0.81617373203E+01 -0.29445254895E+01  0.90033082638E+01  0.00000000000E+00 0.  1.
</event>
<event>
 7    1  0.6246445E-012  0.5930195E+02  0.7816164E-02  0.1266605E+00
        -11   -1    0    0    0    0  0.00000000000E+00  0.00000000000E+00  0.45593999997E+02  0.45594000000E+02  0.51100000000E-03 0.  1.
         11   -1    0    0    0    0 -0.00000000000E+00 -0.00000000000E+00 -0.45593999997E+02  0.45594000000E+02  0.51100000000E-03 0. -1.
    9900012    2    1    2    0    0  0.57898655980E+01 -0.17073849208E+01  0.31309463707E+02  0.59301949373E+02  0.50000009749E+02 0.  0.
         12    1    1    2    0    0 -0.57898655980E+01  0.17073849208E+01 -0.31309463707E+02  0.31886050627E+02  0.00000000000E+00 0. -1.
         11    1    3    3    0    0 -0.50937033031E+01  0.67952351658E+01  0.55844202425E+01  0.10163994491E+02  0.51100000000E-03 0. -1.
        -11    1    3    3    0    0 -0.85801495754E+01 -0.30887053797E+01  0.27388692130E+02  0.28866927867E+02  0.51100000000E-03 0.  1.
        -12    1    3    3    0    0  0.19463718477E+02 -0.54139147069E+01 -0.16636486647E+01  0.20271027016E+02  0.00000000000E+00 0.  1.
</event>
<event>
 7    1  0.7317117E-012  0.5930196E+02  0.7816164E-02  0.1266605E+00
        -11   -1    0    0    0    0  0.00000000000E+00  0.00000000000E+00  0.45593999997E+02  0.45594000000E+02  0.51100000000E-03 0.  1.
         11   -1    0    0    0    0 -0.00000000000E+00 -0.00000000000E+00 -0.45593999997E+02  0.45594000000E+02  0.51100000000E-03 0. -1.
    9900012    2    1    2    0    0  0.14159528833E+01 -0.19772414356E+02  0.24975317128E+02  0.59301956694E+02  0.50000023101E+02 0.  0.
         12    1    1    2    0    0 -0.14159528833E+01  0.19772414356E+02 -0.24975317128E+02  0.31886043306E+02  0.00000000000E+00 0. -1.
         11    1    3    3    0    0 -0.53375520724E+01 -0.12031842457E+02 -0.57518145404E+01  0.14364472347E+02  0.51100000000E-03 0. -1.
        -11    1    3    3    0    0 -0.12270416405E+02 -0.59473556805E+01  0.11623207691E+02  0.17917397011E+02  0.51100000000E-03 0.  1.
         12    1    3    3    0    0  0.19023921361E+02 -0.17932162182E+01  0.19103923977E+02  0.27020087337E+02  0.00000000000E+00 0. -1.
</event>
<event>
 7    1  0.6246445E-012  0.5930198E+02  0.7816164E-02  0.1266605E+00
        -11   -1    0    0    0    0  0.00000000000E+00  0.00000000000E+00  0.45593999997E+02  0.45594000000E+02  0.51100000000E-03 0.  1.
         11   -1    0    0    0    0 -0.00000000000E+00 -0.00000000000E+00 -0.45593999997E+02  0.45594000000E+02  0.51100000000E-03 0. -1.
    9900012    2    1    2    0    0  0.26169302345E+02  0.17275064081E+02  0.57842966698E+01  0.59301979361E+02  0.50000064439E+02 0.  0.
         12    1    1    2    0    0 -0.26169302345E+02 -0.17275064081E+02 -0.57842966698E+01  0.31886020639E+02  0.00000000000E+00 0. -1.
         11    1    3    3    0    0 -0.15543878647E+01 -0.10656852547E+02 -0.66671230075E+01  0.12666300064E+02  0.51100000000E-03 0. -1.
        -11    1    3    3    0    0  0.12518447285E+02 -0.50541803324E+00  0.17002564326E+01  0.12643490104E+02  0.51100000000E-03 0.  1.
        -12    1    3    3    0    0  0.15205242925E+02  0.28437334661E+02  0.10751163245E+02  0.33992189193E+02  0.00000000000E+00 0.  1.
</event>
<event>
 7    1  0.6246445E-012  0.5930191E+02  0.7816164E-02  0.1266605E+00
        -11   -1    0    0    0    0  0.00000000000E+00  0.00000000000E+00  0.45593999997E+02  0.45594000000E+02  0.51100000000E-03 0.  1.
         11   -1    0    0    0    0 -0.00000000000E+00 -0.00000000000E+00 -0.45593999997E+02  0.45594000000E+02  0.51100000000E-03 0. -1.
    9900012    2    1    2    0    0 -0.32806988697E+01 -0.30545227413E+02 -0.85410214262E+01  0.59301906639E+02  0.49999931813E+02 0.  0.
         12    1    1    2    0    0  0.32806988697E+01  0.30545227413E+02  0.85410214262E+01  0.31886093361E+02  0.00000000000E+00 0. -1.
         11    1    3    3    0    0 -0.27003436637E+01  0.12097686889E+01  0.49559857504E+01  0.57721045730E+01  0.51100000000E-03 0. -1.
        -11    1    3    3    0    0 -0.13615032909E+02  0.33879527381E+01 -0.11985394861E+01  0.14081329554E+02  0.51100000000E-03 0.  1.
        -12    1    3    3    0    0  0.13034677703E+02 -0.35142948840E+02 -0.12298467690E+02  0.39448472512E+02  0.00000000000E+00 0.  1.
</event>
<event>
 7    1  0.6246445E-012  0.5930171E+02  0.7816164E-02  0.1266606E+00
        -11   -1    0    0    0    0  0.00000000000E+00  0.00000000000E+00  0.45593999997E+02  0.45594000000E+02  0.51100000000E-03 0. -1.
         11   -1    0    0    0    0 -0.00000000000E+00 -0.00000000000E+00 -0.45593999997E+02  0.45594000000E+02  0.51100000000E-03 0.  1.
    9900012    2    1    2    0    0 -0.27154647645E+02 -0.15579807407E+02  0.60522837250E+01  0.59301711005E+02  0.49999575021E+02 0.  0.
         12    1    1    2    0    0  0.27154647645E+02  0.15579807407E+02 -0.60522837250E+01  0.31886288995E+02  0.00000000000E+00 0. -1.
         11    1    3    3    0    0 -0.11433451306E+02  0.11595379904E+02 -0.11194183648E+02  0.19760728521E+02  0.51100000000E-03 0. -1.
        -11    1    3    3    0    0 -0.11628110975E+02 -0.81088731886E+01  0.10921696992E+01  0.14218284853E+02  0.51100000000E-03 0.  1.
        -12    1    3    3    0    0 -0.40930853637E+01 -0.19066314122E+02  0.16154297674E+02  0.25322697631E+02  0.00000000000E+00 0.  1.
</event>
<event>
 7    1  0.6246445E-012  0.5930191E+02  0.7816164E-02  0.1266605E+00
        -11   -1    0    0    0    0  0.00000000000E+00  0.00000000000E+00  0.45593999997E+02  0.45594000000E+02  0.51100000000E-03 0. -1.
         11   -1    0    0    0    0 -0.00000000000E+00 -0.00000000000E+00 -0.45593999997E+02  0.45594000000E+02  0.51100000000E-03 0.  1.
    9900012    2    1    2    0    0  0.10733017044E+02  0.28502411658E+02 -0.94412550663E+01  0.59301914909E+02  0.49999946894E+02 0.  0.
         12    1    1    2    0    0 -0.10733017044E+02 -0.28502411658E+02  0.94412550663E+01  0.31886085091E+02  0.00000000000E+00 0. -1.
         11    1    3    3    0    0 -0.59727594774E+01  0.92949889791E+01  0.66705320696E+01  0.12906071217E+02  0.51100000000E-03 0. -1.
        -11    1    3    3    0    0 -0.94463215780E+01  0.12449392355E+02 -0.10444660857E+02  0.18796576870E+02  0.51100000000E-03 0.  1.
         12    1    3    3    0    0  0.26152098099E+02  0.67580303246E+01 -0.56671262791E+01  0.27599266822E+02  0.00000000000E+00 0. -1.
</event>
<event>
 7    1  0.6246445E-012  0.5930194E+02  0.7816164E-02  0.1266605E+00
        -11   -1    0    0    0    0  0.00000000000E+00  0.00000000000E+00  0.45593999997E+02  0.45594000000E+02  0.51100000000E-03 0. -1.
         11   -1    0    0    0    0 -0.00000000000E+00 -0.00000000000E+00 -0.45593999997E+02  0.45594000000E+02  0.51100000000E-03 0.  1.
    9900012    2    1    2    0    0 -0.67978293740E+01  0.24881532569E+02 -0.18746187634E+02  0.59301941950E+02  0.49999996210E+02 0.  0.
         12    1    1    2    0    0  0.67978293740E+01 -0.24881532569E+02  0.18746187634E+02  0.31886058050E+02  0.00000000000E+00 0. -1.
         11    1    3    3    0    0 -0.11051243592E+02 -0.36678620590E+01 -0.16211853868E+01  0.11756336136E+02  0.51100000000E-03 0. -1.
        -11    1    3    3    0    0  0.11554942192E+02 -0.30237501176E+01 -0.43284255493E+01  0.12704134045E+02  0.51100000000E-03 0.  1.
        -12    1    3    3    0    0 -0.73015279737E+01  0.31573144746E+02 -0.12796576698E+02  0.34841471769E+02  0.00000000000E+00 0.  1.
</event>
<event>
 7    1  0.6246445E-012  0.5930195E+02  0.7816164E-02  0.1266605E+00
        -11   -1    0    0    0    0  0.00000000000E+00  0.00000000000E+00  0.45593999997E+02  0.45594000000E+02  0.51100000000E-03 0. -1.
         11   -1    0    0    0    0 -0.00000000000E+00 -0.00000000000E+00 -0.45593999997E+02  0.45594000000E+02  0.51100000000E-03 0.  1.
    9900012    2    1    2    0    0 -0.25723283151E+02 -0.13559437178E+02  0.13083371099E+02  0.59301949257E+02  0.50000009537E+02 0.  0.
         12    1    1    2    0    0  0.25723283151E+02  0.13559437178E+02 -0.13083371099E+02  0.31886050743E+02  0.00000000000E+00 0. -1.
         11    1    3    3    0    0 -0.31692671874E+02  0.11202751210E+00  0.13090043025E+02  0.34289753970E+02  0.51100000000E-03 0. -1.
        -11    1    3    3    0    0 -0.37926427027E+01  0.99047574262E-01  0.59972302798E+01  0.70965287558E+01  0.51100000000E-03 0.  1.
        -12    1    3    3    0    0  0.97620314251E+01 -0.13770512265E+02 -0.60039022055E+01  0.17915666532E+02  0.00000000000E+00 0.  1.
</event>
<event>
 7    1  0.6246445E-012  0.5930191E+02  0.7816164E-02  0.1266605E+00
        -11   -1    0    0    0    0  0.00000000000E+00  0.00000000000E+00  0.45593999997E+02  0.45594000000E+02  0.51100000000E-03 0.  1.
         11   -1    0    0    0    0 -0.00000000000E+00 -0.00000000000E+00 -0.45593999997E+02  0.45594000000E+02  0.51100000000E-03 0. -1.
    9900012    2    1    2    0    0  0.14678038190E+02 -0.25433468131E+02  0.12426438677E+02  0.59301913936E+02  0.49999945120E+02 0.  0.
         12    1    1    2    0    0 -0.14678038190E+02  0.25433468131E+02 -0.12426438677E+02  0.31886086064E+02  0.00000000000E+00 0. -1.
         11    1    3    3    0    0 -0.26313715111E+01 -0.16510571435E+01 -0.62403376192E+01  0.69707904561E+01  0.51100000000E-03 0. -1.
        -11    1    3    3    0    0  0.23200150268E+02 -0.89495325031E+01 -0.33998934649E+01  0.25097816246E+02  0.51100000000E-03 0.  1.
        -12    1    3    3    0    0 -0.58907405671E+01 -0.14832878485E+02  0.22066669761E+02  0.27233307234E+02  0.00000000000E+00 0.  1.
</event>
<event>
 7    1  0.6246445E-012  0.5930195E+02  0.7816164E-02  0.1266605E+00
        -11   -1    0    0    0    0  0.00000000000E+00  0.00000000000E+00  0.45593999997E+02  0.45594000000E+02  0.51100000000E-03 0. -1.
         11   -1    0    0    0    0 -0.00000000000E+00 -0.00000000000E+00 -0.45593999997E+02  0.45594000000E+02  0.51100000000E-03 0.  1.
    9900012    2    1    2    0    0 -0.16520992635E+02 -0.16589239056E+02 -0.21646575801E+02  0.59301948284E+02  0.50000007763E+02 0.  0.
         12    1    1    2    0    0  0.16520992635E+02  0.16589239056E+02  0.21646575801E+02  0.31886051716E+02  0.00000000000E+00 0. -1.
         11    1    3    3    0    0 -0.18925607109E+02  0.85264308127E+01 -0.24828698336E+02  0.32362677395E+02  0.51100000000E-03 0. -1.
        -11    1    3    3    0    0 -0.94210736244E+00 -0.12656663945E+01 -0.17494653371E+01  0.23558664926E+01  0.51100000000E-03 0.  1.
        -12    1    3    3    0    0  0.33467218361E+01 -0.23850003475E+02  0.49315878726E+01  0.24583404397E+02  0.00000000000E+00 0.  1.
</event>
<event>
 7    1  0.6246445E-012  0.5930202E+02  0.7816164E-02  0.1266605E+00
        -11   -1    0    0    0    0  0.00000000000E+00  0.00000000000E+00  0.45593999997E+02  0.45594000000E+02  0.51100000000E-03 0.  1.
         11   -1    0    0    0    0 -0.00000000000E+00 -0.00000000000E+00 -0.45593999997E+02  0.45594000000E+02  0.51100000000E-03 0. -1.
    9900012    2    1    2    0    0  0.13743813448E+02  0.18156560828E+02  0.22319560627E+02  0.59302017252E+02  0.50000133544E+02 0.  0.
         12    1    1    2    0    0 -0.13743813448E+02 -0.18156560828E+02 -0.22319560627E+02  0.31885982748E+02  0.00000000000E+00 0. -1.
         11    1    3    3    0    0 -0.10862522584E+02 -0.62757063763E+01  0.18998779011E+02  0.22766916603E+02  0.51100000000E-03 0. -1.
        -11    1    3    3    0    0  0.16945864731E+01  0.10707952144E+01  0.32439885975E+01  0.38133565251E+01  0.51100000000E-03 0.  1.
         12    1    3    3    0    0  0.22911749559E+02  0.23361471990E+02  0.76793018216E-01  0.32721744125E+02  0.00000000000E+00 0. -1.
</event>
<event>
 7    1  0.6246445E-012  0.5930194E+02  0.7816164E-02  0.1266605E+00
        -11   -1    0    0    0    0  0.00000000000E+00  0.00000000000E+00  0.45593999997E+02  0.45594000000E+02  0.51100000000E-03 0.  1.
         11   -1    0    0    0    0 -0.00000000000E+00 -0.00000000000E+00 -0.45593999997E+02  0.45594000000E+02  0.51100000000E-03 0. -1.
    9900012    2    1    2    0    0  0.70008289644E+01 -0.31096412452E+02  0.84998180749E+00  0.59301938114E+02  0.49999989214E+02 0.  0.
         12    1    1    2    0    0 -0.70008289644E+01  0.31096412452E+02 -0.84998180749E+00  0.31886061886E+02  0.00000000000E+00 0. -1.
         11    1    3    3    0    0 -0.17444669742E+02 -0.48531078906E+01 -0.27959701154E+01  0.18321752312E+02  0.51100000000E-03 0. -1.
        -11    1    3    3    0    0 -0.16809453215E+01 -0.66920069672E+01  0.46707713652E+01  0.83321449717E+01  0.51100000000E-03 0.  1.
        -12    1    3    3    0    0  0.26126444028E+02 -0.19551297594E+02 -0.10248194423E+01  0.32648040830E+02  0.00000000000E+00 0.  1.
</event>
<event>
 7    1  0.6246445E-012  0.5930190E+02  0.7816164E-02  0.1266605E+00
        -11   -1    0    0    0    0  0.00000000000E+00  0.00000000000E+00  0.45593999997E+02  0.45594000000E+02  0.51100000000E-03 0. -1.
         11   -1    0    0    0    0 -0.00000000000E+00 -0.00000000000E+00 -0.45593999997E+02  0.45594000000E+02  0.51100000000E-03 0.  1.
    9900012    2    1    2    0    0 -0.15738955250E+02  0.27452433963E+02 -0.39208148247E+01  0.59301895946E+02  0.49999912310E+02 0.  0.
         12    1    1    2    0    0  0.15738955250E+02 -0.27452433963E+02  0.39208148247E+01  0.31886104054E+02  0.00000000000E+00 0. -1.
         11    1    3    3    0    0  0.15317514405E+01  0.98555939888E+00 -0.17423004574E+01  0.25205556826E+01  0.51100000000E-03 0. -1.
        -11    1    3    3    0    0 -0.87991716222E+01 -0.27924264453E+01 -0.19617868067E+02  0.21681416339E+02  0.51100000000E-03 0.  1.
        -12    1    3    3    0    0 -0.84715350686E+01  0.29259301010E+02  0.17439353700E+02  0.35099923924E+02  0.00000000000E+00 0.  1.
</event>
<event>
 7    1  0.6246445E-012  0.5930202E+02  0.7816164E-02  0.1266604E+00
        -11   -1    0    0    0    0  0.00000000000E+00  0.00000000000E+00  0.45593999997E+02  0.45594000000E+02  0.51100000000E-03 0. -1.
         11   -1    0    0    0    0 -0.00000000000E+00 -0.00000000000E+00 -0.45593999997E+02  0.45594000000E+02  0.51100000000E-03 0.  1.
    9900012    2    1    2    0    0 -0.21218375550E+02 -0.10067547251E+02 -0.21567121933E+02  0.59302020054E+02  0.50000138654E+02 0.  0.
         12    1    1    2    0    0  0.21218375550E+02  0.10067547251E+02  0.21567121933E+02  0.31885979946E+02  0.00000000000E+00 0. -1.
         11    1    3    3    0    0 -0.15876898971E+02  0.32250210237E+01 -0.57142852378E+01  0.17179340429E+02  0.51100000000E-03 0.  1.
        -11    1    3    3    0    0  0.15379345151E+02 -0.33521922786E+01 -0.38911241649E+01  0.16214262175E+02  0.51100000000E-03 0. -1.
         12    1    3    3    0    0 -0.20720821730E+02 -0.99403759959E+01 -0.11961712530E+02  0.25908417450E+02  0.00000000000E+00 0. -1.
</event>
<event>
 7    1  0.6246445E-012  0.5930166E+02  0.7816164E-02  0.1266606E+00
        -11   -1    0    0    0    0  0.00000000000E+00  0.00000000000E+00  0.45593999997E+02  0.45594000000E+02  0.51100000000E-03 0.  1.
         11   -1    0    0    0    0 -0.00000000000E+00 -0.00000000000E+00 -0.45593999997E+02  0.45594000000E+02  0.51100000000E-03 0. -1.
    9900012    2    1    2    0    0  0.89384856980E+01  0.58114573441E+01  0.30051107367E+02  0.59301660966E+02  0.49999483760E+02 0.  0.
         12    1    1    2    0    0 -0.89384856980E+01 -0.58114573441E+01 -0.30051107367E+02  0.31886339034E+02  0.00000000000E+00 0. -1.
         11    1    3    3    0    0  0.97285303540E+01  0.17336537522E+02  0.30507243962E+01  0.20112353311E+02  0.51100000000E-03 0. -1.
        -11    1    3    3    0    0  0.73984855479E+01  0.30665576333E+01  0.72889332157E+00  0.80419307294E+01  0.51100000000E-03 0.  1.
        -12    1    3    3    0    0 -0.81885302039E+01 -0.14591637811E+02  0.26271489649E+02  0.31147376925E+02  0.00000000000E+00 0.  1.
</event>
<event>
 7    1  0.6246445E-012  0.5930195E+02  0.7816164E-02  0.1266605E+00
        -11   -1    0    0    0    0  0.00000000000E+00  0.00000000000E+00  0.45593999997E+02  0.45594000000E+02  0.51100000000E-03 0.  1.
         11   -1    0    0    0    0 -0.00000000000E+00 -0.00000000000E+00 -0.45593999997E+02  0.45594000000E+02  0.51100000000E-03 0. -1.
    9900012    2    1    2    0    0  0.17706530970E+02 -0.18798474372E+02  0.18703382271E+02  0.59301946841E+02  0.50000005130E+02 0.  0.
         12    1    1    2    0    0 -0.17706530970E+02  0.18798474372E+02 -0.18703382271E+02  0.31886053159E+02  0.00000000000E+00 0. -1.
         11    1    3    3    0    0  0.91825589938E+00 -0.23576594543E+02  0.44590405855E+01  0.24012122925E+02  0.51100000000E-03 0. -1.
        -11    1    3    3    0    0  0.58247899204E+01 -0.11305315773E+02  0.70289153179E+01  0.14530794650E+02  0.51100000000E-03 0.  1.
         12    1    3    3    0    0  0.10963485150E+02  0.16083435944E+02  0.72154263675E+01  0.20759029266E+02  0.00000000000E+00 0. -1.
</event>
<event>
 7    1  0.6246445E-012  0.5930188E+02  0.7816164E-02  0.1266605E+00
        -11   -1    0    0    0    0  0.00000000000E+00  0.00000000000E+00  0.45593999997E+02  0.45594000000E+02  0.51100000000E-03 0.  1.
         11   -1    0    0    0    0 -0.00000000000E+00 -0.00000000000E+00 -0.45593999997E+02  0.45594000000E+02  0.51100000000E-03 0. -1.
    9900012    2    1    2    0    0 -0.14703305913E+02 -0.21188725988E+02  0.18750350223E+02  0.59301875318E+02  0.49999874689E+02 0.  0.
         12    1    1    2    0    0  0.14703305913E+02  0.21188725988E+02 -0.18750350223E+02  0.31886124682E+02  0.00000000000E+00 0. -1.
         11    1    3    3    0    0  0.55800135697E+01  0.47894073190E+01 -0.16795400711E+01  0.75429323885E+01  0.51100000000E-03 0. -1.
        -11    1    3    3    0    0 -0.17272848462E+02  0.37089781249E+01  0.87548394670E+01  0.19716871636E+02  0.51100000000E-03 0.  1.
        -12    1    3    3    0    0 -0.30104710201E+01 -0.29687111432E+02  0.11675050827E+02  0.32042071293E+02  0.00000000000E+00 0.  1.
</event>
<event>
 7    1  0.6246445E-012  0.5930196E+02  0.7816164E-02  0.1266605E+00
        -11   -1    0    0    0    0  0.00000000000E+00  0.00000000000E+00  0.45593999997E+02  0.45594000000E+02  0.51100000000E-03 0. -1.
         11   -1    0    0    0    0 -0.00000000000E+00 -0.00000000000E+00 -0.45593999997E+02  0.45594000000E+02  0.51100000000E-03 0.  1.
    9900012    2    1    2    0    0  0.49686266344E+01  0.29700541229E+02 -0.10483816188E+02  0.59301956003E+02  0.50000021839E+02 0.  0.
         12    1    1    2    0    0 -0.49686266344E+01 -0.29700541229E+02  0.10483816188E+02  0.31886043997E+02  0.00000000000E+00 0. -1.
         11    1    3    3    0    0 -0.52076508274E+00  0.32588715196E+00  0.12143465440E+01  0.13608954762E+01  0.51100000000E-03 0. -1.
        -11    1    3    3    0    0  0.40901648683E+01  0.18969908984E+02 -0.30649323518E+02  0.36276272243E+02  0.51100000000E-03 0.  1.
         12    1    3    3    0    0  0.13992268488E+01  0.10404745093E+02  0.18951160786E+02  0.21664788283E+02  0.00000000000E+00 0. -1.
</event>
<event>
 7    1  0.6246445E-012  0.5930198E+02  0.7816164E-02  0.1266605E+00
        -11   -1    0    0    0    0  0.00000000000E+00  0.00000000000E+00  0.45593999997E+02  0.45594000000E+02  0.51100000000E-03 0. -1.
         11   -1    0    0    0    0 -0.00000000000E+00 -0.00000000000E+00 -0.45593999997E+02  0.45594000000E+02  0.51100000000E-03 0.  1.
    9900012    2    1    2    0    0  0.17020597303E+02  0.26232597251E+02  0.62344648212E+01  0.59301977315E+02  0.50000060707E+02 0.  0.
         12    1    1    2    0    0 -0.17020597303E+02 -0.26232597251E+02 -0.62344648212E+01  0.31886022685E+02  0.00000000000E+00 0. -1.
         11    1    3    3    0    0 -0.11632794934E+01 -0.23915081682E+00  0.14397620765E+02  0.14446518482E+02  0.51100000000E-03 0. -1.
        -11    1    3    3    0    0  0.11168574859E+02  0.98837288324E+01 -0.18754528438E+02  0.23961583779E+02  0.51100000000E-03 0.  1.
         12    1    3    3    0    0  0.70153019378E+01  0.16588019236E+02  0.10591372494E+02  0.20893875053E+02  0.00000000000E+00 0. -1.
</event>
<event>
 7    1  0.6246445E-012  0.5930196E+02  0.7816164E-02  0.1266605E+00
        -11   -1    0    0    0    0  0.00000000000E+00  0.00000000000E+00  0.45593999997E+02  0.45594000000E+02  0.51100000000E-03 0. -1.
         11   -1    0    0    0    0 -0.00000000000E+00 -0.00000000000E+00 -0.45593999997E+02  0.45594000000E+02  0.51100000000E-03 0.  1.
    9900012    2    1    2    0    0 -0.16189215022E+01 -0.10879080694E+02 -0.29928984274E+02  0.59301962252E+02  0.50000033237E+02 0.  0.
         12    1    1    2    0    0  0.16189215022E+01  0.10879080694E+02  0.29928984274E+02  0.31886037748E+02  0.00000000000E+00 0. -1.
         11    1    3    3    0    0 -0.12153449557E+02 -0.46175498341E+01  0.52365562702E+00  0.13011622424E+02  0.51100000000E-03 0. -1.
        -11    1    3    3    0    0 -0.81987657290E+01  0.29943281833E+01  0.72479983668E+00  0.87584870732E+01  0.51100000000E-03 0.  1.
        -12    1    3    3    0    0  0.18733293784E+02 -0.92558590436E+01 -0.31177439738E+02  0.37531852755E+02  0.00000000000E+00 0.  1.
</event>
<event>
 7    1  0.6246445E-012  0.5930193E+02  0.7816164E-02  0.1266605E+00
        -11   -1    0    0    0    0  0.00000000000E+00  0.00000000000E+00  0.45593999997E+02  0.45594000000E+02  0.51100000000E-03 0.  1.
         11   -1    0    0    0    0 -0.00000000000E+00 -0.00000000000E+00 -0.45593999997E+02  0.45594000000E+02  0.51100000000E-03 0. -1.
    9900012    2    1    2    0    0  0.14816855634E+02  0.27928901840E+02 -0.41422750604E+01  0.59301933897E+02  0.49999981524E+02 0.  0.
         12    1    1    2    0    0 -0.14816855634E+02 -0.27928901840E+02  0.41422750604E+01  0.31886066103E+02  0.00000000000E+00 0. -1.
         11    1    3    3    0    0  0.22437128232E+02  0.26405964630E+01 -0.13290560614E+02  0.26211380633E+02  0.51100000000E-03 0. -1.
        -11    1    3    3    0    0 -0.43486469546E+01 -0.15404380893E+01  0.19075265725E+00  0.46173657728E+01  0.51100000000E-03 0.  1.
        -12    1    3    3    0    0 -0.32716256432E+01  0.26828743466E+02  0.89575328967E+01  0.28473187491E+02  0.00000000000E+00 0.  1.
</event>
<event>
 7    1  0.6246445E-012  0.5930194E+02  0.7816164E-02  0.1266605E+00
        -11   -1    0    0    0    0  0.00000000000E+00  0.00000000000E+00  0.45593999997E+02  0.45594000000E+02  0.51100000000E-03 0.  1.
         11   -1    0    0    0    0 -0.00000000000E+00 -0.00000000000E+00 -0.45593999997E+02  0.45594000000E+02  0.51100000000E-03 0. -1.
    9900012    2    1    2    0    0 -0.12617159171E+02  0.77726227751E+00  0.29273267692E+02  0.59301936530E+02  0.49999986327E+02 0.  0.
         12    1    1    2    0    0  0.12617159171E+02 -0.77726227751E+00 -0.29273267692E+02  0.31886063470E+02  0.00000000000E+00 0. -1.
         11    1    3    3    0    0 -0.12669132574E+02  0.16107022348E+01  0.25297357905E+02  0.28338270926E+02  0.51100000000E-03 0.  1.
        -11    1    3    3    0    0 -0.12979597834E+02 -0.84029218059E+01  0.36620962153E+01  0.15889934039E+02  0.51100000000E-03 0. -1.
        -12    1    3    3    0    0  0.13031571237E+02  0.75694818486E+01  0.31381357214E+00  0.15073731565E+02  0.00000000000E+00 0.  1.
</event>
<event>
 7    1  0.6246445E-012  0.5930196E+02  0.7816164E-02  0.1266605E+00
        -11   -1    0    0    0    0  0.00000000000E+00  0.00000000000E+00  0.45593999997E+02  0.45594000000E+02  0.51100000000E-03 0.  1.
         11   -1    0    0    0    0 -0.00000000000E+00 -0.00000000000E+00 -0.45593999997E+02  0.45594000000E+02  0.51100000000E-03 0. -1.
    9900012    2    1    2    0    0 -0.27318758234E+02 -0.15536123575E+01  0.16370434485E+02  0.59301962491E+02  0.50000033673E+02 0.  0.
         12    1    1    2    0    0  0.27318758234E+02  0.15536123575E+01 -0.16370434485E+02  0.31886037509E+02  0.00000000000E+00 0. -1.
         11    1    3    3    0    0 -0.12860138184E+02  0.15231689449E+02 -0.13280806747E+01  0.19978771637E+02  0.51100000000E-03 0. -1.
        -11    1    3    3    0    0 -0.14192156810E+02 -0.84592872552E+01 -0.31969213449E+01  0.16828462857E+02  0.51100000000E-03 0.  1.
        -12    1    3    3    0    0 -0.26646324028E+00 -0.83260145516E+01  0.20895436504E+02  0.22494727998E+02  0.00000000000E+00 0.  1.
</event>
<event>
 7    1  0.6246445E-012  0.5930195E+02  0.7816164E-02  0.1266605E+00
        -11   -1    0    0    0    0  0.00000000000E+00  0.00000000000E+00  0.45593999997E+02  0.45594000000E+02  0.51100000000E-03 0.  1.
         11   -1    0    0    0    0 -0.00000000000E+00 -0.00000000000E+00 -0.45593999997E+02  0.45594000000E+02  0.51100000000E-03 0. -1.
    9900012    2    1    2    0    0 -0.52722876798E+01  0.40313619982E+00  0.31444559668E+02  0.59301954950E+02  0.50000019921E+02 0.  0.
         12    1    1    2    0    0  0.52722876798E+01 -0.40313619982E+00 -0.31444559668E+02  0.31886045050E+02  0.00000000000E+00 0. -1.
         11    1    3    3    0    0 -0.70346581638E+01 -0.60361731006E+01 -0.79341654156E+01  0.12201343462E+02  0.51100000000E-03 0. -1.
        -11    1    3    3    0    0 -0.38311406720E+01  0.47484255296E+01 -0.11022845870E+01  0.62000173734E+01  0.51100000000E-03 0.  1.
         12    1    3    3    0    0  0.55935111561E+01  0.16908837708E+01  0.40481009671E+02  0.40900594115E+02  0.00000000000E+00 0. -1.
</event>
<event>
 7    1  0.6246445E-012  0.5930193E+02  0.7816164E-02  0.1266605E+00
        -11   -1    0    0    0    0  0.00000000000E+00  0.00000000000E+00  0.45593999997E+02  0.45594000000E+02  0.51100000000E-03 0. -1.
         11   -1    0    0    0    0 -0.00000000000E+00 -0.00000000000E+00 -0.45593999997E+02  0.45594000000E+02  0.51100000000E-03 0.  1.
    9900012    2    1    2    0    0  0.72497689163E+01 -0.25569895741E+02 -0.17616551339E+02  0.59301927827E+02  0.49999970454E+02 0.  0.
         12    1    1    2    0    0 -0.72497689163E+01  0.25569895741E+02  0.17616551339E+02  0.31886072173E+02  0.00000000000E+00 0. -1.
         11    1    3    3    0    0  0.98149621351E+01 -0.17103741981E+02  0.85574445894E+01  0.21496542271E+02  0.51100000000E-03 0. -1.
        -11    1    3    3    0    0 -0.30231374311E+00 -0.15897395527E+02 -0.75004923419E+01  0.17580556412E+02  0.51100000000E-03 0.  1.
        -12    1    3    3    0    0 -0.22628794757E+01  0.74312417664E+01 -0.18673503586E+02  0.20224829144E+02  0.00000000000E+00 0.  1.
</event>
<event>
 7    1  0.6246445E-012  0.5930197E+02  0.7816164E-02  0.1266605E+00
        -11   -1    0    0    0    0  0.00000000000E+00  0.00000000000E+00  0.45593999997E+02  0.45594000000E+02  0.51100000000E-03 0. -1.
         11   -1    0    0    0    0 -0.00000000000E+00 -0.00000000000E+00 -0.45593999997E+02  0.45594000000E+02  0.51100000000E-03 0.  1.
    9900012    2    1    2    0    0  0.26023838570E+02 -0.17930105912E+02 -0.42414456739E+01  0.59301972758E+02  0.50000052396E+02 0.  0.
         12    1    1    2    0    0 -0.26023838570E+02  0.17930105912E+02  0.42414456739E+01  0.31886027242E+02  0.00000000000E+00 0. -1.
         11    1    3    3    0    0  0.10112143391E+02  0.90327265403E+01 -0.76167886785E+01  0.15551882933E+02  0.51100000000E-03 0. -1.
        -11    1    3    3    0    0  0.81433376394E+01 -0.11891302098E+02 -0.13557697630E+02  0.19787071001E+02  0.51100000000E-03 0.  1.
        -12    1    3    3    0    0  0.77683575388E+01 -0.15071530353E+02  0.16933040634E+02  0.23963018824E+02  0.00000000000E+00 0.  1.
</event>
<event>
 7    1  0.6246445E-012  0.5930194E+02  0.7816164E-02  0.1266605E+00
        -11   -1    0    0    0    0  0.00000000000E+00  0.00000000000E+00  0.45593999997E+02  0.45594000000E+02  0.51100000000E-03 0.  1.
         11   -1    0    0    0    0 -0.00000000000E+00 -0.00000000000E+00 -0.45593999997E+02  0.45594000000E+02  0.51100000000E-03 0. -1.
    9900012    2    1    2    0    0 -0.22762838411E+02  0.15708055636E+01  0.22273457181E+02  0.59301935059E+02  0.49999983643E+02 0.  0.
         12    1    1    2    0    0  0.22762838411E+02 -0.15708055636E+01 -0.22273457181E+02  0.31886064941E+02  0.00000000000E+00 0. -1.
         11    1    3    3    0    0  0.17993373041E+01  0.81621933839E+00 -0.51852142351E+01  0.55488985994E+01  0.51100000000E-03 0. -1.
        -11    1    3    3    0    0 -0.11829293145E+02  0.14217479321E+02 -0.23605927531E+01  0.18645141269E+02  0.51100000000E-03 0.  1.
        -12    1    3    3    0    0 -0.12732882570E+02 -0.13462893096E+02  0.29819264169E+02  0.35107895190E+02  0.00000000000E+00 0.  1.
</event>
<event>
 7    1  0.6246445E-012  0.5930195E+02  0.7816164E-02  0.1266605E+00
        -11   -1    0    0    0    0  0.00000000000E+00  0.00000000000E+00  0.45593999997E+02  0.45594000000E+02  0.51100000000E-03 0.  1.
         11   -1    0    0    0    0 -0.00000000000E+00 -0.00000000000E+00 -0.45593999997E+02  0.45594000000E+02  0.51100000000E-03 0. -1.
    9900012    2    1    2    0    0 -0.17431631753E+02  0.28008273132E+01  0.26552096756E+02  0.59301948797E+02  0.50000008698E+02 0.  0.
         12    1    1    2    0    0  0.17431631753E+02 -0.28008273132E+01 -0.26552096756E+02  0.31886051203E+02  0.00000000000E+00 0. -1.
         11    1    3    3    0    0 -0.12928630068E+02  0.63547591957E+01  0.24417979640E+02  0.28350840725E+02  0.51100000000E-03 0. -1.
        -11    1    3    3    0    0 -0.18315495865E+01  0.20454559323E+01  0.15750471547E+02  0.15987989807E+02  0.51100000000E-03 0.  1.
         12    1    3    3    0    0 -0.26714520985E+01 -0.55993878148E+01 -0.13616354431E+02  0.14963118265E+02  0.00000000000E+00 0. -1.
</event>
<event>
 7    1  0.6246445E-012  0.5930194E+02  0.7816164E-02  0.1266605E+00
        -11   -1    0    0    0    0  0.00000000000E+00  0.00000000000E+00  0.45593999997E+02  0.45594000000E+02  0.51100000000E-03 0.  1.
         11   -1    0    0    0    0 -0.00000000000E+00 -0.00000000000E+00 -0.45593999997E+02  0.45594000000E+02  0.51100000000E-03 0. -1.
    9900012    2    1    2    0    0  0.21907379183E+01  0.29505876971E+02  0.11888005185E+02  0.59301940731E+02  0.49999993987E+02 0.  0.
         12    1    1    2    0    0 -0.21907379183E+01 -0.29505876971E+02 -0.11888005185E+02  0.31886059269E+02  0.00000000000E+00 0. -1.
         11    1    3    3    0    0 -0.53407205967E+01 -0.31299381940E+01  0.10075345077E+01  0.62717569816E+01  0.51100000000E-03 0. -1.
        -11    1    3    3    0    0  0.14476116242E+01 -0.89820492278E+01  0.54898110234E+01  0.10625949985E+02  0.51100000000E-03 0.  1.
         12    1    3    3    0    0  0.60838468908E+01  0.41617864393E+02  0.53906596540E+01  0.42404233764E+02  0.00000000000E+00 0. -1.
</event>
<event>
 7    1  0.6246445E-012  0.5930194E+02  0.7816164E-02  0.1266605E+00
        -11   -1    0    0    0    0  0.00000000000E+00  0.00000000000E+00  0.45593999997E+02  0.45594000000E+02  0.51100000000E-03 0.  1.
         11   -1    0    0    0    0 -0.00000000000E+00 -0.00000000000E+00 -0.45593999997E+02  0.45594000000E+02  0.51100000000E-03 0. -1.
    9900012    2    1    2    0    0  0.21829809829E+02  0.11864992371E+02  0.19985047687E+02  0.59301940786E+02  0.49999994089E+02 0.  0.
         12    1    1    2    0    0 -0.21829809829E+02 -0.11864992371E+02 -0.19985047687E+02  0.31886059214E+02  0.00000000000E+00 0. -1.
         11    1    3    3    0    0 -0.10755177983E+01 -0.12101674871E+02  0.54652869398E+00  0.12161659718E+02  0.51100000000E-03 0. -1.
        -11    1    3    3    0    0  0.11565711899E+01 -0.35751607687E+01 -0.35647391071E+01  0.51794591032E+01  0.51100000000E-03 0.  1.
        -12    1    3    3    0    0  0.21748756437E+02  0.27541828011E+02  0.23003258100E+02  0.41960821965E+02  0.00000000000E+00 0.  1.
</event>
<event>
 7    1  0.6749989E-012  0.5930192E+02  0.7816164E-02  0.1266605E+00
        -11   -1    0    0    0    0  0.00000000000E+00  0.00000000000E+00  0.45593999997E+02  0.45594000000E+02  0.51100000000E-03 0. -1.
         11   -1    0    0    0    0 -0.00000000000E+00 -0.00000000000E+00 -0.45593999997E+02  0.45594000000E+02  0.51100000000E-03 0.  1.
    9900012    2    1    2    0    0 -0.92281106272E+01 -0.22611317448E+02 -0.20501029773E+02  0.59301922721E+02  0.49999961142E+02 0.  0.
         12    1    1    2    0    0  0.92281106272E+01  0.22611317448E+02  0.20501029773E+02  0.31886077279E+02  0.00000000000E+00 0. -1.
         11    1    3    3    0    0 -0.61441125983E+00  0.61793073054E+01 -0.22493088226E+00  0.62138501860E+01  0.51100000000E-03 0. -1.
        -11    1    3    3    0    0  0.31271599282E+01 -0.22048333865E+01 -0.23534111002E+02  0.23843128998E+02  0.51100000000E-03 0.  1.
         12    1    3    3    0    0 -0.11740859296E+02 -0.26585791367E+02  0.32580121117E+01  0.29244943537E+02  0.00000000000E+00 0. -1.
</event>
<event>
 7    1  0.6246445E-012  0.5930196E+02  0.7816164E-02  0.1266605E+00
        -11   -1    0    0    0    0  0.00000000000E+00  0.00000000000E+00  0.45593999997E+02  0.45594000000E+02  0.51100000000E-03 0. -1.
         11   -1    0    0    0    0 -0.00000000000E+00 -0.00000000000E+00 -0.45593999997E+02  0.45594000000E+02  0.51100000000E-03 0.  1.
    9900012    2    1    2    0    0 -0.97464408777E+01  0.20289456606E+02 -0.22584604352E+02  0.59301960533E+02  0.50000030101E+02 0.  0.
         12    1    1    2    0    0  0.97464408777E+01 -0.20289456606E+02  0.22584604352E+02  0.31886039467E+02  0.00000000000E+00 0. -1.
         11    1    3    3    0    0 -0.14903457270E+02 -0.81118483336E+01 -0.22365994922E+01  0.17114832735E+02  0.51100000000E-03 0. -1.
        -11    1    3    3    0    0 -0.20568350829E+01  0.12865138630E+02  0.28635021854E+01  0.13339490528E+02  0.51100000000E-03 0.  1.
         12    1    3    3    0    0  0.72138514754E+01  0.15536166310E+02 -0.23211507045E+02  0.28847637269E+02  0.00000000000E+00 0. -1.
</event>
<event>
 7    1  0.6246445E-012  0.5930193E+02  0.7816164E-02  0.1266605E+00
        -11   -1    0    0    0    0  0.00000000000E+00  0.00000000000E+00  0.45593999997E+02  0.45594000000E+02  0.51100000000E-03 0. -1.
         11   -1    0    0    0    0 -0.00000000000E+00 -0.00000000000E+00 -0.45593999997E+02  0.45594000000E+02  0.51100000000E-03 0.  1.
    9900012    2    1    2    0    0  0.29634407543E+02  0.97638384364E+01 -0.65719655901E+01  0.59301931206E+02  0.49999976616E+02 0.  0.
         12    1    1    2    0    0 -0.29634407543E+02 -0.97638384364E+01  0.65719655901E+01  0.31886068794E+02  0.00000000000E+00 0. -1.
         11    1    3    3    0    0 -0.14062102716E+01  0.76988173542E+01 -0.72076011372E+01  0.10639489198E+02  0.51100000000E-03 0. -1.
        -11    1    3    3    0    0  0.32297870242E+02  0.11462864523E+02 -0.86974045019E+01  0.35358090030E+02  0.51100000000E-03 0.  1.
         12    1    3    3    0    0 -0.12572524275E+01 -0.93978434403E+01  0.93330400491E+01  0.13304351978E+02  0.00000000000E+00 0. -1.
</event>
<event>
 7    1  0.6246445E-012  0.5930194E+02  0.7816164E-02  0.1266605E+00
        -11   -1    0    0    0    0  0.00000000000E+00  0.00000000000E+00  0.45593999997E+02  0.45594000000E+02  0.51100000000E-03 0.  1.
         11   -1    0    0    0    0 -0.00000000000E+00 -0.00000000000E+00 -0.45593999997E+02  0.45594000000E+02  0.51100000000E-03 0. -1.
    9900012    2    1    2    0    0  0.12808279280E+02 -0.21668336327E+02  0.19574262221E+02  0.59301944132E+02  0.50000000191E+02 0.  0.
         12    1    1    2    0    0 -0.12808279280E+02  0.21668336327E+02 -0.19574262221E+02  0.31886055868E+02  0.00000000000E+00 0. -1.
         11    1    3    3    0    0  0.78071440974E+00  0.54226800061E+01 -0.28783053453E+00  0.54861480217E+01  0.51100000000E-03 0. -1.
        -11    1    3    3    0    0  0.20182077252E+01  0.86797240353E+01  0.13431045842E+02  0.16118429341E+02  0.51100000000E-03 0.  1.
         12    1    3    3    0    0  0.10009357145E+02 -0.35770740369E+02  0.64310469138E+01  0.37697366770E+02  0.00000000000E+00 0. -1.
</event>
<event>
 7    1  0.6246445E-012  0.5930195E+02  0.7816164E-02  0.1266605E+00
        -11   -1    0    0    0    0  0.00000000000E+00  0.00000000000E+00  0.45593999997E+02  0.45594000000E+02  0.51100000000E-03 0. -1.
         11   -1    0    0    0    0 -0.00000000000E+00 -0.00000000000E+00 -0.45593999997E+02  0.45594000000E+02  0.51100000000E-03 0.  1.
    9900012    2    1    2    0    0 -0.14344150786E+02  0.15083768512E+02 -0.24154616402E+02  0.59301949322E+02  0.50000009656E+02 0.  0.
         12    1    1    2    0    0  0.14344150786E+02 -0.15083768512E+02  0.24154616402E+02  0.31886050678E+02  0.00000000000E+00 0. -1.
         11    1    3    3    0    0 -0.25984128561E+02  0.66685258265E+01 -0.57975801585E+01  0.27445511650E+02  0.51100000000E-03 0. -1.
        -11    1    3    3    0    0 -0.52083160099E+01  0.16016558068E-01 -0.99666905386E+01  0.11245520563E+02  0.51100000000E-03 0.  1.
        -12    1    3    3    0    0  0.16848293785E+02  0.83992261277E+01 -0.83903457049E+01  0.20610917109E+02  0.00000000000E+00 0.  1.
</event>
<event>
 7    1  0.6246445E-012  0.5930195E+02  0.7816164E-02  0.1266605E+00
        -11   -1    0    0    0    0  0.00000000000E+00  0.00000000000E+00  0.45593999997E+02  0.45594000000E+02  0.51100000000E-03 0.  1.
         11   -1    0    0    0    0 -0.00000000000E+00 -0.00000000000E+00 -0.45593999997E+02  0.45594000000E+02  0.51100000000E-03 0. -1.
    9900012    2    1    2    0    0  0.19524705225E+02 -0.25199910099E+02 -0.68615323857E+00  0.59301946789E+02  0.50000005036E+02 0.  0.
         12    1    1    2    0    0 -0.19524705225E+02  0.25199910099E+02  0.68615323857E+00  0.31886053211E+02  0.00000000000E+00 0. -1.
         11    1    3    3    0    0  0.18728612927E+02 -0.80974688047E+01  0.21076590884E+01  0.20512731908E+02  0.51100000000E-03 0. -1.
        -11    1    3    3    0    0  0.17622155593E+02 -0.64439926884E+01 -0.17307925548E+01  0.18843063781E+02  0.51100000000E-03 0.  1.
        -12    1    3    3    0    0 -0.16826063295E+02 -0.10658448605E+02 -0.10630197722E+01  0.19946151100E+02  0.00000000000E+00 0.  1.
</event>
<event>
 7    1  0.6246445E-012  0.5930193E+02  0.7816164E-02  0.1266605E+00
        -11   -1    0    0    0    0  0.00000000000E+00  0.00000000000E+00  0.45593999997E+02  0.45594000000E+02  0.51100000000E-03 0. -1.
         11   -1    0    0    0    0 -0.00000000000E+00 -0.00000000000E+00 -0.45593999997E+02  0.45594000000E+02  0.51100000000E-03 0.  1.
    9900012    2    1    2    0    0  0.17577828303E+02  0.58102919224E+00 -0.26597061290E+02  0.59301932321E+02  0.49999978649E+02 0.  0.
         12    1    1    2    0    0 -0.17577828303E+02 -0.58102919224E+00  0.26597061290E+02  0.31886067679E+02  0.00000000000E+00 0. -1.
         11    1    3    3    0    0  0.32288808732E+01  0.69077189349E+01 -0.10695332284E+02  0.13135158374E+02  0.51100000000E-03 0. -1.
        -11    1    3    3    0    0  0.12366188201E+02  0.16197269776E+02 -0.10478303319E+02  0.22914384118E+02  0.51100000000E-03 0.  1.
         12    1    3    3    0    0  0.19827592286E+01 -0.22523959519E+02 -0.54234256873E+01  0.23252389829E+02  0.00000000000E+00 0. -1.
</event>
<event>
 7    1  0.6246445E-012  0.5930193E+02  0.7816164E-02  0.1266605E+00
        -11   -1    0    0    0    0  0.00000000000E+00  0.00000000000E+00  0.45593999997E+02  0.45594000000E+02  0.51100000000E-03 0. -1.
         11   -1    0    0    0    0 -0.00000000000E+00 -0.00000000000E+00 -0.45593999997E+02  0.45594000000E+02  0.51100000000E-03 0.  1.
    9900012    2    1    2    0    0  0.25755821816E+02  0.18351456184E+02 -0.40722660830E+01  0.59301926981E+02  0.49999968911E+02 0.  0.
         12    1    1    2    0    0 -0.25755821816E+02 -0.18351456184E+02  0.40722660830E+01  0.31886073019E+02  0.00000000000E+00 0. -1.
         11    1    3    3    0    0 -0.34701221241E+01  0.10218863499E+01  0.58288012603E+01  0.68600964761E+01  0.51100000000E-03 0. -1.
        -11    1    3    3    0    0 -0.69247299377E+00  0.14203753390E+02  0.90804243047E+01  0.16872469737E+02  0.51100000000E-03 0.  1.
         12    1    3    3    0    0  0.29918416934E+02  0.31258164446E+01 -0.18981491648E+02  0.35569360768E+02  0.00000000000E+00 0. -1.
</event>
<event>
 7    1  0.6246445E-012  0.5930196E+02  0.7816164E-02  0.1266605E+00
        -11   -1    0    0    0    0  0.00000000000E+00  0.00000000000E+00  0.45593999997E+02  0.45594000000E+02  0.51100000000E-03 0. -1.
         11   -1    0    0    0    0 -0.00000000000E+00 -0.00000000000E+00 -0.45593999997E+02  0.45594000000E+02  0.51100000000E-03 0.  1.
    9900012    2    1    2    0    0 -0.13625064266E+02  0.14940919420E+02 -0.24654536576E+02  0.59301958804E+02  0.50000026948E+02 0.  0.
         12    1    1    2    0    0  0.13625064266E+02 -0.14940919420E+02  0.24654536576E+02  0.31886041196E+02  0.00000000000E+00 0. -1.
         11    1    3    3    0    0 -0.10301561238E+02  0.15589605281E+02 -0.25397045452E+01  0.18857572914E+02  0.51100000000E-03 0. -1.
        -11    1    3    3    0    0 -0.46204700085E+01  0.10432088687E+02  0.39647274655E+01  0.12078753313E+02  0.51100000000E-03 0.  1.
         12    1    3    3    0    0  0.12969669807E+01 -0.11080774548E+02 -0.26079559497E+02  0.28365632577E+02  0.00000000000E+00 0. -1.
</event>
<event>
 7    1  0.6246445E-012  0.5930195E+02  0.7816164E-02  0.1266605E+00
        -11   -1    0    0    0    0  0.00000000000E+00  0.00000000000E+00  0.45593999997E+02  0.45594000000E+02  0.51100000000E-03 0. -1.
         11   -1    0    0    0    0 -0.00000000000E+00 -0.00000000000E+00 -0.45593999997E+02  0.45594000000E+02  0.51100000000E-03 0.  1.
    9900012    2    1    2    0    0  0.41268380201E+01 -0.17966529144E+02 -0.26017171745E+02  0.59301949960E+02  0.50000010820E+02 0.  0.
         12    1    1    2    0    0 -0.41268380201E+01  0.17966529144E+02  0.26017171745E+02  0.31886050040E+02  0.00000000000E+00 0. -1.
         11    1    3    3    0    0  0.13658989707E+02 -0.18703116385E+02  0.79848002161E+00  0.23173522239E+02  0.51100000000E-03 0. -1.
        -11    1    3    3    0    0  0.15627547672E+00  0.81027539531E+01 -0.17890776078E+01  0.82993880857E+01  0.51100000000E-03 0.  1.
        -12    1    3    3    0    0 -0.96884271640E+01 -0.73661667126E+01 -0.25026574158E+02  0.27829039636E+02  0.00000000000E+00 0.  1.
</event>
<event>
 7    1  0.6246445E-012  0.5930195E+02  0.7816164E-02  0.1266605E+00
        -11   -1    0    0    0    0  0.00000000000E+00  0.00000000000E+00  0.45593999997E+02  0.45594000000E+02  0.51100000000E-03 0.  1.
         11   -1    0    0    0    0 -0.00000000000E+00 -0.00000000000E+00 -0.45593999997E+02  0.45594000000E+02  0.51100000000E-03 0. -1.
    9900012    2    1    2    0    0  0.13529066171E+02 -0.20182480437E+02  0.20648299643E+02  0.59301946212E+02  0.50000003984E+02 0.  0.
         12    1    1    2    0    0 -0.13529066171E+02  0.20182480437E+02 -0.20648299643E+02  0.31886053788E+02  0.00000000000E+00 0. -1.
         11    1    3    3    0    0  0.53337029145E+01 -0.14627848382E+02  0.83454043220E+01  0.17665449573E+02  0.51100000000E-03 0. -1.
        -11    1    3    3    0    0 -0.72452225824E+01  0.40902872695E+01  0.20158932162E+02  0.21808398529E+02  0.51100000000E-03 0.  1.
         12    1    3    3    0    0  0.15440585838E+02 -0.96449193244E+01 -0.78560368412E+01  0.19828098110E+02  0.00000000000E+00 0. -1.
</event>
<event>
 7    1  0.6246445E-012  0.5930223E+02  0.7816164E-02  0.1266604E+00
        -11   -1    0    0    0    0  0.00000000000E+00  0.00000000000E+00  0.45593999997E+02  0.45594000000E+02  0.51100000000E-03 0.  1.
         11   -1    0    0    0    0 -0.00000000000E+00 -0.00000000000E+00 -0.45593999997E+02  0.45594000000E+02  0.51100000000E-03 0. -1.
    9900012    2    1    2    0    0 -0.31355238604E+02 -0.57829582233E+01  0.33009495883E+00  0.59302226426E+02  0.50000515023E+02 0.  0.
         12    1    1    2    0    0  0.31355238604E+02  0.57829582233E+01 -0.33009495883E+00  0.31885773574E+02  0.00000000000E+00 0. -1.
         11    1    3    3    0    0 -0.25201723128E+02  0.65379634089E+01 -0.18443611961E+02  0.31906717734E+02  0.51100000000E-03 0. -1.
        -11    1    3    3    0    0 -0.46938231683E+01 -0.20064325467E+00 -0.34598695233E+00  0.47108322920E+01  0.51100000000E-03 0.  1.
        -12    1    3    3    0    0 -0.14596923082E+01 -0.12120278378E+02  0.19119693872E+02  0.22684676399E+02  0.00000000000E+00 0.  1.
</event>
<event>
 7    1  0.6246445E-012  0.5930196E+02  0.7816164E-02  0.1266605E+00
        -11   -1    0    0    0    0  0.00000000000E+00  0.00000000000E+00  0.45593999997E+02  0.45594000000E+02  0.51100000000E-03 0.  1.
         11   -1    0    0    0    0 -0.00000000000E+00 -0.00000000000E+00 -0.45593999997E+02  0.45594000000E+02  0.51100000000E-03 0. -1.
    9900012    2    1    2    0    0 -0.13394865955E+02 -0.22668975178E+02  0.17983734476E+02  0.59301959555E+02  0.50000028318E+02 0.  0.
         12    1    1    2    0    0  0.13394865955E+02  0.22668975178E+02 -0.17983734476E+02  0.31886040445E+02  0.00000000000E+00 0. -1.
         11    1    3    3    0    0 -0.11344091062E+02 -0.22868642686E+02 -0.32531015939E+01  0.25734138622E+02  0.51100000000E-03 0. -1.
        -11    1    3    3    0    0 -0.81066036504E+01 -0.10258967945E+02  0.15227404441E+02  0.20070806967E+02  0.51100000000E-03 0.  1.
        -12    1    3    3    0    0  0.60558287575E+01  0.10458635454E+02  0.60094316290E+01  0.13497013966E+02  0.00000000000E+00 0.  1.
</event>
<event>
 7    1  0.6246445E-012  0.5930191E+02  0.7816164E-02  0.1266605E+00
        -11   -1    0    0    0    0  0.00000000000E+00  0.00000000000E+00  0.45593999997E+02  0.45594000000E+02  0.51100000000E-03 0.  1.
         11   -1    0    0    0    0 -0.00000000000E+00 -0.00000000000E+00 -0.45593999997E+02  0.45594000000E+02  0.51100000000E-03 0. -1.
    9900012    2    1    2    0    0  0.29767792761E+02 -0.10051968742E+02  0.54368291052E+01  0.59301910993E+02  0.49999939753E+02 0.  0.
         12    1    1    2    0    0 -0.29767792761E+02  0.10051968742E+02 -0.54368291052E+01  0.31886089007E+02  0.00000000000E+00 0. -1.
         11    1    3    3    0    0  0.15922688191E+02  0.63273443720E+01  0.12895488443E+02  0.21444367756E+02  0.51100000000E-03 0. -1.
        -11    1    3    3    0    0 -0.84104203160E+01 -0.36636827105E+01  0.37132013153E+01  0.98967472012E+01  0.51100000000E-03 0.  1.
        -12    1    3    3    0    0  0.22255524886E+02 -0.12715630403E+02 -0.11171860653E+02  0.27960796036E+02  0.00000000000E+00 0.  1.
</event>
<event>
 7    1  0.6246445E-012  0.5930191E+02  0.7816164E-02  0.1266605E+00
        -11   -1    0    0    0    0  0.00000000000E+00  0.00000000000E+00  0.45593999997E+02  0.45594000000E+02  0.51100000000E-03 0. -1.
         11   -1    0    0    0    0 -0.00000000000E+00 -0.00000000000E+00 -0.45593999997E+02  0.45594000000E+02  0.51100000000E-03 0.  1.
    9900012    2    1    2    0    0  0.27367852844E+01  0.17146512946E+02 -0.26743783159E+02  0.59301908400E+02  0.49999935023E+02 0.  0.
         12    1    1    2    0    0 -0.27367852844E+01 -0.17146512946E+02  0.26743783159E+02  0.31886091600E+02  0.00000000000E+00 0. -1.
         11    1    3    3    0    0 -0.43764429006E+01  0.57516949355E+01  0.68428330774E+01  0.99528695299E+01  0.51100000000E-03 0. -1.
        -11    1    3    3    0    0  0.16312652878E+02 -0.49828986785E-01 -0.47516862705E+01  0.16990693026E+02  0.51100000000E-03 0.  1.
        -12    1    3    3    0    0 -0.91994246929E+01  0.11444646997E+02 -0.28834929966E+02  0.32358345843E+02  0.00000000000E+00 0.  1.
</event>
<event>
 7    1  0.6246445E-012  0.5930193E+02  0.7816164E-02  0.1266605E+00
        -11   -1    0    0    0    0  0.00000000000E+00  0.00000000000E+00  0.45593999997E+02  0.45594000000E+02  0.51100000000E-03 0.  1.
         11   -1    0    0    0    0 -0.00000000000E+00 -0.00000000000E+00 -0.45593999997E+02  0.45594000000E+02  0.51100000000E-03 0. -1.
    9900012    2    1    2    0    0 -0.29575552180E+02 -0.22631039561E+01 -0.11699841744E+02  0.59301933716E+02  0.49999981193E+02 0.  0.
         12    1    1    2    0    0  0.29575552180E+02  0.22631039561E+01  0.11699841744E+02  0.31886066284E+02  0.00000000000E+00 0. -1.
         11    1    3    3    0    0 -0.15920083989E+01 -0.42163686994E+01 -0.60531029741E+00  0.45473790879E+01  0.51100000000E-03 0.  1.
        -11    1    3    3    0    0  0.92171924659E+00 -0.16559908919E+02 -0.11910618579E+02  0.20419181790E+02  0.51100000000E-03 0. -1.
        -12    1    3    3    0    0 -0.28905263027E+02  0.18513173662E+02  0.81608713166E+00  0.34335372838E+02  0.00000000000E+00 0.  1.
</event>
<event>
 7    1  0.6246445E-012  0.5930194E+02  0.7816164E-02  0.1266605E+00
        -11   -1    0    0    0    0  0.00000000000E+00  0.00000000000E+00  0.45593999997E+02  0.45594000000E+02  0.51100000000E-03 0.  1.
         11   -1    0    0    0    0 -0.00000000000E+00 -0.00000000000E+00 -0.45593999997E+02  0.45594000000E+02  0.51100000000E-03 0. -1.
    9900012    2    1    2    0    0  0.24747334621E+02  0.17423276351E+02  0.10035907215E+02  0.59301944062E+02  0.50000000062E+02 0.  0.
         12    1    1    2    0    0 -0.24747334621E+02 -0.17423276351E+02 -0.10035907215E+02  0.31886055938E+02  0.00000000000E+00 0. -1.
         11    1    3    3    0    0  0.26215421828E+01  0.14943413569E+02  0.56704873814E+01  0.16196682374E+02  0.51100000000E-03 0. -1.
        -11    1    3    3    0    0 -0.54915571249E+00  0.16155569966E+02  0.38660601398E+01  0.16620783200E+02  0.51100000000E-03 0.  1.
        -12    1    3    3    0    0  0.22674948151E+02 -0.13675707184E+02  0.49935969350E+00  0.26484478487E+02  0.00000000000E+00 0.  1.
</event>
<event>
 7    1  0.6246445E-012  0.5930196E+02  0.7816164E-02  0.1266605E+00
        -11   -1    0    0    0    0  0.00000000000E+00  0.00000000000E+00  0.45593999997E+02  0.45594000000E+02  0.51100000000E-03 0. -1.
         11   -1    0    0    0    0 -0.00000000000E+00 -0.00000000000E+00 -0.45593999997E+02  0.45594000000E+02  0.51100000000E-03 0.  1.
    9900012    2    1    2    0    0  0.28160902408E+02  0.12104710592E+02  0.87840377088E+01  0.59301956636E+02  0.50000022994E+02 0.  0.
         12    1    1    2    0    0 -0.28160902408E+02 -0.12104710592E+02 -0.87840377088E+01  0.31886043364E+02  0.00000000000E+00 0. -1.
         11    1    3    3    0    0  0.13262563039E+02  0.23514532370E+02  0.13671620830E+02  0.30261229772E+02  0.51100000000E-03 0. -1.
        -11    1    3    3    0    0  0.44867623346E+01  0.61305877044E+01 -0.40885551105E+01  0.86273648933E+01  0.51100000000E-03 0.  1.
         12    1    3    3    0    0  0.10411577035E+02 -0.17540409483E+02 -0.79902801051E+00  0.20413361971E+02  0.00000000000E+00 0. -1.
</event>
<event>
 7    1  0.6246445E-012  0.5930192E+02  0.7816164E-02  0.1266605E+00
        -11   -1    0    0    0    0  0.00000000000E+00  0.00000000000E+00  0.45593999997E+02  0.45594000000E+02  0.51100000000E-03 0. -1.
         11   -1    0    0    0    0 -0.00000000000E+00 -0.00000000000E+00 -0.45593999997E+02  0.45594000000E+02  0.51100000000E-03 0.  1.
    9900012    2    1    2    0    0 -0.14556420780E+02  0.10148387949E+02  0.26492317000E+02  0.59301921158E+02  0.49999958291E+02 0.  0.
         12    1    1    2    0    0  0.14556420780E+02 -0.10148387949E+02 -0.26492317000E+02  0.31886078842E+02  0.00000000000E+00 0. -1.
         11    1    3    3    0    0  0.11852892409E+02  0.23207076034E+01  0.83476602571E+01  0.14681967657E+02  0.51100000000E-03 0. -1.
        -11    1    3    3    0    0  0.55045443968E+01 -0.27020451703E+01 -0.56287331708E+00  0.61577498935E+01  0.51100000000E-03 0.  1.
        -12    1    3    3    0    0 -0.31913857585E+02  0.10529725516E+02  0.18707530060E+02  0.38462203608E+02  0.00000000000E+00 0.  1.
</event>
<event>
 7    1  0.6246445E-012  0.5930193E+02  0.7816164E-02  0.1266605E+00
        -11   -1    0    0    0    0  0.00000000000E+00  0.00000000000E+00  0.45593999997E+02  0.45594000000E+02  0.51100000000E-03 0. -1.
         11   -1    0    0    0    0 -0.00000000000E+00 -0.00000000000E+00 -0.45593999997E+02  0.45594000000E+02  0.51100000000E-03 0.  1.
    9900012    2    1    2    0    0  0.88160010359E+01  0.18996403875E+02 -0.24044469824E+02  0.59301925240E+02  0.49999965737E+02 0.  0.
         12    1    1    2    0    0 -0.88160010359E+01 -0.18996403875E+02  0.24044469824E+02  0.31886074760E+02  0.00000000000E+00 0. -1.
         11    1    3    3    0    0  0.32597521943E+00  0.13481504582E+01  0.64245914673E+01  0.65726056693E+01  0.51100000000E-03 0. -1.
        -11    1    3    3    0    0  0.22468299942E+02  0.57636100858E+01 -0.23728631687E+02  0.33182701299E+02  0.51100000000E-03 0.  1.
        -12    1    3    3    0    0 -0.13978274126E+02  0.11884643331E+02 -0.67404296052E+01  0.19546618272E+02  0.00000000000E+00 0.  1.
</event>
<event>
 7    1  0.6246445E-012  0.5930197E+02  0.7816164E-02  0.1266605E+00
        -11   -1    0    0    0    0  0.00000000000E+00  0.00000000000E+00  0.45593999997E+02  0.45594000000E+02  0.51100000000E-03 0.  1.
         11   -1    0    0    0    0 -0.00000000000E+00 -0.00000000000E+00 -0.45593999997E+02  0.45594000000E+02  0.51100000000E-03 0. -1.
    9900012    2    1    2    0    0  0.25802627493E+02 -0.72139609745E+00  0.18719581552E+02  0.59301972788E+02  0.50000052452E+02 0.  0.
         12    1    1    2    0    0 -0.25802627493E+02  0.72139609745E+00 -0.18719581552E+02  0.31886027212E+02  0.00000000000E+00 0. -1.
         11    1    3    3    0    0 -0.58084129075E+01 -0.12675258354E+02  0.37570664710E+01  0.14440061758E+02  0.51100000000E-03 0. -1.
        -11    1    3    3    0    0 -0.22533098203E+01 -0.22822707752E+01 -0.26149185483E+01  0.41381112011E+01  0.51100000000E-03 0.  1.
        -12    1    3    3    0    0  0.33864350221E+02  0.14236133032E+02  0.17577433629E+02  0.40723799829E+02  0.00000000000E+00 0.  1.
</event>
<event>
 7    1  0.6246445E-012  0.5930195E+02  0.7816164E-02  0.1266605E+00
        -11   -1    0    0    0    0  0.00000000000E+00  0.00000000000E+00  0.45593999997E+02  0.45594000000E+02  0.51100000000E-03 0.  1.
         11   -1    0    0    0    0 -0.00000000000E+00 -0.00000000000E+00 -0.45593999997E+02  0.45594000000E+02  0.51100000000E-03 0. -1.
    9900012    2    1    2    0    0  0.34681355320E+01  0.10599734183E+02  0.29872019776E+02  0.59301954552E+02  0.50000019194E+02 0.  0.
         12    1    1    2    0    0 -0.34681355320E+01 -0.10599734183E+02 -0.29872019776E+02  0.31886045448E+02  0.00000000000E+00 0. -1.
         11    1    3    3    0    0 -0.12025643648E+02 -0.18999692715E+01  0.98111154915E+00  0.12214277241E+02  0.51100000000E-03 0. -1.
        -11    1    3    3    0    0  0.34607111246E+00 -0.80927589193E+01  0.17129495049E+02  0.18948142733E+02  0.51100000000E-03 0.  1.
         12    1    3    3    0    0  0.15147708068E+02  0.20592462374E+02  0.11761413177E+02  0.28139534578E+02  0.00000000000E+00 0. -1.
</event>
<event>
 7    1  0.6246445E-012  0.5930193E+02  0.7816164E-02  0.1266605E+00
        -11   -1    0    0    0    0  0.00000000000E+00  0.00000000000E+00  0.45593999997E+02  0.45594000000E+02  0.51100000000E-03 0. -1.
         11   -1    0    0    0    0 -0.00000000000E+00 -0.00000000000E+00 -0.45593999997E+02  0.45594000000E+02  0.51100000000E-03 0.  1.
    9900012    2    1    2    0    0 -0.11142003939E+02  0.23139276392E+01 -0.29786288114E+02  0.59301929804E+02  0.49999974060E+02 0.  0.
         12    1    1    2    0    0  0.11142003939E+02 -0.23139276392E+01  0.29786288114E+02  0.31886070196E+02  0.00000000000E+00 0. -1.
         11    1    3    3    0    0  0.54103876173E+01 -0.39566768859E+01  0.38456097740E+01  0.77276322987E+01  0.51100000000E-03 0. -1.
        -11    1    3    3    0    0  0.92203423530E+01  0.92880378716E+01 -0.99045768677E+01  0.16412891391E+02  0.51100000000E-03 0.  1.
        -12    1    3    3    0    0 -0.25772733909E+02 -0.30174333465E+01 -0.23727321021E+02  0.35161406115E+02  0.00000000000E+00 0.  1.
</event>
<event>
 7    1  0.6246445E-012  0.5930196E+02  0.7816164E-02  0.1266605E+00
        -11   -1    0    0    0    0  0.00000000000E+00  0.00000000000E+00  0.45593999997E+02  0.45594000000E+02  0.51100000000E-03 0.  1.
         11   -1    0    0    0    0 -0.00000000000E+00 -0.00000000000E+00 -0.45593999997E+02  0.45594000000E+02  0.51100000000E-03 0. -1.
    9900012    2    1    2    0    0 -0.58346037468E+01  0.27755770390E+02 -0.14570323611E+02  0.59301957271E+02  0.50000024152E+02 0.  0.
         12    1    1    2    0    0  0.58346037468E+01 -0.27755770390E+02  0.14570323611E+02  0.31886042729E+02  0.00000000000E+00 0. -1.
         11    1    3    3    0    0  0.91633976681E+01 -0.95536709833E+01  0.10361064110E+01  0.13278328315E+02  0.51100000000E-03 0. -1.
        -11    1    3    3    0    0  0.11218657288E+01 -0.10965887535E+01 -0.75927024023E-01  0.15706224186E+01  0.51100000000E-03 0.  1.
        -12    1    3    3    0    0 -0.16119867144E+02  0.38406030127E+02 -0.15530502998E+02  0.44453006537E+02  0.00000000000E+00 0.  1.
</event>
<event>
 7    1  0.6246445E-012  0.5930184E+02  0.7816164E-02  0.1266605E+00
        -11   -1    0    0    0    0  0.00000000000E+00  0.00000000000E+00  0.45593999997E+02  0.45594000000E+02  0.51100000000E-03 0.  1.
         11   -1    0    0    0    0 -0.00000000000E+00 -0.00000000000E+00 -0.45593999997E+02  0.45594000000E+02  0.51100000000E-03 0. -1.
    9900012    2    1    2    0    0 -0.26555811703E+02  0.11657101413E+02  0.13252483092E+02  0.59301835968E+02  0.49999802925E+02 0.  0.
         12    1    1    2    0    0  0.26555811703E+02 -0.11657101413E+02 -0.13252483092E+02  0.31886164032E+02  0.00000000000E+00 0. -1.
         11    1    3    3    0    0 -0.70737997821E+01 -0.27338523149E+01 -0.23398491821E-02  0.75837060579E+01  0.51100000000E-03 0.  1.
        -11    1    3    3    0    0 -0.29550027788E+02  0.18162785072E+02  0.18978369710E+02  0.39538202045E+02  0.51100000000E-03 0. -1.
         12    1    3    3    0    0  0.10068015867E+02 -0.37718313441E+01 -0.57235467686E+01  0.12179927865E+02  0.00000000000E+00 0. -1.
</event>
<event>
 7    1  0.6246445E-012  0.5930196E+02  0.7816164E-02  0.1266605E+00
        -11   -1    0    0    0    0  0.00000000000E+00  0.00000000000E+00  0.45593999997E+02  0.45594000000E+02  0.51100000000E-03 0. -1.
         11   -1    0    0    0    0 -0.00000000000E+00 -0.00000000000E+00 -0.45593999997E+02  0.45594000000E+02  0.51100000000E-03 0.  1.
    9900012    2    1    2    0    0  0.21523189344E+02 -0.43131695901E+01 -0.23127219633E+02  0.59301962313E+02  0.50000033347E+02 0.  0.
         12    1    1    2    0    0 -0.21523189344E+02  0.43131695901E+01  0.23127219633E+02  0.31886037687E+02  0.00000000000E+00 0. -1.
         11    1    3    3    0    0  0.83033758958E+01  0.52925270235E+01 -0.25809248095E+02  0.27623797368E+02  0.51100000000E-03 0. -1.
        -11    1    3    3    0    0  0.12437241589E+02  0.50364845694E+01  0.85210454723E+01  0.15895262544E+02  0.51100000000E-03 0.  1.
         12    1    3    3    0    0  0.78257185932E+00 -0.14642181183E+02 -0.58390170106E+01  0.15782902400E+02  0.00000000000E+00 0. -1.
</event>
<event>
 7    1  0.6246445E-012  0.5930195E+02  0.7816164E-02  0.1266605E+00
        -11   -1    0    0    0    0  0.00000000000E+00  0.00000000000E+00  0.45593999997E+02  0.45594000000E+02  0.51100000000E-03 0.  1.
         11   -1    0    0    0    0 -0.00000000000E+00 -0.00000000000E+00 -0.45593999997E+02  0.45594000000E+02  0.51100000000E-03 0. -1.
    9900012    2    1    2    0    0  0.11726331427E+02 -0.27776251740E+02 -0.10377537646E+02  0.59301948237E+02  0.50000007676E+02 0.  0.
         12    1    1    2    0    0 -0.11726331427E+02  0.27776251740E+02  0.10377537646E+02  0.31886051763E+02  0.00000000000E+00 0. -1.
         11    1    3    3    0    0  0.13107447072E+02 -0.43586165714E+01 -0.13851710689E+02  0.19562019232E+02  0.51100000000E-03 0. -1.
        -11    1    3    3    0    0  0.12914357998E+02 -0.70777410250E+01  0.91010231986E+01  0.17311952057E+02  0.51100000000E-03 0.  1.
        -12    1    3    3    0    0 -0.14295473643E+02 -0.16339894144E+02 -0.56268501551E+01  0.22427976948E+02  0.00000000000E+00 0.  1.
</event>
<event>
 7    1  0.6246445E-012  0.5930200E+02  0.7816164E-02  0.1266605E+00
        -11   -1    0    0    0    0  0.00000000000E+00  0.00000000000E+00  0.45593999997E+02  0.45594000000E+02  0.51100000000E-03 0. -1.
         11   -1    0    0    0    0 -0.00000000000E+00 -0.00000000000E+00 -0.45593999997E+02  0.45594000000E+02  0.51100000000E-03 0.  1.
    9900012    2    1    2    0    0 -0.21195441238E+02 -0.94687228750E+01 -0.21858950659E+02  0.59301997333E+02  0.50000097215E+02 0.  0.
         12    1    1    2    0    0  0.21195441238E+02  0.94687228750E+01  0.21858950659E+02  0.31886002667E+02  0.00000000000E+00 0. -1.
         11    1    3    3    0    0  0.74166007344E+01  0.87722365582E+00 -0.78484353064E+01  0.10833901643E+02  0.51100000000E-03 0. -1.
        -11    1    3    3    0    0 -0.60798795095E+01  0.11651864212E+02 -0.10424187603E+02  0.16774819281E+02  0.51100000000E-03 0.  1.
        -12    1    3    3    0    0 -0.22532162463E+02 -0.21997810743E+02 -0.35863277504E+01  0.31693276408E+02  0.00000000000E+00 0.  1.
</event>
<event>
 7    1  0.6246445E-012  0.5930196E+02  0.7816164E-02  0.1266605E+00
        -11   -1    0    0    0    0  0.00000000000E+00  0.00000000000E+00  0.45593999997E+02  0.45594000000E+02  0.51100000000E-03 0.  1.
         11   -1    0    0    0    0 -0.00000000000E+00 -0.00000000000E+00 -0.45593999997E+02  0.45594000000E+02  0.51100000000E-03 0. -1.
    9900012    2    1    2    0    0 -0.17968134399E+02 -0.14867619181E+02  0.21744416551E+02  0.59301959088E+02  0.50000027467E+02 0.  0.
         12    1    1    2    0    0  0.17968134399E+02  0.14867619181E+02 -0.21744416551E+02  0.31886040912E+02  0.00000000000E+00 0. -1.
         11    1    3    3    0    0 -0.56706989157E+01 -0.16642469704E+02 -0.26274517188E+01  0.17777292449E+02  0.51100000000E-03 0. -1.
        -11    1    3    3    0    0  0.59288579860E+00 -0.13174792106E+02  0.13971680484E+02  0.19212873715E+02  0.51100000000E-03 0.  1.
         12    1    3    3    0    0 -0.12890321282E+02  0.14949642629E+02  0.10400187786E+02  0.22311792924E+02  0.00000000000E+00 0. -1.
</event>
<event>
 7    1  0.6246445E-012  0.5930192E+02  0.7816164E-02  0.1266605E+00
        -11   -1    0    0    0    0  0.00000000000E+00  0.00000000000E+00  0.45593999997E+02  0.45594000000E+02  0.51100000000E-03 0.  1.
         11   -1    0    0    0    0 -0.00000000000E+00 -0.00000000000E+00 -0.45593999997E+02  0.45594000000E+02  0.51100000000E-03 0. -1.
    9900012    2    1    2    0    0 -0.31655947974E+02 -0.33142952162E+01  0.19075218732E+01  0.59301917855E+02  0.49999952267E+02 0.  0.
         12    1    1    2    0    0  0.31655947974E+02  0.33142952162E+01 -0.19075218732E+01  0.31886082145E+02  0.00000000000E+00 0. -1.
         11    1    3    3    0    0  0.91688318382E+01 -0.44775541240E+01  0.98573857233E+01  0.14187460018E+02  0.51100000000E-03 0. -1.
        -11    1    3    3    0    0 -0.10834261446E+02 -0.54355438468E+01  0.30443434898E+01  0.12497775223E+02  0.51100000000E-03 0.  1.
        -12    1    3    3    0    0 -0.29990518366E+02  0.65988027547E+01 -0.10994207340E+02  0.32616682613E+02  0.00000000000E+00 0.  1.
</event>
<event>
 7    1  0.6246445E-012  0.5930193E+02  0.7816164E-02  0.1266605E+00
        -11   -1    0    0    0    0  0.00000000000E+00  0.00000000000E+00  0.45593999997E+02  0.45594000000E+02  0.51100000000E-03 0.  1.
         11   -1    0    0    0    0 -0.00000000000E+00 -0.00000000000E+00 -0.45593999997E+02  0.45594000000E+02  0.51100000000E-03 0. -1.
    9900012    2    1    2    0    0  0.15549114311E+02  0.24420912306E+02 -0.13362850623E+02  0.59301926387E+02  0.49999967827E+02 0.  0.
         12    1    1    2    0    0 -0.15549114311E+02 -0.24420912306E+02  0.13362850623E+02  0.31886073613E+02  0.00000000000E+00 0. -1.
         11    1    3    3    0    0  0.45430560599E+01  0.17230874431E+02 -0.25445404653E+02  0.31064626349E+02  0.51100000000E-03 0. -1.
        -11    1    3    3    0    0  0.21876372852E+01 -0.63771028729E+01 -0.17323878095E+01  0.69609170177E+01  0.51100000000E-03 0.  1.
         12    1    3    3    0    0  0.88184209657E+01  0.13567140748E+02  0.13814941839E+02  0.21276383020E+02  0.00000000000E+00 0. -1.
</event>
<event>
 7    1  0.6246445E-012  0.5930185E+02  0.7816164E-02  0.1266605E+00
        -11   -1    0    0    0    0  0.00000000000E+00  0.00000000000E+00  0.45593999997E+02  0.45594000000E+02  0.51100000000E-03 0.  1.
         11   -1    0    0    0    0 -0.00000000000E+00 -0.00000000000E+00 -0.45593999997E+02  0.45594000000E+02  0.51100000000E-03 0. -1.
    9900012    2    1    2    0    0 -0.20795584380E+01  0.29423791728E+02  0.12109594558E+02  0.59301853113E+02  0.49999834193E+02 0.  0.
         12    1    1    2    0    0  0.20795584380E+01 -0.29423791728E+02 -0.12109594558E+02  0.31886146887E+02  0.00000000000E+00 0. -1.
         11    1    3    3    0    0  0.91973061899E+01  0.19081618788E+02 -0.65322248151E+00  0.21192576922E+02  0.51100000000E-03 0. -1.
        -11    1    3    3    0    0  0.74935145891E+01  0.11556147232E+02  0.13499060384E+02  0.19285277578E+02  0.51100000000E-03 0.  1.
         12    1    3    3    0    0 -0.18770379217E+02 -0.12139742917E+01 -0.73624334432E+00  0.18823998613E+02  0.00000000000E+00 0. -1.
</event>
<event>
 7    1  0.8690004E-012  0.5930193E+02  0.7816164E-02  0.1266605E+00
        -11   -1    0    0    0    0  0.00000000000E+00  0.00000000000E+00  0.45593999997E+02  0.45594000000E+02  0.51100000000E-03 0. -1.
         11   -1    0    0    0    0 -0.00000000000E+00 -0.00000000000E+00 -0.45593999997E+02  0.45594000000E+02  0.51100000000E-03 0.  1.
    9900012    2    1    2    0    0 -0.25188034557E+02 -0.13318421111E+02 -0.14314478461E+02  0.59301925934E+02  0.49999967002E+02 0.  0.
         12    1    1    2    0    0  0.25188034557E+02  0.13318421111E+02  0.14314478461E+02  0.31886074066E+02  0.00000000000E+00 0. -1.
         11    1    3    3    0    0 -0.94365903343E+01  0.47139120822E+01 -0.70126475956E+01  0.12666784549E+02  0.51100000000E-03 0. -1.
        -11    1    3    3    0    0 -0.17035706872E+02 -0.22930497187E+02 -0.18713851530E+02  0.34150128100E+02  0.51100000000E-03 0.  1.
         12    1    3    3    0    0  0.12842626499E+01  0.48981639937E+01  0.11412020665E+02  0.12485013285E+02  0.00000000000E+00 0. -1.
</event>
<event>
 7    1  0.6246445E-012  0.5930194E+02  0.7816164E-02  0.1266605E+00
        -11   -1    0    0    0    0  0.00000000000E+00  0.00000000000E+00  0.45593999997E+02  0.45594000000E+02  0.51100000000E-03 0.  1.
         11   -1    0    0    0    0 -0.00000000000E+00 -0.00000000000E+00 -0.45593999997E+02  0.45594000000E+02  0.51100000000E-03 0. -1.
    9900012    2    1    2    0    0 -0.26679911074E+02  0.17424206336E+02  0.11402074680E+01  0.59301942006E+02  0.49999996313E+02 0.  0.
         12    1    1    2    0    0  0.26679911074E+02 -0.17424206336E+02 -0.11402074680E+01  0.31886057994E+02  0.00000000000E+00 0. -1.
         11    1    3    3    0    0 -0.51041639633E+01 -0.10502208980E+02 -0.14549753495E+02  0.18655943028E+02  0.51100000000E-03 0. -1.
        -11    1    3    3    0    0 -0.84152078584E+00 -0.26457009778E-01 -0.15823345370E+01  0.17923839026E+01  0.51100000000E-03 0.  1.
        -12    1    3    3    0    0 -0.20734226325E+02  0.27952872326E+02  0.17272295500E+02  0.38853615075E+02  0.00000000000E+00 0.  1.
</event>
<event>
 7    1  0.6246445E-012  0.5930189E+02  0.7816164E-02  0.1266605E+00
        -11   -1    0    0    0    0  0.00000000000E+00  0.00000000000E+00  0.45593999997E+02  0.45594000000E+02  0.51100000000E-03 0.  1.
         11   -1    0    0    0    0 -0.00000000000E+00 -0.00000000000E+00 -0.45593999997E+02  0.45594000000E+02  0.51100000000E-03 0. -1.
    9900012    2    1    2    0    0  0.12437665196E+02  0.92903280276E+01  0.27851715874E+02  0.59301893504E+02  0.49999907857E+02 0.  0.
         12    1    1    2    0    0 -0.12437665196E+02 -0.92903280276E+01 -0.27851715874E+02  0.31886106496E+02  0.00000000000E+00 0. -1.
         11    1    3    3    0    0 -0.48165179524E+01 -0.42455648861E+01  0.11849894968E+00  0.64216593377E+01  0.51100000000E-03 0. -1.
        -11    1    3    3    0    0 -0.81273954204E+01 -0.82305777006E+01  0.64339956427E+01  0.13236059300E+02  0.51100000000E-03 0.  1.
        -12    1    3    3    0    0  0.25381578568E+02  0.21766470614E+02  0.21299221281E+02  0.39644174866E+02  0.00000000000E+00 0.  1.
</event>
<event>
 7    1  0.6246445E-012  0.5930193E+02  0.7816164E-02  0.1266605E+00
        -11   -1    0    0    0    0  0.00000000000E+00  0.00000000000E+00  0.45593999997E+02  0.45594000000E+02  0.51100000000E-03 0.  1.
         11   -1    0    0    0    0 -0.00000000000E+00 -0.00000000000E+00 -0.45593999997E+02  0.45594000000E+02  0.51100000000E-03 0. -1.
    9900012    2    1    2    0    0 -0.20799465337E+02 -0.36021845225E+00  0.24165552210E+02  0.59301930483E+02  0.49999975297E+02 0.  0.
         12    1    1    2    0    0  0.20799465337E+02  0.36021845225E+00 -0.24165552210E+02  0.31886069517E+02  0.00000000000E+00 0. -1.
         11    1    3    3    0    0 -0.50063710664E+01  0.42519583597E+01 -0.63958404499E+01  0.91678610629E+01  0.51100000000E-03 0. -1.
        -11    1    3    3    0    0 -0.14620309837E+02  0.47011335977E+01 -0.26827439338E+01  0.15590100453E+02  0.51100000000E-03 0.  1.
        -12    1    3    3    0    0 -0.11727844332E+01 -0.93133104096E+01  0.33244136594E+02  0.34543968967E+02  0.00000000000E+00 0.  1.
</event>
<event>
 7    1  0.6246445E-012  0.5930195E+02  0.7816164E-02  0.1266605E+00
        -11   -1    0    0    0    0  0.00000000000E+00  0.00000000000E+00  0.45593999997E+02  0.45594000000E+02  0.51100000000E-03 0.  1.
         11   -1    0    0    0    0 -0.00000000000E+00 -0.00000000000E+00 -0.45593999997E+02  0.45594000000E+02  0.51100000000E-03 0. -1.
    9900012    2    1    2    0    0  0.27334857931E+02 -0.15753426005E+02  0.46211826375E+01  0.59301949476E+02  0.50000009937E+02 0.  0.
         12    1    1    2    0    0 -0.27334857931E+02  0.15753426005E+02 -0.46211826375E+01  0.31886050524E+02  0.00000000000E+00 0. -1.
         11    1    3    3    0    0  0.11517497205E+02 -0.12098762340E+02 -0.93935318692E+01  0.19164321884E+02  0.51100000000E-03 0. -1.
        -11    1    3    3    0    0  0.19764399490E+02 -0.15170205133E+02  0.62103753274E+01  0.25677526613E+02  0.51100000000E-03 0.  1.
        -12    1    3    3    0    0 -0.39470387638E+01  0.11515541468E+02  0.78043391793E+01  0.14460100979E+02  0.00000000000E+00 0.  1.
</event>
<event>
 7    1  0.6246445E-012  0.5930191E+02  0.7816164E-02  0.1266605E+00
        -11   -1    0    0    0    0  0.00000000000E+00  0.00000000000E+00  0.45593999997E+02  0.45594000000E+02  0.51100000000E-03 0. -1.
         11   -1    0    0    0    0 -0.00000000000E+00 -0.00000000000E+00 -0.45593999997E+02  0.45594000000E+02  0.51100000000E-03 0.  1.
    9900012    2    1    2    0    0  0.12114620930E+02  0.18532144880E+02 -0.22945989453E+02  0.59301907952E+02  0.49999934207E+02 0.  0.
         12    1    1    2    0    0 -0.12114620930E+02 -0.18532144880E+02  0.22945989453E+02  0.31886092048E+02  0.00000000000E+00 0. -1.
         11    1    3    3    0    0  0.21828124566E+02 -0.56856968872E+01 -0.19716682101E+02  0.29959000726E+02  0.51100000000E-03 0. -1.
        -11    1    3    3    0    0 -0.81999302520E+00 -0.56106560393E+00 -0.28450200726E+01  0.30135232947E+01  0.51100000000E-03 0.  1.
         12    1    3    3    0    0 -0.88935106113E+01  0.24778907371E+02 -0.38428727921E+00  0.26329383931E+02  0.00000000000E+00 0. -1.
</event>
<event>
 7    1  0.6246445E-012  0.5930193E+02  0.7816164E-02  0.1266605E+00
        -11   -1    0    0    0    0  0.00000000000E+00  0.00000000000E+00  0.45593999997E+02  0.45594000000E+02  0.51100000000E-03 0.  1.
         11   -1    0    0    0    0 -0.00000000000E+00 -0.00000000000E+00 -0.45593999997E+02  0.45594000000E+02  0.51100000000E-03 0. -1.
    9900012    2    1    2    0    0 -0.27773307709E+02 -0.57158755614E+01  0.14584010205E+02  0.59301933949E+02  0.49999981619E+02 0.  0.
         12    1    1    2    0    0  0.27773307709E+02  0.57158755614E+01 -0.14584010205E+02  0.31886066051E+02  0.00000000000E+00 0. -1.
         11    1    3    3    0    0 -0.59204924321E+01 -0.26760235063E+01  0.53071562634E+01  0.83892335950E+01  0.51100000000E-03 0. -1.
        -11    1    3    3    0    0 -0.23955840687E+02  0.36642681153E+01  0.24305330058E+02  0.34322852931E+02  0.51100000000E-03 0.  1.
         12    1    3    3    0    0  0.21030254095E+01 -0.67041201704E+01 -0.15028476116E+02  0.16589847423E+02  0.00000000000E+00 0. -1.
</event>
<event>
 7    1  0.6246445E-012  0.5930196E+02  0.7816164E-02  0.1266605E+00
        -11   -1    0    0    0    0  0.00000000000E+00  0.00000000000E+00  0.45593999997E+02  0.45594000000E+02  0.51100000000E-03 0.  1.
         11   -1    0    0    0    0 -0.00000000000E+00 -0.00000000000E+00 -0.45593999997E+02  0.45594000000E+02  0.51100000000E-03 0. -1.
    9900012    2    1    2    0    0  0.91440856769E+01 -0.29154931157E+02 -0.91156509032E+01  0.59301962224E+02  0.50000033186E+02 0.  0.
         12    1    1    2    0    0 -0.91440856769E+01  0.29154931157E+02  0.91156509032E+01  0.31886037776E+02  0.00000000000E+00 0. -1.
         11    1    3    3    0    0 -0.38491373358E+01 -0.27414366973E+02 -0.10537913751E+02  0.29621124240E+02  0.51100000000E-03 0. -1.
        -11    1    3    3    0    0  0.58453221360E+01 -0.58128139113E+01  0.13050962842E+02  0.15436457748E+02  0.51100000000E-03 0.  1.
         12    1    3    3    0    0  0.71479008767E+01  0.40722497267E+01 -0.11628699994E+02  0.14244380237E+02  0.00000000000E+00 0. -1.
</event>
<event>
 7    1  0.6246445E-012  0.5930195E+02  0.7816164E-02  0.1266605E+00
        -11   -1    0    0    0    0  0.00000000000E+00  0.00000000000E+00  0.45593999997E+02  0.45594000000E+02  0.51100000000E-03 0.  1.
         11   -1    0    0    0    0 -0.00000000000E+00 -0.00000000000E+00 -0.45593999997E+02  0.45594000000E+02  0.51100000000E-03 0. -1.
    9900012    2    1    2    0    0  0.71773103430E+01  0.22854887203E+02  0.21044244455E+02  0.59301954816E+02  0.50000019675E+02 0.  0.
         12    1    1    2    0    0 -0.71773103430E+01 -0.22854887203E+02 -0.21044244455E+02  0.31886045184E+02  0.00000000000E+00 0. -1.
         11    1    3    3    0    0 -0.51502786261E+01  0.23253237883E+02  0.23503201866E+02  0.33461006264E+02  0.51100000000E-03 0. -1.
        -11    1    3    3    0    0 -0.15595847399E+01 -0.91200021642E+01  0.42287907793E-01  0.92524879122E+01  0.51100000000E-03 0.  1.
        -12    1    3    3    0    0  0.13887173709E+02  0.87216514848E+01 -0.25012453195E+01  0.16588460640E+02  0.00000000000E+00 0.  1.
</event>
<event>
 7    1  0.6246445E-012  0.5930195E+02  0.7816164E-02  0.1266605E+00
        -11   -1    0    0    0    0  0.00000000000E+00  0.00000000000E+00  0.45593999997E+02  0.45594000000E+02  0.51100000000E-03 0. -1.
         11   -1    0    0    0    0 -0.00000000000E+00 -0.00000000000E+00 -0.45593999997E+02  0.45594000000E+02  0.51100000000E-03 0.  1.
    9900012    2    1    2    0    0 -0.24485000602E+02 -0.12285702085E+02 -0.16317672649E+02  0.59301950215E+02  0.50000011285E+02 0.  0.
         12    1    1    2    0    0  0.24485000602E+02  0.12285702085E+02  0.16317672649E+02  0.31886049785E+02  0.00000000000E+00 0. -1.
         11    1    3    3    0    0 -0.14320258919E+02 -0.36135417702E+01  0.64994335346E+01  0.16135988850E+02  0.51100000000E-03 0. -1.
        -11    1    3    3    0    0 -0.17117058476E+02 -0.17005313248E+02 -0.93649838208E+01  0.25881987786E+02  0.51100000000E-03 0.  1.
        -12    1    3    3    0    0  0.69523167938E+01  0.83331529331E+01 -0.13452122363E+02  0.17283973579E+02  0.00000000000E+00 0.  1.
</event>
<event>
 7    1  0.6246445E-012  0.5930193E+02  0.7816164E-02  0.1266605E+00
        -11   -1    0    0    0    0  0.00000000000E+00  0.00000000000E+00  0.45593999997E+02  0.45594000000E+02  0.51100000000E-03 0.  1.
         11   -1    0    0    0    0 -0.00000000000E+00 -0.00000000000E+00 -0.45593999997E+02  0.45594000000E+02  0.51100000000E-03 0. -1.
    9900012    2    1    2    0    0 -0.16375196460E+02 -0.22981121905E+02  0.14847301138E+02  0.59301931346E+02  0.49999976872E+02 0.  0.
         12    1    1    2    0    0  0.16375196460E+02  0.22981121905E+02 -0.14847301138E+02  0.31886068654E+02  0.00000000000E+00 0. -1.
         11    1    3    3    0    0 -0.99925913257E+01  0.92258595074E+00  0.20038596505E+02  0.22410899054E+02  0.51100000000E-03 0. -1.
        -11    1    3    3    0    0 -0.17910419330E+01  0.28088513626E+00  0.85218391476E+01  0.87125467221E+01  0.51100000000E-03 0.  1.
         12    1    3    3    0    0 -0.45915632015E+01 -0.24184592992E+02 -0.13713134515E+02  0.28178485570E+02  0.00000000000E+00 0. -1.
</event>
<event>
 7    1  0.6246445E-012  0.5930190E+02  0.7816164E-02  0.1266605E+00
        -11   -1    0    0    0    0  0.00000000000E+00  0.00000000000E+00  0.45593999997E+02  0.45594000000E+02  0.51100000000E-03 0. -1.
         11   -1    0    0    0    0 -0.00000000000E+00 -0.00000000000E+00 -0.45593999997E+02  0.45594000000E+02  0.51100000000E-03 0.  1.
    9900012    2    1    2    0    0 -0.18539611776E+02  0.25922709991E+02 -0.10094737649E+01  0.59301903729E+02  0.49999926506E+02 0.  0.
         12    1    1    2    0    0  0.18539611776E+02 -0.25922709991E+02  0.10094737649E+01  0.31886096271E+02  0.00000000000E+00 0. -1.
         11    1    3    3    0    0 -0.11416199119E+02  0.22358594376E+02 -0.35476735667E+00  0.25107015054E+02  0.51100000000E-03 0. -1.
        -11    1    3    3    0    0 -0.19213172714E+02  0.98800164624E+00 -0.67813086586E+01  0.20398732813E+02  0.51100000000E-03 0.  1.
        -12    1    3    3    0    0  0.12089760058E+02  0.25761139689E+01  0.61266022504E+01  0.13796155862E+02  0.00000000000E+00 0.  1.
</event>
<event>
 7    1  0.6246445E-012  0.5930194E+02  0.7816164E-02  0.1266605E+00
        -11   -1    0    0    0    0  0.00000000000E+00  0.00000000000E+00  0.45593999997E+02  0.45594000000E+02  0.51100000000E-03 0. -1.
         11   -1    0    0    0    0 -0.00000000000E+00 -0.00000000000E+00 -0.45593999997E+02  0.45594000000E+02  0.51100000000E-03 0.  1.
    9900012    2    1    2    0    0  0.26690018830E+02 -0.10244682228E+02  0.14121273215E+02  0.59301937586E+02  0.49999988252E+02 0.  0.
         12    1    1    2    0    0 -0.26690018830E+02  0.10244682228E+02 -0.14121273215E+02  0.31886062414E+02  0.00000000000E+00 0. -1.
         11    1    3    3    0    0  0.88493095559E+01 -0.24744986692E+01  0.15752871588E+02  0.18236951138E+02  0.51100000000E-03 0. -1.
        -11    1    3    3    0    0  0.26361377767E+02 -0.79390921328E+01  0.75403070827E+01  0.28544835835E+02  0.51100000000E-03 0.  1.
        -12    1    3    3    0    0 -0.85206684934E+01  0.16890857435E+00 -0.91719054560E+01  0.12520150613E+02  0.00000000000E+00 0.  1.
</event>
<event>
 7    1  0.6246445E-012  0.5930191E+02  0.7816164E-02  0.1266605E+00
        -11   -1    0    0    0    0  0.00000000000E+00  0.00000000000E+00  0.45593999997E+02  0.45594000000E+02  0.51100000000E-03 0.  1.
         11   -1    0    0    0    0 -0.00000000000E+00 -0.00000000000E+00 -0.45593999997E+02  0.45594000000E+02  0.51100000000E-03 0. -1.
    9900012    2    1    2    0    0 -0.29388216201E+02  0.96945563035E+01 -0.76857713365E+01  0.59301909703E+02  0.49999937400E+02 0.  0.
         12    1    1    2    0    0  0.29388216201E+02 -0.96945563035E+01  0.76857713365E+01  0.31886090297E+02  0.00000000000E+00 0. -1.
         11    1    3    3    0    0  0.50381368591E+00  0.79163389626E+01  0.14284270731E+01  0.80599413748E+01  0.51100000000E-03 0. -1.
        -11    1    3    3    0    0 -0.38006478601E+02 -0.20181838966E+01 -0.14569162548E+02  0.40753232749E+02  0.51100000000E-03 0.  1.
         12    1    3    3    0    0  0.81144487146E+01  0.37964012376E+01  0.54549641387E+01  0.10488735579E+02  0.00000000000E+00 0. -1.
</event>
<event>
 7    1  0.6246445E-012  0.5930198E+02  0.7816164E-02  0.1266605E+00
        -11   -1    0    0    0    0  0.00000000000E+00  0.00000000000E+00  0.45593999997E+02  0.45594000000E+02  0.51100000000E-03 0.  1.
         11   -1    0    0    0    0 -0.00000000000E+00 -0.00000000000E+00 -0.45593999997E+02  0.45594000000E+02  0.51100000000E-03 0. -1.
    9900012    2    1    2    0    0  0.25172164140E+02  0.19478619342E+02 -0.19141675142E+01  0.59301976475E+02  0.50000059176E+02 0.  0.
         12    1    1    2    0    0 -0.25172164140E+02 -0.19478619342E+02  0.19141675142E+01  0.31886023525E+02  0.00000000000E+00 0. -1.
         11    1    3    3    0    0 -0.87096246081E+00  0.25129314692E+02 -0.43998439630E+01  0.25526450197E+02  0.51100000000E-03 0. -1.
        -11    1    3    3    0    0  0.73716294686E+01  0.35833597040E+01 -0.71016082658E+01  0.10845009360E+02  0.51100000000E-03 0.  1.
        -12    1    3    3    0    0  0.18671497133E+02 -0.92340550547E+01  0.95872847145E+01  0.22930516918E+02  0.00000000000E+00 0.  1.
</event>
<event>
 7    1  0.6246445E-012  0.5930192E+02  0.7816164E-02  0.1266605E+00
        -11   -1    0    0    0    0  0.00000000000E+00  0.00000000000E+00  0.45593999997E+02  0.45594000000E+02  0.51100000000E-03 0.  1.
         11   -1    0    0    0    0 -0.00000000000E+00 -0.00000000000E+00 -0.45593999997E+02  0.45594000000E+02  0.51100000000E-03 0. -1.
    9900012    2    1    2    0    0  0.13696626016E+01  0.13556574882E+02  0.28828201258E+02  0.59301923321E+02  0.49999962237E+02 0.  0.
         12    1    1    2    0    0 -0.13696626016E+01 -0.13556574882E+02 -0.28828201258E+02  0.31886076679E+02  0.00000000000E+00 0. -1.
         11    1    3    3    0    0 -0.89714453798E+00  0.36479380385E+01 -0.66625852320E+01  0.76486837096E+01  0.51100000000E-03 0. -1.
        -11    1    3    3    0    0  0.14952112416E+02  0.12901142643E+02  0.81488208783E+01  0.21363717588E+02  0.51100000000E-03 0.  1.
         12    1    3    3    0    0 -0.12685305277E+02 -0.29925057995E+01  0.27341965612E+02  0.30289522024E+02  0.00000000000E+00 0. -1.
</event>
<event>
 7    1  0.6246445E-012  0.5930194E+02  0.7816164E-02  0.1266605E+00
        -11   -1    0    0    0    0  0.00000000000E+00  0.00000000000E+00  0.45593999997E+02  0.45594000000E+02  0.51100000000E-03 0. -1.
         11   -1    0    0    0    0 -0.00000000000E+00 -0.00000000000E+00 -0.45593999997E+02  0.45594000000E+02  0.51100000000E-03 0.  1.
    9900012    2    1    2    0    0 -0.17400386764E+01  0.31821811298E+02 -0.10320620082E+01  0.59301944100E+02  0.50000000132E+02 0.  0.
         12    1    1    2    0    0  0.17400386764E+01 -0.31821811298E+02  0.10320620082E+01  0.31886055900E+02  0.00000000000E+00 0. -1.
         11    1    3    3    0    0  0.14563105419E+02  0.12634436944E+01 -0.20297013691E+01  0.14758049239E+02  0.51100000000E-03 0. -1.
        -11    1    3    3    0    0 -0.13082091953E+02  0.14697070781E+02  0.13694766250E+02  0.23972727052E+02  0.51100000000E-03 0.  1.
        -12    1    3    3    0    0 -0.32210521430E+01  0.15861296822E+02 -0.12697126889E+02  0.20571167809E+02  0.00000000000E+00 0.  1.
</event>
<event>
 7    1  0.6246445E-012  0.5930195E+02  0.7816164E-02  0.1266605E+00
        -11   -1    0    0    0    0  0.00000000000E+00  0.00000000000E+00  0.45593999997E+02  0.45594000000E+02  0.51100000000E-03 0. -1.
         11   -1    0    0    0    0 -0.00000000000E+00 -0.00000000000E+00 -0.45593999997E+02  0.45594000000E+02  0.51100000000E-03 0.  1.
    9900012    2    1    2    0    0  0.29360687676E+02  0.71318092486E+01 -0.10188598685E+02  0.59301949333E+02  0.50000009676E+02 0.  0.
         12    1    1    2    0    0 -0.29360687676E+02 -0.71318092486E+01  0.10188598685E+02  0.31886050667E+02  0.00000000000E+00 0. -1.
         11    1    3    3    0    0 -0.42330340774E+01 -0.68476640930E+01  0.24121739328E+01  0.84040266762E+01  0.51100000000E-03 0. -1.
        -11    1    3    3    0    0  0.69899279760E+00  0.15204912897E+02  0.10610581688E+01  0.15257909812E+02  0.51100000000E-03 0.  1.
        -12    1    3    3    0    0  0.32894728956E+02 -0.12254395555E+01 -0.13661830786E+02  0.35640012845E+02  0.00000000000E+00 0.  1.
</event>
<event>
 7    1  0.6246445E-012  0.5930195E+02  0.7816164E-02  0.1266605E+00
        -11   -1    0    0    0    0  0.00000000000E+00  0.00000000000E+00  0.45593999997E+02  0.45594000000E+02  0.51100000000E-03 0. -1.
         11   -1    0    0    0    0 -0.00000000000E+00 -0.00000000000E+00 -0.45593999997E+02  0.45594000000E+02  0.51100000000E-03 0.  1.
    9900012    2    1    2    0    0  0.16206534600E+02 -0.76606283285E+01 -0.26370119649E+02  0.59301949752E+02  0.50000010440E+02 0.  0.
         12    1    1    2    0    0 -0.16206534600E+02  0.76606283285E+01  0.26370119649E+02  0.31886050248E+02  0.00000000000E+00 0. -1.
         11    1    3    3    0    0 -0.28172075866E+01 -0.27719352704E+01 -0.34436927912E+01  0.52420705862E+01  0.51100000000E-03 0. -1.
        -11    1    3    3    0    0  0.13550581918E+01 -0.18816069288E+02 -0.25165034862E+02  0.31450908190E+02  0.51100000000E-03 0.  1.
         12    1    3    3    0    0  0.17668683995E+02  0.13927376230E+02  0.22386080045E+01  0.22608970975E+02  0.00000000000E+00 0. -1.
</event>
<event>
 7    1  0.6246445E-012  0.5930194E+02  0.7816164E-02  0.1266605E+00
        -11   -1    0    0    0    0  0.00000000000E+00  0.00000000000E+00  0.45593999997E+02  0.45594000000E+02  0.51100000000E-03 0.  1.
         11   -1    0    0    0    0 -0.00000000000E+00 -0.00000000000E+00 -0.45593999997E+02  0.45594000000E+02  0.51100000000E-03 0. -1.
    9900012    2    1    2    0    0 -0.14879953610E+02  0.27125038698E+02 -0.77162239264E+01  0.59301939480E+02  0.49999991706E+02 0.  0.
         12    1    1    2    0    0  0.14879953610E+02 -0.27125038698E+02  0.77162239264E+01  0.31886060520E+02  0.00000000000E+00 0. -1.
         11    1    3    3    0    0  0.14738472321E+02  0.92035100300E+01 -0.19537715305E+01  0.17485547938E+02  0.51100000000E-03 0. -1.
        -11    1    3    3    0    0 -0.12814730358E+02  0.19914678481E+02  0.72850819199E+00  0.23692666747E+02  0.51100000000E-03 0.  1.
        -12    1    3    3    0    0 -0.16803695573E+02 -0.19931498126E+01 -0.64909605879E+01  0.18123724795E+02  0.00000000000E+00 0.  1.
</event>
<event>
 7    1  0.6246445E-012  0.5930205E+02  0.7816164E-02  0.1266604E+00
        -11   -1    0    0    0    0  0.00000000000E+00  0.00000000000E+00  0.45593999997E+02  0.45594000000E+02  0.51100000000E-03 0.  1.
         11   -1    0    0    0    0 -0.00000000000E+00 -0.00000000000E+00 -0.45593999997E+02  0.45594000000E+02  0.51100000000E-03 0. -1.
    9900012    2    1    2    0    0  0.45027059496E+01  0.31530858161E+02  0.14981699609E+01  0.59302048697E+02  0.50000190892E+02 0.  0.
         12    1    1    2    0    0 -0.45027059496E+01 -0.31530858161E+02 -0.14981699609E+01  0.31885951303E+02  0.00000000000E+00 0. -1.
         11    1    3    3    0    0 -0.75410893334E+00  0.54018343888E+01  0.19033459790E+02  0.19799522390E+02  0.51100000000E-03 0. -1.
        -11    1    3    3    0    0 -0.61860752485E+01  0.28923621398E+01  0.19367246627E+01  0.70981820495E+01  0.51100000000E-03 0.  1.
         12    1    3    3    0    0  0.11442890131E+02  0.23236661633E+02 -0.19472014492E+02  0.32404344257E+02  0.00000000000E+00 0. -1.
</event>
<event>
 7    1  0.6246445E-012  0.5930195E+02  0.7816164E-02  0.1266605E+00
        -11   -1    0    0    0    0  0.00000000000E+00  0.00000000000E+00  0.45593999997E+02  0.45594000000E+02  0.51100000000E-03 0.  1.
         11   -1    0    0    0    0 -0.00000000000E+00 -0.00000000000E+00 -0.45593999997E+02  0.45594000000E+02  0.51100000000E-03 0. -1.
    9900012    2    1    2    0    0 -0.28334270995E+02 -0.57126433396E+01  0.13463085314E+02  0.59301954888E+02  0.50000019806E+02 0.  0.
         12    1    1    2    0    0  0.28334270995E+02  0.57126433396E+01 -0.13463085314E+02  0.31886045112E+02  0.00000000000E+00 0. -1.
         11    1    3    3    0    0 -0.12688226311E+01  0.10575803745E+02 -0.31329425382E+01  0.11102831392E+02  0.51100000000E-03 0. -1.
        -11    1    3    3    0    0 -0.10883356450E+02  0.81936658414E+01  0.12645876929E+02  0.18587679013E+02  0.51100000000E-03 0.  1.
        -12    1    3    3    0    0 -0.16182091914E+02 -0.24482112926E+02  0.39501509229E+01  0.29611444482E+02  0.00000000000E+00 0.  1.
</event>
<event>
 7    1  0.6246445E-012  0.5930193E+02  0.7816164E-02  0.1266605E+00
        -11   -1    0    0    0    0  0.00000000000E+00  0.00000000000E+00  0.45593999997E+02  0.45594000000E+02  0.51100000000E-03 0.  1.
         11   -1    0    0    0    0 -0.00000000000E+00 -0.00000000000E+00 -0.45593999997E+02  0.45594000000E+02  0.51100000000E-03 0. -1.
    9900012    2    1    2    0    0  0.10036002914E+02  0.19271896058E+02  0.23336536999E+02  0.59301932647E+02  0.49999979244E+02 0.  0.
         12    1    1    2    0    0 -0.10036002914E+02 -0.19271896058E+02 -0.23336536999E+02  0.31886067353E+02  0.00000000000E+00 0. -1.
         11    1    3    3    0    0 -0.13451644899E+02 -0.14115426288E-01 -0.17484487434E+01  0.13564808255E+02  0.51100000000E-03 0. -1.
        -11    1    3    3    0    0 -0.28990857108E+00 -0.44825427915E+01  0.42539494156E+01  0.61865436836E+01  0.51100000000E-03 0.  1.
         12    1    3    3    0    0  0.23777556383E+02  0.23768554276E+02  0.20831036326E+02  0.39550580708E+02  0.00000000000E+00 0. -1.
</event>
<event>
 7    1  0.6246445E-012  0.5930194E+02  0.7816164E-02  0.1266605E+00
        -11   -1    0    0    0    0  0.00000000000E+00  0.00000000000E+00  0.45593999997E+02  0.45594000000E+02  0.51100000000E-03 0. -1.
         11   -1    0    0    0    0 -0.00000000000E+00 -0.00000000000E+00 -0.45593999997E+02  0.45594000000E+02  0.51100000000E-03 0.  1.
    9900012    2    1    2    0    0 -0.20892219794E+02  0.45945967936E+01 -0.23645835555E+02  0.59301941813E+02  0.49999995961E+02 0.  0.
         12    1    1    2    0    0  0.20892219794E+02 -0.45945967936E+01  0.23645835555E+02  0.31886058187E+02  0.00000000000E+00 0. -1.
         11    1    3    3    0    0 -0.51037019679E+01  0.92065917141E+01 -0.19471465400E+02  0.22134748019E+02  0.51100000000E-03 0. -1.
        -11    1    3    3    0    0 -0.48512851651E+01  0.91444861497E+01 -0.13704756538E+02  0.17174892917E+02  0.51100000000E-03 0.  1.
        -12    1    3    3    0    0 -0.10937232661E+02 -0.13756481070E+02  0.95303863837E+01  0.19992300877E+02  0.00000000000E+00 0.  1.
</event>
<event>
 7    1  0.6246445E-012  0.5930196E+02  0.7816164E-02  0.1266605E+00
        -11   -1    0    0    0    0  0.00000000000E+00  0.00000000000E+00  0.45593999997E+02  0.45594000000E+02  0.51100000000E-03 0. -1.
         11   -1    0    0    0    0 -0.00000000000E+00 -0.00000000000E+00 -0.45593999997E+02  0.45594000000E+02  0.51100000000E-03 0.  1.
    9900012    2    1    2    0    0  0.11340190888E+02  0.27273229585E+02 -0.12012109775E+02  0.59301956617E+02  0.50000022960E+02 0.  0.
         12    1    1    2    0    0 -0.11340190888E+02 -0.27273229585E+02  0.12012109775E+02  0.31886043383E+02  0.00000000000E+00 0. -1.
         11    1    3    3    0    0 -0.13091679590E+02  0.60735961980E+01 -0.53980783933E+01  0.15408435867E+02  0.51100000000E-03 0. -1.
        -11    1    3    3    0    0 -0.40932168536E+01  0.92055957067E+01 -0.80803429300E+01  0.12914695453E+02  0.51100000000E-03 0.  1.
         12    1    3    3    0    0  0.28525087332E+02  0.11994037681E+02  0.14663115485E+01  0.30978825296E+02  0.00000000000E+00 0. -1.
</event>
<event>
 7    1  0.6246445E-012  0.5930194E+02  0.7816164E-02  0.1266605E+00
        -11   -1    0    0    0    0  0.00000000000E+00  0.00000000000E+00  0.45593999997E+02  0.45594000000E+02  0.51100000000E-03 0.  1.
         11   -1    0    0    0    0 -0.00000000000E+00 -0.00000000000E+00 -0.45593999997E+02  0.45594000000E+02  0.51100000000E-03 0. -1.
    9900012    2    1    2    0    0  0.15842644027E+02 -0.77889299414E+01  0.26553042210E+02  0.59301939566E+02  0.49999991862E+02 0.  0.
         12    1    1    2    0    0 -0.15842644027E+02  0.77889299414E+01 -0.26553042210E+02  0.31886060434E+02  0.00000000000E+00 0. -1.
         11    1    3    3    0    0  0.28767132057E+01 -0.64840160680E+01 -0.66109611188E+01  0.96965329068E+01  0.51100000000E-03 0. -1.
        -11    1    3    3    0    0 -0.39487478231E+01  0.70636046075E+01 -0.31473291811E+01  0.86829027782E+01  0.51100000000E-03 0.  1.
        -12    1    3    3    0    0  0.16914678645E+02 -0.83685184809E+01  0.36311332510E+02  0.40922503881E+02  0.00000000000E+00 0.  1.
</event>
<event>
 7    1  0.6246445E-012  0.5930191E+02  0.7816164E-02  0.1266605E+00
        -11   -1    0    0    0    0  0.00000000000E+00  0.00000000000E+00  0.45593999997E+02  0.45594000000E+02  0.51100000000E-03 0. -1.
         11   -1    0    0    0    0 -0.00000000000E+00 -0.00000000000E+00 -0.45593999997E+02  0.45594000000E+02  0.51100000000E-03 0.  1.
    9900012    2    1    2    0    0  0.90808687896E+00 -0.21476955812E+02 -0.23550759952E+02  0.59301912955E+02  0.49999943331E+02 0.  0.
         12    1    1    2    0    0 -0.90808687896E+00  0.21476955812E+02  0.23550759952E+02  0.31886087045E+02  0.00000000000E+00 0. -1.
         11    1    3    3    0    0 -0.17544330754E+02 -0.12466211542E+02 -0.62246560373E+01  0.22404381599E+02  0.51100000000E-03 0. -1.
        -11    1    3    3    0    0  0.29799307465E+01 -0.15501812343E+02 -0.78976193489E+01  0.17651021636E+02  0.51100000000E-03 0.  1.
        -12    1    3    3    0    0  0.15472486886E+02  0.64910680728E+01 -0.94284845656E+01  0.19246509719E+02  0.00000000000E+00 0.  1.
</event>
<event>
 7    1  0.6246445E-012  0.5930200E+02  0.7816164E-02  0.1266605E+00
        -11   -1    0    0    0    0  0.00000000000E+00  0.00000000000E+00  0.45593999997E+02  0.45594000000E+02  0.51100000000E-03 0.  1.
         11   -1    0    0    0    0 -0.00000000000E+00 -0.00000000000E+00 -0.45593999997E+02  0.45594000000E+02  0.51100000000E-03 0. -1.
    9900012    2    1    2    0    0 -0.18059902838E+02  0.86201134614E+01  0.24824395762E+02  0.59301998815E+02  0.50000099919E+02 0.  0.
         12    1    1    2    0    0  0.18059902838E+02 -0.86201134614E+01 -0.24824395762E+02  0.31886001185E+02  0.00000000000E+00 0. -1.
         11    1    3    3    0    0  0.22433247216E+01 -0.29491325466E+01  0.23245914614E+02  0.23539380516E+02  0.51100000000E-03 0. -1.
        -11    1    3    3    0    0 -0.21179992018E+02  0.23906486556E+01  0.97534359810E+01  0.23440067760E+02  0.51100000000E-03 0.  1.
        -12    1    3    3    0    0  0.87676445849E+00  0.91785973524E+01 -0.81749548330E+01  0.12322550539E+02  0.00000000000E+00 0.  1.
</event>
<event>
 7    1  0.6246445E-012  0.5930193E+02  0.7816164E-02  0.1266605E+00
        -11   -1    0    0    0    0  0.00000000000E+00  0.00000000000E+00  0.45593999997E+02  0.45594000000E+02  0.51100000000E-03 0. -1.
         11   -1    0    0    0    0 -0.00000000000E+00 -0.00000000000E+00 -0.45593999997E+02  0.45594000000E+02  0.51100000000E-03 0.  1.
    9900012    2    1    2    0    0 -0.20846215194E+02 -0.91210128643E+01  0.22337494237E+02  0.59301933883E+02  0.49999981499E+02 0.  0.
         12    1    1    2    0    0  0.20846215194E+02  0.91210128643E+01 -0.22337494237E+02  0.31886066117E+02  0.00000000000E+00 0. -1.
         11    1    3    3    0    0 -0.10616019775E+02  0.21960615814E+01 -0.52348019379E+01  0.12038509622E+02  0.51100000000E-03 0. -1.
        -11    1    3    3    0    0 -0.17375705050E+02 -0.17122533371E+02  0.80658507050E+01  0.25693466541E+02  0.51100000000E-03 0.  1.
         12    1    3    3    0    0  0.71455096301E+01  0.58054589252E+01  0.19506445470E+02  0.21569957721E+02  0.00000000000E+00 0. -1.
</event>
<event>
 7    1  0.6246445E-012  0.5930190E+02  0.7816164E-02  0.1266605E+00
        -11   -1    0    0    0    0  0.00000000000E+00  0.00000000000E+00  0.45593999997E+02  0.45594000000E+02  0.51100000000E-03 0.  1.
         11   -1    0    0    0    0 -0.00000000000E+00 -0.00000000000E+00 -0.45593999997E+02  0.45594000000E+02  0.51100000000E-03 0. -1.
    9900012    2    1    2    0    0 -0.23215975299E+02  0.13495022700E+02  0.17193776041E+02  0.59301904577E+02  0.49999928051E+02 0.  0.
         12    1    1    2    0    0  0.23215975299E+02 -0.13495022700E+02 -0.17193776041E+02  0.31886095423E+02  0.00000000000E+00 0. -1.
         11    1    3    3    0    0  0.18455128619E+01  0.98378509738E+01 -0.13586791769E+02  0.16875726365E+02  0.51100000000E-03 0. -1.
        -11    1    3    3    0    0 -0.13782369655E+02 -0.46086190504E+01  0.11115122847E+02  0.18295874919E+02  0.51100000000E-03 0.  1.
        -12    1    3    3    0    0 -0.11279118506E+02  0.82657907764E+01  0.19665444963E+02  0.24130303293E+02  0.00000000000E+00 0.  1.
</event>
<event>
 7    1  0.6246445E-012  0.5930195E+02  0.7816164E-02  0.1266605E+00
        -11   -1    0    0    0    0  0.00000000000E+00  0.00000000000E+00  0.45593999997E+02  0.45594000000E+02  0.51100000000E-03 0. -1.
         11   -1    0    0    0    0 -0.00000000000E+00 -0.00000000000E+00 -0.45593999997E+02  0.45594000000E+02  0.51100000000E-03 0.  1.
    9900012    2    1    2    0    0 -0.24138841343E+02 -0.15508231979E+02  0.13911553900E+02  0.59301948937E+02  0.50000008953E+02 0.  0.
         12    1    1    2    0    0  0.24138841343E+02  0.15508231979E+02 -0.13911553900E+02  0.31886051063E+02  0.00000000000E+00 0. -1.
         11    1    3    3    0    0  0.41862311906E+01  0.12626823301E+01 -0.47794593775E+01  0.64778183404E+01  0.51100000000E-03 0.  1.
        -11    1    3    3    0    0 -0.11426068157E+02  0.11026035267E+02  0.12875470101E+01  0.15930670570E+02  0.51100000000E-03 0. -1.
         12    1    3    3    0    0 -0.16899004376E+02 -0.27796949576E+02  0.17403466267E+02  0.36893460027E+02  0.00000000000E+00 0. -1.
</event>
<event>
 7    1  0.6246445E-012  0.5930195E+02  0.7816164E-02  0.1266605E+00
        -11   -1    0    0    0    0  0.00000000000E+00  0.00000000000E+00  0.45593999997E+02  0.45594000000E+02  0.51100000000E-03 0.  1.
         11   -1    0    0    0    0 -0.00000000000E+00 -0.00000000000E+00 -0.45593999997E+02  0.45594000000E+02  0.51100000000E-03 0. -1.
    9900012    2    1    2    0    0  0.22745792320E+02  0.11816450288E+02  0.18966308560E+02  0.59301946214E+02  0.50000003986E+02 0.  0.
         12    1    1    2    0    0 -0.22745792320E+02 -0.11816450288E+02 -0.18966308560E+02  0.31886053786E+02  0.00000000000E+00 0. -1.
         11    1    3    3    0    0 -0.90658725182E+01 -0.40477160641E+01  0.55355235965E+01  0.11367324734E+02  0.51100000000E-03 0. -1.
        -11    1    3    3    0    0  0.90479668485E+01 -0.47128847661E+01  0.13904265723E+02  0.17245451356E+02  0.51100000000E-03 0.  1.
        -12    1    3    3    0    0  0.22763697990E+02  0.20577051118E+02 -0.47348075910E+00  0.30689170124E+02  0.00000000000E+00 0.  1.
</event>
<event>
 7    1  0.6246445E-012  0.5930205E+02  0.7816164E-02  0.1266604E+00
        -11   -1    0    0    0    0  0.00000000000E+00  0.00000000000E+00  0.45593999997E+02  0.45594000000E+02  0.51100000000E-03 0.  1.
         11   -1    0    0    0    0 -0.00000000000E+00 -0.00000000000E+00 -0.45593999997E+02  0.45594000000E+02  0.51100000000E-03 0. -1.
    9900012    2    1    2    0    0 -0.18553874323E+02  0.15584581841E+02 -0.20726515873E+02  0.59302048489E+02  0.50000190512E+02 0.  0.
         12    1    1    2    0    0  0.18553874323E+02 -0.15584581841E+02  0.20726515873E+02  0.31885951511E+02  0.00000000000E+00 0. -1.
         11    1    3    3    0    0 -0.21421917366E+02 -0.38042674235E+01 -0.12303850980E+02  0.24995114392E+02  0.51100000000E-03 0. -1.
        -11    1    3    3    0    0  0.43363036311E+01 -0.76143958837E+00  0.74231061797E+01  0.86305170786E+01  0.51100000000E-03 0.  1.
         12    1    3    3    0    0 -0.14682605878E+01  0.20150288853E+02 -0.15845771073E+02  0.25676417018E+02  0.00000000000E+00 0. -1.
</event>
<event>
 7    1  0.6246445E-012  0.5930191E+02  0.7816164E-02  0.1266605E+00
        -11   -1    0    0    0    0  0.00000000000E+00  0.00000000000E+00  0.45593999997E+02  0.45594000000E+02  0.51100000000E-03 0. -1.
         11   -1    0    0    0    0 -0.00000000000E+00 -0.00000000000E+00 -0.45593999997E+02  0.45594000000E+02  0.51100000000E-03 0.  1.
    9900012    2    1    2    0    0  0.23409190636E+02  0.16588419263E+02 -0.13912469511E+02  0.59301911062E+02  0.49999939878E+02 0.  0.
         12    1    1    2    0    0 -0.23409190636E+02 -0.16588419263E+02  0.13912469511E+02  0.31886088938E+02  0.00000000000E+00 0. -1.
         11    1    3    3    0    0  0.85459730382E+01  0.39824169677E+01  0.29343899197E+01  0.98744085664E+01  0.51100000000E-03 0. -1.
        -11    1    3    3    0    0  0.18389308286E+02 -0.11504958961E+02 -0.46775221989E+01  0.22190312168E+02  0.51100000000E-03 0.  1.
         12    1    3    3    0    0 -0.35260906887E+01  0.24110961256E+02 -0.12169337232E+02  0.27237190327E+02  0.00000000000E+00 0. -1.
</event>
<event>
 7    1  0.6246445E-012  0.5930195E+02  0.7816164E-02  0.1266605E+00
        -11   -1    0    0    0    0  0.00000000000E+00  0.00000000000E+00  0.45593999997E+02  0.45594000000E+02  0.51100000000E-03 0.  1.
         11   -1    0    0    0    0 -0.00000000000E+00 -0.00000000000E+00 -0.45593999997E+02  0.45594000000E+02  0.51100000000E-03 0. -1.
    9900012    2    1    2    0    0  0.71161368401E+01 -0.30957951262E+02  0.27724180281E+01  0.59301945813E+02  0.50000003257E+02 0.  0.
         12    1    1    2    0    0 -0.71161368401E+01  0.30957951262E+02 -0.27724180281E+01  0.31886054187E+02  0.00000000000E+00 0. -1.
         11    1    3    3    0    0 -0.14418106597E+01 -0.18209844528E+02 -0.16135355515E+01  0.18337959345E+02  0.51100000000E-03 0. -1.
        -11    1    3    3    0    0 -0.14183368492E+02 -0.10239637400E+02 -0.77251452000E+00  0.17510422462E+02  0.51100000000E-03 0.  1.
        -12    1    3    3    0    0  0.22741315992E+02 -0.25084693345E+01  0.51584680996E+01  0.23453564006E+02  0.00000000000E+00 0.  1.
</event>
<event>
 7    1  0.6246445E-012  0.5930193E+02  0.7816164E-02  0.1266605E+00
        -11   -1    0    0    0    0  0.00000000000E+00  0.00000000000E+00  0.45593999997E+02  0.45594000000E+02  0.51100000000E-03 0. -1.
         11   -1    0    0    0    0 -0.00000000000E+00 -0.00000000000E+00 -0.45593999997E+02  0.45594000000E+02  0.51100000000E-03 0.  1.
    9900012    2    1    2    0    0 -0.29398633357E+02 -0.11445996039E+02 -0.46293431075E+01  0.59301932726E+02  0.49999979388E+02 0.  0.
         12    1    1    2    0    0  0.29398633357E+02  0.11445996039E+02  0.46293431075E+01  0.31886067274E+02  0.00000000000E+00 0. -1.
         11    1    3    3    0    0 -0.32075338706E+02 -0.23183540916E+02 -0.10499146827E+01  0.39590481730E+02  0.51100000000E-03 0. -1.
        -11    1    3    3    0    0 -0.51717877859E+01  0.25374962294E+01 -0.48785045217E+01  0.75489126797E+01  0.51100000000E-03 0.  1.
         12    1    3    3    0    0  0.78484931346E+01  0.92000486470E+01  0.12990760969E+01  0.12162538316E+02  0.00000000000E+00 0. -1.
</event>
<event>
 7    1  0.6246445E-012  0.5930194E+02  0.7816164E-02  0.1266605E+00
        -11   -1    0    0    0    0  0.00000000000E+00  0.00000000000E+00  0.45593999997E+02  0.45594000000E+02  0.51100000000E-03 0.  1.
         11   -1    0    0    0    0 -0.00000000000E+00 -0.00000000000E+00 -0.45593999997E+02  0.45594000000E+02  0.51100000000E-03 0. -1.
    9900012    2    1    2    0    0  0.31711046014E+02  0.31243582166E+01  0.11698630309E+01  0.59301942967E+02  0.49999998066E+02 0.  0.
         12    1    1    2    0    0 -0.31711046014E+02 -0.31243582166E+01 -0.11698630309E+01  0.31886057033E+02  0.00000000000E+00 0. -1.
         11    1    3    3    0    0  0.69960450792E+01  0.29398465490E+01  0.37924431349E+01  0.84835116358E+01  0.51100000000E-03 0. -1.
        -11    1    3    3    0    0  0.17753913601E+02 -0.40414774675E+01  0.19837890499E+02  0.26927251772E+02  0.51100000000E-03 0.  1.
         12    1    3    3    0    0  0.69610873342E+01  0.42259891352E+01 -0.22460470603E+02  0.23891179560E+02  0.00000000000E+00 0. -1.
</event>
<event>
 7    1  0.6246445E-012  0.5930197E+02  0.7816164E-02  0.1266605E+00
        -11   -1    0    0    0    0  0.00000000000E+00  0.00000000000E+00  0.45593999997E+02  0.45594000000E+02  0.51100000000E-03 0. -1.
         11   -1    0    0    0    0 -0.00000000000E+00 -0.00000000000E+00 -0.45593999997E+02  0.45594000000E+02  0.51100000000E-03 0.  1.
    9900012    2    1    2    0    0 -0.25736424580E+02  0.10411592914E+02 -0.15682926903E+02  0.59301968365E+02  0.50000044386E+02 0.  0.
         12    1    1    2    0    0  0.25736424580E+02 -0.10411592914E+02  0.15682926903E+02  0.31886031635E+02  0.00000000000E+00 0. -1.
         11    1    3    3    0    0 -0.53968428339E+01 -0.39636985115E+01  0.67684538664E+01  0.95209656268E+01  0.51100000000E-03 0. -1.
        -11    1    3    3    0    0  0.88806427372E+01  0.11931975545E+02 -0.51799601966E+01  0.15750233133E+02  0.51100000000E-03 0.  1.
        -12    1    3    3    0    0 -0.29220224483E+02  0.24433158804E+01 -0.17271420572E+02  0.34030769606E+02  0.00000000000E+00 0.  1.
</event>
<event>
 7    1  0.6246445E-012  0.5930196E+02  0.7816164E-02  0.1266605E+00
        -11   -1    0    0    0    0  0.00000000000E+00  0.00000000000E+00  0.45593999997E+02  0.45594000000E+02  0.51100000000E-03 0. -1.
         11   -1    0    0    0    0 -0.00000000000E+00 -0.00000000000E+00 -0.45593999997E+02  0.45594000000E+02  0.51100000000E-03 0.  1.
    9900012    2    1    2    0    0 -0.21876933764E+02  0.15206092884E+02 -0.17518395331E+02  0.59301958122E+02  0.50000025704E+02 0.  0.
         12    1    1    2    0    0  0.21876933764E+02 -0.15206092884E+02  0.17518395331E+02  0.31886041878E+02  0.00000000000E+00 0. -1.
         11    1    3    3    0    0 -0.90788565064E+01  0.91922946266E+01  0.29777905587E+01  0.13258625601E+02  0.51100000000E-03 0. -1.
        -11    1    3    3    0    0 -0.25066409301E+02 -0.34517410017E+01 -0.15886592407E+02  0.29876800528E+02  0.51100000000E-03 0.  1.
        -12    1    3    3    0    0  0.12268332044E+02  0.94655392589E+01 -0.46095934824E+01  0.16166531993E+02  0.00000000000E+00 0.  1.
</event>
<event>
 7    1  0.6246445E-012  0.5930195E+02  0.7816164E-02  0.1266605E+00
        -11   -1    0    0    0    0  0.00000000000E+00  0.00000000000E+00  0.45593999997E+02  0.45594000000E+02  0.51100000000E-03 0.  1.
         11   -1    0    0    0    0 -0.00000000000E+00 -0.00000000000E+00 -0.45593999997E+02  0.45594000000E+02  0.51100000000E-03 0. -1.
    9900012    2    1    2    0    0  0.37343564101E+01  0.24398927670E+01  0.31572483259E+02  0.59301949858E+02  0.50000010632E+02 0.  0.
         12    1    1    2    0    0 -0.37343564101E+01 -0.24398927670E+01 -0.31572483259E+02  0.31886050142E+02  0.00000000000E+00 0. -1.
         11    1    3    3    0    0  0.50424140837E+01  0.79620734392E+01  0.15989520325E+02  0.18560315561E+02  0.51100000000E-03 0. -1.
        -11    1    3    3    0    0  0.27255542027E+01 -0.79377602689E+01  0.27063883449E+02  0.28335321975E+02  0.51100000000E-03 0.  1.
         12    1    3    3    0    0 -0.40336118763E+01  0.24155795967E+01 -0.11480920515E+02  0.12406312322E+02  0.00000000000E+00 0. -1.
</event>
<event>
 7    1  0.6246445E-012  0.5930191E+02  0.7816164E-02  0.1266605E+00
        -11   -1    0    0    0    0  0.00000000000E+00  0.00000000000E+00  0.45593999997E+02  0.45594000000E+02  0.51100000000E-03 0.  1.
         11   -1    0    0    0    0 -0.00000000000E+00 -0.00000000000E+00 -0.45593999997E+02  0.45594000000E+02  0.51100000000E-03 0. -1.
    9900012    2    1    2    0    0 -0.11315491195E+02 -0.21622747800E+02  0.20521669921E+02  0.59301913696E+02  0.49999944683E+02 0.  0.
         12    1    1    2    0    0  0.11315491195E+02  0.21622747800E+02 -0.20521669921E+02  0.31886086304E+02  0.00000000000E+00 0. -1.
         11    1    3    3    0    0  0.34395721183E+01 -0.15953090714E+01  0.19351829608E+02  0.19719761075E+02  0.51100000000E-03 0. -1.
        -11    1    3    3    0    0 -0.38149275780E+01  0.57720412337E+01 -0.75431373679E+01  0.10235675554E+02  0.51100000000E-03 0.  1.
        -12    1    3    3    0    0 -0.10940135735E+02 -0.25799479963E+02  0.87129776804E+01  0.29346477068E+02  0.00000000000E+00 0.  1.
</event>
<event>
 7    1  0.6246445E-012  0.5930194E+02  0.7816164E-02  0.1266605E+00
        -11   -1    0    0    0    0  0.00000000000E+00  0.00000000000E+00  0.45593999997E+02  0.45594000000E+02  0.51100000000E-03 0.  1.
         11   -1    0    0    0    0 -0.00000000000E+00 -0.00000000000E+00 -0.45593999997E+02  0.45594000000E+02  0.51100000000E-03 0. -1.
    9900012    2    1    2    0    0 -0.21892276392E+02  0.13213937189E+02  0.19048386804E+02  0.59301938131E+02  0.49999989247E+02 0.  0.
         12    1    1    2    0    0  0.21892276392E+02 -0.13213937189E+02 -0.19048386804E+02  0.31886061869E+02  0.00000000000E+00 0. -1.
         11    1    3    3    0    0 -0.17717510054E+02  0.59977516252E+01  0.28451364474E+01  0.18920306254E+02  0.51100000000E-03 0. -1.
        -11    1    3    3    0    0 -0.10557296645E+02  0.76171724938E+01 -0.80454418098E+01  0.15303821857E+02  0.51100000000E-03 0.  1.
         12    1    3    3    0    0  0.63825303077E+01 -0.40098692955E+00  0.24248692166E+02  0.25077810021E+02  0.00000000000E+00 0. -1.
</event>
<event>
 7    1  0.6246445E-012  0.5930189E+02  0.7816164E-02  0.1266605E+00
        -11   -1    0    0    0    0  0.00000000000E+00  0.00000000000E+00  0.45593999997E+02  0.45594000000E+02  0.51100000000E-03 0.  1.
         11   -1    0    0    0    0 -0.00000000000E+00 -0.00000000000E+00 -0.45593999997E+02  0.45594000000E+02  0.51100000000E-03 0. -1.
    9900012    2    1    2    0    0  0.17944028258E+02 -0.25138149712E+02 -0.79252507641E+01  0.59301885142E+02  0.49999892607E+02 0.  0.
         12    1    1    2    0    0 -0.17944028258E+02  0.25138149712E+02  0.79252507641E+01  0.31886114858E+02  0.00000000000E+00 0. -1.
         11    1    3    3    0    0  0.13684121223E+02 -0.40684089590E+01 -0.51443980788E+01  0.15174714394E+02  0.51100000000E-03 0. -1.
        -11    1    3    3    0    0  0.15173065327E+02 -0.13639723262E+02  0.12504443119E+02  0.23929585455E+02  0.51100000000E-03 0.  1.
         12    1    3    3    0    0 -0.10913158293E+02 -0.74300174914E+01 -0.15285295804E+02  0.20197585293E+02  0.00000000000E+00 0. -1.
</event>
<event>
 7    1  0.6246445E-012  0.5930194E+02  0.7816164E-02  0.1266605E+00
        -11   -1    0    0    0    0  0.00000000000E+00  0.00000000000E+00  0.45593999997E+02  0.45594000000E+02  0.51100000000E-03 0.  1.
         11   -1    0    0    0    0 -0.00000000000E+00 -0.00000000000E+00 -0.45593999997E+02  0.45594000000E+02  0.51100000000E-03 0. -1.
    9900012    2    1    2    0    0  0.10145868430E+00 -0.30902937947E+02  0.78561428725E+01  0.59301939591E+02  0.49999991908E+02 0.  0.
         12    1    1    2    0    0 -0.10145868430E+00  0.30902937947E+02 -0.78561428725E+01  0.31886060409E+02  0.00000000000E+00 0. -1.
         11    1    3    3    0    0  0.19724755695E+01  0.80356053795E+01  0.80141162969E+01  0.11519013585E+02  0.51100000000E-03 0. -1.
        -11    1    3    3    0    0  0.56917632167E+01  0.24689643606E+00  0.49520812998E+01  0.75485254074E+01  0.51100000000E-03 0.  1.
        -12    1    3    3    0    0 -0.75627801019E+01 -0.39185439762E+02 -0.51100547242E+01  0.40234400598E+02  0.00000000000E+00 0.  1.
</event>
<event>
 7    1  0.6246445E-012  0.5930197E+02  0.7816164E-02  0.1266605E+00
        -11   -1    0    0    0    0  0.00000000000E+00  0.00000000000E+00  0.45593999997E+02  0.45594000000E+02  0.51100000000E-03 0. -1.
         11   -1    0    0    0    0 -0.00000000000E+00 -0.00000000000E+00 -0.45593999997E+02  0.45594000000E+02  0.51100000000E-03 0.  1.
    9900012    2    1    2    0    0 -0.26831651737E+02 -0.43252010469E+01 -0.16675548264E+02  0.59301971572E+02  0.50000050234E+02 0.  0.
         12    1    1    2    0    0  0.26831651737E+02  0.43252010469E+01  0.16675548264E+02  0.31886028428E+02  0.00000000000E+00 0. -1.
         11    1    3    3    0    0 -0.12131327524E+02  0.12914726394E+02  0.82463947978E+01  0.19543855626E+02  0.51100000000E-03 0. -1.
        -11    1    3    3    0    0 -0.46636366068E+01  0.15000413321E+01  0.21391007339E+01  0.53455946918E+01  0.51100000000E-03 0.  1.
        -12    1    3    3    0    0 -0.10036687606E+02 -0.18739968773E+02 -0.27061043796E+02  0.34412521254E+02  0.00000000000E+00 0.  1.
</event>
<event>
 7    1  0.6246445E-012  0.5930196E+02  0.7816164E-02  0.1266605E+00
        -11   -1    0    0    0    0  0.00000000000E+00  0.00000000000E+00  0.45593999997E+02  0.45594000000E+02  0.51100000000E-03 0. -1.
         11   -1    0    0    0    0 -0.00000000000E+00 -0.00000000000E+00 -0.45593999997E+02  0.45594000000E+02  0.51100000000E-03 0.  1.
    9900012    2    1    2    0    0  0.26894686131E+02 -0.68033639850E+01 -0.15719724415E+02  0.59301958551E+02  0.50000026488E+02 0.  0.
         12    1    1    2    0    0 -0.26894686131E+02  0.68033639850E+01  0.15719724415E+02  0.31886041449E+02  0.00000000000E+00 0. -1.
         11    1    3    3    0    0 -0.48707528612E+01  0.42620280970E+01 -0.38060888848E+01  0.75083573300E+01  0.51100000000E-03 0. -1.
        -11    1    3    3    0    0 -0.40443195248E+01 -0.28591446335E+01  0.84461049549E+01  0.97912163506E+01  0.51100000000E-03 0.  1.
        -12    1    3    3    0    0  0.35809758517E+02 -0.82062474485E+01 -0.20359740485E+02  0.42002384871E+02  0.00000000000E+00 0.  1.
</event>
<event>
 7    1  0.6246445E-012  0.5930191E+02  0.7816164E-02  0.1266605E+00
        -11   -1    0    0    0    0  0.00000000000E+00  0.00000000000E+00  0.45593999997E+02  0.45594000000E+02  0.51100000000E-03 0. -1.
         11   -1    0    0    0    0 -0.00000000000E+00 -0.00000000000E+00 -0.45593999997E+02  0.45594000000E+02  0.51100000000E-03 0.  1.
    9900012    2    1    2    0    0  0.93767701538E+01 -0.26968582559E+02  0.14194871565E+02  0.59301911458E+02  0.49999940600E+02 0.  0.
         12    1    1    2    0    0 -0.93767701538E+01  0.26968582559E+02 -0.14194871565E+02  0.31886088542E+02  0.00000000000E+00 0. -1.
         11    1    3    3    0    0  0.80639349100E+01 -0.11247872437E+02 -0.31775619517E+01  0.14199950029E+02  0.51100000000E-03 0. -1.
        -11    1    3    3    0    0  0.69905131356E+01 -0.20287733008E+02 -0.46060550172E+01  0.21947098386E+02  0.51100000000E-03 0.  1.
         12    1    3    3    0    0 -0.56776778918E+01  0.45670228861E+01  0.21978488534E+02  0.23154863043E+02  0.00000000000E+00 0. -1.
</event>
<event>
 7    1  0.6246445E-012  0.5930195E+02  0.7816164E-02  0.1266605E+00
        -11   -1    0    0    0    0  0.00000000000E+00  0.00000000000E+00  0.45593999997E+02  0.45594000000E+02  0.51100000000E-03 0. -1.
         11   -1    0    0    0    0 -0.00000000000E+00 -0.00000000000E+00 -0.45593999997E+02  0.45594000000E+02  0.51100000000E-03 0.  1.
    9900012    2    1    2    0    0 -0.76042497154E+01  0.22199067019E+02  0.21589282584E+02  0.59301947990E+02  0.50000007227E+02 0.  0.
         12    1    1    2    0    0  0.76042497154E+01 -0.22199067019E+02 -0.21589282584E+02  0.31886052010E+02  0.00000000000E+00 0. -1.
         11    1    3    3    0    0 -0.20703659841E+01  0.20546883880E+01 -0.21241285456E+01  0.36083350758E+01  0.51100000000E-03 0. -1.
        -11    1    3    3    0    0 -0.29264467195E+00  0.24910566449E+02 -0.56019874568E+01  0.25534373410E+02  0.51100000000E-03 0.  1.
         12    1    3    3    0    0 -0.52412390593E+01 -0.47661878178E+01  0.29315398586E+02  0.30159239504E+02  0.00000000000E+00 0. -1.
</event>
<event>
 7    1  0.6246445E-012  0.5930193E+02  0.7816164E-02  0.1266605E+00
        -11   -1    0    0    0    0  0.00000000000E+00  0.00000000000E+00  0.45593999997E+02  0.45594000000E+02  0.51100000000E-03 0.  1.
         11   -1    0    0    0    0 -0.00000000000E+00 -0.00000000000E+00 -0.45593999997E+02  0.45594000000E+02  0.51100000000E-03 0. -1.
    9900012    2    1    2    0    0 -0.26765398410E+02  0.15150732096E+02  0.84136752082E+01  0.59301934617E+02  0.49999982837E+02 0.  0.
         12    1    1    2    0    0  0.26765398410E+02 -0.15150732096E+02 -0.84136752082E+01  0.31886065383E+02  0.00000000000E+00 0. -1.
         11    1    3    3    0    0  0.68531347048E+01  0.27230123619E+01  0.25423788083E+01  0.78002526800E+01  0.51100000000E-03 0. -1.
        -11    1    3    3    0    0 -0.16428335028E+02 -0.29826752078E+01  0.18716970618E+02  0.25082095857E+02  0.51100000000E-03 0.  1.
         12    1    3    3    0    0 -0.17190198087E+02  0.15410394942E+02 -0.12845674218E+02  0.26419586080E+02  0.00000000000E+00 0. -1.
</event>
<event>
 7    1  0.6246445E-012  0.5930195E+02  0.7816164E-02  0.1266605E+00
        -11   -1    0    0    0    0  0.00000000000E+00  0.00000000000E+00  0.45593999997E+02  0.45594000000E+02  0.51100000000E-03 0.  1.
         11   -1    0    0    0    0 -0.00000000000E+00 -0.00000000000E+00 -0.45593999997E+02  0.45594000000E+02  0.51100000000E-03 0. -1.
    9900012    2    1    2    0    0 -0.13953771286E+02 -0.87034818053E+01  0.27317792665E+02  0.59301950939E+02  0.50000012605E+02 0.  0.
         12    1    1    2    0    0  0.13953771286E+02  0.87034818053E+01 -0.27317792665E+02  0.31886049061E+02  0.00000000000E+00 0. -1.
         11    1    3    3    0    0 -0.24102253793E+02  0.12310494580E+02  0.18730311288E+02  0.32913393564E+02  0.51100000000E-03 0.  1.
        -11    1    3    3    0    0  0.25492109786E+01 -0.10616746758E+02  0.15970731421E-01  0.10918518382E+02  0.51100000000E-03 0. -1.
        -12    1    3    3    0    0  0.75992715288E+01 -0.10397229627E+02  0.85715106459E+01  0.15470038993E+02  0.00000000000E+00 0.  1.
</event>
<event>
 7    1  0.6515111E-012  0.5930194E+02  0.7816164E-02  0.1266605E+00
        -11   -1    0    0    0    0  0.00000000000E+00  0.00000000000E+00  0.45593999997E+02  0.45594000000E+02  0.51100000000E-03 0. -1.
         11   -1    0    0    0    0 -0.00000000000E+00 -0.00000000000E+00 -0.45593999997E+02  0.45594000000E+02  0.51100000000E-03 0.  1.
    9900012    2    1    2    0    0 -0.27271172770E+02 -0.39097998988E+01 -0.16053571891E+02  0.59301943957E+02  0.49999999871E+02 0.  0.
         12    1    1    2    0    0  0.27271172770E+02  0.39097998988E+01  0.16053571891E+02  0.31886056043E+02  0.00000000000E+00 0. -1.
         11    1    3    3    0    0  0.30393896771E+00  0.99303976158E+00 -0.13618577602E+02  0.13658117111E+02  0.51100000000E-03 0. -1.
        -11    1    3    3    0    0 -0.24489877492E+02 -0.72143867237E+00 -0.17236826160E+02  0.29956347402E+02  0.51100000000E-03 0.  1.
         12    1    3    3    0    0 -0.30852342458E+01 -0.41814009880E+01  0.14801831870E+02  0.15687479444E+02  0.00000000000E+00 0. -1.
</event>
<event>
 7    1  0.6246445E-012  0.5930196E+02  0.7816164E-02  0.1266605E+00
        -11   -1    0    0    0    0  0.00000000000E+00  0.00000000000E+00  0.45593999997E+02  0.45594000000E+02  0.51100000000E-03 0.  1.
         11   -1    0    0    0    0 -0.00000000000E+00 -0.00000000000E+00 -0.45593999997E+02  0.45594000000E+02  0.51100000000E-03 0. -1.
    9900012    2    1    2    0    0  0.25700224508E+02  0.18261218691E+02  0.47692951669E+01  0.59301955651E+02  0.50000021199E+02 0.  0.
         12    1    1    2    0    0 -0.25700224508E+02 -0.18261218691E+02 -0.47692951669E+01  0.31886044349E+02  0.00000000000E+00 0. -1.
         11    1    3    3    0    0  0.28140310588E+02  0.18000303335E+02 -0.80470215035E+01  0.34360479559E+02  0.51100000000E-03 0. -1.
        -11    1    3    3    0    0  0.78192675369E+01 -0.32032049774E+01  0.11142968611E+02  0.13984534911E+02  0.51100000000E-03 0.  1.
        -12    1    3    3    0    0 -0.10259353618E+02  0.34641203333E+01  0.16733480592E+01  0.10956941182E+02  0.00000000000E+00 0.  1.
</event>
<event>
 7    1  0.6246445E-012  0.5930184E+02  0.7816164E-02  0.1266605E+00
        -11   -1    0    0    0    0  0.00000000000E+00  0.00000000000E+00  0.45593999997E+02  0.45594000000E+02  0.51100000000E-03 0.  1.
         11   -1    0    0    0    0 -0.00000000000E+00 -0.00000000000E+00 -0.45593999997E+02  0.45594000000E+02  0.51100000000E-03 0. -1.
    9900012    2    1    2    0    0 -0.15256345731E+02 -0.23178800264E+02  0.15707148427E+02  0.59301837194E+02  0.49999805161E+02 0.  0.
         12    1    1    2    0    0  0.15256345731E+02  0.23178800264E+02 -0.15707148427E+02  0.31886162806E+02  0.00000000000E+00 0. -1.
         11    1    3    3    0    0  0.33849849983E+01 -0.22061056201E+01 -0.91471635854E+00  0.41426720511E+01  0.51100000000E-03 0. -1.
        -11    1    3    3    0    0 -0.43570747992E+01 -0.27798378253E+02  0.24650607024E+02  0.37408372876E+02  0.51100000000E-03 0.  1.
         12    1    3    3    0    0 -0.14284255930E+02  0.68256836084E+01 -0.80287422386E+01  0.17750792268E+02  0.00000000000E+00 0. -1.
</event>
<event>
 7    1  0.6246445E-012  0.5930190E+02  0.7816164E-02  0.1266605E+00
        -11   -1    0    0    0    0  0.00000000000E+00  0.00000000000E+00  0.45593999997E+02  0.45594000000E+02  0.51100000000E-03 0.  1.
         11   -1    0    0    0    0 -0.00000000000E+00 -0.00000000000E+00 -0.45593999997E+02  0.45594000000E+02  0.51100000000E-03 0. -1.
    9900012    2    1    2    0    0  0.84500231531E+01 -0.30740117181E+02  0.60473227160E+00  0.59301899631E+02  0.49999919031E+02 0.  0.
         12    1    1    2    0    0 -0.84500231531E+01  0.30740117181E+02 -0.60473227160E+00  0.31886100369E+02  0.00000000000E+00 0. -1.
         11    1    3    3    0    0  0.96246159720E+01 -0.11424750171E+02  0.16456325553E+01  0.15028847456E+02  0.51100000000E-03 0. -1.
        -11    1    3    3    0    0 -0.92338361223E+00 -0.18706392739E+02  0.17552193073E+02  0.25668292669E+02  0.51100000000E-03 0.  1.
         12    1    3    3    0    0 -0.25120920673E+00 -0.60897427164E+00 -0.18593093357E+02  0.18604759507E+02  0.00000000000E+00 0. -1.
</event>
<event>
 7    1  0.6246445E-012  0.5930195E+02  0.7816164E-02  0.1266605E+00
        -11   -1    0    0    0    0  0.00000000000E+00  0.00000000000E+00  0.45593999997E+02  0.45594000000E+02  0.51100000000E-03 0.  1.
         11   -1    0    0    0    0 -0.00000000000E+00 -0.00000000000E+00 -0.45593999997E+02  0.45594000000E+02  0.51100000000E-03 0. -1.
    9900012    2    1    2    0    0 -0.96784093600E+01  0.18960310390E+02  0.23739311469E+02  0.59301954669E+02  0.50000019408E+02 0.  0.
         12    1    1    2    0    0  0.96784093600E+01 -0.18960310390E+02 -0.23739311469E+02  0.31886045331E+02  0.00000000000E+00 0. -1.
         11    1    3    3    0    0  0.43575994479E+01 -0.55063084371E+01 -0.63163871466E+01  0.94448320472E+01  0.51100000000E-03 0. -1.
        -11    1    3    3    0    0  0.85876806717E+01  0.84338393758E+01  0.97094734172E+01  0.15464532978E+02  0.51100000000E-03 0.  1.
        -12    1    3    3    0    0 -0.22623689480E+02  0.16032779451E+02  0.20346225198E+02  0.34392589644E+02  0.00000000000E+00 0.  1.
</event>
<event>
 7    1  0.6246445E-012  0.5930195E+02  0.7816164E-02  0.1266605E+00
        -11   -1    0    0    0    0  0.00000000000E+00  0.00000000000E+00  0.45593999997E+02  0.45594000000E+02  0.51100000000E-03 0.  1.
         11   -1    0    0    0    0 -0.00000000000E+00 -0.00000000000E+00 -0.45593999997E+02  0.45594000000E+02  0.51100000000E-03 0. -1.
    9900012    2    1    2    0    0  0.24655883216E+02 -0.19825154629E+02  0.39712338443E+01  0.59301952401E+02  0.50000015272E+02 0.  0.
         12    1    1    2    0    0 -0.24655883216E+02  0.19825154629E+02 -0.39712338443E+01  0.31886047599E+02  0.00000000000E+00 0. -1.
         11    1    3    3    0    0  0.24993211185E+02  0.81663718950E+00  0.14544417664E+02  0.28928663763E+02  0.51100000000E-03 0. -1.
        -11    1    3    3    0    0  0.60729622597E+01 -0.12467301247E+02  0.20573829810E+01  0.14019532659E+02  0.51100000000E-03 0.  1.
         12    1    3    3    0    0 -0.64102902291E+01 -0.81744905712E+01 -0.12630566801E+02  0.16353755979E+02  0.00000000000E+00 0. -1.
</event>
<event>
 7    1  0.6246445E-012  0.5930194E+02  0.7816164E-02  0.1266605E+00
        -11   -1    0    0    0    0  0.00000000000E+00  0.00000000000E+00  0.45593999997E+02  0.45594000000E+02  0.51100000000E-03 0.  1.
         11   -1    0    0    0    0 -0.00000000000E+00 -0.00000000000E+00 -0.45593999997E+02  0.45594000000E+02  0.51100000000E-03 0. -1.
    9900012    2    1    2    0    0 -0.18909053848E+02 -0.37382959108E+00  0.25671560206E+02  0.59301936126E+02  0.49999985589E+02 0.  0.
         12    1    1    2    0    0  0.18909053848E+02  0.37382959108E+00 -0.25671560206E+02  0.31886063874E+02  0.00000000000E+00 0. -1.
         11    1    3    3    0    0 -0.20205568414E+02  0.53725569957E-01 -0.23034576570E+01  0.20336513929E+02  0.51100000000E-03 0. -1.
        -11    1    3    3    0    0 -0.44196162929E+01  0.90123109999E+01  0.13298934783E+01  0.10125382692E+02  0.51100000000E-03 0.  1.
        -12    1    3    3    0    0  0.57161308590E+01 -0.94398661609E+01  0.26645124385E+02  0.28840039504E+02  0.00000000000E+00 0.  1.
</event>
<event>
 7    1  0.6246445E-012  0.5930199E+02  0.7816164E-02  0.1266605E+00
        -11   -1    0    0    0    0  0.00000000000E+00  0.00000000000E+00  0.45593999997E+02  0.45594000000E+02  0.51100000000E-03 0.  1.
         11   -1    0    0    0    0 -0.00000000000E+00 -0.00000000000E+00 -0.45593999997E+02  0.45594000000E+02  0.51100000000E-03 0. -1.
    9900012    2    1    2    0    0 -0.19299023087E+02 -0.24429059881E+02  0.68910391525E+01  0.59301989284E+02  0.50000082537E+02 0.  0.
         12    1    1    2    0    0  0.19299023087E+02  0.24429059881E+02 -0.68910391525E+01  0.31886010716E+02  0.00000000000E+00 0. -1.
         11    1    3    3    0    0  0.33638524040E+01 -0.16039611717E+01 -0.58174188913E+01  0.69087305096E+01  0.51100000000E-03 0. -1.
        -11    1    3    3    0    0  0.71489698760E+01  0.67616021715E+00 -0.66446063965E+01  0.97834430214E+01  0.51100000000E-03 0.  1.
        -12    1    3    3    0    0 -0.29811845367E+02 -0.23501258926E+02  0.19353064440E+02  0.42609815753E+02  0.00000000000E+00 0.  1.
</event>
<event>
 7    1  0.6246445E-012  0.5930200E+02  0.7816164E-02  0.1266605E+00
        -11   -1    0    0    0    0  0.00000000000E+00  0.00000000000E+00  0.45593999997E+02  0.45594000000E+02  0.51100000000E-03 0.  1.
         11   -1    0    0    0    0 -0.00000000000E+00 -0.00000000000E+00 -0.45593999997E+02  0.45594000000E+02  0.51100000000E-03 0. -1.
    9900012    2    1    2    0    0  0.19458664454E+02 -0.73700938648E+01  0.24161109205E+02  0.59301998307E+02  0.50000098993E+02 0.  0.
         12    1    1    2    0    0 -0.19458664454E+02  0.73700938648E+01 -0.24161109205E+02  0.31886001693E+02  0.00000000000E+00 0. -1.
         11    1    3    3    0    0 -0.12498166117E+01 -0.56512944787E+01  0.16161561037E+02  0.17166689438E+02  0.51100000000E-03 0. -1.
        -11    1    3    3    0    0  0.25605634094E+02 -0.58942188150E+01  0.16834007683E+02  0.31205354152E+02  0.51100000000E-03 0.  1.
         12    1    3    3    0    0 -0.48971530278E+01  0.41754194289E+01 -0.88344595158E+01  0.10929954717E+02  0.00000000000E+00 0. -1.
</event>
