<event>
 7    1  0.1184848E-011  0.5930194E+02  0.7816164E-02  0.1266605E+00
        -11   -1    0    0    0    0  0.00000000000E+00  0.00000000000E+00  0.45593999997E+02  0.45594000000E+02  0.51100000000E-03 0.  1.
         11   -1    0    0    0    0 -0.00000000000E+00 -0.00000000000E+00 -0.45593999997E+02  0.45594000000E+02  0.51100000000E-03 0. -1.
    9900012    2    1    2    0    0  0.30438121312E+02  0.25794800346E+01 -0.91426385116E+01  0.59301940582E+02  0.49999993716E+02 0.  0.
        -12    1    1    2    0    0 -0.30438121312E+02 -0.25794800346E+01  0.91426385116E+01  0.31886059418E+02  0.00000000000E+00 0.  1.
         11    1    3    3    0    0  0.32811251642E+02  0.65594749929E+01 -0.19172793477E+02  0.38564244534E+02  0.51100000000E-03 0. -1.
        -11    1    3    3    0    0  0.72888743063E+01 -0.43335232095E+01  0.48558825565E+01  0.97717300272E+01  0.51100000000E-03 0.  1.
        -12    1    3    3    0    0 -0.96620046361E+01  0.35352825117E+00  0.51742724087E+01  0.10965966021E+02  0.00000000000E+00 0.  1.
</event>
<event>
 7    1  0.1184848E-011  0.5930193E+02  0.7816164E-02  0.1266605E+00
        -11   -1    0    0    0    0  0.00000000000E+00  0.00000000000E+00  0.45593999997E+02  0.45594000000E+02  0.51100000000E-03 0. -1.
         11   -1    0    0    0    0 -0.00000000000E+00 -0.00000000000E+00 -0.45593999997E+02  0.45594000000E+02  0.51100000000E-03 0.  1.
    9900012    2    1    2    0    0  0.26227358058E+02  0.17342426501E+02  0.52997806822E+01  0.59301925564E+02  0.49999966326E+02 0.  0.
        -12    1    1    2    0    0 -0.26227358058E+02 -0.17342426501E+02 -0.52997806822E+01  0.31886074436E+02  0.00000000000E+00 0.  1.
         11    1    3    3    0    0  0.29514007775E+02  0.18440480021E+02  0.38670990449E+01  0.35015459637E+02  0.51100000000E-03 0.  1.
        -11    1    3    3    0    0 -0.26457293850E+01  0.10700061271E+02  0.47677802236E+01  0.12009284896E+02  0.51100000000E-03 0. -1.
        -12    1    3    3    0    0 -0.64092033122E+00 -0.11798114791E+02 -0.33350985863E+01  0.12277181031E+02  0.00000000000E+00 0.  1.
</event>
<event>
 7    1  0.1184848E-011  0.5930193E+02  0.7816164E-02  0.1266605E+00
        -11   -1    0    0    0    0  0.00000000000E+00  0.00000000000E+00  0.45593999997E+02  0.45594000000E+02  0.51100000000E-03 0. -1.
         11   -1    0    0    0    0 -0.00000000000E+00 -0.00000000000E+00 -0.45593999997E+02  0.45594000000E+02  0.51100000000E-03 0.  1.
    9900012    2    1    2    0    0  0.64403388419E+01 -0.20181195626E+02  0.23831973623E+02  0.59301927992E+02  0.49999970755E+02 0.  0.
        -12    1    1    2    0    0 -0.64403388419E+01  0.20181195626E+02 -0.23831973623E+02  0.31886072008E+02  0.00000000000E+00 0.  1.
         11    1    3    3    0    0 -0.82937998946E+00 -0.23274357072E+01  0.99053532701E-01  0.24727798126E+01  0.51100000000E-03 0. -1.
        -11    1    3    3    0    0 -0.14189510345E+02 -0.24451927806E+02  0.78895904027E+01  0.29351058146E+02  0.51100000000E-03 0.  1.
         12    1    3    3    0    0  0.21459229177E+02  0.65981678871E+01  0.15843329688E+02  0.27478090034E+02  0.00000000000E+00 0. -1.
</event>
<event>
 7    1  0.1184848E-011  0.5930195E+02  0.7816164E-02  0.1266605E+00
        -11   -1    0    0    0    0  0.00000000000E+00  0.00000000000E+00  0.45593999997E+02  0.45594000000E+02  0.51100000000E-03 0.  1.
         11   -1    0    0    0    0 -0.00000000000E+00 -0.00000000000E+00 -0.45593999997E+02  0.45594000000E+02  0.51100000000E-03 0. -1.
    9900012    2    1    2    0    0  0.11314699804E+02 -0.18060652520E+02 -0.23717312053E+02  0.59301945177E+02  0.50000002097E+02 0.  0.
        -12    1    1    2    0    0 -0.11314699804E+02  0.18060652520E+02  0.23717312053E+02  0.31886054823E+02  0.00000000000E+00 0.  1.
         11    1    3    3    0    0  0.18357320065E+02 -0.16696969754E+02  0.31663529463E+01  0.25016110612E+02  0.51100000000E-03 0. -1.
        -11    1    3    3    0    0  0.55666940539E+01 -0.29571354190E+01 -0.17166435258E+02  0.18287132971E+02  0.51100000000E-03 0.  1.
         12    1    3    3    0    0 -0.12609314314E+02  0.15934526530E+01 -0.97172297412E+01  0.15998701594E+02  0.00000000000E+00 0. -1.
</event>
<event>
 7    1  0.1184848E-011  0.5930194E+02  0.7816164E-02  0.1266605E+00
        -11   -1    0    0    0    0  0.00000000000E+00  0.00000000000E+00  0.45593999997E+02  0.45594000000E+02  0.51100000000E-03 0. -1.
         11   -1    0    0    0    0 -0.00000000000E+00 -0.00000000000E+00 -0.45593999997E+02  0.45594000000E+02  0.51100000000E-03 0.  1.
    9900012    2    1    2    0    0 -0.24793622294E+02  0.37280837487E+01  0.19700220497E+02  0.59301937175E+02  0.49999987502E+02 0.  0.
        -12    1    1    2    0    0  0.24793622294E+02 -0.37280837487E+01 -0.19700220497E+02  0.31886062825E+02  0.00000000000E+00 0.  1.
         11    1    3    3    0    0 -0.10271429046E+02 -0.11297873529E+02  0.84316858563E+01  0.17442406015E+02  0.51100000000E-03 0. -1.
        -11    1    3    3    0    0 -0.48107170874E+01  0.31626212381E+01  0.22261758808E+02  0.22994153115E+02  0.51100000000E-03 0.  1.
        -12    1    3    3    0    0 -0.97114761598E+01  0.11863336040E+02 -0.10993224167E+02  0.18865378045E+02  0.00000000000E+00 0.  1.
</event>
<event>
 7    1  0.1184848E-011  0.5930193E+02  0.7816164E-02  0.1266605E+00
        -11   -1    0    0    0    0  0.00000000000E+00  0.00000000000E+00  0.45593999997E+02  0.45594000000E+02  0.51100000000E-03 0.  1.
         11   -1    0    0    0    0 -0.00000000000E+00 -0.00000000000E+00 -0.45593999997E+02  0.45594000000E+02  0.51100000000E-03 0. -1.
    9900012    2    1    2    0    0  0.21557704857E+01 -0.16736894980E+02 -0.27054588253E+02  0.59301925524E+02  0.49999966254E+02 0.  0.
        -12    1    1    2    0    0 -0.21557704857E+01  0.16736894980E+02  0.27054588253E+02  0.31886074476E+02  0.00000000000E+00 0.  1.
         11    1    3    3    0    0 -0.93833922646E+01 -0.18970243804E+01 -0.46011964151E+01  0.10621570534E+02  0.51100000000E-03 0. -1.
        -11    1    3    3    0    0  0.12112306966E+02 -0.27286075479E+02 -0.11181773362E+02  0.31878989175E+02  0.51100000000E-03 0.  1.
         12    1    3    3    0    0 -0.57314421562E+00  0.12446204879E+02 -0.11271618476E+02  0.16801365815E+02  0.00000000000E+00 0. -1.
</event>
<event>
 7    1  0.1184848E-011  0.5930194E+02  0.7816164E-02  0.1266605E+00
        -11   -1    0    0    0    0  0.00000000000E+00  0.00000000000E+00  0.45593999997E+02  0.45594000000E+02  0.51100000000E-03 0. -1.
         11   -1    0    0    0    0 -0.00000000000E+00 -0.00000000000E+00 -0.45593999997E+02  0.45594000000E+02  0.51100000000E-03 0.  1.
    9900012    2    1    2    0    0 -0.23408068592E+02 -0.16886667364E+02  0.13550783834E+02  0.59301937961E+02  0.49999988935E+02 0.  0.
        -12    1    1    2    0    0  0.23408068592E+02  0.16886667364E+02 -0.13550783834E+02  0.31886062039E+02  0.00000000000E+00 0.  1.
         11    1    3    3    0    0 -0.41781840789E+01  0.59209152951E+01  0.11046953344E+02  0.13211723528E+02  0.51100000000E-03 0. -1.
        -11    1    3    3    0    0 -0.27148108972E+02 -0.67776441756E+01 -0.35808710265E+00  0.27983647153E+02  0.51100000000E-03 0.  1.
        -12    1    3    3    0    0  0.79182244591E+01 -0.16029938483E+02  0.28619175928E+01  0.18106567280E+02  0.00000000000E+00 0.  1.
</event>
<event>
 7    1  0.1184848E-011  0.5930192E+02  0.7816164E-02  0.1266605E+00
        -11   -1    0    0    0    0  0.00000000000E+00  0.00000000000E+00  0.45593999997E+02  0.45594000000E+02  0.51100000000E-03 0. -1.
         11   -1    0    0    0    0 -0.00000000000E+00 -0.00000000000E+00 -0.45593999997E+02  0.45594000000E+02  0.51100000000E-03 0.  1.
    9900012    2    1    2    0    0  0.39038487031E+01  0.21263742883E+02  0.23437909172E+02  0.59301915536E+02  0.49999948039E+02 0.  0.
        -12    1    1    2    0    0 -0.39038487031E+01 -0.21263742883E+02 -0.23437909172E+02  0.31886084464E+02  0.00000000000E+00 0.  1.
         11    1    3    3    0    0  0.15982163283E+02  0.14634847594E+02  0.13168365876E+02  0.25357724018E+02  0.51100000000E-03 0.  1.
        -11    1    3    3    0    0 -0.28375179703E+01 -0.10832770214E+02  0.85965749674E+01  0.14117419034E+02  0.51100000000E-03 0. -1.
         12    1    3    3    0    0 -0.92407966093E+01  0.17461665503E+02  0.16729683279E+01  0.19826772484E+02  0.00000000000E+00 0. -1.
</event>
<event>
 7    1  0.1184848E-011  0.5930193E+02  0.7816164E-02  0.1266605E+00
        -11   -1    0    0    0    0  0.00000000000E+00  0.00000000000E+00  0.45593999997E+02  0.45594000000E+02  0.51100000000E-03 0.  1.
         11   -1    0    0    0    0 -0.00000000000E+00 -0.00000000000E+00 -0.45593999997E+02  0.45594000000E+02  0.51100000000E-03 0. -1.
    9900012    2    1    2    0    0  0.27065322073E+02  0.90625618352E+01 -0.14214775159E+02  0.59301929079E+02  0.49999972737E+02 0.  0.
        -12    1    1    2    0    0 -0.27065322073E+02 -0.90625618352E+01  0.14214775159E+02  0.31886070921E+02  0.00000000000E+00 0.  1.
         11    1    3    3    0    0  0.15462705065E+02 -0.12585520371E+02 -0.89583364978E+01  0.21857318317E+02  0.51100000000E-03 0. -1.
        -11    1    3    3    0    0  0.94506446412E+01  0.50465467238E+01 -0.14726410185E+02  0.18211245843E+02  0.51100000000E-03 0.  1.
        -12    1    3    3    0    0  0.21519723676E+01  0.16601535483E+02  0.94699715230E+01  0.19233364919E+02  0.00000000000E+00 0.  1.
</event>
<event>
 7    1  0.1184848E-011  0.5930195E+02  0.7816164E-02  0.1266605E+00
        -11   -1    0    0    0    0  0.00000000000E+00  0.00000000000E+00  0.45593999997E+02  0.45594000000E+02  0.51100000000E-03 0.  1.
         11   -1    0    0    0    0 -0.00000000000E+00 -0.00000000000E+00 -0.45593999997E+02  0.45594000000E+02  0.51100000000E-03 0. -1.
    9900012    2    1    2    0    0 -0.30733476645E+02  0.56996935637E+01 -0.62997630744E+01  0.59301951198E+02  0.50000013076E+02 0.  0.
        -12    1    1    2    0    0  0.30733476645E+02 -0.56996935637E+01  0.62997630744E+01  0.31886048802E+02  0.00000000000E+00 0.  1.
         11    1    3    3    0    0  0.76622498763E+01  0.91045479282E+00  0.11594906135E+02  0.13927700802E+02  0.51100000000E-03 0.  1.
        -11    1    3    3    0    0 -0.41079133694E+01 -0.45331294671E+01 -0.34016279848E+01  0.69996634365E+01  0.51100000000E-03 0. -1.
        -12    1    3    3    0    0 -0.34287813152E+02  0.93223682379E+01 -0.14493041224E+02  0.38374586959E+02  0.00000000000E+00 0.  1.
</event>
<event>
 7    1  0.1184848E-011  0.5930197E+02  0.7816164E-02  0.1266605E+00
        -11   -1    0    0    0    0  0.00000000000E+00  0.00000000000E+00  0.45593999997E+02  0.45594000000E+02  0.51100000000E-03 0.  1.
         11   -1    0    0    0    0 -0.00000000000E+00 -0.00000000000E+00 -0.45593999997E+02  0.45594000000E+02  0.51100000000E-03 0. -1.
    9900012    2    1    2    0    0  0.72007275753E+01  0.31046683734E+02 -0.98594661726E+00  0.59301966392E+02  0.50000040787E+02 0.  0.
        -12    1    1    2    0    0 -0.72007275753E+01 -0.31046683734E+02  0.98594661726E+00  0.31886033608E+02  0.00000000000E+00 0.  1.
         11    1    3    3    0    0 -0.88701720315E+00  0.87220831588E+01 -0.11777816544E+02  0.14682591629E+02  0.51100000000E-03 0. -1.
        -11    1    3    3    0    0  0.16039371207E+02  0.46399838507E+01 -0.71857064871E+01  0.18177603165E+02  0.51100000000E-03 0.  1.
        -12    1    3    3    0    0 -0.79516264281E+01  0.17684616725E+02  0.17977576414E+02  0.26441771598E+02  0.00000000000E+00 0.  1.
</event>
<event>
 7    1  0.1184848E-011  0.5930195E+02  0.7816164E-02  0.1266605E+00
        -11   -1    0    0    0    0  0.00000000000E+00  0.00000000000E+00  0.45593999997E+02  0.45594000000E+02  0.51100000000E-03 0.  1.
         11   -1    0    0    0    0 -0.00000000000E+00 -0.00000000000E+00 -0.45593999997E+02  0.45594000000E+02  0.51100000000E-03 0. -1.
    9900012    2    1    2    0    0 -0.99172649558E+01 -0.22940309702E+02 -0.19801776228E+02  0.59301948266E+02  0.50000007729E+02 0.  0.
        -12    1    1    2    0    0  0.99172649558E+01  0.22940309702E+02  0.19801776228E+02  0.31886051734E+02  0.00000000000E+00 0.  1.
         11    1    3    3    0    0  0.24718970948E+00 -0.75716486694E+01 -0.17077283312E+02  0.18682199333E+02  0.51100000000E-03 0. -1.
        -11    1    3    3    0    0  0.81028969863E+01  0.57501287862E+01  0.56984002997E+01  0.11453937614E+02  0.51100000000E-03 0.  1.
         12    1    3    3    0    0 -0.18267351652E+02 -0.21118789818E+02 -0.84228932157E+01  0.29165811319E+02  0.00000000000E+00 0. -1.
</event>
<event>
 7    1  0.1184848E-011  0.5930202E+02  0.7816164E-02  0.1266605E+00
        -11   -1    0    0    0    0  0.00000000000E+00  0.00000000000E+00  0.45593999997E+02  0.45594000000E+02  0.51100000000E-03 0. -1.
         11   -1    0    0    0    0 -0.00000000000E+00 -0.00000000000E+00 -0.45593999997E+02  0.45594000000E+02  0.51100000000E-03 0.  1.
    9900012    2    1    2    0    0 -0.26560225112E+02  0.83460136568E+01 -0.15543949456E+02  0.59302017709E+02  0.50000134377E+02 0.  0.
        -12    1    1    2    0    0  0.26560225112E+02 -0.83460136568E+01  0.15543949456E+02  0.31885982291E+02  0.00000000000E+00 0.  1.
         11    1    3    3    0    0 -0.40277489673E+02  0.55561603790E+01 -0.16396865535E+02  0.43840669385E+02  0.51100000000E-03 0.  1.
        -11    1    3    3    0    0  0.43908861290E+01  0.40630801498E+01  0.89131126946E+00  0.60483830353E+01  0.51100000000E-03 0. -1.
        -12    1    3    3    0    0  0.93263784324E+01 -0.12732268719E+01 -0.38395190410E-01  0.94129652885E+01  0.00000000000E+00 0.  1.
</event>
<event>
 7    1  0.1184848E-011  0.5930195E+02  0.7816164E-02  0.1266605E+00
        -11   -1    0    0    0    0  0.00000000000E+00  0.00000000000E+00  0.45593999997E+02  0.45594000000E+02  0.51100000000E-03 0. -1.
         11   -1    0    0    0    0 -0.00000000000E+00 -0.00000000000E+00 -0.45593999997E+02  0.45594000000E+02  0.51100000000E-03 0.  1.
    9900012    2    1    2    0    0  0.20984873456E+02 -0.23690470616E+02  0.38880420703E+01  0.59301950023E+02  0.50000010934E+02 0.  0.
        -12    1    1    2    0    0 -0.20984873456E+02  0.23690470616E+02 -0.38880420703E+01  0.31886049977E+02  0.00000000000E+00 0.  1.
         11    1    3    3    0    0  0.36800324327E+01  0.56679153701E+01 -0.42305455188E+00  0.67710323263E+01  0.51100000000E-03 0. -1.
        -11    1    3    3    0    0 -0.21116407813E+01 -0.29344030103E+02 -0.67506930979E+01  0.30184482554E+02  0.51100000000E-03 0.  1.
         12    1    3    3    0    0  0.19416481805E+02 -0.14355883302E-01  0.11061789720E+02  0.22346435143E+02  0.00000000000E+00 0. -1.
</event>
<event>
 7    1  0.1184848E-011  0.5930194E+02  0.7816164E-02  0.1266605E+00
        -11   -1    0    0    0    0  0.00000000000E+00  0.00000000000E+00  0.45593999997E+02  0.45594000000E+02  0.51100000000E-03 0.  1.
         11   -1    0    0    0    0 -0.00000000000E+00 -0.00000000000E+00 -0.45593999997E+02  0.45594000000E+02  0.51100000000E-03 0. -1.
    9900012    2    1    2    0    0  0.19263606845E+02 -0.22788089275E+02  0.11239981921E+02  0.59301941054E+02  0.49999994577E+02 0.  0.
        -12    1    1    2    0    0 -0.19263606845E+02  0.22788089275E+02 -0.11239981921E+02  0.31886058946E+02  0.00000000000E+00 0.  1.
         11    1    3    3    0    0  0.17417049342E+02  0.26390637443E+01  0.33989626472E+01  0.17940769564E+02  0.51100000000E-03 0.  1.
        -11    1    3    3    0    0  0.12785401207E+02 -0.21954216630E+02  0.13272619293E+02  0.28663854155E+02  0.51100000000E-03 0. -1.
         12    1    3    3    0    0 -0.10938843703E+02 -0.34729363893E+01 -0.54316000196E+01  0.12697317335E+02  0.00000000000E+00 0. -1.
</event>
<event>
 7    1  0.1184848E-011  0.5930196E+02  0.7816164E-02  0.1266605E+00
        -11   -1    0    0    0    0  0.00000000000E+00  0.00000000000E+00  0.45593999997E+02  0.45594000000E+02  0.51100000000E-03 0.  1.
         11   -1    0    0    0    0 -0.00000000000E+00 -0.00000000000E+00 -0.45593999997E+02  0.45594000000E+02  0.51100000000E-03 0. -1.
    9900012    2    1    2    0    0 -0.20463328348E+02 -0.56616023334E+01 -0.23789033935E+02  0.59301957856E+02  0.50000025219E+02 0.  0.
        -12    1    1    2    0    0  0.20463328348E+02  0.56616023334E+01  0.23789033935E+02  0.31886042144E+02  0.00000000000E+00 0.  1.
         11    1    3    3    0    0 -0.23608932255E+01  0.93395357315E+01  0.75418940466E+01  0.12234415007E+02  0.51100000000E-03 0. -1.
        -11    1    3    3    0    0 -0.20287240675E+01  0.16330033729E+01 -0.21953892335E+02  0.22107822377E+02  0.51100000000E-03 0.  1.
         12    1    3    3    0    0 -0.16073711055E+02 -0.16634141438E+02 -0.93770356471E+01  0.24959720471E+02  0.00000000000E+00 0. -1.
</event>
<event>
 7    1  0.1184848E-011  0.5930194E+02  0.7816164E-02  0.1266605E+00
        -11   -1    0    0    0    0  0.00000000000E+00  0.00000000000E+00  0.45593999997E+02  0.45594000000E+02  0.51100000000E-03 0.  1.
         11   -1    0    0    0    0 -0.00000000000E+00 -0.00000000000E+00 -0.45593999997E+02  0.45594000000E+02  0.51100000000E-03 0. -1.
    9900012    2    1    2    0    0  0.83632834633E+01 -0.84941423315E+00 -0.30758002498E+02  0.59301941408E+02  0.49999995223E+02 0.  0.
        -12    1    1    2    0    0 -0.83632834633E+01  0.84941423315E+00  0.30758002498E+02  0.31886058592E+02  0.00000000000E+00 0.  1.
         11    1    3    3    0    0  0.15932770532E+01 -0.26023596145E+01 -0.42863479451E+01  0.52615193907E+01  0.51100000000E-03 0. -1.
        -11    1    3    3    0    0 -0.16592710129E+02 -0.10337757210E+02 -0.52518303194E+01  0.20242751184E+02  0.51100000000E-03 0.  1.
         12    1    3    3    0    0  0.23362716539E+02  0.12090702591E+02 -0.21219824234E+02  0.33797670833E+02  0.00000000000E+00 0. -1.
</event>
<event>
 7    1  0.1184848E-011  0.5930194E+02  0.7816164E-02  0.1266605E+00
        -11   -1    0    0    0    0  0.00000000000E+00  0.00000000000E+00  0.45593999997E+02  0.45594000000E+02  0.51100000000E-03 0. -1.
         11   -1    0    0    0    0 -0.00000000000E+00 -0.00000000000E+00 -0.45593999997E+02  0.45594000000E+02  0.51100000000E-03 0.  1.
    9900012    2    1    2    0    0  0.61708492980E+01  0.17313722618E+02  0.26055260671E+02  0.59301937518E+02  0.49999988128E+02 0.  0.
        -12    1    1    2    0    0 -0.61708492980E+01 -0.17313722618E+02 -0.26055260671E+02  0.31886062482E+02  0.00000000000E+00 0.  1.
         11    1    3    3    0    0  0.20670678950E+02  0.68975995421E+01  0.10341510773E+02  0.24120545040E+02  0.51100000000E-03 0. -1.
        -11    1    3    3    0    0 -0.15176601933E+02 -0.19551238431E+01  0.16875839376E+00  0.15302948577E+02  0.51100000000E-03 0.  1.
         12    1    3    3    0    0  0.67677228103E+00  0.12371246919E+02  0.15544991504E+02  0.19878443901E+02  0.00000000000E+00 0. -1.
</event>
<event>
 7    1  0.1184848E-011  0.5930193E+02  0.7816164E-02  0.1266605E+00
        -11   -1    0    0    0    0  0.00000000000E+00  0.00000000000E+00  0.45593999997E+02  0.45594000000E+02  0.51100000000E-03 0.  1.
         11   -1    0    0    0    0 -0.00000000000E+00 -0.00000000000E+00 -0.45593999997E+02  0.45594000000E+02  0.51100000000E-03 0. -1.
    9900012    2    1    2    0    0 -0.23031445478E+02 -0.10687943470E+02 -0.19288393610E+02  0.59301925540E+02  0.49999966282E+02 0.  0.
        -12    1    1    2    0    0  0.23031445478E+02  0.10687943470E+02  0.19288393610E+02  0.31886074460E+02  0.00000000000E+00 0.  1.
         11    1    3    3    0    0 -0.17766941377E+02 -0.46048352794E+01  0.35852045852E+01  0.18700866451E+02  0.51100000000E-03 0. -1.
        -11    1    3    3    0    0 -0.15002806196E+02 -0.13576616729E+02 -0.92294423760E+01  0.22239409219E+02  0.51100000000E-03 0.  1.
        -12    1    3    3    0    0  0.97383020949E+01  0.74935085388E+01 -0.13644155820E+02  0.18361649870E+02  0.00000000000E+00 0.  1.
</event>
<event>
 7    1  0.1184848E-011  0.5930195E+02  0.7816164E-02  0.1266605E+00
        -11   -1    0    0    0    0  0.00000000000E+00  0.00000000000E+00  0.45593999997E+02  0.45594000000E+02  0.51100000000E-03 0. -1.
         11   -1    0    0    0    0 -0.00000000000E+00 -0.00000000000E+00 -0.45593999997E+02  0.45594000000E+02  0.51100000000E-03 0.  1.
    9900012    2    1    2    0    0 -0.21631136338E+02  0.16893139269E+02  0.16230716340E+02  0.59301947147E+02  0.50000005689E+02 0.  0.
        -12    1    1    2    0    0  0.21631136338E+02 -0.16893139269E+02 -0.16230716340E+02  0.31886052853E+02  0.00000000000E+00 0.  1.
         11    1    3    3    0    0 -0.10687532474E+02  0.81524636850E+01  0.26067763660E+02  0.29329410444E+02  0.51100000000E-03 0. -1.
        -11    1    3    3    0    0 -0.17032354447E+02 -0.34538406451E+00 -0.37076930632E+01  0.17434660199E+02  0.51100000000E-03 0.  1.
        -12    1    3    3    0    0  0.60887505834E+01  0.90860596485E+01 -0.61293542564E+01  0.12537876503E+02  0.00000000000E+00 0.  1.
</event>
<event>
 7    1  0.1184848E-011  0.5930194E+02  0.7816164E-02  0.1266605E+00
        -11   -1    0    0    0    0  0.00000000000E+00  0.00000000000E+00  0.45593999997E+02  0.45594000000E+02  0.51100000000E-03 0.  1.
         11   -1    0    0    0    0 -0.00000000000E+00 -0.00000000000E+00 -0.45593999997E+02  0.45594000000E+02  0.51100000000E-03 0. -1.
    9900012    2    1    2    0    0  0.11714553254E+02 -0.86319368482E+01 -0.28372159371E+02  0.59301944755E+02  0.50000001326E+02 0.  0.
        -12    1    1    2    0    0 -0.11714553254E+02  0.86319368482E+01  0.28372159371E+02  0.31886055245E+02  0.00000000000E+00 0.  1.
         11    1    3    3    0    0  0.79185308039E+01  0.34313387420E+00 -0.23180711737E+02  0.24498291121E+02  0.51100000000E-03 0. -1.
        -11    1    3    3    0    0 -0.13890199614E+02  0.11956700545E+01 -0.10151262149E+01  0.13978474656E+02  0.51100000000E-03 0.  1.
        -12    1    3    3    0    0  0.17686222065E+02 -0.10170740777E+02 -0.41763214190E+01  0.20825178978E+02  0.00000000000E+00 0.  1.
</event>
<event>
 7    1  0.1184848E-011  0.5930195E+02  0.7816164E-02  0.1266605E+00
        -11   -1    0    0    0    0  0.00000000000E+00  0.00000000000E+00  0.45593999997E+02  0.45594000000E+02  0.51100000000E-03 0.  1.
         11   -1    0    0    0    0 -0.00000000000E+00 -0.00000000000E+00 -0.45593999997E+02  0.45594000000E+02  0.51100000000E-03 0. -1.
    9900012    2    1    2    0    0 -0.25700466904E+02 -0.75995222285E+00 -0.18858117749E+02  0.59301950833E+02  0.50000012412E+02 0.  0.
        -12    1    1    2    0    0  0.25700466904E+02  0.75995222285E+00  0.18858117749E+02  0.31886049167E+02  0.00000000000E+00 0.  1.
         11    1    3    3    0    0  0.11270994448E+01  0.63380426415E+01 -0.20483807461E+02  0.21471551086E+02  0.51100000000E-03 0.  1.
        -11    1    3    3    0    0 -0.12410832516E+02 -0.10254743956E+01 -0.11844694217E+02  0.17186539583E+02  0.51100000000E-03 0. -1.
        -12    1    3    3    0    0 -0.14416733833E+02 -0.60725204687E+01  0.13470383930E+02  0.20643860164E+02  0.00000000000E+00 0.  1.
</event>
<event>
 7    1  0.1184848E-011  0.5930195E+02  0.7816164E-02  0.1266605E+00
        -11   -1    0    0    0    0  0.00000000000E+00  0.00000000000E+00  0.45593999997E+02  0.45594000000E+02  0.51100000000E-03 0.  1.
         11   -1    0    0    0    0 -0.00000000000E+00 -0.00000000000E+00 -0.45593999997E+02  0.45594000000E+02  0.51100000000E-03 0. -1.
    9900012    2    1    2    0    0 -0.14588845114E+01  0.30707287134E+02  0.84649010568E+01  0.59301946982E+02  0.50000005388E+02 0.  0.
        -12    1    1    2    0    0  0.14588845114E+01 -0.30707287134E+02 -0.84649010568E+01  0.31886053018E+02  0.00000000000E+00 0.  1.
         11    1    3    3    0    0 -0.12249210287E+02  0.31032225309E+02  0.79888903944E+01  0.34305459190E+02  0.51100000000E-03 0. -1.
        -11    1    3    3    0    0  0.25837119379E+01  0.47274285078E+01 -0.96284218882E+01  0.11033161650E+02  0.51100000000E-03 0.  1.
        -12    1    3    3    0    0  0.82066138380E+01 -0.50523666824E+01  0.10104432551E+02  0.13963326142E+02  0.00000000000E+00 0.  1.
</event>
<event>
 7    1  0.1184848E-011  0.5930196E+02  0.7816164E-02  0.1266605E+00
        -11   -1    0    0    0    0  0.00000000000E+00  0.00000000000E+00  0.45593999997E+02  0.45594000000E+02  0.51100000000E-03 0.  1.
         11   -1    0    0    0    0 -0.00000000000E+00 -0.00000000000E+00 -0.45593999997E+02  0.45594000000E+02  0.51100000000E-03 0. -1.
    9900012    2    1    2    0    0 -0.16998023492E+02 -0.14204621550E+02 -0.22935031043E+02  0.59301957207E+02  0.50000024037E+02 0.  0.
        -12    1    1    2    0    0  0.16998023492E+02  0.14204621550E+02  0.22935031043E+02  0.31886042793E+02  0.00000000000E+00 0.  1.
         11    1    3    3    0    0 -0.87352852819E+00  0.99330861477E+01  0.47554296994E+01  0.11047323857E+02  0.51100000000E-03 0. -1.
        -11    1    3    3    0    0 -0.52708524893E+01  0.52764379099E+01 -0.92456627194E+01  0.11878760978E+02  0.51100000000E-03 0.  1.
         12    1    3    3    0    0 -0.10853642475E+02 -0.29414145608E+02 -0.18444798023E+02  0.36375872373E+02  0.00000000000E+00 0. -1.
</event>
<event>
 7    1  0.1184848E-011  0.5930196E+02  0.7816164E-02  0.1266605E+00
        -11   -1    0    0    0    0  0.00000000000E+00  0.00000000000E+00  0.45593999997E+02  0.45594000000E+02  0.51100000000E-03 0.  1.
         11   -1    0    0    0    0 -0.00000000000E+00 -0.00000000000E+00 -0.45593999997E+02  0.45594000000E+02  0.51100000000E-03 0. -1.
    9900012    2    1    2    0    0  0.14750643362E+02 -0.13207586232E+02 -0.24993954698E+02  0.59301959401E+02  0.50000028037E+02 0.  0.
        -12    1    1    2    0    0 -0.14750643362E+02  0.13207586232E+02  0.24993954698E+02  0.31886040599E+02  0.00000000000E+00 0.  1.
         11    1    3    3    0    0  0.15804353676E+02 -0.19763104064E+01 -0.11689650829E+01  0.15970281073E+02  0.51100000000E-03 0. -1.
        -11    1    3    3    0    0  0.10846943847E+02  0.76057314907E+01 -0.12996744985E+02  0.18558521568E+02  0.51100000000E-03 0.  1.
         12    1    3    3    0    0 -0.11900654161E+02 -0.18837007316E+02 -0.10828244630E+02  0.24773156760E+02  0.00000000000E+00 0. -1.
</event>
<event>
 7    1  0.1184848E-011  0.5930195E+02  0.7816164E-02  0.1266605E+00
        -11   -1    0    0    0    0  0.00000000000E+00  0.00000000000E+00  0.45593999997E+02  0.45594000000E+02  0.51100000000E-03 0. -1.
         11   -1    0    0    0    0 -0.00000000000E+00 -0.00000000000E+00 -0.45593999997E+02  0.45594000000E+02  0.51100000000E-03 0.  1.
    9900012    2    1    2    0    0  0.32321214740E+01 -0.14641966712E+02  0.28140474338E+02  0.59301951415E+02  0.50000013472E+02 0.  0.
        -12    1    1    2    0    0 -0.32321214740E+01  0.14641966712E+02 -0.28140474338E+02  0.31886048585E+02  0.00000000000E+00 0.  1.
         11    1    3    3    0    0  0.95723285048E+01 -0.91811042460E+01  0.29160874162E+02  0.32035585375E+02  0.51100000000E-03 0.  1.
        -11    1    3    3    0    0 -0.43376974304E+01 -0.50202439635E+01  0.12200298909E+02  0.13887611825E+02  0.51100000000E-03 0. -1.
        -12    1    3    3    0    0 -0.20025096004E+01 -0.44061850254E+00 -0.13220698733E+02  0.13378754215E+02  0.00000000000E+00 0.  1.
</event>
<event>
 7    1  0.1184848E-011  0.5930195E+02  0.7816164E-02  0.1266605E+00
        -11   -1    0    0    0    0  0.00000000000E+00  0.00000000000E+00  0.45593999997E+02  0.45594000000E+02  0.51100000000E-03 0. -1.
         11   -1    0    0    0    0 -0.00000000000E+00 -0.00000000000E+00 -0.45593999997E+02  0.45594000000E+02  0.51100000000E-03 0.  1.
    9900012    2    1    2    0    0 -0.88309493501E+01 -0.23320718006E+02  0.19871559835E+02  0.59301945916E+02  0.50000003444E+02 0.  0.
        -12    1    1    2    0    0  0.88309493501E+01  0.23320718006E+02 -0.19871559835E+02  0.31886054084E+02  0.00000000000E+00 0.  1.
         11    1    3    3    0    0 -0.14887773244E+02 -0.95778549558E+01  0.13293989088E+02  0.22138456221E+02  0.51100000000E-03 0. -1.
        -11    1    3    3    0    0 -0.87846588452E+01 -0.18353183725E+02  0.15557151273E+00  0.20347820194E+02  0.51100000000E-03 0.  1.
         12    1    3    3    0    0  0.14841482739E+02  0.46103206750E+01  0.64219992339E+01  0.16815669501E+02  0.00000000000E+00 0. -1.
</event>
<event>
 7    1  0.1184848E-011  0.5930195E+02  0.7816164E-02  0.1266605E+00
        -11   -1    0    0    0    0  0.00000000000E+00  0.00000000000E+00  0.45593999997E+02  0.45594000000E+02  0.51100000000E-03 0.  1.
         11   -1    0    0    0    0 -0.00000000000E+00 -0.00000000000E+00 -0.45593999997E+02  0.45594000000E+02  0.51100000000E-03 0. -1.
    9900012    2    1    2    0    0 -0.71087155714E+01  0.14941123947E+02 -0.27257091513E+02  0.59301951960E+02  0.50000014467E+02 0.  0.
        -12    1    1    2    0    0  0.71087155714E+01 -0.14941123947E+02  0.27257091513E+02  0.31886048040E+02  0.00000000000E+00 0.  1.
         11    1    3    3    0    0  0.48712412040E+01 -0.68458476376E+01 -0.76543659412E+01  0.11365911269E+02  0.51100000000E-03 0. -1.
        -11    1    3    3    0    0 -0.54548067659E+01 -0.99444909426E+01 -0.47102654163E+01  0.12281466424E+02  0.51100000000E-03 0.  1.
         12    1    3    3    0    0 -0.65251500095E+01  0.31731462527E+02 -0.14892460156E+02  0.35654574268E+02  0.00000000000E+00 0. -1.
</event>
<event>
 7    1  0.1184848E-011  0.5930196E+02  0.7816164E-02  0.1266605E+00
        -11   -1    0    0    0    0  0.00000000000E+00  0.00000000000E+00  0.45593999997E+02  0.45594000000E+02  0.51100000000E-03 0.  1.
         11   -1    0    0    0    0 -0.00000000000E+00 -0.00000000000E+00 -0.45593999997E+02  0.45594000000E+02  0.51100000000E-03 0. -1.
    9900012    2    1    2    0    0 -0.13396521163E+02  0.20377680269E+02 -0.20542715132E+02  0.59301956385E+02  0.50000022537E+02 0.  0.
        -12    1    1    2    0    0  0.13396521163E+02 -0.20377680269E+02  0.20542715132E+02  0.31886043615E+02  0.00000000000E+00 0.  1.
         11    1    3    3    0    0 -0.14065775654E+02  0.19713315165E+02 -0.18615614493E+02  0.30545080500E+02  0.51100000000E-03 0. -1.
        -11    1    3    3    0    0 -0.94918343147E+00 -0.59662728964E+01 -0.13798614655E+02  0.15063171250E+02  0.51100000000E-03 0.  1.
        -12    1    3    3    0    0  0.16184379226E+01  0.66306379997E+01  0.11871514016E+02  0.13693704635E+02  0.00000000000E+00 0.  1.
</event>
<event>
 7    1  0.1184848E-011  0.5930194E+02  0.7816164E-02  0.1266605E+00
        -11   -1    0    0    0    0  0.00000000000E+00  0.00000000000E+00  0.45593999997E+02  0.45594000000E+02  0.51100000000E-03 0.  1.
         11   -1    0    0    0    0 -0.00000000000E+00 -0.00000000000E+00 -0.45593999997E+02  0.45594000000E+02  0.51100000000E-03 0. -1.
    9900012    2    1    2    0    0 -0.23353004669E+02 -0.19206454663E+02  0.10122757777E+02  0.59301937954E+02  0.49999988922E+02 0.  0.
        -12    1    1    2    0    0  0.23353004669E+02  0.19206454663E+02 -0.10122757777E+02  0.31886062046E+02  0.00000000000E+00 0.  1.
         11    1    3    3    0    0 -0.74654724637E+01 -0.15839625941E+02  0.11548012802E+02  0.20975786731E+02  0.51100000000E-03 0. -1.
        -11    1    3    3    0    0 -0.18920871943E+02 -0.16150275031E+02  0.12914621223E+01  0.24909810383E+02  0.51100000000E-03 0.  1.
         12    1    3    3    0    0  0.30333397373E+01  0.12783446308E+02 -0.27167171478E+01  0.13416340840E+02  0.00000000000E+00 0. -1.
</event>
<event>
 7    1  0.1184848E-011  0.5930194E+02  0.7816164E-02  0.1266605E+00
        -11   -1    0    0    0    0  0.00000000000E+00  0.00000000000E+00  0.45593999997E+02  0.45594000000E+02  0.51100000000E-03 0.  1.
         11   -1    0    0    0    0 -0.00000000000E+00 -0.00000000000E+00 -0.45593999997E+02  0.45594000000E+02  0.51100000000E-03 0. -1.
    9900012    2    1    2    0    0  0.15665076376E+02 -0.21520497962E+02 -0.17555469233E+02  0.59301937992E+02  0.49999988991E+02 0.  0.
        -12    1    1    2    0    0 -0.15665076376E+02  0.21520497962E+02  0.17555469233E+02  0.31886062008E+02  0.00000000000E+00 0.  1.
         11    1    3    3    0    0 -0.37330634896E+00 -0.23892295584E+02 -0.19814431806E+02  0.31041792054E+02  0.51100000000E-03 0. -1.
        -11    1    3    3    0    0 -0.21183460347E+01 -0.49028308169E+01  0.63289627786E+01  0.82813591913E+01  0.51100000000E-03 0.  1.
         12    1    3    3    0    0  0.18156728760E+02  0.72746284384E+01 -0.40700002062E+01  0.19978786746E+02  0.00000000000E+00 0. -1.
</event>
<event>
 7    1  0.1184848E-011  0.5930193E+02  0.7816164E-02  0.1266605E+00
        -11   -1    0    0    0    0  0.00000000000E+00  0.00000000000E+00  0.45593999997E+02  0.45594000000E+02  0.51100000000E-03 0. -1.
         11   -1    0    0    0    0 -0.00000000000E+00 -0.00000000000E+00 -0.45593999997E+02  0.45594000000E+02  0.51100000000E-03 0.  1.
    9900012    2    1    2    0    0  0.76727439700E+01  0.28971935863E+02 -0.10884719780E+02  0.59301934198E+02  0.49999982073E+02 0.  0.
        -12    1    1    2    0    0 -0.76727439700E+01 -0.28971935863E+02  0.10884719780E+02  0.31886065802E+02  0.00000000000E+00 0.  1.
         11    1    3    3    0    0  0.54886328074E+01  0.24562135732E+02  0.11761424820E+02  0.27780473644E+02  0.51100000000E-03 0. -1.
        -11    1    3    3    0    0  0.89691735108E+01 -0.34757518487E+01 -0.45332912145E+01  0.10633797717E+02  0.51100000000E-03 0.  1.
        -12    1    3    3    0    0 -0.67850623482E+01  0.78855519790E+01 -0.18112853385E+02  0.20887662838E+02  0.00000000000E+00 0.  1.
</event>
<event>
 7    1  0.1184848E-011  0.5930195E+02  0.7816164E-02  0.1266605E+00
        -11   -1    0    0    0    0  0.00000000000E+00  0.00000000000E+00  0.45593999997E+02  0.45594000000E+02  0.51100000000E-03 0.  1.
         11   -1    0    0    0    0 -0.00000000000E+00 -0.00000000000E+00 -0.45593999997E+02  0.45594000000E+02  0.51100000000E-03 0. -1.
    9900012    2    1    2    0    0  0.29424913440E+02 -0.12277612083E+02 -0.39318774151E+00  0.59301954682E+02  0.50000019430E+02 0.  0.
        -12    1    1    2    0    0 -0.29424913440E+02  0.12277612083E+02  0.39318774151E+00  0.31886045318E+02  0.00000000000E+00 0.  1.
         11    1    3    3    0    0  0.15795533177E+02 -0.47343150797E+00  0.31375858355E+00  0.15805741060E+02  0.51100000000E-03 0. -1.
        -11    1    3    3    0    0  0.19966180969E+02 -0.29078441625E+01  0.14447366236E+02  0.24815928989E+02  0.51100000000E-03 0.  1.
         12    1    3    3    0    0 -0.63368007060E+01 -0.88963364125E+01 -0.15154312561E+02  0.18680284633E+02  0.00000000000E+00 0. -1.
</event>
<event>
 7    1  0.1184848E-011  0.5930195E+02  0.7816164E-02  0.1266605E+00
        -11   -1    0    0    0    0  0.00000000000E+00  0.00000000000E+00  0.45593999997E+02  0.45594000000E+02  0.51100000000E-03 0. -1.
         11   -1    0    0    0    0 -0.00000000000E+00 -0.00000000000E+00 -0.45593999997E+02  0.45594000000E+02  0.51100000000E-03 0.  1.
    9900012    2    1    2    0    0  0.30358826538E+02  0.57741431241E+01  0.78562825657E+01  0.59301948922E+02  0.50000008926E+02 0.  0.
        -12    1    1    2    0    0 -0.30358826538E+02 -0.57741431241E+01 -0.78562825657E+01  0.31886051078E+02  0.00000000000E+00 0.  1.
         11    1    3    3    0    0  0.31563923571E+01 -0.16944012989E+02  0.46668142438E+01  0.17856134641E+02  0.51100000000E-03 0. -1.
        -11    1    3    3    0    0  0.78857951280E+01  0.40301442778E+00 -0.66616578797E+01  0.10330821429E+02  0.51100000000E-03 0.  1.
         12    1    3    3    0    0  0.19316639053E+02  0.22315141685E+02  0.98511262016E+01  0.31114992852E+02  0.00000000000E+00 0. -1.
</event>
<event>
 7    1  0.1184848E-011  0.5930202E+02  0.7816164E-02  0.1266604E+00
        -11   -1    0    0    0    0  0.00000000000E+00  0.00000000000E+00  0.45593999997E+02  0.45594000000E+02  0.51100000000E-03 0.  1.
         11   -1    0    0    0    0 -0.00000000000E+00 -0.00000000000E+00 -0.45593999997E+02  0.45594000000E+02  0.51100000000E-03 0. -1.
    9900012    2    1    2    0    0 -0.79653004103E+01 -0.17003610094E+02 -0.25771044557E+02  0.59302023389E+02  0.50000144735E+02 0.  0.
        -12    1    1    2    0    0  0.79653004103E+01  0.17003610094E+02  0.25771044557E+02  0.31885976611E+02  0.00000000000E+00 0.  1.
         11    1    3    3    0    0 -0.16911548691E+02  0.45438696617E+01 -0.11866251913E+02  0.21153136064E+02  0.51100000000E-03 0. -1.
        -11    1    3    3    0    0 -0.62567171490E+01 -0.16637000160E+02 -0.13426291785E+01  0.17825233159E+02  0.51100000000E-03 0.  1.
        -12    1    3    3    0    0  0.15202965429E+02 -0.49104795964E+01 -0.12562163466E+02  0.20323654166E+02  0.00000000000E+00 0.  1.
</event>
<event>
 7    1  0.1184848E-011  0.5930196E+02  0.7816164E-02  0.1266605E+00
        -11   -1    0    0    0    0  0.00000000000E+00  0.00000000000E+00  0.45593999997E+02  0.45594000000E+02  0.51100000000E-03 0.  1.
         11   -1    0    0    0    0 -0.00000000000E+00 -0.00000000000E+00 -0.45593999997E+02  0.45594000000E+02  0.51100000000E-03 0. -1.
    9900012    2    1    2    0    0  0.19753732270E+02 -0.57348047510E+01 -0.24364357761E+02  0.59301955196E+02  0.50000020369E+02 0.  0.
        -12    1    1    2    0    0 -0.19753732270E+02  0.57348047510E+01  0.24364357761E+02  0.31886044804E+02  0.00000000000E+00 0.  1.
         11    1    3    3    0    0  0.81722245059E+01 -0.67571395081E+01  0.40005031153E+01  0.11333499598E+02  0.51100000000E-03 0. -1.
        -11    1    3    3    0    0 -0.72044705648E+01  0.10503528485E+01  0.55793011304E+01  0.91725808031E+01  0.51100000000E-03 0.  1.
         12    1    3    3    0    0  0.18785978328E+02 -0.28018091403E-01 -0.33944162007E+02  0.38795874795E+02  0.00000000000E+00 0. -1.
</event>
<event>
 7    1  0.1184848E-011  0.5930200E+02  0.7816164E-02  0.1266605E+00
        -11   -1    0    0    0    0  0.00000000000E+00  0.00000000000E+00  0.45593999997E+02  0.45594000000E+02  0.51100000000E-03 0.  1.
         11   -1    0    0    0    0 -0.00000000000E+00 -0.00000000000E+00 -0.45593999997E+02  0.45594000000E+02  0.51100000000E-03 0. -1.
    9900012    2    1    2    0    0 -0.20592766521E+01 -0.10420468377E+02 -0.30064767781E+02  0.59301999259E+02  0.50000100729E+02 0.  0.
        -12    1    1    2    0    0  0.20592766521E+01  0.10420468377E+02  0.30064767781E+02  0.31886000741E+02  0.00000000000E+00 0.  1.
         11    1    3    3    0    0  0.54383875973E+01  0.61359745884E+01 -0.20690161020E+02  0.22255538796E+02  0.51100000000E-03 0. -1.
        -11    1    3    3    0    0  0.45826802882E+01 -0.10124795232E+02 -0.17793107302E+02  0.20978729819E+02  0.51100000000E-03 0.  1.
        -12    1    3    3    0    0 -0.12080344538E+02 -0.64316477334E+01  0.84185005405E+01  0.16067730644E+02  0.00000000000E+00 0.  1.
</event>
<event>
 7    1  0.1184848E-011  0.5930195E+02  0.7816164E-02  0.1266605E+00
        -11   -1    0    0    0    0  0.00000000000E+00  0.00000000000E+00  0.45593999997E+02  0.45594000000E+02  0.51100000000E-03 0.  1.
         11   -1    0    0    0    0 -0.00000000000E+00 -0.00000000000E+00 -0.45593999997E+02  0.45594000000E+02  0.51100000000E-03 0. -1.
    9900012    2    1    2    0    0  0.20916015576E+02  0.10258447004E+01 -0.24045542094E+02  0.59301950394E+02  0.50000011610E+02 0.  0.
        -12    1    1    2    0    0 -0.20916015576E+02 -0.10258447004E+01  0.24045542094E+02  0.31886049606E+02  0.00000000000E+00 0.  1.
         11    1    3    3    0    0  0.18016023125E+02  0.16471518250E+01  0.68596941052E-01  0.18091293601E+02  0.51100000000E-03 0. -1.
        -11    1    3    3    0    0 -0.67095274131E+01  0.14031401091E+02 -0.84134403980E+01  0.17682871777E+02  0.51100000000E-03 0.  1.
        -12    1    3    3    0    0  0.96095198643E+01 -0.14652708215E+02 -0.15700698637E+02  0.23527785016E+02  0.00000000000E+00 0.  1.
</event>
<event>
 7    1  0.1184848E-011  0.5930194E+02  0.7816164E-02  0.1266605E+00
        -11   -1    0    0    0    0  0.00000000000E+00  0.00000000000E+00  0.45593999997E+02  0.45594000000E+02  0.51100000000E-03 0. -1.
         11   -1    0    0    0    0 -0.00000000000E+00 -0.00000000000E+00 -0.45593999997E+02  0.45594000000E+02  0.51100000000E-03 0.  1.
    9900012    2    1    2    0    0 -0.10520795972E+02  0.29031400524E+02  0.79505774909E+01  0.59301936481E+02  0.49999986237E+02 0.  0.
        -12    1    1    2    0    0  0.10520795972E+02 -0.29031400524E+02 -0.79505774909E+01  0.31886063519E+02  0.00000000000E+00 0.  1.
         11    1    3    3    0    0 -0.81218254206E+01  0.23366319517E+02  0.11463490570E+02  0.27264639228E+02  0.51100000000E-03 0. -1.
        -11    1    3    3    0    0 -0.92597221695E+01  0.11196314493E+02 -0.12706764958E+02  0.19301859725E+02  0.51100000000E-03 0.  1.
        -12    1    3    3    0    0  0.68607516185E+01 -0.55312334861E+01  0.91938518792E+01  0.12735437528E+02  0.00000000000E+00 0.  1.
</event>
<event>
 7    1  0.1184848E-011  0.5930193E+02  0.7816164E-02  0.1266605E+00
        -11   -1    0    0    0    0  0.00000000000E+00  0.00000000000E+00  0.45593999997E+02  0.45594000000E+02  0.51100000000E-03 0. -1.
         11   -1    0    0    0    0 -0.00000000000E+00 -0.00000000000E+00 -0.45593999997E+02  0.45594000000E+02  0.51100000000E-03 0.  1.
    9900012    2    1    2    0    0  0.60720869329E+01 -0.60289864602E+01  0.30716483153E+02  0.59301933219E+02  0.49999980288E+02 0.  0.
        -12    1    1    2    0    0 -0.60720869329E+01  0.60289864602E+01 -0.30716483153E+02  0.31886066781E+02  0.00000000000E+00 0.  1.
         11    1    3    3    0    0 -0.19723956795E+02 -0.23819946341E+01  0.68342852702E+01  0.21009898275E+02  0.51100000000E-03 0.  1.
        -11    1    3    3    0    0  0.10432650918E+02 -0.77276091287E+01  0.15829449053E+02  0.20472606224E+02  0.51100000000E-03 0. -1.
        -12    1    3    3    0    0  0.15363392810E+02  0.40806173026E+01  0.80527488303E+01  0.17819428721E+02  0.00000000000E+00 0.  1.
</event>
<event>
 7    1  0.1184848E-011  0.5930193E+02  0.7816164E-02  0.1266605E+00
        -11   -1    0    0    0    0  0.00000000000E+00  0.00000000000E+00  0.45593999997E+02  0.45594000000E+02  0.51100000000E-03 0. -1.
         11   -1    0    0    0    0 -0.00000000000E+00 -0.00000000000E+00 -0.45593999997E+02  0.45594000000E+02  0.51100000000E-03 0.  1.
    9900012    2    1    2    0    0 -0.28772019368E+02  0.13721848852E+02  0.77650945380E+00  0.59301934057E+02  0.49999981815E+02 0.  0.
        -12    1    1    2    0    0  0.28772019368E+02 -0.13721848852E+02 -0.77650945380E+00  0.31886065943E+02  0.00000000000E+00 0.  1.
         11    1    3    3    0    0 -0.36876628896E+01  0.76918854947E+01 -0.23207552175E+01  0.88402412350E+01  0.51100000000E-03 0. -1.
        -11    1    3    3    0    0 -0.16541924594E+02  0.17370909737E+01 -0.19675268601E+02  0.25763713807E+02  0.51100000000E-03 0.  1.
         12    1    3    3    0    0 -0.85424318836E+01  0.42928723837E+01  0.22772533272E+02  0.24697979015E+02  0.00000000000E+00 0. -1.
</event>
<event>
 7    1  0.1184848E-011  0.5930193E+02  0.7816164E-02  0.1266605E+00
        -11   -1    0    0    0    0  0.00000000000E+00  0.00000000000E+00  0.45593999997E+02  0.45594000000E+02  0.51100000000E-03 0.  1.
         11   -1    0    0    0    0 -0.00000000000E+00 -0.00000000000E+00 -0.45593999997E+02  0.45594000000E+02  0.51100000000E-03 0. -1.
    9900012    2    1    2    0    0 -0.28839076854E+02 -0.88923406870E+00 -0.13573447505E+02  0.59301928304E+02  0.49999971324E+02 0.  0.
        -12    1    1    2    0    0  0.28839076854E+02  0.88923406870E+00  0.13573447505E+02  0.31886071696E+02  0.00000000000E+00 0.  1.
         11    1    3    3    0    0 -0.94372681790E+01  0.12558339713E+01 -0.10866613463E+02  0.14447229425E+02  0.51100000000E-03 0. -1.
        -11    1    3    3    0    0 -0.24644813571E+02 -0.13271579244E+02 -0.10940576763E+02  0.30053250602E+02  0.51100000000E-03 0.  1.
        -12    1    3    3    0    0  0.52430048965E+01  0.11126511204E+02  0.82337427206E+01  0.14801448277E+02  0.00000000000E+00 0.  1.
</event>
<event>
 7    1  0.1184848E-011  0.5930194E+02  0.7816164E-02  0.1266605E+00
        -11   -1    0    0    0    0  0.00000000000E+00  0.00000000000E+00  0.45593999997E+02  0.45594000000E+02  0.51100000000E-03 0.  1.
         11   -1    0    0    0    0 -0.00000000000E+00 -0.00000000000E+00 -0.45593999997E+02  0.45594000000E+02  0.51100000000E-03 0. -1.
    9900012    2    1    2    0    0  0.10474449323E+01  0.14629515888E+02 -0.28312558574E+02  0.59301939582E+02  0.49999991892E+02 0.  0.
        -12    1    1    2    0    0 -0.10474449323E+01 -0.14629515888E+02  0.28312558574E+02  0.31886060418E+02  0.00000000000E+00 0.  1.
         11    1    3    3    0    0  0.32860937612E+00  0.11187059616E+02 -0.20322048873E+02  0.23200085294E+02  0.51100000000E-03 0. -1.
        -11    1    3    3    0    0  0.76770440865E+01 -0.51503993320E+01 -0.18604683045E+02  0.20774933229E+02  0.51100000000E-03 0.  1.
        -12    1    3    3    0    0 -0.69582085303E+01  0.85928556038E+01  0.10614173345E+02  0.15326921060E+02  0.00000000000E+00 0.  1.
</event>
<event>
 7    1  0.1184848E-011  0.5930192E+02  0.7816164E-02  0.1266605E+00
        -11   -1    0    0    0    0  0.00000000000E+00  0.00000000000E+00  0.45593999997E+02  0.45594000000E+02  0.51100000000E-03 0. -1.
         11   -1    0    0    0    0 -0.00000000000E+00 -0.00000000000E+00 -0.45593999997E+02  0.45594000000E+02  0.51100000000E-03 0.  1.
    9900012    2    1    2    0    0 -0.15698176674E+02 -0.26145687795E+02 -0.93108662936E+01  0.59301921967E+02  0.49999959767E+02 0.  0.
        -12    1    1    2    0    0  0.15698176674E+02  0.26145687795E+02  0.93108662936E+01  0.31886078033E+02  0.00000000000E+00 0.  1.
         11    1    3    3    0    0 -0.14919708677E+01  0.49106672368E+01  0.64631312406E+01  0.82530415893E+01  0.51100000000E-03 0. -1.
        -11    1    3    3    0    0  0.67815577465E+01 -0.10441568230E+02  0.65972544816E+01  0.14090409487E+02  0.51100000000E-03 0.  1.
        -12    1    3    3    0    0 -0.20987763553E+02 -0.20614786802E+02 -0.22371252016E+02  0.36958470891E+02  0.00000000000E+00 0.  1.
</event>
<event>
 7    1  0.1184848E-011  0.5930194E+02  0.7816164E-02  0.1266605E+00
        -11   -1    0    0    0    0  0.00000000000E+00  0.00000000000E+00  0.45593999997E+02  0.45594000000E+02  0.51100000000E-03 0. -1.
         11   -1    0    0    0    0 -0.00000000000E+00 -0.00000000000E+00 -0.45593999997E+02  0.45594000000E+02  0.51100000000E-03 0.  1.
    9900012    2    1    2    0    0  0.31638193720E+02 -0.14862599547E+01 -0.36792119900E+01  0.59301939231E+02  0.49999991251E+02 0.  0.
        -12    1    1    2    0    0 -0.31638193720E+02  0.14862599547E+01  0.36792119900E+01  0.31886060769E+02  0.00000000000E+00 0.  1.
         11    1    3    3    0    0  0.27121982174E+02  0.30473329379E+01  0.13250772709E+02  0.30339267175E+02  0.51100000000E-03 0. -1.
        -11    1    3    3    0    0  0.74088033617E+01 -0.11085828243E+02 -0.35690067427E+01  0.13803034611E+02  0.51100000000E-03 0.  1.
         12    1    3    3    0    0 -0.28925918155E+01  0.65522353508E+01 -0.13360977956E+02  0.15159637444E+02  0.00000000000E+00 0. -1.
</event>
<event>
 7    1  0.1184848E-011  0.5930195E+02  0.7816164E-02  0.1266605E+00
        -11   -1    0    0    0    0  0.00000000000E+00  0.00000000000E+00  0.45593999997E+02  0.45594000000E+02  0.51100000000E-03 0. -1.
         11   -1    0    0    0    0 -0.00000000000E+00 -0.00000000000E+00 -0.45593999997E+02  0.45594000000E+02  0.51100000000E-03 0.  1.
    9900012    2    1    2    0    0  0.19930057462E+02  0.20357740349E+02 -0.14320464997E+02  0.59301945050E+02  0.50000001864E+02 0.  0.
        -12    1    1    2    0    0 -0.19930057462E+02 -0.20357740349E+02  0.14320464997E+02  0.31886054950E+02  0.00000000000E+00 0.  1.
         11    1    3    3    0    0  0.13494439042E+02  0.12922375168E+02  0.16739986374E+02  0.25086147754E+02  0.51100000000E-03 0. -1.
        -11    1    3    3    0    0  0.29326715026E+01 -0.16329324753E+01 -0.29390553173E+01  0.44615106220E+01  0.51100000000E-03 0.  1.
        -12    1    3    3    0    0  0.35029469172E+01  0.90682976564E+01 -0.28121396054E+02  0.29754286674E+02  0.00000000000E+00 0.  1.
</event>
<event>
 7    1  0.1184848E-011  0.5930196E+02  0.7816164E-02  0.1266605E+00
        -11   -1    0    0    0    0  0.00000000000E+00  0.00000000000E+00  0.45593999997E+02  0.45594000000E+02  0.51100000000E-03 0.  1.
         11   -1    0    0    0    0 -0.00000000000E+00 -0.00000000000E+00 -0.45593999997E+02  0.45594000000E+02  0.51100000000E-03 0. -1.
    9900012    2    1    2    0    0  0.42875930744E+01 -0.17617321338E+02 -0.26229112865E+02  0.59301955604E+02  0.50000021113E+02 0.  0.
        -12    1    1    2    0    0 -0.42875930744E+01  0.17617321338E+02  0.26229112865E+02  0.31886044396E+02  0.00000000000E+00 0.  1.
         11    1    3    3    0    0 -0.79740850148E+01 -0.92808209714E+01 -0.11509265356E+01  0.12290008213E+02  0.51100000000E-03 0. -1.
        -11    1    3    3    0    0  0.23621922587E+02 -0.92306714680E+01 -0.82134622846E+01  0.26658234852E+02  0.51100000000E-03 0.  1.
         12    1    3    3    0    0 -0.11360244498E+02  0.89417110174E+00 -0.16864724045E+02  0.20353712539E+02  0.00000000000E+00 0. -1.
</event>
<event>
 7    1  0.1184848E-011  0.5930195E+02  0.7816164E-02  0.1266605E+00
        -11   -1    0    0    0    0  0.00000000000E+00  0.00000000000E+00  0.45593999997E+02  0.45594000000E+02  0.51100000000E-03 0. -1.
         11   -1    0    0    0    0 -0.00000000000E+00 -0.00000000000E+00 -0.45593999997E+02  0.45594000000E+02  0.51100000000E-03 0.  1.
    9900012    2    1    2    0    0  0.17495238070E+02  0.23337859496E+02 -0.12883362103E+02  0.59301951953E+02  0.50000014453E+02 0.  0.
        -12    1    1    2    0    0 -0.17495238070E+02 -0.23337859496E+02  0.12883362103E+02  0.31886048047E+02  0.00000000000E+00 0.  1.
         11    1    3    3    0    0  0.11723435665E+02  0.24510391168E+02  0.54967994447E+01  0.27720263769E+02  0.51100000000E-03 0. -1.
        -11    1    3    3    0    0  0.12892775827E+02  0.54088517530E+01 -0.16633526247E+02  0.21729094355E+02  0.51100000000E-03 0.  1.
        -12    1    3    3    0    0 -0.71209734224E+01 -0.65813834255E+01 -0.17466353006E+01  0.98525938285E+01  0.00000000000E+00 0.  1.
</event>
<event>
 7    1  0.1184848E-011  0.5930194E+02  0.7816164E-02  0.1266605E+00
        -11   -1    0    0    0    0  0.00000000000E+00  0.00000000000E+00  0.45593999997E+02  0.45594000000E+02  0.51100000000E-03 0.  1.
         11   -1    0    0    0    0 -0.00000000000E+00 -0.00000000000E+00 -0.45593999997E+02  0.45594000000E+02  0.51100000000E-03 0. -1.
    9900012    2    1    2    0    0  0.28178499568E+02 -0.67073798964E+01 -0.13330556249E+02  0.59301944853E+02  0.50000001505E+02 0.  0.
        -12    1    1    2    0    0 -0.28178499568E+02  0.67073798964E+01  0.13330556249E+02  0.31886055147E+02  0.00000000000E+00 0.  1.
         11    1    3    3    0    0  0.16122453902E+02 -0.32263233909E+01 -0.15024860605E+02  0.22273058140E+02  0.51100000000E-03 0. -1.
        -11    1    3    3    0    0  0.39819382684E+01 -0.27002415916E+00 -0.16441490266E+02  0.16918964148E+02  0.51100000000E-03 0.  1.
        -12    1    3    3    0    0  0.80741073975E+01 -0.32110323464E+01  0.18135794622E+02  0.20109922565E+02  0.00000000000E+00 0.  1.
</event>
<event>
 7    1  0.1184848E-011  0.5930193E+02  0.7816164E-02  0.1266605E+00
        -11   -1    0    0    0    0  0.00000000000E+00  0.00000000000E+00  0.45593999997E+02  0.45594000000E+02  0.51100000000E-03 0. -1.
         11   -1    0    0    0    0 -0.00000000000E+00 -0.00000000000E+00 -0.45593999997E+02  0.45594000000E+02  0.51100000000E-03 0.  1.
    9900012    2    1    2    0    0 -0.19455315261E+02  0.20838756692E+02  0.14281397895E+02  0.59301930970E+02  0.49999976186E+02 0.  0.
        -12    1    1    2    0    0  0.19455315261E+02 -0.20838756692E+02 -0.14281397895E+02  0.31886069030E+02  0.00000000000E+00 0.  1.
         11    1    3    3    0    0 -0.42934530702E+01  0.62259823134E+01  0.12831498057E+02  0.14894426396E+02  0.51100000000E-03 0. -1.
        -11    1    3    3    0    0 -0.27607991652E+02  0.12952377021E+02 -0.39292081013E+01  0.30747421845E+02  0.51100000000E-03 0.  1.
         12    1    3    3    0    0  0.12446129461E+02  0.16603973572E+01  0.53791079392E+01  0.13660082729E+02  0.00000000000E+00 0. -1.
</event>
<event>
 7    1  0.1184848E-011  0.5930194E+02  0.7816164E-02  0.1266605E+00
        -11   -1    0    0    0    0  0.00000000000E+00  0.00000000000E+00  0.45593999997E+02  0.45594000000E+02  0.51100000000E-03 0.  1.
         11   -1    0    0    0    0 -0.00000000000E+00 -0.00000000000E+00 -0.45593999997E+02  0.45594000000E+02  0.51100000000E-03 0. -1.
    9900012    2    1    2    0    0  0.24312024718E+02  0.13411530962E+01 -0.20587563742E+02  0.59301936926E+02  0.49999987049E+02 0.  0.
        -12    1    1    2    0    0 -0.24312024718E+02 -0.13411530962E+01  0.20587563742E+02  0.31886063074E+02  0.00000000000E+00 0.  1.
         11    1    3    3    0    0  0.13405298557E+02 -0.14635138711E+01 -0.13314865053E+02  0.18950713281E+02  0.51100000000E-03 0. -1.
        -11    1    3    3    0    0  0.20092370193E+02 -0.86073256220E+01  0.35403022931E+01  0.22143241292E+02  0.51100000000E-03 0.  1.
        -12    1    3    3    0    0 -0.91856440314E+01  0.11411992589E+02 -0.10813000982E+02  0.18207982353E+02  0.00000000000E+00 0.  1.
</event>
<event>
 7    1  0.1184848E-011  0.5930195E+02  0.7816164E-02  0.1266605E+00
        -11   -1    0    0    0    0  0.00000000000E+00  0.00000000000E+00  0.45593999997E+02  0.45594000000E+02  0.51100000000E-03 0. -1.
         11   -1    0    0    0    0 -0.00000000000E+00 -0.00000000000E+00 -0.45593999997E+02  0.45594000000E+02  0.51100000000E-03 0.  1.
    9900012    2    1    2    0    0  0.10323364495E+02 -0.35695475262E+01  0.29956743353E+02  0.59301952952E+02  0.50000016276E+02 0.  0.
        -12    1    1    2    0    0 -0.10323364495E+02  0.35695475262E+01 -0.29956743353E+02  0.31886047048E+02  0.00000000000E+00 0.  1.
         11    1    3    3    0    0  0.59099111964E+01  0.57582026006E+01  0.16477796545E+02  0.18428286051E+02  0.51100000000E-03 0. -1.
        -11    1    3    3    0    0  0.17044873512E+02  0.65767537151E+01  0.67802246577E+01  0.19487248372E+02  0.51100000000E-03 0.  1.
        -12    1    3    3    0    0 -0.12631420213E+02 -0.15904503842E+02  0.66987221503E+01  0.21386418529E+02  0.00000000000E+00 0.  1.
</event>
<event>
 7    1 -0.1184848E-011  0.5930196E+02  0.7816164E-02  0.1266605E+00
        -11   -1    0    0    0    0  0.00000000000E+00  0.00000000000E+00  0.45593999997E+02  0.45594000000E+02  0.51100000000E-03 0. -1.
         11   -1    0    0    0    0 -0.00000000000E+00 -0.00000000000E+00 -0.45593999997E+02  0.45594000000E+02  0.51100000000E-03 0.  1.
    9900012    2    1    2    0    0  0.26166358651E+02  0.17574300929E+02  0.48150740663E+01  0.59301963613E+02  0.50000035719E+02 0.  0.
        -12    1    1    2    0    0 -0.26166358651E+02 -0.17574300929E+02 -0.48150740663E+01  0.31886036387E+02  0.00000000000E+00 0.  1.
         11    1    3    3    0    0  0.14742086196E+02  0.12266665478E+02  0.94095357090E+01  0.21362105464E+02  0.51100000000E-03 0. -1.
        -11    1    3    3    0    0  0.70961607645E+01  0.80429624198E+01  0.14576205478E+02  0.18097251407E+02  0.51100000000E-03 0.  1.
        -12    1    3    3    0    0  0.43281116909E+01 -0.27353269687E+01 -0.19170667121E+02  0.19842606742E+02  0.00000000000E+00 0.  1.
</event>
<event>
 7    1  0.1184848E-011  0.5930195E+02  0.7816164E-02  0.1266605E+00
        -11   -1    0    0    0    0  0.00000000000E+00  0.00000000000E+00  0.45593999997E+02  0.45594000000E+02  0.51100000000E-03 0.  1.
         11   -1    0    0    0    0 -0.00000000000E+00 -0.00000000000E+00 -0.45593999997E+02  0.45594000000E+02  0.51100000000E-03 0. -1.
    9900012    2    1    2    0    0  0.28485943985E+02 -0.87272228701E+01 -0.11362522718E+02  0.59301947465E+02  0.50000006268E+02 0.  0.
        -12    1    1    2    0    0 -0.28485943985E+02  0.87272228701E+01  0.11362522718E+02  0.31886052535E+02  0.00000000000E+00 0.  1.
         11    1    3    3    0    0  0.20332764625E+01 -0.18045939358E+02 -0.68897356554E+01  0.19423145939E+02  0.51100000000E-03 0. -1.
        -11    1    3    3    0    0  0.47599575318E+01 -0.72064842194E+01  0.61608988550E+01  0.10608830542E+02  0.51100000000E-03 0.  1.
         12    1    3    3    0    0  0.21692709991E+02  0.16525200708E+02 -0.10633685918E+02  0.29269970984E+02  0.00000000000E+00 0. -1.
</event>
<event>
 7    1  0.1184848E-011  0.5930194E+02  0.7816164E-02  0.1266605E+00
        -11   -1    0    0    0    0  0.00000000000E+00  0.00000000000E+00  0.45593999997E+02  0.45594000000E+02  0.51100000000E-03 0.  1.
         11   -1    0    0    0    0 -0.00000000000E+00 -0.00000000000E+00 -0.45593999997E+02  0.45594000000E+02  0.51100000000E-03 0. -1.
    9900012    2    1    2    0    0  0.11798722553E+02  0.91090923296E+01 -0.28187499519E+02  0.59301944332E+02  0.50000000555E+02 0.  0.
        -12    1    1    2    0    0 -0.11798722553E+02 -0.91090923296E+01  0.28187499519E+02  0.31886055668E+02  0.00000000000E+00 0.  1.
         11    1    3    3    0    0  0.12877929006E+02  0.84157060823E+01  0.39638823978E+01  0.15886394439E+02  0.51100000000E-03 0. -1.
        -11    1    3    3    0    0 -0.36402963677E+01 -0.67322538890E+01  0.23698588620E+01  0.80119430450E+01  0.51100000000E-03 0.  1.
         12    1    3    3    0    0  0.25610899144E+01  0.74256401363E+01 -0.34521240778E+02  0.35403606848E+02  0.00000000000E+00 0. -1.
</event>
<event>
 7    1  0.1184848E-011  0.5930194E+02  0.7816164E-02  0.1266605E+00
        -11   -1    0    0    0    0  0.00000000000E+00  0.00000000000E+00  0.45593999997E+02  0.45594000000E+02  0.51100000000E-03 0.  1.
         11   -1    0    0    0    0 -0.00000000000E+00 -0.00000000000E+00 -0.45593999997E+02  0.45594000000E+02  0.51100000000E-03 0. -1.
    9900012    2    1    2    0    0 -0.50893899594E+01 -0.23002385023E+02 -0.21487418448E+02  0.59301941001E+02  0.49999994481E+02 0.  0.
        -12    1    1    2    0    0  0.50893899594E+01  0.23002385023E+02  0.21487418448E+02  0.31886058999E+02  0.00000000000E+00 0.  1.
         11    1    3    3    0    0 -0.11118034052E+02 -0.70388302047E+00 -0.67284677169E+01  0.13014546114E+02  0.51100000000E-03 0. -1.
        -11    1    3    3    0    0  0.13972259467E+02  0.45295674436E+01 -0.10336549418E+02  0.17960658951E+02  0.51100000000E-03 0.  1.
         12    1    3    3    0    0 -0.79436153745E+01 -0.26828069446E+02 -0.44224013134E+01  0.28326735936E+02  0.00000000000E+00 0. -1.
</event>
<event>
 7    1  0.1184848E-011  0.5930194E+02  0.7816164E-02  0.1266605E+00
        -11   -1    0    0    0    0  0.00000000000E+00  0.00000000000E+00  0.45593999997E+02  0.45594000000E+02  0.51100000000E-03 0.  1.
         11   -1    0    0    0    0 -0.00000000000E+00 -0.00000000000E+00 -0.45593999997E+02  0.45594000000E+02  0.51100000000E-03 0. -1.
    9900012    2    1    2    0    0 -0.31095226742E+02 -0.66190302099E+01 -0.24486562610E+01  0.59301943415E+02  0.49999998882E+02 0.  0.
        -12    1    1    2    0    0  0.31095226742E+02  0.66190302099E+01  0.24486562610E+01  0.31886056585E+02  0.00000000000E+00 0.  1.
         11    1    3    3    0    0 -0.16646514758E+02 -0.10727682267E+02 -0.17700453095E+01  0.19882723181E+02  0.51100000000E-03 0. -1.
        -11    1    3    3    0    0 -0.18208459959E+02 -0.93916379965E+01  0.90106532957E+01  0.22381750410E+02  0.51100000000E-03 0.  1.
         12    1    3    3    0    0  0.37597479746E+01  0.13500290053E+02 -0.96892642471E+01  0.17037469824E+02  0.00000000000E+00 0. -1.
</event>
<event>
 7    1  0.1184848E-011  0.5930220E+02  0.7816164E-02  0.1266604E+00
        -11   -1    0    0    0    0  0.00000000000E+00  0.00000000000E+00  0.45593999997E+02  0.45594000000E+02  0.51100000000E-03 0.  1.
         11   -1    0    0    0    0 -0.00000000000E+00 -0.00000000000E+00 -0.45593999997E+02  0.45594000000E+02  0.51100000000E-03 0. -1.
    9900012    2    1    2    0    0  0.27395115408E+02 -0.69146116867E+01  0.14778364300E+02  0.59302199800E+02  0.50000466465E+02 0.  0.
        -12    1    1    2    0    0 -0.27395115408E+02  0.69146116867E+01 -0.14778364300E+02  0.31885800200E+02  0.00000000000E+00 0.  1.
         11    1    3    3    0    0 -0.12013818546E+02 -0.45941299707E+01  0.44594585921E+01  0.13613399187E+02  0.51100000000E-03 0.  1.
        -11    1    3    3    0    0  0.13528712160E+02 -0.15709849271E+01 -0.62130757037E+01  0.14969848239E+02  0.51100000000E-03 0. -1.
        -12    1    3    3    0    0  0.25880221794E+02 -0.74949678882E+00  0.16531981411E+02  0.30718952373E+02  0.00000000000E+00 0.  1.
</event>
<event>
 7    1  0.1184848E-011  0.5930193E+02  0.7816164E-02  0.1266605E+00
        -11   -1    0    0    0    0  0.00000000000E+00  0.00000000000E+00  0.45593999997E+02  0.45594000000E+02  0.51100000000E-03 0.  1.
         11   -1    0    0    0    0 -0.00000000000E+00 -0.00000000000E+00 -0.45593999997E+02  0.45594000000E+02  0.51100000000E-03 0. -1.
    9900012    2    1    2    0    0 -0.10788129329E+01 -0.14967636430E+02 -0.28134095655E+02  0.59301932259E+02  0.49999978536E+02 0.  0.
        -12    1    1    2    0    0  0.10788129329E+01  0.14967636430E+02  0.28134095655E+02  0.31886067741E+02  0.00000000000E+00 0.  1.
         11    1    3    3    0    0  0.24235648834E+01 -0.17300422133E+02 -0.24848246049E+02  0.30374555218E+02  0.51100000000E-03 0. -1.
        -11    1    3    3    0    0  0.27663396951E+01  0.24049369922E+01 -0.15107747450E+02  0.15546073155E+02  0.51100000000E-03 0.  1.
        -12    1    3    3    0    0 -0.62687175114E+01 -0.72151289768E-01  0.11821897844E+02  0.13381303886E+02  0.00000000000E+00 0.  1.
</event>
<event>
 7    1  0.1184848E-011  0.5930175E+02  0.7816164E-02  0.1266605E+00
        -11   -1    0    0    0    0  0.00000000000E+00  0.00000000000E+00  0.45593999997E+02  0.45594000000E+02  0.51100000000E-03 0. -1.
         11   -1    0    0    0    0 -0.00000000000E+00 -0.00000000000E+00 -0.45593999997E+02  0.45594000000E+02  0.51100000000E-03 0.  1.
    9900012    2    1    2    0    0  0.57140461739E+01  0.31150032427E+02  0.37092062316E+01  0.59301748186E+02  0.49999642831E+02 0.  0.
        -12    1    1    2    0    0 -0.57140461739E+01 -0.31150032427E+02 -0.37092062316E+01  0.31886251814E+02  0.00000000000E+00 0.  1.
         11    1    3    3    0    0  0.13649846962E+02  0.24494285463E+02 -0.57390348326E+01  0.28622104457E+02  0.51100000000E-03 0. -1.
        -11    1    3    3    0    0 -0.13735394682E+02  0.13196708102E+02  0.19221603281E+01  0.19144421443E+02  0.51100000000E-03 0.  1.
         12    1    3    3    0    0  0.57995938939E+01 -0.65409611390E+01  0.75260807362E+01  0.11535222287E+02  0.00000000000E+00 0. -1.
</event>
<event>
 7    1  0.1184848E-011  0.5930197E+02  0.7816164E-02  0.1266605E+00
        -11   -1    0    0    0    0  0.00000000000E+00  0.00000000000E+00  0.45593999997E+02  0.45594000000E+02  0.51100000000E-03 0.  1.
         11   -1    0    0    0    0 -0.00000000000E+00 -0.00000000000E+00 -0.45593999997E+02  0.45594000000E+02  0.51100000000E-03 0. -1.
    9900012    2    1    2    0    0  0.21634636658E+02  0.11280695349E+02 -0.20528212913E+02  0.59301966752E+02  0.50000041443E+02 0.  0.
        -12    1    1    2    0    0 -0.21634636658E+02 -0.11280695349E+02  0.20528212913E+02  0.31886033248E+02  0.00000000000E+00 0.  1.
         11    1    3    3    0    0  0.95447937452E+01  0.57224803958E+01 -0.28388382284E+01  0.11485158783E+02  0.51100000000E-03 0. -1.
        -11    1    3    3    0    0  0.53575685460E+01  0.23566628967E+02 -0.14894612478E+02  0.28389065197E+02  0.51100000000E-03 0.  1.
        -12    1    3    3    0    0  0.67322743671E+01 -0.18008414014E+02 -0.27947622064E+01  0.19427742772E+02  0.00000000000E+00 0.  1.
</event>
<event>
 7    1  0.1184848E-011  0.5930195E+02  0.7816164E-02  0.1266605E+00
        -11   -1    0    0    0    0  0.00000000000E+00  0.00000000000E+00  0.45593999997E+02  0.45594000000E+02  0.51100000000E-03 0. -1.
         11   -1    0    0    0    0 -0.00000000000E+00 -0.00000000000E+00 -0.45593999997E+02  0.45594000000E+02  0.51100000000E-03 0.  1.
    9900012    2    1    2    0    0  0.66592474932E+01 -0.31084384172E+02  0.24770266610E+01  0.59301950110E+02  0.50000011092E+02 0.  0.
        -12    1    1    2    0    0 -0.66592474932E+01  0.31084384172E+02 -0.24770266610E+01  0.31886049890E+02  0.00000000000E+00 0.  1.
         11    1    3    3    0    0  0.98029746459E+01 -0.50352405957E+01  0.15736951972E+02  0.19212069576E+02  0.51100000000E-03 0. -1.
        -11    1    3    3    0    0  0.86687123236E+01 -0.21558748961E+02 -0.22779863732E+01  0.23347707645E+02  0.51100000000E-03 0.  1.
        -12    1    3    3    0    0 -0.11812439476E+02 -0.44903946154E+01 -0.10981938938E+02  0.16742172888E+02  0.00000000000E+00 0.  1.
</event>
<event>
 7    1  0.1184848E-011  0.5930193E+02  0.7816164E-02  0.1266605E+00
        -11   -1    0    0    0    0  0.00000000000E+00  0.00000000000E+00  0.45593999997E+02  0.45594000000E+02  0.51100000000E-03 0.  1.
         11   -1    0    0    0    0 -0.00000000000E+00 -0.00000000000E+00 -0.45593999997E+02  0.45594000000E+02  0.51100000000E-03 0. -1.
    9900012    2    1    2    0    0 -0.20035072002E+02 -0.12013915533E+02 -0.21702153514E+02  0.59301925552E+02  0.49999966304E+02 0.  0.
        -12    1    1    2    0    0  0.20035072002E+02  0.12013915533E+02  0.21702153514E+02  0.31886074448E+02  0.00000000000E+00 0.  1.
         11    1    3    3    0    0 -0.13450907416E+02  0.11394687485E+02 -0.11066301427E+02  0.20814150012E+02  0.51100000000E-03 0. -1.
        -11    1    3    3    0    0  0.75690697995E+01  0.15317834731E+01  0.46790292613E+00  0.77366731641E+01  0.51100000000E-03 0.  1.
        -12    1    3    3    0    0 -0.14153234386E+02 -0.24940386491E+02 -0.11103755014E+02  0.30751102376E+02  0.00000000000E+00 0.  1.
</event>
<event>
 7    1  0.1184848E-011  0.5930175E+02  0.7816164E-02  0.1266605E+00
        -11   -1    0    0    0    0  0.00000000000E+00  0.00000000000E+00  0.45593999997E+02  0.45594000000E+02  0.51100000000E-03 0. -1.
         11   -1    0    0    0    0 -0.00000000000E+00 -0.00000000000E+00 -0.45593999997E+02  0.45594000000E+02  0.51100000000E-03 0.  1.
    9900012    2    1    2    0    0  0.13491553645E+02  0.28478626565E+02 -0.48660797057E+01  0.59301750259E+02  0.49999646612E+02 0.  0.
        -12    1    1    2    0    0 -0.13491553645E+02 -0.28478626565E+02  0.48660797057E+01  0.31886249741E+02  0.00000000000E+00 0.  1.
         11    1    3    3    0    0  0.57487920044E+00  0.19902852671E+01  0.74400242795E+01  0.77230617685E+01  0.51100000000E-03 0. -1.
        -11    1    3    3    0    0  0.10324850619E+02 -0.47404970704E+01 -0.16426653788E+02  0.19972726596E+02  0.51100000000E-03 0.  1.
        -12    1    3    3    0    0  0.25918238262E+01  0.31228838369E+02  0.41205498027E+01  0.31605961895E+02  0.00000000000E+00 0.  1.
</event>
<event>
 7    1  0.1184848E-011  0.5930191E+02  0.7816164E-02  0.1266605E+00
        -11   -1    0    0    0    0  0.00000000000E+00  0.00000000000E+00  0.45593999997E+02  0.45594000000E+02  0.51100000000E-03 0.  1.
         11   -1    0    0    0    0 -0.00000000000E+00 -0.00000000000E+00 -0.45593999997E+02  0.45594000000E+02  0.51100000000E-03 0. -1.
    9900012    2    1    2    0    0  0.31534028221E+02  0.25394759070E+01  0.39848178849E+01  0.59301911383E+02  0.49999940464E+02 0.  0.
        -12    1    1    2    0    0 -0.31534028221E+02 -0.25394759070E+01 -0.39848178849E+01  0.31886088617E+02  0.00000000000E+00 0.  1.
         11    1    3    3    0    0  0.16926504626E+01  0.19103916931E+01 -0.54178716795E+01  0.59889895480E+01  0.51100000000E-03 0.  1.
        -11    1    3    3    0    0  0.33175504784E+01  0.19336698413E+02  0.67470882737E+01  0.20746981639E+02  0.51100000000E-03 0. -1.
         12    1    3    3    0    0  0.26523827280E+02 -0.18707614199E+02  0.26556012907E+01  0.32565940196E+02  0.00000000000E+00 0. -1.
</event>
<event>
 7    1  0.1184848E-011  0.5930191E+02  0.7816164E-02  0.1266605E+00
        -11   -1    0    0    0    0  0.00000000000E+00  0.00000000000E+00  0.45593999997E+02  0.45594000000E+02  0.51100000000E-03 0.  1.
         11   -1    0    0    0    0 -0.00000000000E+00 -0.00000000000E+00 -0.45593999997E+02  0.45594000000E+02  0.51100000000E-03 0. -1.
    9900012    2    1    2    0    0  0.12109300648E+02 -0.28723281014E+02 -0.67127431727E+01  0.59301906553E+02  0.49999931655E+02 0.  0.
        -12    1    1    2    0    0 -0.12109300648E+02  0.28723281014E+02  0.67127431727E+01  0.31886093447E+02  0.00000000000E+00 0.  1.
         11    1    3    3    0    0 -0.70603287525E+01 -0.10721103165E+02  0.35408759416E+00  0.12841949753E+02  0.51100000000E-03 0. -1.
        -11    1    3    3    0    0  0.17666334337E+02 -0.27063907650E+02 -0.13727028101E+02  0.35113897063E+02  0.51100000000E-03 0.  1.
        -12    1    3    3    0    0  0.15032950640E+01  0.90617298014E+01  0.66601973338E+01  0.11346059738E+02  0.00000000000E+00 0.  1.
</event>
<event>
 7    1  0.1184848E-011  0.5930193E+02  0.7816164E-02  0.1266605E+00
        -11   -1    0    0    0    0  0.00000000000E+00  0.00000000000E+00  0.45593999997E+02  0.45594000000E+02  0.51100000000E-03 0.  1.
         11   -1    0    0    0    0 -0.00000000000E+00 -0.00000000000E+00 -0.45593999997E+02  0.45594000000E+02  0.51100000000E-03 0. -1.
    9900012    2    1    2    0    0 -0.83815726743E+01  0.30402002233E+02 -0.47104909421E+01  0.59301933683E+02  0.49999981134E+02 0.  0.
        -12    1    1    2    0    0  0.83815726743E+01 -0.30402002233E+02  0.47104909421E+01  0.31886066317E+02  0.00000000000E+00 0.  1.
         11    1    3    3    0    0 -0.18982697806E+02 -0.21279483737E+01  0.84598040963E+01  0.20891128880E+02  0.51100000000E-03 0.  1.
        -11    1    3    3    0    0  0.36676723815E+01  0.13273666958E+01 -0.28200970996E+01  0.48131768049E+01  0.51100000000E-03 0. -1.
        -12    1    3    3    0    0  0.69334527500E+01  0.31202583911E+02 -0.10350197939E+02  0.33597627998E+02  0.00000000000E+00 0.  1.
</event>
<event>
 7    1  0.1184848E-011  0.5930195E+02  0.7816164E-02  0.1266605E+00
        -11   -1    0    0    0    0  0.00000000000E+00  0.00000000000E+00  0.45593999997E+02  0.45594000000E+02  0.51100000000E-03 0.  1.
         11   -1    0    0    0    0 -0.00000000000E+00 -0.00000000000E+00 -0.45593999997E+02  0.45594000000E+02  0.51100000000E-03 0. -1.
    9900012    2    1    2    0    0  0.12457510601E+02  0.20127973690E+02 -0.21363410436E+02  0.59301949748E+02  0.50000010432E+02 0.  0.
        -12    1    1    2    0    0 -0.12457510601E+02 -0.20127973690E+02  0.21363410436E+02  0.31886050252E+02  0.00000000000E+00 0.  1.
         11    1    3    3    0    0  0.40788196533E+01  0.42882422309E+01  0.25373022348E+01  0.64392308615E+01  0.51100000000E-03 0. -1.
        -11    1    3    3    0    0  0.10970700675E+02  0.30367465182E+02 -0.18024410628E+02  0.36978623469E+02  0.51100000000E-03 0.  1.
         12    1    3    3    0    0 -0.25920097280E+01 -0.14527733723E+02 -0.58763020424E+01  0.15884095418E+02  0.00000000000E+00 0. -1.
</event>
<event>
 7    1  0.1184848E-011  0.5930195E+02  0.7816164E-02  0.1266605E+00
        -11   -1    0    0    0    0  0.00000000000E+00  0.00000000000E+00  0.45593999997E+02  0.45594000000E+02  0.51100000000E-03 0. -1.
         11   -1    0    0    0    0 -0.00000000000E+00 -0.00000000000E+00 -0.45593999997E+02  0.45594000000E+02  0.51100000000E-03 0.  1.
    9900012    2    1    2    0    0 -0.93107488061E+01  0.21382866979E+02  0.21744041476E+02  0.59301946884E+02  0.50000005210E+02 0.  0.
        -12    1    1    2    0    0  0.93107488061E+01 -0.21382866979E+02 -0.21744041476E+02  0.31886053116E+02  0.00000000000E+00 0.  1.
         11    1    3    3    0    0  0.18999095316E+01 -0.82757589684E+01  0.14099620885E+02  0.16458953554E+02  0.51100000000E-03 0. -1.
        -11    1    3    3    0    0  0.41827342380E+01  0.58359464455E+01 -0.77552947985E+01  0.10568733807E+02  0.51100000000E-03 0.  1.
         12    1    3    3    0    0 -0.15393392576E+02  0.23822679502E+02  0.15399715389E+02  0.32274259523E+02  0.00000000000E+00 0. -1.
</event>
<event>
 7    1  0.1184848E-011  0.5930194E+02  0.7816164E-02  0.1266605E+00
        -11   -1    0    0    0    0  0.00000000000E+00  0.00000000000E+00  0.45593999997E+02  0.45594000000E+02  0.51100000000E-03 0.  1.
         11   -1    0    0    0    0 -0.00000000000E+00 -0.00000000000E+00 -0.45593999997E+02  0.45594000000E+02  0.51100000000E-03 0. -1.
    9900012    2    1    2    0    0 -0.95031997891E+01  0.44384536345E+01 -0.30111624846E+02  0.59301943051E+02  0.49999998219E+02 0.  0.
        -12    1    1    2    0    0  0.95031997891E+01 -0.44384536345E+01  0.30111624846E+02  0.31886056949E+02  0.00000000000E+00 0.  1.
         11    1    3    3    0    0 -0.70604829779E+01 -0.92027174891E+01 -0.23862852029E+01  0.11842076946E+02  0.51100000000E-03 0. -1.
        -11    1    3    3    0    0  0.80527453319E+01 -0.39174799012E+01  0.39224107071E+01  0.97764340213E+01  0.51100000000E-03 0.  1.
         12    1    3    3    0    0 -0.10495462143E+02  0.17558651025E+02 -0.31647750350E+02  0.37683432084E+02  0.00000000000E+00 0. -1.
</event>
<event>
 7    1  0.1184848E-011  0.5930178E+02  0.7816164E-02  0.1266605E+00
        -11   -1    0    0    0    0  0.00000000000E+00  0.00000000000E+00  0.45593999997E+02  0.45594000000E+02  0.51100000000E-03 0.  1.
         11   -1    0    0    0    0 -0.00000000000E+00 -0.00000000000E+00 -0.45593999997E+02  0.45594000000E+02  0.51100000000E-03 0. -1.
    9900012    2    1    2    0    0 -0.26901857729E+02  0.10473434924E+02 -0.13539871597E+02  0.59301781798E+02  0.49999704131E+02 0.  0.
        -12    1    1    2    0    0  0.26901857729E+02 -0.10473434924E+02  0.13539871597E+02  0.31886218202E+02  0.00000000000E+00 0.  1.
         11    1    3    3    0    0  0.73710190795E+01  0.76534966815E+01  0.20202826831E+01  0.10816167348E+02  0.51100000000E-03 0. -1.
        -11    1    3    3    0    0 -0.54660442352E+01  0.51260277209E+01  0.81743681629E+01  0.11089368553E+02  0.51100000000E-03 0.  1.
         12    1    3    3    0    0 -0.28806832573E+02 -0.23060894783E+01 -0.23734522443E+02  0.37396245897E+02  0.00000000000E+00 0. -1.
</event>
<event>
 7    1  0.1184848E-011  0.5930194E+02  0.7816164E-02  0.1266605E+00
        -11   -1    0    0    0    0  0.00000000000E+00  0.00000000000E+00  0.45593999997E+02  0.45594000000E+02  0.51100000000E-03 0.  1.
         11   -1    0    0    0    0 -0.00000000000E+00 -0.00000000000E+00 -0.45593999997E+02  0.45594000000E+02  0.51100000000E-03 0. -1.
    9900012    2    1    2    0    0  0.27180836740E+02  0.84303559592E+01  0.14382342679E+02  0.59301943982E+02  0.49999999916E+02 0.  0.
        -12    1    1    2    0    0 -0.27180836740E+02 -0.84303559592E+01 -0.14382342679E+02  0.31886056018E+02  0.00000000000E+00 0.  1.
         11    1    3    3    0    0  0.28603860066E+01 -0.37005671401E+01  0.20788283801E+02  0.21307950368E+02  0.51100000000E-03 0.  1.
        -11    1    3    3    0    0  0.31418557137E+01 -0.64908005390E+01  0.36134715408E+01  0.80659113434E+01  0.51100000000E-03 0. -1.
         12    1    3    3    0    0  0.21178595019E+02  0.18621723638E+02 -0.10019412662E+02  0.29928082270E+02  0.00000000000E+00 0. -1.
</event>
<event>
 7    1  0.1184848E-011  0.5930195E+02  0.7816164E-02  0.1266605E+00
        -11   -1    0    0    0    0  0.00000000000E+00  0.00000000000E+00  0.45593999997E+02  0.45594000000E+02  0.51100000000E-03 0. -1.
         11   -1    0    0    0    0 -0.00000000000E+00 -0.00000000000E+00 -0.45593999997E+02  0.45594000000E+02  0.51100000000E-03 0.  1.
    9900012    2    1    2    0    0 -0.23394502903E+02  0.19160274118E+02  0.10114421103E+02  0.59301946864E+02  0.50000005172E+02 0.  0.
        -12    1    1    2    0    0  0.23394502903E+02 -0.19160274118E+02 -0.10114421103E+02  0.31886053136E+02  0.00000000000E+00 0.  1.
         11    1    3    3    0    0  0.24161620002E+00 -0.36220798403E+01  0.11787719735E+01  0.38167190602E+01  0.51100000000E-03 0. -1.
        -11    1    3    3    0    0  0.79799435227E+01  0.22257656849E+01  0.15148127067E+02  0.17265551987E+02  0.51100000000E-03 0.  1.
         12    1    3    3    0    0 -0.31616062626E+02  0.20556588273E+02 -0.62124779372E+01  0.38219675817E+02  0.00000000000E+00 0. -1.
</event>
<event>
 7    1  0.1184848E-011  0.5930193E+02  0.7816164E-02  0.1266605E+00
        -11   -1    0    0    0    0  0.00000000000E+00  0.00000000000E+00  0.45593999997E+02  0.45594000000E+02  0.51100000000E-03 0.  1.
         11   -1    0    0    0    0 -0.00000000000E+00 -0.00000000000E+00 -0.45593999997E+02  0.45594000000E+02  0.51100000000E-03 0. -1.
    9900012    2    1    2    0    0  0.29560808130E+02 -0.51817578757E+01 -0.10771708326E+02  0.59301926359E+02  0.49999967776E+02 0.  0.
        -12    1    1    2    0    0 -0.29560808130E+02  0.51817578757E+01  0.10771708326E+02  0.31886073641E+02  0.00000000000E+00 0.  1.
         11    1    3    3    0    0  0.67202010548E+01 -0.20595086537E+02 -0.90660115567E+01  0.23484276814E+02  0.51100000000E-03 0. -1.
        -11    1    3    3    0    0 -0.18936969373E+01  0.16561393986E+01  0.59819342108E+01  0.64894085217E+01  0.51100000000E-03 0.  1.
        -12    1    3    3    0    0  0.24734304013E+02  0.13757189263E+02 -0.76876309798E+01  0.29328241023E+02  0.00000000000E+00 0.  1.
</event>
<event>
 7    1  0.1184848E-011  0.5930195E+02  0.7816164E-02  0.1266605E+00
        -11   -1    0    0    0    0  0.00000000000E+00  0.00000000000E+00  0.45593999997E+02  0.45594000000E+02  0.51100000000E-03 0. -1.
         11   -1    0    0    0    0 -0.00000000000E+00 -0.00000000000E+00 -0.45593999997E+02  0.45594000000E+02  0.51100000000E-03 0.  1.
    9900012    2    1    2    0    0 -0.19286932064E+02  0.25389912285E+02 -0.29448210267E+00  0.59301951108E+02  0.50000012912E+02 0.  0.
        -12    1    1    2    0    0  0.19286932064E+02 -0.25389912285E+02  0.29448210267E+00  0.31886048892E+02  0.00000000000E+00 0.  1.
         11    1    3    3    0    0 -0.10613888404E+02 -0.42509802157E+00 -0.36424020821E+01  0.11229533765E+02  0.51100000000E-03 0.  1.
        -11    1    3    3    0    0 -0.22032954986E+02  0.58418315613E+01  0.68217419568E+01  0.23793155843E+02  0.51100000000E-03 0. -1.
        -12    1    3    3    0    0  0.13359911326E+02  0.19973178745E+02 -0.34738219773E+01  0.24279261500E+02  0.00000000000E+00 0.  1.
</event>
<event>
 7    1  0.1184848E-011  0.5930190E+02  0.7816164E-02  0.1266605E+00
        -11   -1    0    0    0    0  0.00000000000E+00  0.00000000000E+00  0.45593999997E+02  0.45594000000E+02  0.51100000000E-03 0. -1.
         11   -1    0    0    0    0 -0.00000000000E+00 -0.00000000000E+00 -0.45593999997E+02  0.45594000000E+02  0.51100000000E-03 0.  1.
    9900012    2    1    2    0    0  0.59288997194E+01 -0.10234723316E+02  0.29611180783E+02  0.59301898943E+02  0.49999917776E+02 0.  0.
        -12    1    1    2    0    0 -0.59288997194E+01  0.10234723316E+02 -0.29611180783E+02  0.31886101057E+02  0.00000000000E+00 0.  1.
         11    1    3    3    0    0  0.49109208655E+01 -0.15034569462E+01  0.35951215395E+01  0.62691646717E+01  0.51100000000E-03 0. -1.
        -11    1    3    3    0    0 -0.81457270680E+01  0.16967202933E+02  0.88481696951E+01  0.20797330407E+02  0.51100000000E-03 0.  1.
         12    1    3    3    0    0  0.91637059220E+01 -0.25698469303E+02  0.17167889548E+02  0.32235403864E+02  0.00000000000E+00 0. -1.
</event>
<event>
 7    1  0.1184848E-011  0.5930194E+02  0.7816164E-02  0.1266605E+00
        -11   -1    0    0    0    0  0.00000000000E+00  0.00000000000E+00  0.45593999997E+02  0.45594000000E+02  0.51100000000E-03 0.  1.
         11   -1    0    0    0    0 -0.00000000000E+00 -0.00000000000E+00 -0.45593999997E+02  0.45594000000E+02  0.51100000000E-03 0. -1.
    9900012    2    1    2    0    0 -0.47481771868E+01 -0.26307290256E+00 -0.31529454177E+02  0.59301939179E+02  0.49999991158E+02 0.  0.
        -12    1    1    2    0    0  0.47481771868E+01  0.26307290256E+00  0.31529454177E+02  0.31886060821E+02  0.00000000000E+00 0.  1.
         11    1    3    3    0    0  0.75106332476E+01 -0.17873554303E+02 -0.12442798542E+02  0.23036857229E+02  0.51100000000E-03 0. -1.
        -11    1    3    3    0    0  0.52727686715E+01  0.85241004646E+01 -0.11124567664E+02  0.14973923472E+02  0.51100000000E-03 0.  1.
        -12    1    3    3    0    0 -0.17531579106E+02  0.90863809355E+01 -0.79620879714E+01  0.21291158478E+02  0.00000000000E+00 0.  1.
</event>
<event>
 7    1  0.1184848E-011  0.5930189E+02  0.7816164E-02  0.1266605E+00
        -11   -1    0    0    0    0  0.00000000000E+00  0.00000000000E+00  0.45593999997E+02  0.45594000000E+02  0.51100000000E-03 0. -1.
         11   -1    0    0    0    0 -0.00000000000E+00 -0.00000000000E+00 -0.45593999997E+02  0.45594000000E+02  0.51100000000E-03 0.  1.
    9900012    2    1    2    0    0 -0.27136751776E+02 -0.13588429952E+02  0.97813846564E+01  0.59301886858E+02  0.49999895737E+02 0.  0.
        -12    1    1    2    0    0  0.27136751776E+02  0.13588429952E+02 -0.97813846564E+01  0.31886113142E+02  0.00000000000E+00 0.  1.
         11    1    3    3    0    0  0.10057870652E+02 -0.51178203514E+01  0.12350830149E+02  0.16730088249E+02  0.51100000000E-03 0. -1.
        -11    1    3    3    0    0 -0.13131542325E+02 -0.83644204906E+01  0.64789476555E+01  0.16863501918E+02  0.51100000000E-03 0.  1.
        -12    1    3    3    0    0 -0.24063080103E+02 -0.10618910976E+00 -0.90483931478E+01  0.25708296691E+02  0.00000000000E+00 0.  1.
</event>
<event>
 7    1  0.1184848E-011  0.5930194E+02  0.7816164E-02  0.1266605E+00
        -11   -1    0    0    0    0  0.00000000000E+00  0.00000000000E+00  0.45593999997E+02  0.45594000000E+02  0.51100000000E-03 0.  1.
         11   -1    0    0    0    0 -0.00000000000E+00 -0.00000000000E+00 -0.45593999997E+02  0.45594000000E+02  0.51100000000E-03 0. -1.
    9900012    2    1    2    0    0 -0.15556196422E+02 -0.24227554870E+02 -0.13702236290E+02  0.59301938132E+02  0.49999989247E+02 0.  0.
        -12    1    1    2    0    0  0.15556196422E+02  0.24227554870E+02  0.13702236290E+02  0.31886061868E+02  0.00000000000E+00 0.  1.
         11    1    3    3    0    0 -0.14031461580E+02 -0.14543393112E+02  0.41975720063E+01  0.20640053495E+02  0.51100000000E-03 0. -1.
        -11    1    3    3    0    0 -0.19681053550E+01  0.12011967358E+02 -0.36759776343E+01  0.12715093799E+02  0.51100000000E-03 0.  1.
         12    1    3    3    0    0  0.44337051245E+00 -0.21696129116E+02 -0.14223830662E+02  0.25946790837E+02  0.00000000000E+00 0. -1.
</event>
<event>
 7    1  0.1184848E-011  0.5930192E+02  0.7816164E-02  0.1266605E+00
        -11   -1    0    0    0    0  0.00000000000E+00  0.00000000000E+00  0.45593999997E+02  0.45594000000E+02  0.51100000000E-03 0. -1.
         11   -1    0    0    0    0 -0.00000000000E+00 -0.00000000000E+00 -0.45593999997E+02  0.45594000000E+02  0.51100000000E-03 0.  1.
    9900012    2    1    2    0    0 -0.81238869708E+01  0.18307284675E+02 -0.24810646416E+02  0.59301915461E+02  0.49999947900E+02 0.  0.
        -12    1    1    2    0    0  0.81238869708E+01 -0.18307284675E+02  0.24810646416E+02  0.31886084539E+02  0.00000000000E+00 0.  1.
         11    1    3    3    0    0  0.16022005456E+02  0.91565222105E+01 -0.35822974553E+01  0.18798388579E+02  0.51100000000E-03 0. -1.
        -11    1    3    3    0    0  0.14538341728E+01  0.94730148413E+00 -0.11934938005E+02  0.12060421193E+02  0.51100000000E-03 0.  1.
         12    1    3    3    0    0 -0.25599726600E+02  0.82034609802E+01 -0.92934109556E+01  0.28443105689E+02  0.00000000000E+00 0. -1.
</event>
<event>
 7    1  0.1184848E-011  0.5930187E+02  0.7816164E-02  0.1266605E+00
        -11   -1    0    0    0    0  0.00000000000E+00  0.00000000000E+00  0.45593999997E+02  0.45594000000E+02  0.51100000000E-03 0.  1.
         11   -1    0    0    0    0 -0.00000000000E+00 -0.00000000000E+00 -0.45593999997E+02  0.45594000000E+02  0.51100000000E-03 0. -1.
    9900012    2    1    2    0    0  0.14338593367E+02  0.21945567735E+02 -0.18152749734E+02  0.59301866244E+02  0.49999858141E+02 0.  0.
        -12    1    1    2    0    0 -0.14338593367E+02 -0.21945567735E+02  0.18152749734E+02  0.31886133756E+02  0.00000000000E+00 0.  1.
         11    1    3    3    0    0 -0.17117208845E+01  0.44359503853E+01 -0.11411484477E+02  0.12362427854E+02  0.51100000000E-03 0. -1.
        -11    1    3    3    0    0  0.14111421485E+02  0.11574479886E+02 -0.23093994970E+02  0.29435240867E+02  0.51100000000E-03 0.  1.
        -12    1    3    3    0    0  0.19388927663E+01  0.59351374641E+01  0.16352729713E+02  0.17504197523E+02  0.00000000000E+00 0.  1.
</event>
<event>
 7    1  0.1184848E-011  0.5930195E+02  0.7816164E-02  0.1266605E+00
        -11   -1    0    0    0    0  0.00000000000E+00  0.00000000000E+00  0.45593999997E+02  0.45594000000E+02  0.51100000000E-03 0. -1.
         11   -1    0    0    0    0 -0.00000000000E+00 -0.00000000000E+00 -0.45593999997E+02  0.45594000000E+02  0.51100000000E-03 0.  1.
    9900012    2    1    2    0    0  0.31519348248E+01  0.28653554071E+01  0.31600245843E+02  0.59301945178E+02  0.50000002098E+02 0.  0.
        -12    1    1    2    0    0 -0.31519348248E+01 -0.28653554071E+01 -0.31600245843E+02  0.31886054822E+02  0.00000000000E+00 0.  1.
         11    1    3    3    0    0 -0.10512022204E+01  0.74562065151E+01  0.17348367969E+02  0.18912057349E+02  0.51100000000E-03 0. -1.
        -11    1    3    3    0    0  0.16233311886E+02  0.72541754825E+01  0.15324472676E+02  0.23473025791E+02  0.51100000000E-03 0.  1.
         12    1    3    3    0    0 -0.12030174841E+02 -0.11845026590E+02 -0.10725948018E+01  0.16916862039E+02  0.00000000000E+00 0. -1.
</event>
<event>
 7    1  0.1184848E-011  0.5930217E+02  0.7816164E-02  0.1266604E+00
        -11   -1    0    0    0    0  0.00000000000E+00  0.00000000000E+00  0.45593999997E+02  0.45594000000E+02  0.51100000000E-03 0.  1.
         11   -1    0    0    0    0 -0.00000000000E+00 -0.00000000000E+00 -0.45593999997E+02  0.45594000000E+02  0.51100000000E-03 0. -1.
    9900012    2    1    2    0    0 -0.20921323801E+02  0.94183743951E+01 -0.22142680778E+02  0.59302174342E+02  0.50000420037E+02 0.  0.
        -12    1    1    2    0    0  0.20921323801E+02 -0.94183743951E+01  0.22142680778E+02  0.31885825658E+02  0.00000000000E+00 0.  1.
         11    1    3    3    0    0  0.55686299035E+01  0.89269334608E+00 -0.11285052862E+02  0.12615821764E+02  0.51100000000E-03 0.  1.
        -11    1    3    3    0    0 -0.10918259145E+02  0.19567069768E+02 -0.15242708653E+02  0.27100161796E+02  0.51100000000E-03 0. -1.
         12    1    3    3    0    0 -0.15571694559E+02 -0.11041388719E+02  0.43850807369E+01  0.19586190782E+02  0.00000000000E+00 0. -1.
</event>
<event>
 7    1  0.1184848E-011  0.5930225E+02  0.7816164E-02  0.1266604E+00
        -11   -1    0    0    0    0  0.00000000000E+00  0.00000000000E+00  0.45593999997E+02  0.45594000000E+02  0.51100000000E-03 0.  1.
         11   -1    0    0    0    0 -0.00000000000E+00 -0.00000000000E+00 -0.45593999997E+02  0.45594000000E+02  0.51100000000E-03 0. -1.
    9900012    2    1    2    0    0  0.24279063564E+02 -0.16508685174E+02 -0.12437508476E+02  0.59302247213E+02  0.50000552934E+02 0.  0.
        -12    1    1    2    0    0 -0.24279063564E+02  0.16508685174E+02  0.12437508476E+02  0.31885752787E+02  0.00000000000E+00 0.  1.
         11    1    3    3    0    0  0.11749883078E+01 -0.12148575635E+02 -0.21902287916E+02  0.25073466128E+02  0.51100000000E-03 0. -1.
        -11    1    3    3    0    0  0.20574282631E+02 -0.12078967147E+01 -0.32704258977E+01  0.20867577868E+02  0.51100000000E-03 0.  1.
        -12    1    3    3    0    0  0.25297926250E+01 -0.31522128240E+01  0.12735205338E+02  0.13361203217E+02  0.00000000000E+00 0.  1.
</event>
<event>
 7    1  0.1184848E-011  0.5930195E+02  0.7816164E-02  0.1266605E+00
        -11   -1    0    0    0    0  0.00000000000E+00  0.00000000000E+00  0.45593999997E+02  0.45594000000E+02  0.51100000000E-03 0.  1.
         11   -1    0    0    0    0 -0.00000000000E+00 -0.00000000000E+00 -0.45593999997E+02  0.45594000000E+02  0.51100000000E-03 0. -1.
    9900012    2    1    2    0    0  0.47763975761E+01 -0.31522765734E+02 -0.47042237656E+00  0.59301952416E+02  0.50000015298E+02 0.  0.
        -12    1    1    2    0    0 -0.47763975761E+01  0.31522765734E+02  0.47042237656E+00  0.31886047584E+02  0.00000000000E+00 0.  1.
         11    1    3    3    0    0  0.35879284317E+01 -0.17795320403E+01  0.27502349491E+01  0.48583698140E+01  0.51100000000E-03 0. -1.
        -11    1    3    3    0    0 -0.11207730592E+02  0.23894725487E+01  0.12173565889E+02  0.16718807099E+02  0.51100000000E-03 0.  1.
        -12    1    3    3    0    0  0.12396199736E+02 -0.32132706242E+02 -0.15394223215E+02  0.37724775503E+02  0.00000000000E+00 0.  1.
</event>
<event>
 7    1  0.1184848E-011  0.5930195E+02  0.7816164E-02  0.1266605E+00
        -11   -1    0    0    0    0  0.00000000000E+00  0.00000000000E+00  0.45593999997E+02  0.45594000000E+02  0.51100000000E-03 0.  1.
         11   -1    0    0    0    0 -0.00000000000E+00 -0.00000000000E+00 -0.45593999997E+02  0.45594000000E+02  0.51100000000E-03 0. -1.
    9900012    2    1    2    0    0 -0.55582676080E+01  0.26471763146E+02 -0.16884064758E+02  0.59301949357E+02  0.50000009720E+02 0.  0.
        -12    1    1    2    0    0  0.55582676080E+01 -0.26471763146E+02  0.16884064758E+02  0.31886050643E+02  0.00000000000E+00 0.  1.
         11    1    3    3    0    0  0.49389591107E+01 -0.92441593139E+01 -0.17438200090E+02  0.20345481591E+02  0.51100000000E-03 0. -1.
        -11    1    3    3    0    0 -0.96319820343E+00  0.18924813754E+02 -0.33861926738E+01  0.19249483824E+02  0.51100000000E-03 0.  1.
        -12    1    3    3    0    0 -0.95340285153E+01  0.16791108706E+02  0.39403280065E+01  0.19706983943E+02  0.00000000000E+00 0.  1.
</event>
<event>
 7    1  0.1184848E-011  0.5930193E+02  0.7816164E-02  0.1266605E+00
        -11   -1    0    0    0    0  0.00000000000E+00  0.00000000000E+00  0.45593999997E+02  0.45594000000E+02  0.51100000000E-03 0.  1.
         11   -1    0    0    0    0 -0.00000000000E+00 -0.00000000000E+00 -0.45593999997E+02  0.45594000000E+02  0.51100000000E-03 0. -1.
    9900012    2    1    2    0    0  0.78298716722E+01 -0.28151023193E+02 -0.12764574467E+02  0.59301931591E+02  0.49999977319E+02 0.  0.
        -12    1    1    2    0    0 -0.78298716722E+01  0.28151023193E+02  0.12764574467E+02  0.31886068409E+02  0.00000000000E+00 0.  1.
         11    1    3    3    0    0  0.18351882170E+02 -0.12666808435E+02 -0.74062895418E+01  0.23496653807E+02  0.51100000000E-03 0. -1.
        -11    1    3    3    0    0 -0.14810822608E+02 -0.18737423686E+02 -0.12424298245E+02  0.26922382879E+02  0.51100000000E-03 0.  1.
         12    1    3    3    0    0  0.42888121108E+01  0.32532089277E+01  0.70660133207E+01  0.88828949052E+01  0.00000000000E+00 0. -1.
</event>
<event>
 7    1  0.1184848E-011  0.5930187E+02  0.7816164E-02  0.1266605E+00
        -11   -1    0    0    0    0  0.00000000000E+00  0.00000000000E+00  0.45593999997E+02  0.45594000000E+02  0.51100000000E-03 0.  1.
         11   -1    0    0    0    0 -0.00000000000E+00 -0.00000000000E+00 -0.45593999997E+02  0.45594000000E+02  0.51100000000E-03 0. -1.
    9900012    2    1    2    0    0 -0.29359040978E+01  0.31735493942E+02 -0.98202195983E+00  0.59301867031E+02  0.49999859576E+02 0.  0.
        -12    1    1    2    0    0  0.29359040978E+01 -0.31735493942E+02  0.98202195983E+00  0.31886132969E+02  0.00000000000E+00 0.  1.
         11    1    3    3    0    0  0.10196996665E+02  0.63461442016E+01 -0.13402505507E+01  0.12085055193E+02  0.51100000000E-03 0. -1.
        -11    1    3    3    0    0 -0.70335997469E+01 -0.94868136111E+01  0.33312432447E-01  0.11809837758E+02  0.51100000000E-03 0.  1.
         12    1    3    3    0    0 -0.60993010157E+01  0.34876163351E+02  0.32491615846E+00  0.35406974080E+02  0.00000000000E+00 0. -1.
</event>
<event>
 7    1  0.1184848E-011  0.5930194E+02  0.7816164E-02  0.1266605E+00
        -11   -1    0    0    0    0  0.00000000000E+00  0.00000000000E+00  0.45593999997E+02  0.45594000000E+02  0.51100000000E-03 0.  1.
         11   -1    0    0    0    0 -0.00000000000E+00 -0.00000000000E+00 -0.45593999997E+02  0.45594000000E+02  0.51100000000E-03 0. -1.
    9900012    2    1    2    0    0  0.24758721445E+02 -0.11871831169E+02 -0.16210688465E+02  0.59301935906E+02  0.49999985187E+02 0.  0.
        -12    1    1    2    0    0 -0.24758721445E+02  0.11871831169E+02  0.16210688465E+02  0.31886064094E+02  0.00000000000E+00 0.  1.
         11    1    3    3    0    0  0.93137018603E+01 -0.22014497033E+01  0.87911933255E+01  0.12995249266E+02  0.51100000000E-03 0. -1.
        -11    1    3    3    0    0  0.11239515607E+02 -0.16210746421E+02  0.41154327121E+00  0.19730290894E+02  0.51100000000E-03 0.  1.
         12    1    3    3    0    0  0.42055039774E+01  0.65403649556E+01 -0.25413425062E+02  0.26576395746E+02  0.00000000000E+00 0. -1.
</event>
<event>
 7    1  0.1184848E-011  0.5930195E+02  0.7816164E-02  0.1266605E+00
        -11   -1    0    0    0    0  0.00000000000E+00  0.00000000000E+00  0.45593999997E+02  0.45594000000E+02  0.51100000000E-03 0.  1.
         11   -1    0    0    0    0 -0.00000000000E+00 -0.00000000000E+00 -0.45593999997E+02  0.45594000000E+02  0.51100000000E-03 0. -1.
    9900012    2    1    2    0    0 -0.28842496424E+02 -0.39782112489E+01  0.13000173413E+02  0.59301948607E+02  0.50000008351E+02 0.  0.
        -12    1    1    2    0    0  0.28842496424E+02  0.39782112489E+01 -0.13000173413E+02  0.31886051393E+02  0.00000000000E+00 0.  1.
         11    1    3    3    0    0 -0.35406467792E+02  0.92809574922E+01  0.14443552436E+02  0.39349337233E+02  0.51100000000E-03 0. -1.
        -11    1    3    3    0    0  0.23465314340E+01  0.18322395409E+01  0.23936127392E+01  0.38200384438E+01  0.51100000000E-03 0.  1.
        -12    1    3    3    0    0  0.42174399339E+01 -0.15091408282E+02 -0.38369917627E+01  0.16132572929E+02  0.00000000000E+00 0.  1.
</event>
<event>
 7    1  0.1184848E-011  0.5930197E+02  0.7816164E-02  0.1266605E+00
        -11   -1    0    0    0    0  0.00000000000E+00  0.00000000000E+00  0.45593999997E+02  0.45594000000E+02  0.51100000000E-03 0. -1.
         11   -1    0    0    0    0 -0.00000000000E+00 -0.00000000000E+00 -0.45593999997E+02  0.45594000000E+02  0.51100000000E-03 0.  1.
    9900012    2    1    2    0    0  0.30411841778E+02 -0.93981365387E+01 -0.18744660177E+01  0.59301973067E+02  0.50000052961E+02 0.  0.
        -12    1    1    2    0    0 -0.30411841778E+02  0.93981365387E+01  0.18744660177E+01  0.31886026933E+02  0.00000000000E+00 0.  1.
         11    1    3    3    0    0  0.18751117308E+02 -0.25524752681E+02 -0.97952745594E+00  0.31687172074E+02  0.51100000000E-03 0. -1.
        -11    1    3    3    0    0  0.15588388387E+02  0.59513596821E+01 -0.85563600171E+00  0.16707742152E+02  0.51100000000E-03 0.  1.
        -12    1    3    3    0    0 -0.39276639174E+01  0.10175256460E+02 -0.39302560068E-01  0.10907058842E+02  0.00000000000E+00 0.  1.
</event>
<event>
 7    1  0.1184848E-011  0.5930194E+02  0.7816164E-02  0.1266605E+00
        -11   -1    0    0    0    0  0.00000000000E+00  0.00000000000E+00  0.45593999997E+02  0.45594000000E+02  0.51100000000E-03 0.  1.
         11   -1    0    0    0    0 -0.00000000000E+00 -0.00000000000E+00 -0.45593999997E+02  0.45594000000E+02  0.51100000000E-03 0. -1.
    9900012    2    1    2    0    0 -0.67188406032E+00 -0.28012062919E+02 -0.15218210615E+02  0.59301936720E+02  0.49999986673E+02 0.  0.
        -12    1    1    2    0    0  0.67188406032E+00  0.28012062919E+02  0.15218210615E+02  0.31886063280E+02  0.00000000000E+00 0.  1.
         11    1    3    3    0    0  0.41697138878E+01 -0.38595266353E+02 -0.94469934152E+01  0.39952806956E+02  0.51100000000E-03 0. -1.
        -11    1    3    3    0    0 -0.42772387512E+01 -0.26570449663E+01 -0.28236720089E+01  0.57730220130E+01  0.51100000000E-03 0.  1.
        -12    1    3    3    0    0 -0.56435919688E+00  0.13240248401E+02 -0.29475451912E+01  0.13576107751E+02  0.00000000000E+00 0.  1.
</event>
<event>
 7    1  0.1184848E-011  0.5930196E+02  0.7816164E-02  0.1266605E+00
        -11   -1    0    0    0    0  0.00000000000E+00  0.00000000000E+00  0.45593999997E+02  0.45594000000E+02  0.51100000000E-03 0. -1.
         11   -1    0    0    0    0 -0.00000000000E+00 -0.00000000000E+00 -0.45593999997E+02  0.45594000000E+02  0.51100000000E-03 0.  1.
    9900012    2    1    2    0    0 -0.86668474620E+01 -0.12122024189E+02  0.28189748341E+02  0.59301958745E+02  0.50000026841E+02 0.  0.
        -12    1    1    2    0    0  0.86668474620E+01  0.12122024189E+02 -0.28189748341E+02  0.31886041255E+02  0.00000000000E+00 0.  1.
         11    1    3    3    0    0 -0.92692084796E+01  0.67857322936E+01  0.60796046904E+01  0.12997152844E+02  0.51100000000E-03 0.  1.
        -11    1    3    3    0    0  0.77674449780E+01  0.48122670305E+01  0.19317273504E+02  0.21369327817E+02  0.51100000000E-03 0. -1.
        -12    1    3    3    0    0 -0.71650839604E+01 -0.23720023513E+02  0.27928701467E+01  0.24935478084E+02  0.00000000000E+00 0.  1.
</event>
<event>
 7    1  0.1184848E-011  0.5930184E+02  0.7816164E-02  0.1266605E+00
        -11   -1    0    0    0    0  0.00000000000E+00  0.00000000000E+00  0.45593999997E+02  0.45594000000E+02  0.51100000000E-03 0.  1.
         11   -1    0    0    0    0 -0.00000000000E+00 -0.00000000000E+00 -0.45593999997E+02  0.45594000000E+02  0.51100000000E-03 0. -1.
    9900012    2    1    2    0    0 -0.23519217458E+02  0.15901398884E+02  0.14516159145E+02  0.59301843871E+02  0.49999817339E+02 0.  0.
        -12    1    1    2    0    0  0.23519217458E+02 -0.15901398884E+02 -0.14516159145E+02  0.31886156129E+02  0.00000000000E+00 0.  1.
         11    1    3    3    0    0 -0.14639769056E+01  0.17895152063E+01 -0.15292948640E+02  0.15466734349E+02  0.51100000000E-03 0. -1.
        -11    1    3    3    0    0 -0.33684962061E+01  0.66129119128E+01 -0.51008556975E+00  0.74389218444E+01  0.51100000000E-03 0.  1.
        -12    1    3    3    0    0 -0.18686744346E+02  0.74989717651E+01  0.30319193355E+02  0.36396187678E+02  0.00000000000E+00 0.  1.
</event>
<event>
 7    1  0.1263482E-011  0.5930188E+02  0.7816164E-02  0.1266605E+00
        -11   -1    0    0    0    0  0.00000000000E+00  0.00000000000E+00  0.45593999997E+02  0.45594000000E+02  0.51100000000E-03 0.  1.
         11   -1    0    0    0    0 -0.00000000000E+00 -0.00000000000E+00 -0.45593999997E+02  0.45594000000E+02  0.51100000000E-03 0. -1.
    9900012    2    1    2    0    0 -0.20632735966E+02  0.22146472892E+02  0.10027379391E+02  0.59301884017E+02  0.49999890556E+02 0.  0.
        -12    1    1    2    0    0  0.20632735966E+02 -0.22146472892E+02 -0.10027379391E+02  0.31886115983E+02  0.00000000000E+00 0.  1.
         11    1    3    3    0    0 -0.37595084559E+01  0.35797332351E+01 -0.84774328475E+01  0.99405865928E+01  0.51100000000E-03 0. -1.
        -11    1    3    3    0    0 -0.81788866415E+01 -0.11209049441E+02  0.14198254738E+01  0.13948221417E+02  0.51100000000E-03 0.  1.
         12    1    3    3    0    0 -0.86943408684E+01  0.29775789098E+02  0.17084986765E+02  0.35413076007E+02  0.00000000000E+00 0. -1.
</event>
<event>
 7    1  0.1184848E-011  0.5930196E+02  0.7816164E-02  0.1266605E+00
        -11   -1    0    0    0    0  0.00000000000E+00  0.00000000000E+00  0.45593999997E+02  0.45594000000E+02  0.51100000000E-03 0.  1.
         11   -1    0    0    0    0 -0.00000000000E+00 -0.00000000000E+00 -0.45593999997E+02  0.45594000000E+02  0.51100000000E-03 0. -1.
    9900012    2    1    2    0    0  0.21933015841E+02  0.19515130464E+02 -0.12442755485E+02  0.59301958149E+02  0.50000025753E+02 0.  0.
        -12    1    1    2    0    0 -0.21933015841E+02 -0.19515130464E+02  0.12442755485E+02  0.31886041851E+02  0.00000000000E+00 0.  1.
         11    1    3    3    0    0 -0.98216035579E+00 -0.27260270422E+01 -0.11888242468E+02  0.12236264611E+02  0.51100000000E-03 0. -1.
        -11    1    3    3    0    0 -0.35737750227E+01  0.13093385383E+02  0.10273891695E+02  0.17022381135E+02  0.51100000000E-03 0.  1.
        -12    1    3    3    0    0  0.26488951219E+02  0.91477721231E+01 -0.10828404712E+02  0.30043312402E+02  0.00000000000E+00 0.  1.
</event>
<event>
 7    1  0.1184848E-011  0.5930195E+02  0.7816164E-02  0.1266605E+00
        -11   -1    0    0    0    0  0.00000000000E+00  0.00000000000E+00  0.45593999997E+02  0.45594000000E+02  0.51100000000E-03 0. -1.
         11   -1    0    0    0    0 -0.00000000000E+00 -0.00000000000E+00 -0.45593999997E+02  0.45594000000E+02  0.51100000000E-03 0.  1.
    9900012    2    1    2    0    0  0.18750535659E+02 -0.15113900498E+02  0.20897552595E+02  0.59301948501E+02  0.50000008158E+02 0.  0.
        -12    1    1    2    0    0 -0.18750535659E+02  0.15113900498E+02 -0.20897552595E+02  0.31886051499E+02  0.00000000000E+00 0.  1.
         11    1    3    3    0    0 -0.31920760040E+01 -0.74839290061E+01  0.27278631962E+02  0.28466160693E+02  0.51100000000E-03 0. -1.
        -11    1    3    3    0    0 -0.32805962105E+01 -0.63101764427E+00 -0.29099871614E+01  0.44304085934E+01  0.51100000000E-03 0.  1.
        -12    1    3    3    0    0  0.25223207873E+02 -0.69989538474E+01 -0.34710922061E+01  0.26405379215E+02  0.00000000000E+00 0.  1.
</event>
<event>
 7    1  0.1184848E-011  0.5930194E+02  0.7816164E-02  0.1266605E+00
        -11   -1    0    0    0    0  0.00000000000E+00  0.00000000000E+00  0.45593999997E+02  0.45594000000E+02  0.51100000000E-03 0. -1.
         11   -1    0    0    0    0 -0.00000000000E+00 -0.00000000000E+00 -0.45593999997E+02  0.45594000000E+02  0.51100000000E-03 0.  1.
    9900012    2    1    2    0    0  0.36682937328E+01  0.15763969642E+02  0.27472924893E+02  0.59301941605E+02  0.49999995581E+02 0.  0.
        -12    1    1    2    0    0 -0.36682937328E+01 -0.15763969642E+02 -0.27472924893E+02  0.31886058395E+02  0.00000000000E+00 0.  1.
         11    1    3    3    0    0  0.17606870619E+01 -0.11453105427E+02  0.89472310254E+01  0.14639897067E+02  0.51100000000E-03 0.  1.
        -11    1    3    3    0    0  0.98011428361E+01 -0.20548449568E+01  0.70426762483E+01  0.12242715291E+02  0.51100000000E-03 0. -1.
        -12    1    3    3    0    0 -0.78935361652E+01  0.29271920026E+02  0.11483017619E+02  0.32419329247E+02  0.00000000000E+00 0.  1.
</event>
<event>
 7    1  0.1184848E-011  0.5930198E+02  0.7816164E-02  0.1266605E+00
        -11   -1    0    0    0    0  0.00000000000E+00  0.00000000000E+00  0.45593999997E+02  0.45594000000E+02  0.51100000000E-03 0. -1.
         11   -1    0    0    0    0 -0.00000000000E+00 -0.00000000000E+00 -0.45593999997E+02  0.45594000000E+02  0.51100000000E-03 0.  1.
    9900012    2    1    2    0    0  0.18749180508E+01 -0.15119808784E+02  0.28010613672E+02  0.59301977770E+02  0.50000061538E+02 0.  0.
        -12    1    1    2    0    0 -0.18749180508E+01  0.15119808784E+02 -0.28010613672E+02  0.31886022230E+02  0.00000000000E+00 0.  1.
         11    1    3    3    0    0 -0.15131754720E+01 -0.10909874506E+02  0.36097323958E+02  0.37740321394E+02  0.51100000000E-03 0. -1.
        -11    1    3    3    0    0 -0.44852214074E+01 -0.64210686138E+01  0.24656282160E+01  0.82113735743E+01  0.51100000000E-03 0.  1.
         12    1    3    3    0    0  0.78733149302E+01  0.22111343355E+01 -0.10552338501E+02  0.13350282802E+02  0.00000000000E+00 0. -1.
</event>
<event>
 7    1  0.1184848E-011  0.5930192E+02  0.7816164E-02  0.1266605E+00
        -11   -1    0    0    0    0  0.00000000000E+00  0.00000000000E+00  0.45593999997E+02  0.45594000000E+02  0.51100000000E-03 0.  1.
         11   -1    0    0    0    0 -0.00000000000E+00 -0.00000000000E+00 -0.45593999997E+02  0.45594000000E+02  0.51100000000E-03 0. -1.
    9900012    2    1    2    0    0 -0.24397950044E+02 -0.88084052439E+01 -0.18543847185E+02  0.59301917806E+02  0.49999952177E+02 0.  0.
        -12    1    1    2    0    0  0.24397950044E+02  0.88084052439E+01  0.18543847185E+02  0.31886082194E+02  0.00000000000E+00 0.  1.
         11    1    3    3    0    0 -0.45623972153E+01 -0.65463416582E+01  0.34938448421E+01  0.87107410418E+01  0.51100000000E-03 0. -1.
        -11    1    3    3    0    0 -0.57945034621E+01  0.16834362104E+02  0.60138517311E+00  0.17813862080E+02  0.51100000000E-03 0.  1.
         12    1    3    3    0    0 -0.14041049366E+02 -0.19096425689E+02 -0.22639077200E+02  0.32777314684E+02  0.00000000000E+00 0. -1.
</event>
<event>
 7    1  0.1184848E-011  0.5930193E+02  0.7816164E-02  0.1266605E+00
        -11   -1    0    0    0    0  0.00000000000E+00  0.00000000000E+00  0.45593999997E+02  0.45594000000E+02  0.51100000000E-03 0.  1.
         11   -1    0    0    0    0 -0.00000000000E+00 -0.00000000000E+00 -0.45593999997E+02  0.45594000000E+02  0.51100000000E-03 0. -1.
    9900012    2    1    2    0    0  0.19974796101E+02 -0.13355926007E+02 -0.20960628479E+02  0.59301934313E+02  0.49999982282E+02 0.  0.
        -12    1    1    2    0    0 -0.19974796101E+02  0.13355926007E+02  0.20960628479E+02  0.31886065687E+02  0.00000000000E+00 0.  1.
         11    1    3    3    0    0 -0.89775841243E+01 -0.47302839736E+01 -0.20115747435E+00  0.10149535347E+02  0.51100000000E-03 0. -1.
        -11    1    3    3    0    0  0.12949365541E+01 -0.43499194491E+01  0.78900560778E+01  0.91022879028E+01  0.51100000000E-03 0.  1.
         12    1    3    3    0    0  0.27657443671E+02 -0.42757225842E+01 -0.28649527083E+02  0.40050111062E+02  0.00000000000E+00 0. -1.
</event>
<event>
 7    1  0.1184848E-011  0.5930185E+02  0.7816164E-02  0.1266605E+00
        -11   -1    0    0    0    0  0.00000000000E+00  0.00000000000E+00  0.45593999997E+02  0.45594000000E+02  0.51100000000E-03 0.  1.
         11   -1    0    0    0    0 -0.00000000000E+00 -0.00000000000E+00 -0.45593999997E+02  0.45594000000E+02  0.51100000000E-03 0. -1.
    9900012    2    1    2    0    0 -0.25925587281E+02  0.29160115247E+01 -0.18332682160E+02  0.59301852000E+02  0.49999832164E+02 0.  0.
        -12    1    1    2    0    0  0.25925587281E+02 -0.29160115247E+01  0.18332682160E+02  0.31886148000E+02  0.00000000000E+00 0.  1.
         11    1    3    3    0    0 -0.10188416518E+02 -0.13251129470E+02 -0.15501111516E+02  0.22796506791E+02  0.51100000000E-03 0. -1.
        -11    1    3    3    0    0  0.37910484064E+01  0.18102152204E+01 -0.10315702489E+02  0.11138341226E+02  0.51100000000E-03 0.  1.
        -12    1    3    3    0    0 -0.19528219170E+02  0.14356925774E+02  0.74841318453E+01  0.25367003984E+02  0.00000000000E+00 0.  1.
</event>
<event>
 7    1  0.1184848E-011  0.5930195E+02  0.7816164E-02  0.1266605E+00
        -11   -1    0    0    0    0  0.00000000000E+00  0.00000000000E+00  0.45593999997E+02  0.45594000000E+02  0.51100000000E-03 0. -1.
         11   -1    0    0    0    0 -0.00000000000E+00 -0.00000000000E+00 -0.45593999997E+02  0.45594000000E+02  0.51100000000E-03 0.  1.
    9900012    2    1    2    0    0 -0.83772342594E+01  0.24214944306E+02  0.18978368397E+02  0.59301952133E+02  0.50000014782E+02 0.  0.
        -12    1    1    2    0    0  0.83772342594E+01 -0.24214944306E+02 -0.18978368397E+02  0.31886047867E+02  0.00000000000E+00 0.  1.
         11    1    3    3    0    0 -0.17137089266E+01  0.23257670003E+02  0.62359040777E+01  0.24140060318E+02  0.51100000000E-03 0. -1.
        -11    1    3    3    0    0 -0.12726161451E+02  0.11180464991E+02 -0.10284623279E+01  0.16971025830E+02  0.51100000000E-03 0.  1.
         12    1    3    3    0    0  0.60626361181E+01 -0.10223190688E+02  0.13770926647E+02  0.18190865985E+02  0.00000000000E+00 0. -1.
</event>
<event>
 7    1  0.1184848E-011  0.5930193E+02  0.7816164E-02  0.1266605E+00
        -11   -1    0    0    0    0  0.00000000000E+00  0.00000000000E+00  0.45593999997E+02  0.45594000000E+02  0.51100000000E-03 0.  1.
         11   -1    0    0    0    0 -0.00000000000E+00 -0.00000000000E+00 -0.45593999997E+02  0.45594000000E+02  0.51100000000E-03 0. -1.
    9900012    2    1    2    0    0  0.26977222646E+02 -0.16588961924E+02 -0.37090689806E+01  0.59301931066E+02  0.49999976360E+02 0.  0.
        -12    1    1    2    0    0 -0.26977222646E+02  0.16588961924E+02  0.37090689806E+01  0.31886068934E+02  0.00000000000E+00 0.  1.
         11    1    3    3    0    0  0.23794663825E+02 -0.18330417635E+02 -0.52464746809E+01  0.30491240284E+02  0.51100000000E-03 0. -1.
        -11    1    3    3    0    0 -0.95919792717E+01 -0.75981830818E+01 -0.24767708446E+01  0.12484904748E+02  0.51100000000E-03 0.  1.
        -12    1    3    3    0    0  0.12774538093E+02  0.93396387933E+01  0.40141765449E+01  0.16325786033E+02  0.00000000000E+00 0.  1.
</event>
<event>
 7    1  0.1184848E-011  0.5930189E+02  0.7816164E-02  0.1266605E+00
        -11   -1    0    0    0    0  0.00000000000E+00  0.00000000000E+00  0.45593999997E+02  0.45594000000E+02  0.51100000000E-03 0. -1.
         11   -1    0    0    0    0 -0.00000000000E+00 -0.00000000000E+00 -0.45593999997E+02  0.45594000000E+02  0.51100000000E-03 0.  1.
    9900012    2    1    2    0    0  0.41505708940E-01 -0.15436487739E+02  0.27900488070E+02  0.59301888431E+02  0.49999898605E+02 0.  0.
        -12    1    1    2    0    0 -0.41505708940E-01  0.15436487739E+02 -0.27900488070E+02  0.31886111569E+02  0.00000000000E+00 0.  1.
         11    1    3    3    0    0 -0.52977015657E+00 -0.67188736373E+01 -0.11387018357E+02  0.13232086257E+02  0.51100000000E-03 0.  1.
        -11    1    3    3    0    0 -0.92005503650E+01  0.53406856192E+00  0.87914299946E+01  0.12736742043E+02  0.51100000000E-03 0. -1.
         12    1    3    3    0    0  0.97718262305E+01 -0.92516826635E+01  0.30496076433E+02  0.33333060132E+02  0.00000000000E+00 0. -1.
</event>
<event>
 7    1  0.1184848E-011  0.5930195E+02  0.7816164E-02  0.1266605E+00
        -11   -1    0    0    0    0  0.00000000000E+00  0.00000000000E+00  0.45593999997E+02  0.45594000000E+02  0.51100000000E-03 0. -1.
         11   -1    0    0    0    0 -0.00000000000E+00 -0.00000000000E+00 -0.45593999997E+02  0.45594000000E+02  0.51100000000E-03 0.  1.
    9900012    2    1    2    0    0 -0.37058027237E+01 -0.86799958274E+00  0.31658073363E+02  0.59301952798E+02  0.50000015995E+02 0.  0.
        -12    1    1    2    0    0  0.37058027237E+01  0.86799958274E+00 -0.31658073363E+02  0.31886047202E+02  0.00000000000E+00 0.  1.
         11    1    3    3    0    0  0.97507280832E+01  0.14170809149E+02 -0.13770872620E+01  0.17256445163E+02  0.51100000000E-03 0. -1.
        -11    1    3    3    0    0 -0.22842807584E+01 -0.16984316053E+01 -0.16141536409E+01  0.32723234465E+01  0.51100000000E-03 0.  1.
        -12    1    3    3    0    0 -0.11172250048E+02 -0.13340377126E+02  0.34649314266E+02  0.38773184188E+02  0.00000000000E+00 0.  1.
</event>
<event>
 7    1  0.1184848E-011  0.5930196E+02  0.7816164E-02  0.1266605E+00
        -11   -1    0    0    0    0  0.00000000000E+00  0.00000000000E+00  0.45593999997E+02  0.45594000000E+02  0.51100000000E-03 0.  1.
         11   -1    0    0    0    0 -0.00000000000E+00 -0.00000000000E+00 -0.45593999997E+02  0.45594000000E+02  0.51100000000E-03 0. -1.
    9900012    2    1    2    0    0  0.10945683220E+02 -0.16488165599E+02 -0.25001045285E+02  0.59301955226E+02  0.50000020423E+02 0.  0.
        -12    1    1    2    0    0 -0.10945683220E+02  0.16488165599E+02  0.25001045285E+02  0.31886044774E+02  0.00000000000E+00 0.  1.
         11    1    3    3    0    0  0.85333692758E+01 -0.24383858521E+02 -0.75217168933E+01  0.26906638082E+02  0.51100000000E-03 0.  1.
        -11    1    3    3    0    0  0.12696145814E+02 -0.86550143222E+00 -0.12925514108E+02  0.18138636291E+02  0.51100000000E-03 0. -1.
         12    1    3    3    0    0 -0.10283831870E+02  0.87611943543E+01 -0.45538142835E+01  0.14256680854E+02  0.00000000000E+00 0. -1.
</event>
<event>
 7    1  0.1184848E-011  0.5930195E+02  0.7816164E-02  0.1266605E+00
        -11   -1    0    0    0    0  0.00000000000E+00  0.00000000000E+00  0.45593999997E+02  0.45594000000E+02  0.51100000000E-03 0. -1.
         11   -1    0    0    0    0 -0.00000000000E+00 -0.00000000000E+00 -0.45593999997E+02  0.45594000000E+02  0.51100000000E-03 0.  1.
    9900012    2    1    2    0    0  0.20173958843E+02 -0.16075842398E+02  0.18742965372E+02  0.59301951716E+02  0.50000014022E+02 0.  0.
        -12    1    1    2    0    0 -0.20173958843E+02  0.16075842398E+02 -0.18742965372E+02  0.31886048284E+02  0.00000000000E+00 0.  1.
         11    1    3    3    0    0  0.10926990571E+02 -0.93482517060E+01  0.29836801453E+02  0.33121347407E+02  0.51100000000E-03 0. -1.
        -11    1    3    3    0    0 -0.22143550275E+01  0.53920722685E+01  0.52427361522E+00  0.58525784592E+01  0.51100000000E-03 0.  1.
        -12    1    3    3    0    0  0.11461323300E+02 -0.12119662960E+02 -0.11618109696E+02  0.20328025850E+02  0.00000000000E+00 0.  1.
</event>
<event>
 7    1  0.1184848E-011  0.5930190E+02  0.7816164E-02  0.1266605E+00
        -11   -1    0    0    0    0  0.00000000000E+00  0.00000000000E+00  0.45593999997E+02  0.45594000000E+02  0.51100000000E-03 0.  1.
         11   -1    0    0    0    0 -0.00000000000E+00 -0.00000000000E+00 -0.45593999997E+02  0.45594000000E+02  0.51100000000E-03 0. -1.
    9900012    2    1    2    0    0 -0.24309336767E+02  0.38364490970E+01 -0.20274636194E+02  0.59301904778E+02  0.49999928418E+02 0.  0.
        -12    1    1    2    0    0  0.24309336767E+02 -0.38364490970E+01  0.20274636194E+02  0.31886095222E+02  0.00000000000E+00 0.  1.
         11    1    3    3    0    0 -0.11660351370E+02  0.13953773461E+02  0.15872896045E+01  0.18253522302E+02  0.51100000000E-03 0. -1.
        -11    1    3    3    0    0 -0.13943151876E+02  0.79085014878E+01 -0.14215391247E+02  0.21425060760E+02  0.51100000000E-03 0.  1.
        -12    1    3    3    0    0  0.12941664790E+01 -0.18025825852E+02 -0.76465345517E+01  0.19623321716E+02  0.00000000000E+00 0.  1.
</event>
<event>
 7    1  0.1184848E-011  0.5930194E+02  0.7816164E-02  0.1266605E+00
        -11   -1    0    0    0    0  0.00000000000E+00  0.00000000000E+00  0.45593999997E+02  0.45594000000E+02  0.51100000000E-03 0.  1.
         11   -1    0    0    0    0 -0.00000000000E+00 -0.00000000000E+00 -0.45593999997E+02  0.45594000000E+02  0.51100000000E-03 0. -1.
    9900012    2    1    2    0    0  0.21731643219E+02  0.14859974903E+02 -0.17989936142E+02  0.59301937630E+02  0.49999988331E+02 0.  0.
        -12    1    1    2    0    0 -0.21731643219E+02 -0.14859974903E+02  0.17989936142E+02  0.31886062370E+02  0.00000000000E+00 0.  1.
         11    1    3    3    0    0  0.36144646422E+01 -0.29251967589E+01 -0.13464880443E+02  0.14245144308E+02  0.51100000000E-03 0. -1.
        -11    1    3    3    0    0  0.30368445005E+01 -0.10822138098E+02  0.34340049204E+01  0.11753020360E+02  0.51100000000E-03 0.  1.
         12    1    3    3    0    0  0.15080334076E+02  0.28607309760E+02 -0.79590606194E+01  0.33303772962E+02  0.00000000000E+00 0. -1.
</event>
<event>
 7    1  0.1184848E-011  0.5930194E+02  0.7816164E-02  0.1266605E+00
        -11   -1    0    0    0    0  0.00000000000E+00  0.00000000000E+00  0.45593999997E+02  0.45594000000E+02  0.51100000000E-03 0. -1.
         11   -1    0    0    0    0 -0.00000000000E+00 -0.00000000000E+00 -0.45593999997E+02  0.45594000000E+02  0.51100000000E-03 0.  1.
    9900012    2    1    2    0    0 -0.12448148205E+02  0.15836714269E+02  0.24717667794E+02  0.59301936998E+02  0.49999987180E+02 0.  0.
        -12    1    1    2    0    0  0.12448148205E+02 -0.15836714269E+02 -0.24717667794E+02  0.31886063002E+02  0.00000000000E+00 0.  1.
         11    1    3    3    0    0 -0.11237384410E+02  0.14059915786E+02  0.20817017316E+02  0.27519234191E+02  0.51100000000E-03 0. -1.
        -11    1    3    3    0    0 -0.79579271540E+01  0.14626917718E+02  0.45251296485E+01  0.17255495505E+02  0.51100000000E-03 0.  1.
         12    1    3    3    0    0  0.67471633589E+01 -0.12850119236E+02 -0.62447917032E+00  0.14527207302E+02  0.00000000000E+00 0. -1.
</event>
<event>
 7    1  0.1184848E-011  0.5930195E+02  0.7816164E-02  0.1266605E+00
        -11   -1    0    0    0    0  0.00000000000E+00  0.00000000000E+00  0.45593999997E+02  0.45594000000E+02  0.51100000000E-03 0.  1.
         11   -1    0    0    0    0 -0.00000000000E+00 -0.00000000000E+00 -0.45593999997E+02  0.45594000000E+02  0.51100000000E-03 0. -1.
    9900012    2    1    2    0    0 -0.13682020461E+02  0.17067036617E+02 -0.23199975275E+02  0.59301948574E+02  0.50000008292E+02 0.  0.
        -12    1    1    2    0    0  0.13682020461E+02 -0.17067036617E+02  0.23199975275E+02  0.31886051426E+02  0.00000000000E+00 0.  1.
         11    1    3    3    0    0 -0.78093751522E+01 -0.68256511757E+01 -0.14363180081E+02  0.17716568419E+02  0.51100000000E-03 0. -1.
        -11    1    3    3    0    0 -0.15713033573E+02  0.24538900314E+02 -0.11570714237E+02  0.31351849721E+02  0.51100000000E-03 0.  1.
         12    1    3    3    0    0  0.98403882647E+01 -0.64621252074E+00  0.27339190433E+01  0.10233530435E+02  0.00000000000E+00 0. -1.
</event>
<event>
 7    1  0.1184848E-011  0.5930195E+02  0.7816164E-02  0.1266605E+00
        -11   -1    0    0    0    0  0.00000000000E+00  0.00000000000E+00  0.45593999997E+02  0.45594000000E+02  0.51100000000E-03 0. -1.
         11   -1    0    0    0    0 -0.00000000000E+00 -0.00000000000E+00 -0.45593999997E+02  0.45594000000E+02  0.51100000000E-03 0.  1.
    9900012    2    1    2    0    0 -0.13284453686E+02  0.17685315749E+02  0.22966782139E+02  0.59301949999E+02  0.50000010890E+02 0.  0.
        -12    1    1    2    0    0  0.13284453686E+02 -0.17685315749E+02 -0.22966782139E+02  0.31886050001E+02  0.00000000000E+00 0.  1.
         11    1    3    3    0    0 -0.24887264365E+01  0.66693534473E+01 -0.26834929019E+01  0.76075731411E+01  0.51100000000E-03 0. -1.
        -11    1    3    3    0    0 -0.70747515947E+01  0.12474288498E+02 -0.89234232092E+01  0.16890454869E+02  0.51100000000E-03 0.  1.
         12    1    3    3    0    0 -0.37209756552E+01 -0.14583261968E+01  0.34573698250E+02  0.34803921989E+02  0.00000000000E+00 0. -1.
</event>
<event>
 7    1  0.1184848E-011  0.5930196E+02  0.7816164E-02  0.1266605E+00
        -11   -1    0    0    0    0  0.00000000000E+00  0.00000000000E+00  0.45593999997E+02  0.45594000000E+02  0.51100000000E-03 0. -1.
         11   -1    0    0    0    0 -0.00000000000E+00 -0.00000000000E+00 -0.45593999997E+02  0.45594000000E+02  0.51100000000E-03 0.  1.
    9900012    2    1    2    0    0 -0.14936604168E+02  0.28124476706E+02  0.16221667981E+01  0.59301956671E+02  0.50000023058E+02 0.  0.
        -12    1    1    2    0    0  0.14936604168E+02 -0.28124476706E+02 -0.16221667981E+01  0.31886043329E+02  0.00000000000E+00 0.  1.
         11    1    3    3    0    0 -0.64931657025E+01 -0.15702325375E+01 -0.12534772609E+01  0.67969137530E+01  0.51100000000E-03 0. -1.
        -11    1    3    3    0    0 -0.15557815927E+02  0.25430778977E+02 -0.14574400561E+02  0.33184082144E+02  0.51100000000E-03 0.  1.
         12    1    3    3    0    0  0.71143774616E+01  0.42639302668E+01  0.17450044620E+02  0.19320960774E+02  0.00000000000E+00 0. -1.
</event>
<event>
 7    1  0.1184848E-011  0.5930193E+02  0.7816164E-02  0.1266605E+00
        -11   -1    0    0    0    0  0.00000000000E+00  0.00000000000E+00  0.45593999997E+02  0.45594000000E+02  0.51100000000E-03 0.  1.
         11   -1    0    0    0    0 -0.00000000000E+00 -0.00000000000E+00 -0.45593999997E+02  0.45594000000E+02  0.51100000000E-03 0. -1.
    9900012    2    1    2    0    0 -0.17082046556E+02  0.22994140368E+02 -0.14006959909E+02  0.59301925740E+02  0.49999966648E+02 0.  0.
        -12    1    1    2    0    0  0.17082046556E+02 -0.22994140368E+02  0.14006959909E+02  0.31886074260E+02  0.00000000000E+00 0.  1.
         11    1    3    3    0    0 -0.49374561267E+01  0.13792477203E+02 -0.15273317419E+02  0.21163296663E+02  0.51100000000E-03 0. -1.
        -11    1    3    3    0    0 -0.21432500687E+02 -0.38102619585E+01  0.33209327773E+01  0.22020417268E+02  0.51100000000E-03 0.  1.
         12    1    3    3    0    0  0.92879102583E+01  0.13011925124E+02 -0.20545752674E+01  0.16118211809E+02  0.00000000000E+00 0. -1.
</event>
<event>
 7    1  0.1184848E-011  0.5930195E+02  0.7816164E-02  0.1266605E+00
        -11   -1    0    0    0    0  0.00000000000E+00  0.00000000000E+00  0.45593999997E+02  0.45594000000E+02  0.51100000000E-03 0.  1.
         11   -1    0    0    0    0 -0.00000000000E+00 -0.00000000000E+00 -0.45593999997E+02  0.45594000000E+02  0.51100000000E-03 0. -1.
    9900012    2    1    2    0    0  0.68121655414E+01 -0.25671881962E+02  0.17642811569E+02  0.59301954104E+02  0.50000018376E+02 0.  0.
        -12    1    1    2    0    0 -0.68121655414E+01  0.25671881962E+02 -0.17642811569E+02  0.31886045896E+02  0.00000000000E+00 0.  1.
         11    1    3    3    0    0 -0.35913675169E+00 -0.67335643860E+01 -0.85801380556E+01  0.10912774068E+02  0.51100000000E-03 0. -1.
        -11    1    3    3    0    0 -0.77170398351E+01  0.71233551545E+01  0.86721800343E+01  0.13619897183E+02  0.51100000000E-03 0.  1.
        -12    1    3    3    0    0  0.14888342128E+02 -0.26061672730E+02  0.17550769591E+02  0.34769282852E+02  0.00000000000E+00 0.  1.
</event>
<event>
 7    1  0.1184848E-011  0.5930171E+02  0.7816164E-02  0.1266606E+00
        -11   -1    0    0    0    0  0.00000000000E+00  0.00000000000E+00  0.45593999997E+02  0.45594000000E+02  0.51100000000E-03 0. -1.
         11   -1    0    0    0    0 -0.00000000000E+00 -0.00000000000E+00 -0.45593999997E+02  0.45594000000E+02  0.51100000000E-03 0.  1.
    9900012    2    1    2    0    0 -0.28613924881E+02 -0.12250420752E+02  0.69214363724E+01  0.59301705340E+02  0.49999564688E+02 0.  0.
        -12    1    1    2    0    0  0.28613924881E+02  0.12250420752E+02 -0.69214363724E+01  0.31886294660E+02  0.00000000000E+00 0.  1.
         11    1    3    3    0    0  0.33786799220E+01  0.49800885350E+01 -0.34428206802E+01  0.69332369301E+01  0.51100000000E-03 0. -1.
        -11    1    3    3    0    0  0.63215352766E+01 -0.55361035815E+01 -0.46311872545E+01  0.95946936776E+01  0.51100000000E-03 0.  1.
         12    1    3    3    0    0 -0.38314140080E+02 -0.11694405706E+02  0.14995444307E+02  0.42773774732E+02  0.00000000000E+00 0. -1.
</event>
<event>
 7    1  0.1184848E-011  0.5930198E+02  0.7816164E-02  0.1266605E+00
        -11   -1    0    0    0    0  0.00000000000E+00  0.00000000000E+00  0.45593999997E+02  0.45594000000E+02  0.51100000000E-03 0. -1.
         11   -1    0    0    0    0 -0.00000000000E+00 -0.00000000000E+00 -0.45593999997E+02  0.45594000000E+02  0.51100000000E-03 0.  1.
    9900012    2    1    2    0    0  0.26203459830E+02 -0.27020255156E+01  0.17966523720E+02  0.59301980751E+02  0.50000066974E+02 0.  0.
        -12    1    1    2    0    0 -0.26203459830E+02  0.27020255156E+01 -0.17966523720E+02  0.31886019249E+02  0.00000000000E+00 0.  1.
         11    1    3    3    0    0  0.11428473843E+02 -0.65106824064E+01  0.89692409923E+01  0.15919996357E+02  0.51100000000E-03 0. -1.
        -11    1    3    3    0    0 -0.20466766499E+01 -0.91021241078E+01  0.18055375376E+02  0.20323241100E+02  0.51100000000E-03 0.  1.
        -12    1    3    3    0    0  0.16821662637E+02  0.12910780999E+02 -0.90580926473E+01  0.23058743294E+02  0.00000000000E+00 0.  1.
</event>
<event>
 7    1  0.1184848E-011  0.5930191E+02  0.7816164E-02  0.1266605E+00
        -11   -1    0    0    0    0  0.00000000000E+00  0.00000000000E+00  0.45593999997E+02  0.45594000000E+02  0.51100000000E-03 0. -1.
         11   -1    0    0    0    0 -0.00000000000E+00 -0.00000000000E+00 -0.45593999997E+02  0.45594000000E+02  0.51100000000E-03 0.  1.
    9900012    2    1    2    0    0  0.11738408597E+02 -0.36002739505E+01  0.29427381871E+02  0.59301905653E+02  0.49999930014E+02 0.  0.
        -12    1    1    2    0    0 -0.11738408597E+02  0.36002739505E+01 -0.29427381871E+02  0.31886094347E+02  0.00000000000E+00 0.  1.
         11    1    3    3    0    0 -0.53206626512E+01  0.29359346816E+01  0.11028159350E+02  0.12591642562E+02  0.51100000000E-03 0. -1.
        -11    1    3    3    0    0 -0.98770763743E+01  0.60063328836E+01  0.11289945483E+02  0.16158451092E+02  0.51100000000E-03 0.  1.
        -12    1    3    3    0    0  0.26936147623E+02 -0.12542541516E+02  0.71092770382E+01  0.30551811999E+02  0.00000000000E+00 0.  1.
</event>
<event>
 7    1  0.1184848E-011  0.5930198E+02  0.7816164E-02  0.1266605E+00
        -11   -1    0    0    0    0  0.00000000000E+00  0.00000000000E+00  0.45593999997E+02  0.45594000000E+02  0.51100000000E-03 0.  1.
         11   -1    0    0    0    0 -0.00000000000E+00 -0.00000000000E+00 -0.45593999997E+02  0.45594000000E+02  0.51100000000E-03 0. -1.
    9900012    2    1    2    0    0  0.25818233977E+02 -0.18438608377E+02  0.31866653200E+01  0.59301979232E+02  0.50000064203E+02 0.  0.
        -12    1    1    2    0    0 -0.25818233977E+02  0.18438608377E+02 -0.31866653200E+01  0.31886020768E+02  0.00000000000E+00 0.  1.
         11    1    3    3    0    0  0.15088229814E+02 -0.10891481705E+02 -0.69655324474E+01  0.19869516732E+02  0.51100000000E-03 0. -1.
        -11    1    3    3    0    0 -0.35576965489E+01  0.84047545042E+01 -0.73950101535E+01  0.11746628386E+02  0.51100000000E-03 0.  1.
        -12    1    3    3    0    0  0.14287700712E+02 -0.15951881177E+02  0.17547207921E+02  0.27685834113E+02  0.00000000000E+00 0.  1.
</event>
<event>
 7    1  0.1184848E-011  0.5930165E+02  0.7816164E-02  0.1266606E+00
        -11   -1    0    0    0    0  0.00000000000E+00  0.00000000000E+00  0.45593999997E+02  0.45594000000E+02  0.51100000000E-03 0.  1.
         11   -1    0    0    0    0 -0.00000000000E+00 -0.00000000000E+00 -0.45593999997E+02  0.45594000000E+02  0.51100000000E-03 0. -1.
    9900012    2    1    2    0    0 -0.22361577271E+02 -0.23836669343E+01  0.22605691165E+02  0.59301650583E+02  0.49999464824E+02 0.  0.
        -12    1    1    2    0    0  0.22361577271E+02  0.23836669343E+01 -0.22605691165E+02  0.31886349417E+02  0.00000000000E+00 0.  1.
         11    1    3    3    0    0 -0.60869564946E+00 -0.57781273771E+01 -0.48192586643E+00  0.58300531028E+01  0.51100000000E-03 0. -1.
        -11    1    3    3    0    0 -0.28249886900E+02  0.59774657288E+01  0.31367554883E+02  0.42634606905E+02  0.51100000000E-03 0.  1.
         12    1    3    3    0    0  0.64970052782E+01 -0.25830052860E+01 -0.82799378513E+01  0.10836990575E+02  0.00000000000E+00 0. -1.
</event>
<event>
 7    1  0.1184848E-011  0.5930194E+02  0.7816164E-02  0.1266605E+00
        -11   -1    0    0    0    0  0.00000000000E+00  0.00000000000E+00  0.45593999997E+02  0.45594000000E+02  0.51100000000E-03 0.  1.
         11   -1    0    0    0    0 -0.00000000000E+00 -0.00000000000E+00 -0.45593999997E+02  0.45594000000E+02  0.51100000000E-03 0. -1.
    9900012    2    1    2    0    0  0.41547960487E+01 -0.17696186175E+02 -0.26197389989E+02  0.59301943838E+02  0.49999999654E+02 0.  0.
        -12    1    1    2    0    0 -0.41547960487E+01  0.17696186175E+02  0.26197389989E+02  0.31886056162E+02  0.00000000000E+00 0.  1.
         11    1    3    3    0    0  0.48745064684E+01 -0.27950456752E+02 -0.26862341008E+02  0.39071398883E+02  0.51100000000E-03 0. -1.
        -11    1    3    3    0    0 -0.57680606962E+00  0.34277005648E+01 -0.82784558112E+01  0.89785671063E+01  0.51100000000E-03 0.  1.
        -12    1    3    3    0    0 -0.14290435002E+00  0.68265700119E+01  0.89434068304E+01  0.11251977849E+02  0.00000000000E+00 0.  1.
</event>
<event>
 7    1  0.1184848E-011  0.5930195E+02  0.7816164E-02  0.1266605E+00
        -11   -1    0    0    0    0  0.00000000000E+00  0.00000000000E+00  0.45593999997E+02  0.45594000000E+02  0.51100000000E-03 0.  1.
         11   -1    0    0    0    0 -0.00000000000E+00 -0.00000000000E+00 -0.45593999997E+02  0.45594000000E+02  0.51100000000E-03 0. -1.
    9900012    2    1    2    0    0  0.29286685977E+02 -0.12596918437E+02  0.57263150583E+00  0.59301949187E+02  0.50000009409E+02 0.  0.
        -12    1    1    2    0    0 -0.29286685977E+02  0.12596918437E+02 -0.57263150583E+00  0.31886050813E+02  0.00000000000E+00 0.  1.
         11    1    3    3    0    0  0.10743826201E+02  0.38677250598E+01 -0.91256369583E+01  0.14617330424E+02  0.51100000000E-03 0. -1.
        -11    1    3    3    0    0  0.13211898104E+02  0.97977576906E+01  0.87585282357E+00  0.16471715931E+02  0.51100000000E-03 0.  1.
        -12    1    3    3    0    0  0.53309616718E+01 -0.26262401187E+02  0.88224156405E+01  0.28212902832E+02  0.00000000000E+00 0.  1.
</event>
<event>
 7    1  0.1184848E-011  0.5930194E+02  0.7816164E-02  0.1266605E+00
        -11   -1    0    0    0    0  0.00000000000E+00  0.00000000000E+00  0.45593999997E+02  0.45594000000E+02  0.51100000000E-03 0. -1.
         11   -1    0    0    0    0 -0.00000000000E+00 -0.00000000000E+00 -0.45593999997E+02  0.45594000000E+02  0.51100000000E-03 0.  1.
    9900012    2    1    2    0    0 -0.12275945753E+02  0.15649067514E+02  0.24922458650E+02  0.59301935593E+02  0.49999984618E+02 0.  0.
        -12    1    1    2    0    0  0.12275945753E+02 -0.15649067514E+02 -0.24922458650E+02  0.31886064407E+02  0.00000000000E+00 0.  1.
         11    1    3    3    0    0 -0.16558262109E+02  0.13962960547E+02  0.33820060561E+02  0.40161384537E+02  0.51100000000E-03 0. -1.
        -11    1    3    3    0    0 -0.50438600866E+01  0.43926527412E+01 -0.13070851041E+01  0.68150124291E+01  0.51100000000E-03 0.  1.
        -12    1    3    3    0    0  0.93261764426E+01 -0.27065457748E+01 -0.75905168066E+01  0.12325538628E+02  0.00000000000E+00 0.  1.
</event>
<event>
 7    1  0.1184848E-011  0.5930192E+02  0.7816164E-02  0.1266605E+00
        -11   -1    0    0    0    0  0.00000000000E+00  0.00000000000E+00  0.45593999997E+02  0.45594000000E+02  0.51100000000E-03 0. -1.
         11   -1    0    0    0    0 -0.00000000000E+00 -0.00000000000E+00 -0.45593999997E+02  0.45594000000E+02  0.51100000000E-03 0.  1.
    9900012    2    1    2    0    0 -0.81043683532E+01 -0.24155050006E+02  0.19172245198E+02  0.59301918191E+02  0.49999952880E+02 0.  0.
        -12    1    1    2    0    0  0.81043683532E+01  0.24155050006E+02 -0.19172245198E+02  0.31886081809E+02  0.00000000000E+00 0.  1.
         11    1    3    3    0    0 -0.10068576916E+02  0.48390709286E+00  0.24484145245E+02  0.26477986627E+02  0.51100000000E-03 0. -1.
        -11    1    3    3    0    0 -0.79263652880E+01 -0.77589045723E+01  0.31166550787E+01  0.11521345667E+02  0.51100000000E-03 0.  1.
        -12    1    3    3    0    0  0.98905738503E+01 -0.16880052526E+02 -0.84285551257E+01  0.21302585897E+02  0.00000000000E+00 0.  1.
</event>
<event>
 7    1  0.1184848E-011  0.5930196E+02  0.7816164E-02  0.1266605E+00
        -11   -1    0    0    0    0  0.00000000000E+00  0.00000000000E+00  0.45593999997E+02  0.45594000000E+02  0.51100000000E-03 0.  1.
         11   -1    0    0    0    0 -0.00000000000E+00 -0.00000000000E+00 -0.45593999997E+02  0.45594000000E+02  0.51100000000E-03 0. -1.
    9900012    2    1    2    0    0  0.79914315167E+00  0.87131936402E+01 -0.30662050243E+02  0.59301957626E+02  0.50000024800E+02 0.  0.
        -12    1    1    2    0    0 -0.79914315167E+00 -0.87131936402E+01  0.30662050243E+02  0.31886042374E+02  0.00000000000E+00 0.  1.
         11    1    3    3    0    0  0.12359879448E+02 -0.18416844115E+01  0.48074162773E+01  0.13389162519E+02  0.51100000000E-03 0. -1.
        -11    1    3    3    0    0 -0.12451879287E+02  0.87969716005E+01 -0.60103276648E+01  0.16387801745E+02  0.51100000000E-03 0.  1.
         12    1    3    3    0    0  0.89114299033E+00  0.17579064511E+01 -0.29459138855E+02  0.29524993362E+02  0.00000000000E+00 0. -1.
</event>
<event>
 7    1  0.1184848E-011  0.5930194E+02  0.7816164E-02  0.1266605E+00
        -11   -1    0    0    0    0  0.00000000000E+00  0.00000000000E+00  0.45593999997E+02  0.45594000000E+02  0.51100000000E-03 0.  1.
         11   -1    0    0    0    0 -0.00000000000E+00 -0.00000000000E+00 -0.45593999997E+02  0.45594000000E+02  0.51100000000E-03 0. -1.
    9900012    2    1    2    0    0  0.51226979903E+01  0.30494232588E+02 -0.77833439771E+01  0.59301941929E+02  0.49999996173E+02 0.  0.
        -12    1    1    2    0    0 -0.51226979903E+01 -0.30494232588E+02  0.77833439771E+01  0.31886058071E+02  0.00000000000E+00 0.  1.
         11    1    3    3    0    0  0.74146613703E+01 -0.46505685970E+01 -0.18421581780E+01  0.89441902107E+01  0.51100000000E-03 0. -1.
        -11    1    3    3    0    0 -0.21209049370E+01 -0.28718046376E+01  0.88668744990E+01  0.95586067641E+01  0.51100000000E-03 0.  1.
         12    1    3    3    0    0 -0.17105844302E+00  0.38016605822E+02 -0.14808060298E+02  0.40799144955E+02  0.00000000000E+00 0. -1.
</event>
<event>
 7    1  0.1184848E-011  0.5930192E+02  0.7816164E-02  0.1266605E+00
        -11   -1    0    0    0    0  0.00000000000E+00  0.00000000000E+00  0.45593999997E+02  0.45594000000E+02  0.51100000000E-03 0.  1.
         11   -1    0    0    0    0 -0.00000000000E+00 -0.00000000000E+00 -0.45593999997E+02  0.45594000000E+02  0.51100000000E-03 0. -1.
    9900012    2    1    2    0    0 -0.21602448305E+02  0.11333620327E+02 -0.20533025252E+02  0.59301923909E+02  0.49999963308E+02 0.  0.
        -12    1    1    2    0    0  0.21602448305E+02 -0.11333620327E+02  0.20533025252E+02  0.31886076091E+02  0.00000000000E+00 0.  1.
         11    1    3    3    0    0 -0.66458994678E+01  0.14631701501E+01 -0.78515074409E+01  0.10390140325E+02  0.51100000000E-03 0. -1.
        -11    1    3    3    0    0  0.50091091743E+01  0.22301092071E+02 -0.15996680237E+01  0.22912634513E+02  0.51100000000E-03 0.  1.
         12    1    3    3    0    0 -0.19965658012E+02 -0.12430641894E+02 -0.11081849787E+02  0.25999149071E+02  0.00000000000E+00 0. -1.
</event>
<event>
 7    1  0.1184848E-011  0.5930194E+02  0.7816164E-02  0.1266605E+00
        -11   -1    0    0    0    0  0.00000000000E+00  0.00000000000E+00  0.45593999997E+02  0.45594000000E+02  0.51100000000E-03 0.  1.
         11   -1    0    0    0    0 -0.00000000000E+00 -0.00000000000E+00 -0.45593999997E+02  0.45594000000E+02  0.51100000000E-03 0. -1.
    9900012    2    1    2    0    0  0.30488060440E+02 -0.84640709385E+01 -0.39444279378E+01  0.59301939754E+02  0.49999992206E+02 0.  0.
        -12    1    1    2    0    0 -0.30488060440E+02  0.84640709385E+01  0.39444279378E+01  0.31886060246E+02  0.00000000000E+00 0.  1.
         11    1    3    3    0    0  0.10447474821E+02  0.10538694515E+02 -0.85662168940E+01  0.17134581535E+02  0.51100000000E-03 0. -1.
        -11    1    3    3    0    0  0.27649428543E+02 -0.14615757018E+02 -0.17388843164E+01  0.31323074097E+02  0.51100000000E-03 0.  1.
        -12    1    3    3    0    0 -0.76088429237E+01 -0.43870084355E+01  0.63606732726E+01  0.10844284123E+02  0.00000000000E+00 0.  1.
</event>
<event>
 7    1  0.1184848E-011  0.5930200E+02  0.7816164E-02  0.1266605E+00
        -11   -1    0    0    0    0  0.00000000000E+00  0.00000000000E+00  0.45593999997E+02  0.45594000000E+02  0.51100000000E-03 0.  1.
         11   -1    0    0    0    0 -0.00000000000E+00 -0.00000000000E+00 -0.45593999997E+02  0.45594000000E+02  0.51100000000E-03 0. -1.
    9900012    2    1    2    0    0 -0.17374010330E+02  0.89609918975E+01 -0.25190502032E+02  0.59301999884E+02  0.50000101869E+02 0.  0.
        -12    1    1    2    0    0  0.17374010330E+02 -0.89609918975E+01  0.25190502032E+02  0.31886000116E+02  0.00000000000E+00 0.  1.
         11    1    3    3    0    0 -0.60122209629E+01 -0.66252100843E+01 -0.37286257560E+01  0.96924124890E+01  0.51100000000E-03 0. -1.
        -11    1    3    3    0    0  0.13039710524E+02  0.99505208105E+00  0.13649566456E+01  0.13148661000E+02  0.51100000000E-03 0.  1.
         12    1    3    3    0    0 -0.24401499891E+02  0.14591149901E+02 -0.22826832922E+02  0.36460926395E+02  0.00000000000E+00 0. -1.
</event>
<event>
 7    1  0.1184848E-011  0.5930198E+02  0.7816164E-02  0.1266605E+00
        -11   -1    0    0    0    0  0.00000000000E+00  0.00000000000E+00  0.45593999997E+02  0.45594000000E+02  0.51100000000E-03 0. -1.
         11   -1    0    0    0    0 -0.00000000000E+00 -0.00000000000E+00 -0.45593999997E+02  0.45594000000E+02  0.51100000000E-03 0.  1.
    9900012    2    1    2    0    0 -0.27465078352E+02 -0.14007054567E+02  0.81357430578E+01  0.59301977645E+02  0.50000061310E+02 0.  0.
        -12    1    1    2    0    0  0.27465078352E+02  0.14007054567E+02 -0.81357430578E+01  0.31886022355E+02  0.00000000000E+00 0.  1.
         11    1    3    3    0    0 -0.22218000124E+02  0.26461779281E+00  0.57224533266E+01  0.22944629533E+02  0.51100000000E-03 0. -1.
        -11    1    3    3    0    0 -0.16045936640E+02 -0.16849602339E+02 -0.38899418393E+01  0.23590524144E+02  0.51100000000E-03 0.  1.
        -12    1    3    3    0    0  0.10798858412E+02  0.25779299788E+01  0.63032315705E+01  0.12766823967E+02  0.00000000000E+00 0.  1.
</event>
<event>
 7    1  0.1184848E-011  0.5930196E+02  0.7816164E-02  0.1266605E+00
        -11   -1    0    0    0    0  0.00000000000E+00  0.00000000000E+00  0.45593999997E+02  0.45594000000E+02  0.51100000000E-03 0. -1.
         11   -1    0    0    0    0 -0.00000000000E+00 -0.00000000000E+00 -0.45593999997E+02  0.45594000000E+02  0.51100000000E-03 0.  1.
    9900012    2    1    2    0    0 -0.53077122578E+01 -0.21241121051E+02  0.23181081618E+02  0.59301959513E+02  0.50000028242E+02 0.  0.
        -12    1    1    2    0    0  0.53077122578E+01  0.21241121051E+02 -0.23181081618E+02  0.31886040487E+02  0.00000000000E+00 0.  1.
         11    1    3    3    0    0  0.93518255919E+01 -0.25866633727E+01  0.32202097262E+01  0.10223366385E+02  0.51100000000E-03 0. -1.
        -11    1    3    3    0    0  0.10371842325E+02  0.13389629847E+01 -0.14332574090E+01  0.10555669669E+02  0.51100000000E-03 0.  1.
         12    1    3    3    0    0 -0.25031380175E+02 -0.19993420663E+02  0.21394129301E+02  0.38522923459E+02  0.00000000000E+00 0. -1.
</event>
<event>
 7    1  0.1184848E-011  0.5930196E+02  0.7816164E-02  0.1266605E+00
        -11   -1    0    0    0    0  0.00000000000E+00  0.00000000000E+00  0.45593999997E+02  0.45594000000E+02  0.51100000000E-03 0. -1.
         11   -1    0    0    0    0 -0.00000000000E+00 -0.00000000000E+00 -0.45593999997E+02  0.45594000000E+02  0.51100000000E-03 0.  1.
    9900012    2    1    2    0    0 -0.11123739010E+00 -0.31675183678E+02  0.36592546062E+01  0.59301956359E+02  0.50000022490E+02 0.  0.
        -12    1    1    2    0    0  0.11123739010E+00  0.31675183678E+02 -0.36592546062E+01  0.31886043641E+02  0.00000000000E+00 0.  1.
         11    1    3    3    0    0  0.35768833361E+01 -0.89388783754E+01 -0.41205285316E+01  0.10472649935E+02  0.51100000000E-03 0. -1.
        -11    1    3    3    0    0  0.14990094877E+02 -0.69389103271E+01  0.16025080336E+02  0.23014226491E+02  0.51100000000E-03 0.  1.
        -12    1    3    3    0    0 -0.18678215603E+02 -0.15797394975E+02 -0.82452971980E+01  0.25815079934E+02  0.00000000000E+00 0.  1.
</event>
<event>
 7    1  0.1184848E-011  0.5930195E+02  0.7816164E-02  0.1266605E+00
        -11   -1    0    0    0    0  0.00000000000E+00  0.00000000000E+00  0.45593999997E+02  0.45594000000E+02  0.51100000000E-03 0.  1.
         11   -1    0    0    0    0 -0.00000000000E+00 -0.00000000000E+00 -0.45593999997E+02  0.45594000000E+02  0.51100000000E-03 0. -1.
    9900012    2    1    2    0    0  0.61481186863E+01  0.20543436472E+02 -0.23598478421E+02  0.59301947731E+02  0.50000006754E+02 0.  0.
        -12    1    1    2    0    0 -0.61481186863E+01 -0.20543436472E+02  0.23598478421E+02  0.31886052269E+02  0.00000000000E+00 0.  1.
         11    1    3    3    0    0 -0.17789773684E+02 -0.14330697484E+01 -0.77795285968E+01  0.19469227054E+02  0.51100000000E-03 0. -1.
        -11    1    3    3    0    0  0.58702413938E+01  0.15643054528E+02 -0.11270950098E+02  0.20154384271E+02  0.51100000000E-03 0.  1.
        -12    1    3    3    0    0  0.18067650977E+02  0.63334516929E+01 -0.45479997267E+01  0.19678336405E+02  0.00000000000E+00 0.  1.
</event>
<event>
 7    1  0.1184848E-011  0.5930194E+02  0.7816164E-02  0.1266605E+00
        -11   -1    0    0    0    0  0.00000000000E+00  0.00000000000E+00  0.45593999997E+02  0.45594000000E+02  0.51100000000E-03 0.  1.
         11   -1    0    0    0    0 -0.00000000000E+00 -0.00000000000E+00 -0.45593999997E+02  0.45594000000E+02  0.51100000000E-03 0. -1.
    9900012    2    1    2    0    0  0.26987520722E+02 -0.92913683905E+01  0.14214954115E+02  0.59301941576E+02  0.49999995529E+02 0.  0.
        -12    1    1    2    0    0 -0.26987520722E+02  0.92913683905E+01 -0.14214954115E+02  0.31886058424E+02  0.00000000000E+00 0.  1.
         11    1    3    3    0    0  0.56056434087E+01 -0.20889117991E+02 -0.34688223063E+01  0.21904593512E+02  0.51100000000E-03 0. -1.
        -11    1    3    3    0    0  0.13502057444E+02  0.41494112080E+01 -0.26326703344E+01  0.14368511473E+02  0.51100000000E-03 0.  1.
        -12    1    3    3    0    0  0.78798198701E+01  0.74483383927E+01  0.20316446755E+02  0.23028836592E+02  0.00000000000E+00 0.  1.
</event>
<event>
 7    1  0.1184848E-011  0.5930202E+02  0.7816164E-02  0.1266605E+00
        -11   -1    0    0    0    0  0.00000000000E+00  0.00000000000E+00  0.45593999997E+02  0.45594000000E+02  0.51100000000E-03 0. -1.
         11   -1    0    0    0    0 -0.00000000000E+00 -0.00000000000E+00 -0.45593999997E+02  0.45594000000E+02  0.51100000000E-03 0.  1.
    9900012    2    1    2    0    0  0.26734343633E+02 -0.13553438835E+02  0.10876349965E+02  0.59302018404E+02  0.50000135645E+02 0.  0.
        -12    1    1    2    0    0 -0.26734343633E+02  0.13553438835E+02 -0.10876349965E+02  0.31885981596E+02  0.00000000000E+00 0.  1.
         11    1    3    3    0    0  0.22063307477E+01 -0.16435837039E+02  0.16214876383E+02  0.23193250115E+02  0.51100000000E-03 0. -1.
        -11    1    3    3    0    0 -0.29610844507E+01  0.23997073961E+01  0.53856772794E+01  0.65978888085E+01  0.51100000000E-03 0.  1.
         12    1    3    3    0    0  0.27489097336E+02  0.48269080797E+00 -0.10724203697E+02  0.29510879480E+02  0.00000000000E+00 0. -1.
</event>
<event>
 7    1  0.1184848E-011  0.5930194E+02  0.7816164E-02  0.1266605E+00
        -11   -1    0    0    0    0  0.00000000000E+00  0.00000000000E+00  0.45593999997E+02  0.45594000000E+02  0.51100000000E-03 0. -1.
         11   -1    0    0    0    0 -0.00000000000E+00 -0.00000000000E+00 -0.45593999997E+02  0.45594000000E+02  0.51100000000E-03 0.  1.
    9900012    2    1    2    0    0  0.35454264824E+01 -0.31425663301E+02  0.40716307640E+01  0.59301944428E+02  0.50000000731E+02 0.  0.
        -12    1    1    2    0    0 -0.35454264824E+01  0.31425663301E+02 -0.40716307640E+01  0.31886055572E+02  0.00000000000E+00 0.  1.
         11    1    3    3    0    0 -0.65323358778E+01  0.29348504582E+01  0.13554487833E+02  0.15329999997E+02  0.51100000000E-03 0. -1.
        -11    1    3    3    0    0 -0.62452979377E+01 -0.20131429795E+01 -0.27718098309E+01  0.71231608845E+01  0.51100000000E-03 0.  1.
         12    1    3    3    0    0  0.16323060298E+02 -0.32347370780E+02 -0.67110472381E+01  0.36848783547E+02  0.00000000000E+00 0. -1.
</event>
<event>
 7    1  0.1184848E-011  0.5930195E+02  0.7816164E-02  0.1266605E+00
        -11   -1    0    0    0    0  0.00000000000E+00  0.00000000000E+00  0.45593999997E+02  0.45594000000E+02  0.51100000000E-03 0. -1.
         11   -1    0    0    0    0 -0.00000000000E+00 -0.00000000000E+00 -0.45593999997E+02  0.45594000000E+02  0.51100000000E-03 0.  1.
    9900012    2    1    2    0    0 -0.28396681140E+02  0.14503379188E+02  0.28015041606E-01  0.59301948308E+02  0.50000007807E+02 0.  0.
        -12    1    1    2    0    0  0.28396681140E+02 -0.14503379188E+02 -0.28015041606E-01  0.31886051692E+02  0.00000000000E+00 0.  1.
         11    1    3    3    0    0 -0.19614698353E+02  0.14314368429E+02  0.16588716987E+02  0.29407874227E+02  0.51100000000E-03 0. -1.
        -11    1    3    3    0    0  0.13768364645E+01  0.89650114365E+01 -0.13267383165E+02  0.16071420753E+02  0.51100000000E-03 0.  1.
        -12    1    3    3    0    0 -0.10158819251E+02 -0.87760006769E+01 -0.32933187802E+01  0.13822653329E+02  0.00000000000E+00 0.  1.
</event>
<event>
 7    1  0.1184848E-011  0.5930200E+02  0.7816164E-02  0.1266605E+00
        -11   -1    0    0    0    0  0.00000000000E+00  0.00000000000E+00  0.45593999997E+02  0.45594000000E+02  0.51100000000E-03 0.  1.
         11   -1    0    0    0    0 -0.00000000000E+00 -0.00000000000E+00 -0.45593999997E+02  0.45594000000E+02  0.51100000000E-03 0. -1.
    9900012    2    1    2    0    0 -0.11195568635E+02 -0.92861968526E+01 -0.28375043383E+02  0.59301995295E+02  0.50000093500E+02 0.  0.
        -12    1    1    2    0    0  0.11195568635E+02  0.92861968526E+01  0.28375043383E+02  0.31886004705E+02  0.00000000000E+00 0.  1.
         11    1    3    3    0    0  0.78881152642E+01  0.55559046329E+01 -0.84209776127E+01  0.12806377432E+02  0.51100000000E-03 0. -1.
        -11    1    3    3    0    0  0.57139850323E+01  0.56219172369E+01 -0.10046393108E+02  0.12852454750E+02  0.51100000000E-03 0.  1.
        -12    1    3    3    0    0 -0.24797668931E+02 -0.20464018722E+02 -0.99076726623E+01  0.33643163113E+02  0.00000000000E+00 0.  1.
</event>
<event>
 7    1  0.1184848E-011  0.5930193E+02  0.7816164E-02  0.1266605E+00
        -11   -1    0    0    0    0  0.00000000000E+00  0.00000000000E+00  0.45593999997E+02  0.45594000000E+02  0.51100000000E-03 0.  1.
         11   -1    0    0    0    0 -0.00000000000E+00 -0.00000000000E+00 -0.45593999997E+02  0.45594000000E+02  0.51100000000E-03 0. -1.
    9900012    2    1    2    0    0  0.23688769525E+02  0.21267800466E+02 -0.18012048191E+01  0.59301929733E+02  0.49999973929E+02 0.  0.
        -12    1    1    2    0    0 -0.23688769525E+02 -0.21267800466E+02  0.18012048191E+01  0.31886070267E+02  0.00000000000E+00 0.  1.
         11    1    3    3    0    0  0.19791833926E+02  0.13157838551E+02 -0.74480971188E+01  0.24906215217E+02  0.51100000000E-03 0. -1.
        -11    1    3    3    0    0  0.27281812635E+00  0.13581527484E+02 -0.10367615155E+02  0.17088585746E+02  0.51100000000E-03 0.  1.
        -12    1    3    3    0    0  0.36241174725E+01 -0.54715655691E+01  0.16014507455E+02  0.17307128770E+02  0.00000000000E+00 0.  1.
</event>
<event>
 7    1  0.1184848E-011  0.5930193E+02  0.7816164E-02  0.1266605E+00
        -11   -1    0    0    0    0  0.00000000000E+00  0.00000000000E+00  0.45593999997E+02  0.45594000000E+02  0.51100000000E-03 0.  1.
         11   -1    0    0    0    0 -0.00000000000E+00 -0.00000000000E+00 -0.45593999997E+02  0.45594000000E+02  0.51100000000E-03 0. -1.
    9900012    2    1    2    0    0  0.25120552582E+02  0.19554757217E+02  0.18139695690E+01  0.59301934431E+02  0.49999982498E+02 0.  0.
        -12    1    1    2    0    0 -0.25120552582E+02 -0.19554757217E+02 -0.18139695690E+01  0.31886065569E+02  0.00000000000E+00 0.  1.
         11    1    3    3    0    0  0.12973144565E+02  0.11400810799E+02  0.20555235496E+01  0.17392703760E+02  0.51100000000E-03 0. -1.
        -11    1    3    3    0    0  0.81355861676E+01  0.19045225927E+02  0.12881862892E+02  0.24389563029E+02  0.51100000000E-03 0.  1.
         12    1    3    3    0    0  0.40118218497E+01 -0.10891279508E+02 -0.13123416873E+02  0.17519667642E+02  0.00000000000E+00 0. -1.
</event>
<event>
 7    1  0.1184848E-011  0.5930195E+02  0.7816164E-02  0.1266605E+00
        -11   -1    0    0    0    0  0.00000000000E+00  0.00000000000E+00  0.45593999997E+02  0.45594000000E+02  0.51100000000E-03 0.  1.
         11   -1    0    0    0    0 -0.00000000000E+00 -0.00000000000E+00 -0.45593999997E+02  0.45594000000E+02  0.51100000000E-03 0. -1.
    9900012    2    1    2    0    0 -0.25838913451E+02 -0.86317167700E+01 -0.16569979378E+02  0.59301949769E+02  0.50000010471E+02 0.  0.
        -12    1    1    2    0    0  0.25838913451E+02  0.86317167700E+01  0.16569979378E+02  0.31886050231E+02  0.00000000000E+00 0.  1.
         11    1    3    3    0    0 -0.27934472547E+01 -0.11314292071E+02 -0.11923467872E+02  0.16672901337E+02  0.51100000000E-03 0. -1.
        -11    1    3    3    0    0  0.81830658570E+01  0.42631147769E+01  0.41931736387E+01  0.10135058946E+02  0.51100000000E-03 0.  1.
         12    1    3    3    0    0 -0.31228532053E+02 -0.15805394758E+01 -0.88396851441E+01  0.32493989486E+02  0.00000000000E+00 0. -1.
</event>
<event>
 7    1  0.1184848E-011  0.5930193E+02  0.7816164E-02  0.1266605E+00
        -11   -1    0    0    0    0  0.00000000000E+00  0.00000000000E+00  0.45593999997E+02  0.45594000000E+02  0.51100000000E-03 0.  1.
         11   -1    0    0    0    0 -0.00000000000E+00 -0.00000000000E+00 -0.45593999997E+02  0.45594000000E+02  0.51100000000E-03 0. -1.
    9900012    2    1    2    0    0 -0.15882057705E+02  0.25205890865E+02  0.11364197938E+02  0.59301926457E+02  0.49999967954E+02 0.  0.
        -12    1    1    2    0    0  0.15882057705E+02 -0.25205890865E+02 -0.11364197938E+02  0.31886073543E+02  0.00000000000E+00 0.  1.
         11    1    3    3    0    0 -0.51625301133E+00  0.77717050277E+01  0.40296426290E+01  0.87694889354E+01  0.51100000000E-03 0. -1.
        -11    1    3    3    0    0  0.14374009060E+02  0.13891344648E+02  0.41265240998E+01  0.20411021385E+02  0.51100000000E-03 0.  1.
         12    1    3    3    0    0 -0.29739813754E+02  0.35428411890E+01  0.32080312090E+01  0.30121416136E+02  0.00000000000E+00 0. -1.
</event>
<event>
 7    1  0.1184848E-011  0.5930194E+02  0.7816164E-02  0.1266605E+00
        -11   -1    0    0    0    0  0.00000000000E+00  0.00000000000E+00  0.45593999997E+02  0.45594000000E+02  0.51100000000E-03 0.  1.
         11   -1    0    0    0    0 -0.00000000000E+00 -0.00000000000E+00 -0.45593999997E+02  0.45594000000E+02  0.51100000000E-03 0. -1.
    9900012    2    1    2    0    0  0.28076587108E+02  0.54863699486E+01 -0.14082822626E+02  0.59301938908E+02  0.49999990663E+02 0.  0.
        -12    1    1    2    0    0 -0.28076587108E+02 -0.54863699486E+01  0.14082822626E+02  0.31886061092E+02  0.00000000000E+00 0.  1.
         11    1    3    3    0    0  0.13694173509E+02  0.20460272285E+02 -0.53591810985E+01  0.25196705189E+02  0.51100000000E-03 0. -1.
        -11    1    3    3    0    0  0.10543962866E+02 -0.16334153183E+01 -0.15373205160E+02  0.18713060565E+02  0.51100000000E-03 0.  1.
        -12    1    3    3    0    0  0.38384507324E+01 -0.13340487018E+02  0.66495636325E+01  0.15392173154E+02  0.00000000000E+00 0.  1.
</event>
<event>
 7    1  0.1184848E-011  0.5930194E+02  0.7816164E-02  0.1266605E+00
        -11   -1    0    0    0    0  0.00000000000E+00  0.00000000000E+00  0.45593999997E+02  0.45594000000E+02  0.51100000000E-03 0.  1.
         11   -1    0    0    0    0 -0.00000000000E+00 -0.00000000000E+00 -0.45593999997E+02  0.45594000000E+02  0.51100000000E-03 0. -1.
    9900012    2    1    2    0    0 -0.14421162172E+02 -0.23734284953E+01 -0.28339326987E+02  0.59301944501E+02  0.50000000863E+02 0.  0.
        -12    1    1    2    0    0  0.14421162172E+02  0.23734284953E+01  0.28339326987E+02  0.31886055499E+02  0.00000000000E+00 0.  1.
         11    1    3    3    0    0 -0.16129883712E+02  0.93432356574E+01 -0.78971176766E+01  0.20244349063E+02  0.51100000000E-03 0. -1.
        -11    1    3    3    0    0 -0.11553973610E+02 -0.12023846264E+02 -0.26820251295E+01  0.16889654947E+02  0.51100000000E-03 0.  1.
         12    1    3    3    0    0  0.13262695150E+02  0.30718211090E+00 -0.17760184181E+02  0.22167940491E+02  0.00000000000E+00 0. -1.
</event>
<event>
 7    1  0.1184848E-011  0.5930194E+02  0.7816164E-02  0.1266605E+00
        -11   -1    0    0    0    0  0.00000000000E+00  0.00000000000E+00  0.45593999997E+02  0.45594000000E+02  0.51100000000E-03 0.  1.
         11   -1    0    0    0    0 -0.00000000000E+00 -0.00000000000E+00 -0.45593999997E+02  0.45594000000E+02  0.51100000000E-03 0. -1.
    9900012    2    1    2    0    0  0.25389445604E+02  0.27138082676E+01 -0.19097960382E+02  0.59301940442E+02  0.49999993460E+02 0.  0.
        -12    1    1    2    0    0 -0.25389445604E+02 -0.27138082676E+01  0.19097960382E+02  0.31886059558E+02  0.00000000000E+00 0.  1.
         11    1    3    3    0    0  0.34770159959E+01  0.60764653532E+01 -0.14035805836E+02  0.15684926431E+02  0.51100000000E-03 0. -1.
        -11    1    3    3    0    0  0.31124124371E+02 -0.49361918175E+01  0.24764340257E+01  0.31610280500E+02  0.51100000000E-03 0.  1.
         12    1    3    3    0    0 -0.92116947629E+01  0.15735347318E+01 -0.75385885721E+01  0.12006733512E+02  0.00000000000E+00 0. -1.
</event>
<event>
 7    1  0.1184848E-011  0.5930171E+02  0.7816164E-02  0.1266606E+00
        -11   -1    0    0    0    0  0.00000000000E+00  0.00000000000E+00  0.45593999997E+02  0.45594000000E+02  0.51100000000E-03 0. -1.
         11   -1    0    0    0    0 -0.00000000000E+00 -0.00000000000E+00 -0.45593999997E+02  0.45594000000E+02  0.51100000000E-03 0.  1.
    9900012    2    1    2    0    0 -0.10210208686E+02 -0.19584761572E+02  0.22998356482E+02  0.59301707520E+02  0.49999568665E+02 0.  0.
        -12    1    1    2    0    0  0.10210208686E+02  0.19584761572E+02 -0.22998356482E+02  0.31886292480E+02  0.00000000000E+00 0.  1.
         11    1    3    3    0    0 -0.76672137123E+01 -0.18621106860E+02  0.34042014109E+01  0.20423525021E+02  0.51100000000E-03 0. -1.
        -11    1    3    3    0    0 -0.65891216219E+01 -0.14944461058E+02  0.17890263099E+02  0.24224263747E+02  0.51100000000E-03 0.  1.
        -12    1    3    3    0    0  0.40461266484E+01  0.13980806346E+02  0.17038919720E+01  0.14653918752E+02  0.00000000000E+00 0.  1.
</event>
<event>
 7    1  0.1184848E-011  0.5930188E+02  0.7816164E-02  0.1266605E+00
        -11   -1    0    0    0    0  0.00000000000E+00  0.00000000000E+00  0.45593999997E+02  0.45594000000E+02  0.51100000000E-03 0. -1.
         11   -1    0    0    0    0 -0.00000000000E+00 -0.00000000000E+00 -0.45593999997E+02  0.45594000000E+02  0.51100000000E-03 0.  1.
    9900012    2    1    2    0    0  0.20601149782E+02 -0.46779455192E+01  0.23883761778E+02  0.59301880398E+02  0.49999883955E+02 0.  0.
        -12    1    1    2    0    0 -0.20601149782E+02  0.46779455192E+01 -0.23883761778E+02  0.31886119602E+02  0.00000000000E+00 0.  1.
         11    1    3    3    0    0  0.78499547688E+01 -0.24375383270E+01  0.32694447797E+02  0.33711871796E+02  0.51100000000E-03 0. -1.
        -11    1    3    3    0    0  0.67624041571E+01 -0.54446430853E+01  0.51289586548E+01  0.10083673212E+02  0.51100000000E-03 0.  1.
        -12    1    3    3    0    0  0.59887908558E+01  0.32042358932E+01 -0.13939644674E+02  0.15506335390E+02  0.00000000000E+00 0.  1.
</event>
<event>
 7    1  0.1184848E-011  0.5930197E+02  0.7816164E-02  0.1266605E+00
        -11   -1    0    0    0    0  0.00000000000E+00  0.00000000000E+00  0.45593999997E+02  0.45594000000E+02  0.51100000000E-03 0.  1.
         11   -1    0    0    0    0 -0.00000000000E+00 -0.00000000000E+00 -0.45593999997E+02  0.45594000000E+02  0.51100000000E-03 0. -1.
    9900012    2    1    2    0    0 -0.11139417197E+01  0.21886482879E+02 -0.23161610578E+02  0.59301965384E+02  0.50000038949E+02 0.  0.
        -12    1    1    2    0    0  0.11139417197E+01 -0.21886482879E+02  0.23161610578E+02  0.31886034616E+02  0.00000000000E+00 0.  1.
         11    1    3    3    0    0  0.58213939752E+01  0.17841518805E+02 -0.31039687552E+02  0.36272174247E+02  0.51100000000E-03 0. -1.
        -11    1    3    3    0    0 -0.13061432619E+01  0.10338970153E+02 -0.13651969434E+01  0.10510189199E+02  0.51100000000E-03 0.  1.
        -12    1    3    3    0    0 -0.56291924330E+01 -0.62940060791E+01  0.92432739168E+01  0.12519601937E+02  0.00000000000E+00 0.  1.
</event>
<event>
 7    1  0.1184848E-011  0.5930194E+02  0.7816164E-02  0.1266605E+00
        -11   -1    0    0    0    0  0.00000000000E+00  0.00000000000E+00  0.45593999997E+02  0.45594000000E+02  0.51100000000E-03 0.  1.
         11   -1    0    0    0    0 -0.00000000000E+00 -0.00000000000E+00 -0.45593999997E+02  0.45594000000E+02  0.51100000000E-03 0. -1.
    9900012    2    1    2    0    0 -0.26054995073E+02  0.11235887878E+02 -0.14546929814E+02  0.59301935463E+02  0.49999984379E+02 0.  0.
        -12    1    1    2    0    0  0.26054995073E+02 -0.11235887878E+02  0.14546929814E+02  0.31886064537E+02  0.00000000000E+00 0.  1.
         11    1    3    3    0    0 -0.61018832013E+01 -0.41684324604E+01 -0.25012657924E+02  0.26081446748E+02  0.51100000000E-03 0. -1.
        -11    1    3    3    0    0 -0.37122911723E+01  0.13286480695E+02  0.21309414894E-01  0.13795366228E+02  0.51100000000E-03 0.  1.
        -12    1    3    3    0    0 -0.16240820699E+02  0.21178396436E+01  0.10444418695E+02  0.19425122487E+02  0.00000000000E+00 0.  1.
</event>
<event>
 7    1  0.1184848E-011  0.5930196E+02  0.7816164E-02  0.1266605E+00
        -11   -1    0    0    0    0  0.00000000000E+00  0.00000000000E+00  0.45593999997E+02  0.45594000000E+02  0.51100000000E-03 0.  1.
         11   -1    0    0    0    0 -0.00000000000E+00 -0.00000000000E+00 -0.45593999997E+02  0.45594000000E+02  0.51100000000E-03 0. -1.
    9900012    2    1    2    0    0  0.21349784569E+02 -0.14128466141E+02 -0.19007701747E+02  0.59301959444E+02  0.50000028116E+02 0.  0.
        -12    1    1    2    0    0 -0.21349784569E+02  0.14128466141E+02  0.19007701747E+02  0.31886040556E+02  0.00000000000E+00 0.  1.
         11    1    3    3    0    0 -0.75232652392E+01 -0.11232356990E+02 -0.12941737069E+00  0.13519693507E+02  0.51100000000E-03 0. -1.
        -11    1    3    3    0    0  0.35564259913E+01 -0.13136793188E+02 -0.10584981361E+02  0.17241384277E+02  0.51100000000E-03 0.  1.
        -12    1    3    3    0    0  0.25316623817E+02  0.10240684038E+02 -0.82933030157E+01  0.28540881660E+02  0.00000000000E+00 0.  1.
</event>
<event>
 7    1  0.1184848E-011  0.5930166E+02  0.7816164E-02  0.1266606E+00
        -11   -1    0    0    0    0  0.00000000000E+00  0.00000000000E+00  0.45593999997E+02  0.45594000000E+02  0.51100000000E-03 0. -1.
         11   -1    0    0    0    0 -0.00000000000E+00 -0.00000000000E+00 -0.45593999997E+02  0.45594000000E+02  0.51100000000E-03 0.  1.
    9900012    2    1    2    0    0 -0.31661370977E+02  0.37147913089E+01 -0.70450408107E+00  0.59301664170E+02  0.49999489605E+02 0.  0.
        -12    1    1    2    0    0  0.31661370977E+02 -0.37147913089E+01  0.70450408107E+00  0.31886335830E+02  0.00000000000E+00 0.  1.
         11    1    3    3    0    0 -0.20143005911E+02  0.99545414559E+01 -0.81744363015E+01  0.23909307641E+02  0.51100000000E-03 0. -1.
        -11    1    3    3    0    0  0.34277926215E+01  0.23184586075E+01 -0.10023049084E+02  0.10843732096E+02  0.51100000000E-03 0.  1.
         12    1    3    3    0    0 -0.14946157688E+02 -0.85582087545E+01  0.17492981304E+02  0.24548624434E+02  0.00000000000E+00 0. -1.
</event>
<event>
 7    1  0.1184848E-011  0.5930194E+02  0.7816164E-02  0.1266605E+00
        -11   -1    0    0    0    0  0.00000000000E+00  0.00000000000E+00  0.45593999997E+02  0.45594000000E+02  0.51100000000E-03 0.  1.
         11   -1    0    0    0    0 -0.00000000000E+00 -0.00000000000E+00 -0.45593999997E+02  0.45594000000E+02  0.51100000000E-03 0. -1.
    9900012    2    1    2    0    0 -0.11647344008E+02  0.29640396261E+02 -0.15833701843E+01  0.59301940756E+02  0.49999994033E+02 0.  0.
        -12    1    1    2    0    0  0.11647344008E+02 -0.29640396261E+02  0.15833701843E+01  0.31886059244E+02  0.00000000000E+00 0.  1.
         11    1    3    3    0    0  0.14011389040E+00  0.26765404138E+02 -0.81339395620E+01  0.27974407297E+02  0.51100000000E-03 0. -1.
        -11    1    3    3    0    0 -0.17532291088E+01  0.13873172174E+02  0.84200172287E+01  0.16322849288E+02  0.51100000000E-03 0.  1.
         12    1    3    3    0    0 -0.10034228789E+02 -0.10998180050E+02 -0.18694478510E+01  0.15004684171E+02  0.00000000000E+00 0. -1.
</event>
<event>
 7    1  0.1184848E-011  0.5930183E+02  0.7816164E-02  0.1266605E+00
        -11   -1    0    0    0    0  0.00000000000E+00  0.00000000000E+00  0.45593999997E+02  0.45594000000E+02  0.51100000000E-03 0. -1.
         11   -1    0    0    0    0 -0.00000000000E+00 -0.00000000000E+00 -0.45593999997E+02  0.45594000000E+02  0.51100000000E-03 0.  1.
    9900012    2    1    2    0    0  0.22641686592E+02  0.70900891258E+01  0.21302871205E+02  0.59301832825E+02  0.49999797193E+02 0.  0.
        -12    1    1    2    0    0 -0.22641686592E+02 -0.70900891258E+01 -0.21302871205E+02  0.31886167175E+02  0.00000000000E+00 0.  1.
         11    1    3    3    0    0  0.23839202477E+02  0.35157096023E+01 -0.73432982621E+01  0.25191105938E+02  0.51100000000E-03 0. -1.
        -11    1    3    3    0    0  0.56657514562E+01 -0.40442145867E+01  0.18140538428E+02  0.19430273953E+02  0.51100000000E-03 0.  1.
        -12    1    3    3    0    0 -0.68632673416E+01  0.76185941102E+01  0.10505631039E+02  0.14680452934E+02  0.00000000000E+00 0.  1.
</event>
<event>
 7    1  0.1184848E-011  0.5930202E+02  0.7816164E-02  0.1266604E+00
        -11   -1    0    0    0    0  0.00000000000E+00  0.00000000000E+00  0.45593999997E+02  0.45594000000E+02  0.51100000000E-03 0.  1.
         11   -1    0    0    0    0 -0.00000000000E+00 -0.00000000000E+00 -0.45593999997E+02  0.45594000000E+02  0.51100000000E-03 0. -1.
    9900012    2    1    2    0    0 -0.18154257968E+02 -0.15124283499E+02 -0.21410154590E+02  0.59302019487E+02  0.50000137619E+02 0.  0.
        -12    1    1    2    0    0  0.18154257968E+02  0.15124283499E+02  0.21410154590E+02  0.31885980513E+02  0.00000000000E+00 0.  1.
         11    1    3    3    0    0 -0.27160381937E+02 -0.15911297347E+02 -0.15960201413E+02  0.35292828728E+02  0.51100000000E-03 0. -1.
        -11    1    3    3    0    0 -0.52546782935E+01 -0.39007390577E+01  0.25205470809E+01  0.70128857836E+01  0.51100000000E-03 0.  1.
        -12    1    3    3    0    0  0.14260802262E+02  0.46877529060E+01 -0.79705002571E+01  0.16996304975E+02  0.00000000000E+00 0.  1.
</event>
<event>
 7    1  0.1184848E-011  0.5930195E+02  0.7816164E-02  0.1266605E+00
        -11   -1    0    0    0    0  0.00000000000E+00  0.00000000000E+00  0.45593999997E+02  0.45594000000E+02  0.51100000000E-03 0. -1.
         11   -1    0    0    0    0 -0.00000000000E+00 -0.00000000000E+00 -0.45593999997E+02  0.45594000000E+02  0.51100000000E-03 0.  1.
    9900012    2    1    2    0    0  0.24617582102E+02  0.12265586484E+02  0.16132280198E+02  0.59301946235E+02  0.50000004026E+02 0.  0.
        -12    1    1    2    0    0 -0.24617582102E+02 -0.12265586484E+02 -0.16132280198E+02  0.31886053765E+02  0.00000000000E+00 0.  1.
         11    1    3    3    0    0  0.43642412140E+01 -0.56628144421E+01  0.14211363640E+02  0.15908391671E+02  0.51100000000E-03 0. -1.
        -11    1    3    3    0    0  0.92436437057E+01 -0.75866854383E+01 -0.74238034877E+01  0.14075354467E+02  0.51100000000E-03 0.  1.
         12    1    3    3    0    0  0.11009697182E+02  0.25515086364E+02  0.93447200448E+01  0.29318200097E+02  0.00000000000E+00 0. -1.
</event>
<event>
 7    1  0.1184848E-011  0.5930195E+02  0.7816164E-02  0.1266605E+00
        -11   -1    0    0    0    0  0.00000000000E+00  0.00000000000E+00  0.45593999997E+02  0.45594000000E+02  0.51100000000E-03 0. -1.
         11   -1    0    0    0    0 -0.00000000000E+00 -0.00000000000E+00 -0.45593999997E+02  0.45594000000E+02  0.51100000000E-03 0.  1.
    9900012    2    1    2    0    0  0.80459519192E+01  0.52496099476E+01  0.30404345442E+02  0.59301953387E+02  0.50000017068E+02 0.  0.
        -12    1    1    2    0    0 -0.80459519192E+01 -0.52496099476E+01 -0.30404345442E+02  0.31886046613E+02  0.00000000000E+00 0.  1.
         11    1    3    3    0    0  0.21574177485E+02  0.19943428404E+01  0.20200950385E+02  0.29622642256E+02  0.51100000000E-03 0. -1.
        -11    1    3    3    0    0 -0.32985847204E+01 -0.14435544963E+01 -0.77174684587E+01  0.85160924381E+01  0.51100000000E-03 0.  1.
        -12    1    3    3    0    0 -0.10229640845E+02  0.46988216034E+01  0.17920863515E+02  0.21163218692E+02  0.00000000000E+00 0.  1.
</event>
<event>
 7    1  0.1184848E-011  0.5930196E+02  0.7816164E-02  0.1266605E+00
        -11   -1    0    0    0    0  0.00000000000E+00  0.00000000000E+00  0.45593999997E+02  0.45594000000E+02  0.51100000000E-03 0. -1.
         11   -1    0    0    0    0 -0.00000000000E+00 -0.00000000000E+00 -0.45593999997E+02  0.45594000000E+02  0.51100000000E-03 0.  1.
    9900012    2    1    2    0    0  0.23598971604E+02  0.45197252960E+01  0.20961394291E+02  0.59301961862E+02  0.50000032525E+02 0.  0.
        -12    1    1    2    0    0 -0.23598971604E+02 -0.45197252960E+01 -0.20961394291E+02  0.31886038138E+02  0.00000000000E+00 0.  1.
         11    1    3    3    0    0  0.27754193324E+02  0.52109241316E+01  0.17772788940E+02  0.33366465266E+02  0.51100000000E-03 0. -1.
        -11    1    3    3    0    0  0.39289953302E+01  0.10610430200E+02 -0.11643337103E+01  0.11374265101E+02  0.51100000000E-03 0.  1.
        -12    1    3    3    0    0 -0.80842170504E+01 -0.11301629035E+02  0.43529390615E+01  0.14561231495E+02  0.00000000000E+00 0.  1.
</event>
<event>
 7    1  0.1184848E-011  0.5930195E+02  0.7816164E-02  0.1266605E+00
        -11   -1    0    0    0    0  0.00000000000E+00  0.00000000000E+00  0.45593999997E+02  0.45594000000E+02  0.51100000000E-03 0.  1.
         11   -1    0    0    0    0 -0.00000000000E+00 -0.00000000000E+00 -0.45593999997E+02  0.45594000000E+02  0.51100000000E-03 0. -1.
    9900012    2    1    2    0    0 -0.29966043322E+02  0.21578919024E+01  0.10681764801E+02  0.59301947421E+02  0.50000006189E+02 0.  0.
        -12    1    1    2    0    0  0.29966043322E+02 -0.21578919024E+01 -0.10681764801E+02  0.31886052579E+02  0.00000000000E+00 0.  1.
         11    1    3    3    0    0  0.91267785136E+00 -0.22482102590E+01 -0.97216432199E-01  0.24283495475E+01  0.51100000000E-03 0. -1.
        -11    1    3    3    0    0  0.15980388768E+01 -0.86996897758E+00  0.22026649329E+02  0.22101670869E+02  0.51100000000E-03 0.  1.
         12    1    3    3    0    0 -0.32476760050E+02  0.52760711389E+01 -0.11247668096E+02  0.34771927004E+02  0.00000000000E+00 0. -1.
</event>
<event>
 7    1  0.1184848E-011  0.5930195E+02  0.7816164E-02  0.1266605E+00
        -11   -1    0    0    0    0  0.00000000000E+00  0.00000000000E+00  0.45593999997E+02  0.45594000000E+02  0.51100000000E-03 0.  1.
         11   -1    0    0    0    0 -0.00000000000E+00 -0.00000000000E+00 -0.45593999997E+02  0.45594000000E+02  0.51100000000E-03 0. -1.
    9900012    2    1    2    0    0 -0.14522843729E+02 -0.10042744707E+02 -0.26550899847E+02  0.59301952990E+02  0.50000016345E+02 0.  0.
        -12    1    1    2    0    0  0.14522843729E+02  0.10042744707E+02  0.26550899847E+02  0.31886047010E+02  0.00000000000E+00 0.  1.
         11    1    3    3    0    0 -0.97467412113E+01 -0.22623133277E+01 -0.10774201716E+01  0.10063690194E+02  0.51100000000E-03 0. -1.
        -11    1    3    3    0    0 -0.32065529641E+01  0.49119818049E+01  0.99646563003E+01  0.11563041235E+02  0.51100000000E-03 0.  1.
         12    1    3    3    0    0 -0.15695495539E+01 -0.12692413184E+02 -0.35438135976E+02  0.37675221561E+02  0.00000000000E+00 0. -1.
</event>
<event>
 7    1  0.1184848E-011  0.5930193E+02  0.7816164E-02  0.1266605E+00
        -11   -1    0    0    0    0  0.00000000000E+00  0.00000000000E+00  0.45593999997E+02  0.45594000000E+02  0.51100000000E-03 0. -1.
         11   -1    0    0    0    0 -0.00000000000E+00 -0.00000000000E+00 -0.45593999997E+02  0.45594000000E+02  0.51100000000E-03 0.  1.
    9900012    2    1    2    0    0 -0.14860345473E+02 -0.61137212483E+01  0.27541138040E+02  0.59301925616E+02  0.49999966421E+02 0.  0.
        -12    1    1    2    0    0  0.14860345473E+02  0.61137212483E+01 -0.27541138040E+02  0.31886074384E+02  0.00000000000E+00 0.  1.
         11    1    3    3    0    0  0.76673931666E+01  0.15375923416E+01  0.67594242687E+01  0.10336485132E+02  0.51100000000E-03 0. -1.
        -11    1    3    3    0    0  0.25465437348E+01  0.42751486920E+01  0.20606403539E+02  0.21198718084E+02  0.51100000000E-03 0.  1.
        -12    1    3    3    0    0 -0.25074282374E+02 -0.11926462282E+02  0.17531023258E+00  0.27766722400E+02  0.00000000000E+00 0.  1.
</event>
<event>
 7    1  0.1184848E-011  0.5930193E+02  0.7816164E-02  0.1266605E+00
        -11   -1    0    0    0    0  0.00000000000E+00  0.00000000000E+00  0.45593999997E+02  0.45594000000E+02  0.51100000000E-03 0. -1.
         11   -1    0    0    0    0 -0.00000000000E+00 -0.00000000000E+00 -0.45593999997E+02  0.45594000000E+02  0.51100000000E-03 0.  1.
    9900012    2    1    2    0    0  0.21904115104E+02  0.15900826986E+02 -0.16855122407E+02  0.59301926101E+02  0.49999967306E+02 0.  0.
        -12    1    1    2    0    0 -0.21904115104E+02 -0.15900826986E+02  0.16855122407E+02  0.31886073899E+02  0.00000000000E+00 0.  1.
         11    1    3    3    0    0  0.10939913590E+01  0.17277159360E+02  0.12356193186E+01  0.17355800414E+02  0.51100000000E-03 0. -1.
        -11    1    3    3    0    0 -0.20641379335E+01  0.75229990987E+01 -0.15389120343E+02  0.17253440412E+02  0.51100000000E-03 0.  1.
         12    1    3    3    0    0  0.22874261678E+02 -0.88993314730E+01 -0.27016213829E+01  0.24692685275E+02  0.00000000000E+00 0. -1.
</event>
<event>
 7    1  0.1184848E-011  0.5930192E+02  0.7816164E-02  0.1266605E+00
        -11   -1    0    0    0    0  0.00000000000E+00  0.00000000000E+00  0.45593999997E+02  0.45594000000E+02  0.51100000000E-03 0. -1.
         11   -1    0    0    0    0 -0.00000000000E+00 -0.00000000000E+00 -0.45593999997E+02  0.45594000000E+02  0.51100000000E-03 0.  1.
    9900012    2    1    2    0    0 -0.30915428046E+02 -0.78075368991E+01 -0.24842763643E-01  0.59301922461E+02  0.49999960667E+02 0.  0.
        -12    1    1    2    0    0  0.30915428046E+02  0.78075368991E+01  0.24842763643E-01  0.31886077539E+02  0.00000000000E+00 0.  1.
         11    1    3    3    0    0 -0.80080563658E+01 -0.82745508861E+01  0.81557513580E+01  0.14110756167E+02  0.51100000000E-03 0. -1.
        -11    1    3    3    0    0  0.72467174028E+01 -0.68138918126E+01  0.54110472259E+01  0.11323580136E+02  0.51100000000E-03 0.  1.
        -12    1    3    3    0    0 -0.30154089083E+02  0.72809057996E+01 -0.13591641348E+02  0.33867586158E+02  0.00000000000E+00 0.  1.
</event>
<event>
 7    1  0.1184848E-011  0.5930194E+02  0.7816164E-02  0.1266605E+00
        -11   -1    0    0    0    0  0.00000000000E+00  0.00000000000E+00  0.45593999997E+02  0.45594000000E+02  0.51100000000E-03 0.  1.
         11   -1    0    0    0    0 -0.00000000000E+00 -0.00000000000E+00 -0.45593999997E+02  0.45594000000E+02  0.51100000000E-03 0. -1.
    9900012    2    1    2    0    0  0.11011099678E+02  0.29664397229E+02  0.39370310485E+01  0.59301937331E+02  0.49999987786E+02 0.  0.
        -12    1    1    2    0    0 -0.11011099678E+02 -0.29664397229E+02 -0.39370310485E+01  0.31886062669E+02  0.00000000000E+00 0.  1.
         11    1    3    3    0    0  0.34998160219E+01  0.30689548978E+01 -0.75400477224E+00  0.47154766260E+01  0.51100000000E-03 0. -1.
        -11    1    3    3    0    0 -0.16849117027E+02  0.42988199359E+01 -0.80862027758E+01  0.19177050686E+02  0.51100000000E-03 0.  1.
         12    1    3    3    0    0  0.24360400684E+02  0.22296622395E+02  0.12777238597E+02  0.35409410018E+02  0.00000000000E+00 0. -1.
</event>
<event>
 7    1  0.1184848E-011  0.5930187E+02  0.7816164E-02  0.1266605E+00
        -11   -1    0    0    0    0  0.00000000000E+00  0.00000000000E+00  0.45593999997E+02  0.45594000000E+02  0.51100000000E-03 0. -1.
         11   -1    0    0    0    0 -0.00000000000E+00 -0.00000000000E+00 -0.45593999997E+02  0.45594000000E+02  0.51100000000E-03 0.  1.
    9900012    2    1    2    0    0  0.11380943121E+02 -0.14998391919E+02  0.25734167820E+02  0.59301874180E+02  0.49999872614E+02 0.  0.
        -12    1    1    2    0    0 -0.11380943121E+02  0.14998391919E+02 -0.25734167820E+02  0.31886125820E+02  0.00000000000E+00 0.  1.
         11    1    3    3    0    0  0.60453101981E+01  0.22979045542E+01 -0.38494270269E+01  0.75262360731E+01  0.51100000000E-03 0. -1.
        -11    1    3    3    0    0 -0.36501490943E+00  0.77002063638E+01 -0.46523186124E+01  0.90039148520E+01  0.51100000000E-03 0.  1.
         12    1    3    3    0    0  0.57006478318E+01 -0.24996502837E+02  0.34235913459E+02  0.42771723254E+02  0.00000000000E+00 0. -1.
</event>
<event>
 7    1  0.1184848E-011  0.5930196E+02  0.7816164E-02  0.1266605E+00
        -11   -1    0    0    0    0  0.00000000000E+00  0.00000000000E+00  0.45593999997E+02  0.45594000000E+02  0.51100000000E-03 0.  1.
         11   -1    0    0    0    0 -0.00000000000E+00 -0.00000000000E+00 -0.45593999997E+02  0.45594000000E+02  0.51100000000E-03 0. -1.
    9900012    2    1    2    0    0 -0.21806178843E+02 -0.20975091853E+02  0.10062581330E+02  0.59301961409E+02  0.50000031700E+02 0.  0.
        -12    1    1    2    0    0  0.21806178843E+02  0.20975091853E+02 -0.10062581330E+02  0.31886038591E+02  0.00000000000E+00 0.  1.
         11    1    3    3    0    0 -0.16919633666E+02  0.49128383482E+01  0.11860387629E+02  0.21238615280E+02  0.51100000000E-03 0. -1.
        -11    1    3    3    0    0  0.73550154007E+01 -0.86311651226E+01  0.88431985098E+01  0.14380383273E+02  0.51100000000E-03 0.  1.
         12    1    3    3    0    0 -0.12241560578E+02 -0.17256765078E+02 -0.10641004809E+02  0.23682962857E+02  0.00000000000E+00 0. -1.
</event>
<event>
 7    1  0.1184848E-011  0.5930194E+02  0.7816164E-02  0.1266605E+00
        -11   -1    0    0    0    0  0.00000000000E+00  0.00000000000E+00  0.45593999997E+02  0.45594000000E+02  0.51100000000E-03 0. -1.
         11   -1    0    0    0    0 -0.00000000000E+00 -0.00000000000E+00 -0.45593999997E+02  0.45594000000E+02  0.51100000000E-03 0.  1.
    9900012    2    1    2    0    0  0.24873227851E+02 -0.19735714541E+02  0.29231917017E+01  0.59301938125E+02  0.49999989234E+02 0.  0.
        -12    1    1    2    0    0 -0.24873227851E+02  0.19735714541E+02 -0.29231917017E+01  0.31886061875E+02  0.00000000000E+00 0.  1.
         11    1    3    3    0    0  0.11663086082E+02 -0.20762651895E+02  0.18346726450E+01  0.23884750672E+02  0.51100000000E-03 0. -1.
        -11    1    3    3    0    0 -0.40156884777E+01 -0.10146918553E+02 -0.74149766127E+01  0.13193467645E+02  0.51100000000E-03 0.  1.
        -12    1    3    3    0    0  0.17225830246E+02  0.11173855907E+02  0.85034956694E+01  0.22223719808E+02  0.00000000000E+00 0.  1.
</event>
<event>
 7    1  0.1184848E-011  0.5930194E+02  0.7816164E-02  0.1266605E+00
        -11   -1    0    0    0    0  0.00000000000E+00  0.00000000000E+00  0.45593999997E+02  0.45594000000E+02  0.51100000000E-03 0. -1.
         11   -1    0    0    0    0 -0.00000000000E+00 -0.00000000000E+00 -0.45593999997E+02  0.45594000000E+02  0.51100000000E-03 0.  1.
    9900012    2    1    2    0    0 -0.45561642279E+01 -0.31313116694E+02 -0.39307883372E+01  0.59301937112E+02  0.49999987387E+02 0.  0.
        -12    1    1    2    0    0  0.45561642279E+01  0.31313116694E+02  0.39307883372E+01  0.31886062888E+02  0.00000000000E+00 0.  1.
         11    1    3    3    0    0  0.14110676271E+02 -0.12711049539E+02 -0.12399496632E+01  0.19032063488E+02  0.51100000000E-03 0. -1.
        -11    1    3    3    0    0 -0.13310080998E+01 -0.11838785375E+02  0.11736706676E+02  0.16723597268E+02  0.51100000000E-03 0.  1.
        -12    1    3    3    0    0 -0.17335832399E+02 -0.67632817801E+01 -0.14427545350E+02  0.23546276356E+02  0.00000000000E+00 0.  1.
</event>
<event>
 7    1  0.1184848E-011  0.5930196E+02  0.7816164E-02  0.1266605E+00
        -11   -1    0    0    0    0  0.00000000000E+00  0.00000000000E+00  0.45593999997E+02  0.45594000000E+02  0.51100000000E-03 0.  1.
         11   -1    0    0    0    0 -0.00000000000E+00 -0.00000000000E+00 -0.45593999997E+02  0.45594000000E+02  0.51100000000E-03 0. -1.
    9900012    2    1    2    0    0  0.26835360888E+01 -0.17403772000E+02 -0.26582452038E+02  0.59301962269E+02  0.50000033268E+02 0.  0.
        -12    1    1    2    0    0 -0.26835360888E+01  0.17403772000E+02  0.26582452038E+02  0.31886037731E+02  0.00000000000E+00 0.  1.
         11    1    3    3    0    0 -0.34840039507E+01  0.46959000083E+01 -0.63991932989E+01  0.86683006151E+01  0.51100000000E-03 0. -1.
        -11    1    3    3    0    0  0.17573604700E+02  0.35218869129E+01 -0.44137118319E+01  0.18458497283E+02  0.51100000000E-03 0.  1.
         12    1    3    3    0    0 -0.11406064660E+02 -0.25621558922E+02 -0.15769546908E+02  0.32175164371E+02  0.00000000000E+00 0. -1.
</event>
<event>
 7    1  0.1184848E-011  0.5930194E+02  0.7816164E-02  0.1266605E+00
        -11   -1    0    0    0    0  0.00000000000E+00  0.00000000000E+00  0.45593999997E+02  0.45594000000E+02  0.51100000000E-03 0.  1.
         11   -1    0    0    0    0 -0.00000000000E+00 -0.00000000000E+00 -0.45593999997E+02  0.45594000000E+02  0.51100000000E-03 0. -1.
    9900012    2    1    2    0    0  0.15149936354E+02 -0.20531554601E+02 -0.19122123220E+02  0.59301938746E+02  0.49999990367E+02 0.  0.
        -12    1    1    2    0    0 -0.15149936354E+02  0.20531554601E+02  0.19122123220E+02  0.31886061254E+02  0.00000000000E+00 0.  1.
         11    1    3    3    0    0 -0.68649421037E+00 -0.25443054699E+02 -0.20660347558E+01  0.25536029578E+02  0.51100000000E-03 0. -1.
        -11    1    3    3    0    0  0.14525764285E+02 -0.38695743956E+00 -0.22023826135E+02  0.26385535469E+02  0.51100000000E-03 0.  1.
        -12    1    3    3    0    0  0.13106662797E+01  0.52984575375E+01  0.49677376708E+01  0.73803736991E+01  0.00000000000E+00 0.  1.
</event>
<event>
 7    1  0.1184848E-011  0.5930181E+02  0.7816164E-02  0.1266605E+00
        -11   -1    0    0    0    0  0.00000000000E+00  0.00000000000E+00  0.45593999997E+02  0.45594000000E+02  0.51100000000E-03 0. -1.
         11   -1    0    0    0    0 -0.00000000000E+00 -0.00000000000E+00 -0.45593999997E+02  0.45594000000E+02  0.51100000000E-03 0.  1.
    9900012    2    1    2    0    0  0.10227874035E+02 -0.35377960347E+01  0.29993394499E+02  0.59301809860E+02  0.49999755310E+02 0.  0.
        -12    1    1    2    0    0 -0.10227874035E+02  0.35377960347E+01 -0.29993394499E+02  0.31886190140E+02  0.00000000000E+00 0.  1.
         11    1    3    3    0    0  0.17438712485E+02 -0.17209193822E+01 -0.66864110945E+01  0.18755755123E+02  0.51100000000E-03 0. -1.
        -11    1    3    3    0    0  0.48239630708E+01 -0.19128803419E+01  0.96165152521E+01  0.10927355433E+02  0.51100000000E-03 0.  1.
        -12    1    3    3    0    0 -0.12034801520E+02  0.96003689383E-01  0.27063290341E+02  0.29618699304E+02  0.00000000000E+00 0.  1.
</event>
<event>
 7    1  0.1184848E-011  0.5930195E+02  0.7816164E-02  0.1266605E+00
        -11   -1    0    0    0    0  0.00000000000E+00  0.00000000000E+00  0.45593999997E+02  0.45594000000E+02  0.51100000000E-03 0. -1.
         11   -1    0    0    0    0 -0.00000000000E+00 -0.00000000000E+00 -0.45593999997E+02  0.45594000000E+02  0.51100000000E-03 0.  1.
    9900012    2    1    2    0    0  0.55092671219E+01 -0.27713691629E+02  0.14775643036E+02  0.59301947327E+02  0.50000006017E+02 0.  0.
        -12    1    1    2    0    0 -0.55092671219E+01  0.27713691629E+02 -0.14775643036E+02  0.31886052673E+02  0.00000000000E+00 0.  1.
         11    1    3    3    0    0  0.10067170884E+02  0.56349321869E+01  0.12497308183E+02  0.17008324504E+02  0.51100000000E-03 0. -1.
        -11    1    3    3    0    0 -0.15064333604E+01  0.24828418887E+01 -0.48307639874E+01  0.56364994702E+01  0.51100000000E-03 0.  1.
        -12    1    3    3    0    0 -0.30514704020E+01 -0.35831465705E+02  0.71090988401E+01  0.36657123353E+02  0.00000000000E+00 0.  1.
</event>
<event>
 7    1  0.1184848E-011  0.5930194E+02  0.7816164E-02  0.1266605E+00
        -11   -1    0    0    0    0  0.00000000000E+00  0.00000000000E+00  0.45593999997E+02  0.45594000000E+02  0.51100000000E-03 0. -1.
         11   -1    0    0    0    0 -0.00000000000E+00 -0.00000000000E+00 -0.45593999997E+02  0.45594000000E+02  0.51100000000E-03 0.  1.
    9900012    2    1    2    0    0  0.82552109056E+01 -0.30618055838E+02  0.33327023183E+01  0.59301941053E+02  0.49999994576E+02 0.  0.
        -12    1    1    2    0    0 -0.82552109056E+01  0.30618055838E+02 -0.33327023183E+01  0.31886058947E+02  0.00000000000E+00 0.  1.
         11    1    3    3    0    0 -0.97015052690E+01 -0.27800147300E+02 -0.95385941040E+01  0.30950802447E+02  0.51100000000E-03 0.  1.
        -11    1    3    3    0    0  0.74022969079E+01 -0.92289819614E+01  0.10411215091E+02  0.15759489442E+02  0.51100000000E-03 0. -1.
        -12    1    3    3    0    0  0.10554419267E+02  0.64110734236E+01  0.24600813314E+01  0.12591649164E+02  0.00000000000E+00 0.  1.
</event>
<event>
 7    1  0.1184848E-011  0.5930196E+02  0.7816164E-02  0.1266605E+00
        -11   -1    0    0    0    0  0.00000000000E+00  0.00000000000E+00  0.45593999997E+02  0.45594000000E+02  0.51100000000E-03 0.  1.
         11   -1    0    0    0    0 -0.00000000000E+00 -0.00000000000E+00 -0.45593999997E+02  0.45594000000E+02  0.51100000000E-03 0. -1.
    9900012    2    1    2    0    0 -0.24769676849E+02 -0.15804237890E+02  0.12385827811E+02  0.59301959841E+02  0.50000028839E+02 0.  0.
        -12    1    1    2    0    0  0.24769676849E+02  0.15804237890E+02 -0.12385827811E+02  0.31886040159E+02  0.00000000000E+00 0.  1.
         11    1    3    3    0    0 -0.22334909876E+02 -0.30723202354E+00 -0.22890330476E+01  0.22454003279E+02  0.51100000000E-03 0. -1.
        -11    1    3    3    0    0 -0.14477027550E+01 -0.16227807559E+02 -0.50715736931E+01  0.17063365477E+02  0.51100000000E-03 0.  1.
        -12    1    3    3    0    0 -0.98706421802E+00  0.73080169221E+00  0.19746434551E+02  0.19784591084E+02  0.00000000000E+00 0.  1.
</event>
<event>
 7    1  0.1184848E-011  0.5930205E+02  0.7816164E-02  0.1266604E+00
        -11   -1    0    0    0    0  0.00000000000E+00  0.00000000000E+00  0.45593999997E+02  0.45594000000E+02  0.51100000000E-03 0.  1.
         11   -1    0    0    0    0 -0.00000000000E+00 -0.00000000000E+00 -0.45593999997E+02  0.45594000000E+02  0.51100000000E-03 0. -1.
    9900012    2    1    2    0    0 -0.11472116285E+02 -0.11352113795E+02 -0.27499701189E+02  0.59302054739E+02  0.50000201911E+02 0.  0.
        -12    1    1    2    0    0  0.11472116285E+02  0.11352113795E+02  0.27499701189E+02  0.31885945261E+02  0.00000000000E+00 0.  1.
         11    1    3    3    0    0  0.28469142892E+01 -0.96071978442E+01 -0.14506220630E+02  0.17630473863E+02  0.51100000000E-03 0. -1.
        -11    1    3    3    0    0  0.12051168447E+02 -0.31510359447E+01 -0.52240470327E+00  0.12467260942E+02  0.51100000000E-03 0.  1.
        -12    1    3    3    0    0 -0.26370199021E+02  0.14061199940E+01 -0.12471075856E+02  0.29204319935E+02  0.00000000000E+00 0.  1.
</event>
<event>
 7    1  0.1184848E-011  0.5930195E+02  0.7816164E-02  0.1266605E+00
        -11   -1    0    0    0    0  0.00000000000E+00  0.00000000000E+00  0.45593999997E+02  0.45594000000E+02  0.51100000000E-03 0.  1.
         11   -1    0    0    0    0 -0.00000000000E+00 -0.00000000000E+00 -0.45593999997E+02  0.45594000000E+02  0.51100000000E-03 0. -1.
    9900012    2    1    2    0    0 -0.51568572164E+00 -0.13684798348E+02  0.28795490189E+02  0.59301954576E+02  0.50000019237E+02 0.  0.
        -12    1    1    2    0    0  0.51568572164E+00  0.13684798348E+02 -0.28795490189E+02  0.31886045424E+02  0.00000000000E+00 0.  1.
         11    1    3    3    0    0  0.49211214794E+01  0.45645402237E+01  0.26437342956E+01  0.72139999554E+01  0.51100000000E-03 0.  1.
        -11    1    3    3    0    0  0.95826831923E+01 -0.36946178594E+01 -0.73250914076E+01  0.12614871489E+02  0.51100000000E-03 0. -1.
        -12    1    3    3    0    0 -0.15019490393E+02 -0.14554720712E+02  0.33476847301E+02  0.39473083131E+02  0.00000000000E+00 0.  1.
</event>
<event>
 7    1  0.1184848E-011  0.5930198E+02  0.7816164E-02  0.1266605E+00
        -11   -1    0    0    0    0  0.00000000000E+00  0.00000000000E+00  0.45593999997E+02  0.45594000000E+02  0.51100000000E-03 0. -1.
         11   -1    0    0    0    0 -0.00000000000E+00 -0.00000000000E+00 -0.45593999997E+02  0.45594000000E+02  0.51100000000E-03 0.  1.
    9900012    2    1    2    0    0  0.13272415592E+02  0.22834740382E+02  0.17864382985E+02  0.59301975422E+02  0.50000057255E+02 0.  0.
        -12    1    1    2    0    0 -0.13272415592E+02 -0.22834740382E+02 -0.17864382985E+02  0.31886024578E+02  0.00000000000E+00 0.  1.
         11    1    3    3    0    0  0.10323154827E+02  0.42931686765E+01  0.14941875255E+02  0.18661684255E+02  0.51100000000E-03 0. -1.
        -11    1    3    3    0    0  0.55785619614E+01 -0.10207917674E+02  0.10059474085E+00  0.11633230693E+02  0.51100000000E-03 0.  1.
        -12    1    3    3    0    0 -0.26293011957E+01  0.28749489380E+02  0.28219129896E+01  0.29007060473E+02  0.00000000000E+00 0.  1.
</event>
<event>
 7    1  0.1184848E-011  0.5930195E+02  0.7816164E-02  0.1266605E+00
        -11   -1    0    0    0    0  0.00000000000E+00  0.00000000000E+00  0.45593999997E+02  0.45594000000E+02  0.51100000000E-03 0. -1.
         11   -1    0    0    0    0 -0.00000000000E+00 -0.00000000000E+00 -0.45593999997E+02  0.45594000000E+02  0.51100000000E-03 0.  1.
    9900012    2    1    2    0    0 -0.26573633923E+02  0.17579855808E+02 -0.12290330456E+01  0.59301954897E+02  0.50000019822E+02 0.  0.
        -12    1    1    2    0    0  0.26573633923E+02 -0.17579855808E+02  0.12290330456E+01  0.31886045103E+02  0.00000000000E+00 0.  1.
         11    1    3    3    0    0 -0.10797036116E+02 -0.72006043971E+01  0.12679980473E+02  0.18144051302E+02  0.51100000000E-03 0. -1.
        -11    1    3    3    0    0 -0.16655212592E+02  0.35760509431E+01 -0.30044406133E+01  0.17297714025E+02  0.51100000000E-03 0.  1.
         12    1    3    3    0    0  0.87861478459E+00  0.21204409262E+02 -0.10904572905E+02  0.23860189570E+02  0.00000000000E+00 0. -1.
</event>
<event>
 7    1  0.1184848E-011  0.5930196E+02  0.7816164E-02  0.1266605E+00
        -11   -1    0    0    0    0  0.00000000000E+00  0.00000000000E+00  0.45593999997E+02  0.45594000000E+02  0.51100000000E-03 0. -1.
         11   -1    0    0    0    0 -0.00000000000E+00 -0.00000000000E+00 -0.45593999997E+02  0.45594000000E+02  0.51100000000E-03 0.  1.
    9900012    2    1    2    0    0 -0.30688369325E+02 -0.83238754128E+01 -0.23783577265E+01  0.59301960748E+02  0.50000030493E+02 0.  0.
        -12    1    1    2    0    0  0.30688369325E+02  0.83238754128E+01  0.23783577265E+01  0.31886039252E+02  0.00000000000E+00 0.  1.
         11    1    3    3    0    0 -0.29879217962E+02 -0.11496894460E+02  0.14014666423E+02  0.34947920159E+02  0.51100000000E-03 0. -1.
        -11    1    3    3    0    0 -0.41022690654E+01  0.96557519535E+01 -0.76582027874E+01  0.12988850121E+02  0.51100000000E-03 0.  1.
        -12    1    3    3    0    0  0.32931177021E+01 -0.64827329061E+01 -0.87348213622E+01  0.11365190467E+02  0.00000000000E+00 0.  1.
</event>
<event>
 7    1  0.1184848E-011  0.5930196E+02  0.7816164E-02  0.1266605E+00
        -11   -1    0    0    0    0  0.00000000000E+00  0.00000000000E+00  0.45593999997E+02  0.45594000000E+02  0.51100000000E-03 0.  1.
         11   -1    0    0    0    0 -0.00000000000E+00 -0.00000000000E+00 -0.45593999997E+02  0.45594000000E+02  0.51100000000E-03 0. -1.
    9900012    2    1    2    0    0  0.25268440285E+02  0.31595230474E+01 -0.19189662595E+02  0.59301955861E+02  0.50000021581E+02 0.  0.
        -12    1    1    2    0    0 -0.25268440285E+02 -0.31595230474E+01  0.19189662595E+02  0.31886044139E+02  0.00000000000E+00 0.  1.
         11    1    3    3    0    0  0.14007749084E+01  0.37877794052E+01 -0.13110394181E+02  0.13718304524E+02  0.51100000000E-03 0. -1.
        -11    1    3    3    0    0  0.16032343687E+02  0.18464690601E+02 -0.46855923802E+01  0.24898506367E+02  0.51100000000E-03 0.  1.
         12    1    3    3    0    0  0.78353216891E+01 -0.19092946958E+02 -0.13936760337E+01  0.20685144970E+02  0.00000000000E+00 0. -1.
</event>
<event>
 7    1  0.1184848E-011  0.5930191E+02  0.7816164E-02  0.1266605E+00
        -11   -1    0    0    0    0  0.00000000000E+00  0.00000000000E+00  0.45593999997E+02  0.45594000000E+02  0.51100000000E-03 0.  1.
         11   -1    0    0    0    0 -0.00000000000E+00 -0.00000000000E+00 -0.45593999997E+02  0.45594000000E+02  0.51100000000E-03 0. -1.
    9900012    2    1    2    0    0 -0.12273760773E+02 -0.26950940318E+02 -0.11820518083E+02  0.59301905299E+02  0.49999929367E+02 0.  0.
        -12    1    1    2    0    0  0.12273760773E+02  0.26950940318E+02  0.11820518083E+02  0.31886094701E+02  0.00000000000E+00 0.  1.
         11    1    3    3    0    0  0.46921487412E+01  0.31091468741E+01 -0.85580249598E+01  0.10243185323E+02  0.51100000000E-03 0. -1.
        -11    1    3    3    0    0 -0.57811879554E+01 -0.21558091938E+01  0.13353427649E+02  0.14709985645E+02  0.51100000000E-03 0.  1.
         12    1    3    3    0    0 -0.11184721559E+02 -0.27904277999E+02 -0.16615920772E+02  0.34348734330E+02  0.00000000000E+00 0. -1.
</event>
<event>
 7    1  0.1184848E-011  0.5930216E+02  0.7816164E-02  0.1266604E+00
        -11   -1    0    0    0    0  0.00000000000E+00  0.00000000000E+00  0.45593999997E+02  0.45594000000E+02  0.51100000000E-03 0.  1.
         11   -1    0    0    0    0 -0.00000000000E+00 -0.00000000000E+00 -0.45593999997E+02  0.45594000000E+02  0.51100000000E-03 0. -1.
    9900012    2    1    2    0    0  0.21447498028E+02  0.23594691490E+02  0.43403383914E-01  0.59302164242E+02  0.50000401616E+02 0.  0.
        -12    1    1    2    0    0 -0.21447498028E+02 -0.23594691490E+02 -0.43403383914E-01  0.31885835758E+02  0.00000000000E+00 0.  1.
         11    1    3    3    0    0  0.14094590097E+01 -0.83434951962E+01 -0.61286741216E+01  0.10448020556E+02  0.51100000000E-03 0. -1.
        -11    1    3    3    0    0  0.24179177254E+02  0.21254874771E+02 -0.53157150863E+01  0.32629114934E+02  0.51100000000E-03 0.  1.
        -12    1    3    3    0    0 -0.41411382361E+01  0.10683311915E+02  0.11487792592E+02  0.16225028752E+02  0.00000000000E+00 0.  1.
</event>
<event>
 7    1  0.1192200E-011  0.5930188E+02  0.7816164E-02  0.1266605E+00
        -11   -1    0    0    0    0  0.00000000000E+00  0.00000000000E+00  0.45593999997E+02  0.45594000000E+02  0.51100000000E-03 0.  1.
         11   -1    0    0    0    0 -0.00000000000E+00 -0.00000000000E+00 -0.45593999997E+02  0.45594000000E+02  0.51100000000E-03 0. -1.
    9900012    2    1    2    0    0 -0.15160965717E+02 -0.93850743732E+01 -0.26434637781E+02  0.59301881122E+02  0.49999885276E+02 0.  0.
        -12    1    1    2    0    0  0.15160965717E+02  0.93850743732E+01  0.26434637781E+02  0.31886118878E+02  0.00000000000E+00 0.  1.
         11    1    3    3    0    0 -0.81157421391E+01  0.46774477517E+01  0.96663834375E+01  0.13460414442E+02  0.51100000000E-03 0.  1.
        -11    1    3    3    0    0  0.40516243301E+01 -0.91919525465E+01 -0.28363017109E+01  0.10438019879E+02  0.51100000000E-03 0. -1.
         12    1    3    3    0    0 -0.11096847908E+02 -0.48705695784E+01 -0.33264719508E+02  0.35403446802E+02  0.00000000000E+00 0. -1.
</event>
<event>
 7    1  0.1184848E-011  0.5930196E+02  0.7816164E-02  0.1266605E+00
        -11   -1    0    0    0    0  0.00000000000E+00  0.00000000000E+00  0.45593999997E+02  0.45594000000E+02  0.51100000000E-03 0.  1.
         11   -1    0    0    0    0 -0.00000000000E+00 -0.00000000000E+00 -0.45593999997E+02  0.45594000000E+02  0.51100000000E-03 0. -1.
    9900012    2    1    2    0    0  0.25108829984E+02  0.17965078462E+02 -0.79700730909E+01  0.59301961482E+02  0.50000031832E+02 0.  0.
        -12    1    1    2    0    0 -0.25108829984E+02 -0.17965078462E+02  0.79700730909E+01  0.31886038518E+02  0.00000000000E+00 0.  1.
         11    1    3    3    0    0  0.21676397374E+02  0.11670062740E+02 -0.22585070103E+02  0.33408710829E+02  0.51100000000E-03 0. -1.
        -11    1    3    3    0    0 -0.74740025778E-01 -0.57097933150E+01 -0.10935538220E+01  0.58140507388E+01  0.51100000000E-03 0.  1.
        -12    1    3    3    0    0  0.35071726362E+01  0.12004809037E+02  0.15708550834E+02  0.20079199914E+02  0.00000000000E+00 0.  1.
</event>
<event>
 7    1  0.1184848E-011  0.5930199E+02  0.7816164E-02  0.1266605E+00
        -11   -1    0    0    0    0  0.00000000000E+00  0.00000000000E+00  0.45593999997E+02  0.45594000000E+02  0.51100000000E-03 0.  1.
         11   -1    0    0    0    0 -0.00000000000E+00 -0.00000000000E+00 -0.45593999997E+02  0.45594000000E+02  0.51100000000E-03 0. -1.
    9900012    2    1    2    0    0  0.29854947723E+02 -0.36377900878E+01 -0.10590851291E+02  0.59301991292E+02  0.50000086199E+02 0.  0.
        -12    1    1    2    0    0 -0.29854947723E+02  0.36377900878E+01  0.10590851291E+02  0.31886008708E+02  0.00000000000E+00 0.  1.
         11    1    3    3    0    0 -0.39199260554E+01 -0.35060227999E+01  0.78874259561E+01  0.94799527756E+01  0.51100000000E-03 0. -1.
        -11    1    3    3    0    0  0.14802231727E+02  0.14188574908E+02 -0.13987239570E+01  0.20551840574E+02  0.51100000000E-03 0.  1.
        -12    1    3    3    0    0  0.18972642051E+02 -0.14320342196E+02 -0.17079553290E+02  0.29270197943E+02  0.00000000000E+00 0.  1.
</event>
<event>
 7    1  0.1184848E-011  0.5930204E+02  0.7816164E-02  0.1266604E+00
        -11   -1    0    0    0    0  0.00000000000E+00  0.00000000000E+00  0.45593999997E+02  0.45594000000E+02  0.51100000000E-03 0.  1.
         11   -1    0    0    0    0 -0.00000000000E+00 -0.00000000000E+00 -0.45593999997E+02  0.45594000000E+02  0.51100000000E-03 0. -1.
    9900012    2    1    2    0    0 -0.23370575470E+02  0.23245504494E+01 -0.21566808106E+02  0.59302038442E+02  0.50000172190E+02 0.  0.
        -12    1    1    2    0    0  0.23370575470E+02 -0.23245504494E+01  0.21566808106E+02  0.31885961558E+02  0.00000000000E+00 0.  1.
         11    1    3    3    0    0 -0.45027116793E+01 -0.46866586857E+00 -0.68411524592E+01  0.82033790230E+01  0.51100000000E-03 0. -1.
        -11    1    3    3    0    0  0.33190061487E+01 -0.16895308053E+02 -0.12645171303E+02  0.21362761843E+02  0.51100000000E-03 0.  1.
         12    1    3    3    0    0 -0.22186869939E+02  0.19688524371E+02 -0.20804843436E+01  0.29735897577E+02  0.00000000000E+00 0. -1.
</event>
<event>
 7    1  0.1184848E-011  0.5930191E+02  0.7816164E-02  0.1266605E+00
        -11   -1    0    0    0    0  0.00000000000E+00  0.00000000000E+00  0.45593999997E+02  0.45594000000E+02  0.51100000000E-03 0.  1.
         11   -1    0    0    0    0 -0.00000000000E+00 -0.00000000000E+00 -0.45593999997E+02  0.45594000000E+02  0.51100000000E-03 0. -1.
    9900012    2    1    2    0    0 -0.10515125117E+02 -0.27041758024E+02 -0.13224911515E+02  0.59301908709E+02  0.49999935587E+02 0.  0.
        -12    1    1    2    0    0  0.10515125117E+02  0.27041758024E+02  0.13224911515E+02  0.31886091291E+02  0.00000000000E+00 0.  1.
         11    1    3    3    0    0  0.66259429029E+01 -0.26963622355E+02 -0.19968785991E+01  0.27837520979E+02  0.51100000000E-03 0. -1.
        -11    1    3    3    0    0 -0.16684129735E+01 -0.31063489403E+01  0.67114789379E+01  0.75813557748E+01  0.51100000000E-03 0.  1.
         12    1    3    3    0    0 -0.15472655046E+02  0.30282132718E+01 -0.17939511854E+02  0.23883031955E+02  0.00000000000E+00 0. -1.
</event>
<event>
 7    1  0.1184848E-011  0.5930198E+02  0.7816164E-02  0.1266605E+00
        -11   -1    0    0    0    0  0.00000000000E+00  0.00000000000E+00  0.45593999997E+02  0.45594000000E+02  0.51100000000E-03 0.  1.
         11   -1    0    0    0    0 -0.00000000000E+00 -0.00000000000E+00 -0.45593999997E+02  0.45594000000E+02  0.51100000000E-03 0. -1.
    9900012    2    1    2    0    0  0.32512218184E+01  0.16711156947E+02 -0.26960809810E+02  0.59301976802E+02  0.50000059772E+02 0.  0.
        -12    1    1    2    0    0 -0.32512218184E+01 -0.16711156947E+02  0.26960809810E+02  0.31886023198E+02  0.00000000000E+00 0.  1.
         11    1    3    3    0    0  0.15367019159E+02  0.17825513108E+02 -0.20241260692E+02  0.31041952742E+02  0.51100000000E-03 0. -1.
        -11    1    3    3    0    0  0.77830660441E+00 -0.12245526839E+01 -0.13577751854E+02  0.13655058994E+02  0.51100000000E-03 0.  1.
         12    1    3    3    0    0 -0.12894103945E+02  0.11019652279E+00  0.68582027360E+01  0.14604965066E+02  0.00000000000E+00 0. -1.
</event>
<event>
 7    1  0.1184848E-011  0.5930194E+02  0.7816164E-02  0.1266605E+00
        -11   -1    0    0    0    0  0.00000000000E+00  0.00000000000E+00  0.45593999997E+02  0.45594000000E+02  0.51100000000E-03 0.  1.
         11   -1    0    0    0    0 -0.00000000000E+00 -0.00000000000E+00 -0.45593999997E+02  0.45594000000E+02  0.51100000000E-03 0. -1.
    9900012    2    1    2    0    0 -0.14231317393E+02  0.23212834732E+02 -0.16593824483E+02  0.59301935615E+02  0.49999984657E+02 0.  0.
        -12    1    1    2    0    0  0.14231317393E+02 -0.23212834732E+02  0.16593824483E+02  0.31886064385E+02  0.00000000000E+00 0.  1.
         11    1    3    3    0    0  0.12681706208E+02  0.53418811321E+01 -0.79948725568E+01  0.15914752711E+02  0.51100000000E-03 0. -1.
        -11    1    3    3    0    0 -0.13361693439E+02  0.18913310177E+02 -0.15773150192E+02  0.28018572780E+02  0.51100000000E-03 0.  1.
        -12    1    3    3    0    0 -0.13551330162E+02 -0.10423565772E+01  0.71741982658E+01  0.15368610124E+02  0.00000000000E+00 0.  1.
</event>
<event>
 7    1  0.1184848E-011  0.5930194E+02  0.7816164E-02  0.1266605E+00
        -11   -1    0    0    0    0  0.00000000000E+00  0.00000000000E+00  0.45593999997E+02  0.45594000000E+02  0.51100000000E-03 0.  1.
         11   -1    0    0    0    0 -0.00000000000E+00 -0.00000000000E+00 -0.45593999997E+02  0.45594000000E+02  0.51100000000E-03 0. -1.
    9900012    2    1    2    0    0  0.84525132306E+01  0.22364237407E+01 -0.30663890856E+02  0.59301940766E+02  0.49999994052E+02 0.  0.
        -12    1    1    2    0    0 -0.84525132306E+01 -0.22364237407E+01  0.30663890856E+02  0.31886059234E+02  0.00000000000E+00 0.  1.
         11    1    3    3    0    0  0.93075813577E+01 -0.11655368472E+02  0.65959018977E+01  0.16309034522E+02  0.51100000000E-03 0. -1.
        -11    1    3    3    0    0  0.44633501777E+01  0.49477820484E+01 -0.32249516727E+01  0.74028613090E+01  0.51100000000E-03 0.  1.
         12    1    3    3    0    0 -0.53184183048E+01  0.89440101642E+01 -0.34034841081E+02  0.35590044935E+02  0.00000000000E+00 0. -1.
</event>
<event>
 7    1  0.1184848E-011  0.5930195E+02  0.7816164E-02  0.1266605E+00
        -11   -1    0    0    0    0  0.00000000000E+00  0.00000000000E+00  0.45593999997E+02  0.45594000000E+02  0.51100000000E-03 0.  1.
         11   -1    0    0    0    0 -0.00000000000E+00 -0.00000000000E+00 -0.45593999997E+02  0.45594000000E+02  0.51100000000E-03 0. -1.
    9900012    2    1    2    0    0 -0.15765575454E+02  0.19876445663E+02 -0.19315631495E+02  0.59301951614E+02  0.50000013836E+02 0.  0.
        -12    1    1    2    0    0  0.15765575454E+02 -0.19876445663E+02  0.19315631495E+02  0.31886048386E+02  0.00000000000E+00 0.  1.
         11    1    3    3    0    0 -0.24254302116E+02  0.16675228626E+02 -0.82631738776E+01  0.30571464860E+02  0.51100000000E-03 0. -1.
        -11    1    3    3    0    0 -0.97285280627E+00  0.89692074883E+01 -0.14541714836E+02  0.17112994951E+02  0.51100000000E-03 0.  1.
        -12    1    3    3    0    0  0.94615794685E+01 -0.57679904511E+01  0.34892572185E+01  0.11617491804E+02  0.00000000000E+00 0.  1.
</event>
<event>
 7    1  0.1184848E-011  0.5930195E+02  0.7816164E-02  0.1266605E+00
        -11   -1    0    0    0    0  0.00000000000E+00  0.00000000000E+00  0.45593999997E+02  0.45594000000E+02  0.51100000000E-03 0. -1.
         11   -1    0    0    0    0 -0.00000000000E+00 -0.00000000000E+00 -0.45593999997E+02  0.45594000000E+02  0.51100000000E-03 0.  1.
    9900012    2    1    2    0    0 -0.26619119952E+02  0.41501169955E+01  0.17056353024E+02  0.59301949813E+02  0.50000010551E+02 0.  0.
        -12    1    1    2    0    0  0.26619119952E+02 -0.41501169955E+01 -0.17056353024E+02  0.31886050187E+02  0.00000000000E+00 0.  1.
         11    1    3    3    0    0  0.83217852509E+01 -0.33419998613E+01  0.13991068629E+02  0.16618395665E+02  0.51100000000E-03 0. -1.
        -11    1    3    3    0    0 -0.41367175136E+01  0.10800316988E+02  0.16290749229E+00  0.11566581947E+02  0.51100000000E-03 0.  1.
        -12    1    3    3    0    0 -0.30804187689E+02 -0.33082001312E+01  0.29023769027E+01  0.31116972201E+02  0.00000000000E+00 0.  1.
</event>
<event>
 7    1  0.1184848E-011  0.5930188E+02  0.7816164E-02  0.1266605E+00
        -11   -1    0    0    0    0  0.00000000000E+00  0.00000000000E+00  0.45593999997E+02  0.45594000000E+02  0.51100000000E-03 0.  1.
         11   -1    0    0    0    0 -0.00000000000E+00 -0.00000000000E+00 -0.45593999997E+02  0.45594000000E+02  0.51100000000E-03 0. -1.
    9900012    2    1    2    0    0  0.14006524207E+02 -0.16471106315E+02  0.23435969671E+02  0.59301878599E+02  0.49999880673E+02 0.  0.
        -12    1    1    2    0    0 -0.14006524207E+02  0.16471106315E+02 -0.23435969671E+02  0.31886121401E+02  0.00000000000E+00 0.  1.
         11    1    3    3    0    0  0.96273323536E+01 -0.21783967300E+02  0.14999858926E+02  0.28146447869E+02  0.51100000000E-03 0. -1.
        -11    1    3    3    0    0  0.14529573689E+02  0.96790941755E+01  0.98018370027E+01  0.20021722817E+02  0.51100000000E-03 0.  1.
         12    1    3    3    0    0 -0.10150381836E+02 -0.43662331902E+01 -0.13657262574E+01  0.11133707913E+02  0.00000000000E+00 0. -1.
</event>
<event>
 7    1  0.1184848E-011  0.5930196E+02  0.7816164E-02  0.1266605E+00
        -11   -1    0    0    0    0  0.00000000000E+00  0.00000000000E+00  0.45593999997E+02  0.45594000000E+02  0.51100000000E-03 0.  1.
         11   -1    0    0    0    0 -0.00000000000E+00 -0.00000000000E+00 -0.45593999997E+02  0.45594000000E+02  0.51100000000E-03 0. -1.
    9900012    2    1    2    0    0  0.16564275172E+02 -0.27093567600E+02 -0.28779929204E+01  0.59301961354E+02  0.50000031600E+02 0.  0.
        -12    1    1    2    0    0 -0.16564275172E+02  0.27093567600E+02  0.28779929204E+01  0.31886038646E+02  0.00000000000E+00 0.  1.
         11    1    3    3    0    0 -0.24983289794E+01 -0.51722441892E+01  0.20900791503E+02  0.21675720134E+02  0.51100000000E-03 0.  1.
        -11    1    3    3    0    0  0.90636046165E+01 -0.12198729492E+02 -0.13022010263E+02  0.20013262638E+02  0.51100000000E-03 0. -1.
        -12    1    3    3    0    0  0.99989995353E+01 -0.97225939178E+01 -0.10756774160E+02  0.17612978582E+02  0.00000000000E+00 0.  1.
</event>
<event>
 7    1  0.1184848E-011  0.5930193E+02  0.7816164E-02  0.1266605E+00
        -11   -1    0    0    0    0  0.00000000000E+00  0.00000000000E+00  0.45593999997E+02  0.45594000000E+02  0.51100000000E-03 0.  1.
         11   -1    0    0    0    0 -0.00000000000E+00 -0.00000000000E+00 -0.45593999997E+02  0.45594000000E+02  0.51100000000E-03 0. -1.
    9900012    2    1    2    0    0  0.14221701223E+01 -0.28833627018E+02  0.13539593040E+02  0.59301934163E+02  0.49999982010E+02 0.  0.
        -12    1    1    2    0    0 -0.14221701223E+01  0.28833627018E+02 -0.13539593040E+02  0.31886065837E+02  0.00000000000E+00 0.  1.
         11    1    3    3    0    0 -0.84022610521E+01 -0.26900749256E+00 -0.45036078733E+01  0.95369198359E+01  0.51100000000E-03 0.  1.
        -11    1    3    3    0    0  0.92964647771E+01 -0.83363984269E+01 -0.94275784603E+01  0.15646054837E+02  0.51100000000E-03 0. -1.
        -12    1    3    3    0    0  0.52796639727E+00 -0.20228221098E+02  0.27470779374E+02  0.34118959490E+02  0.00000000000E+00 0.  1.
</event>
<event>
 7    1  0.1184848E-011  0.5930195E+02  0.7816164E-02  0.1266605E+00
        -11   -1    0    0    0    0  0.00000000000E+00  0.00000000000E+00  0.45593999997E+02  0.45594000000E+02  0.51100000000E-03 0.  1.
         11   -1    0    0    0    0 -0.00000000000E+00 -0.00000000000E+00 -0.45593999997E+02  0.45594000000E+02  0.51100000000E-03 0. -1.
    9900012    2    1    2    0    0 -0.59751025510E+01  0.29268925529E+02 -0.11151170901E+02  0.59301945610E+02  0.50000002886E+02 0.  0.
        -12    1    1    2    0    0  0.59751025510E+01 -0.29268925529E+02  0.11151170901E+02  0.31886054390E+02  0.00000000000E+00 0.  1.
         11    1    3    3    0    0 -0.67478423843E+01  0.23583074382E+02 -0.18095692811E+02  0.30481943389E+02  0.51100000000E-03 0. -1.
        -11    1    3    3    0    0  0.44894164466E+01  0.71755281104E+01 -0.90150221240E+01  0.12365827423E+02  0.51100000000E-03 0.  1.
        -12    1    3    3    0    0 -0.37166766134E+01 -0.14896769641E+01  0.15959544035E+02  0.16454174798E+02  0.00000000000E+00 0.  1.
</event>
<event>
 7    1  0.1184848E-011  0.5930194E+02  0.7816164E-02  0.1266605E+00
        -11   -1    0    0    0    0  0.00000000000E+00  0.00000000000E+00  0.45593999997E+02  0.45594000000E+02  0.51100000000E-03 0.  1.
         11   -1    0    0    0    0 -0.00000000000E+00 -0.00000000000E+00 -0.45593999997E+02  0.45594000000E+02  0.51100000000E-03 0. -1.
    9900012    2    1    2    0    0 -0.49121736139E+01 -0.26993496612E+02 -0.16246313430E+02  0.59301937073E+02  0.49999987315E+02 0.  0.
        -12    1    1    2    0    0  0.49121736139E+01  0.26993496612E+02  0.16246313430E+02  0.31886062927E+02  0.00000000000E+00 0.  1.
         11    1    3    3    0    0 -0.90480826871E+01 -0.95086305220E+01  0.37529000873E+01  0.13651597491E+02  0.51100000000E-03 0. -1.
        -11    1    3    3    0    0 -0.37469951336E+01 -0.16113697678E+02  0.66467978490E+01  0.17828941284E+02  0.51100000000E-03 0.  1.
         12    1    3    3    0    0  0.78829042069E+01 -0.13711684119E+01 -0.26646011366E+02  0.27821398298E+02  0.00000000000E+00 0. -1.
</event>
<event>
 7    1  0.1184848E-011  0.5930196E+02  0.7816164E-02  0.1266605E+00
        -11   -1    0    0    0    0  0.00000000000E+00  0.00000000000E+00  0.45593999997E+02  0.45594000000E+02  0.51100000000E-03 0. -1.
         11   -1    0    0    0    0 -0.00000000000E+00 -0.00000000000E+00 -0.45593999997E+02  0.45594000000E+02  0.51100000000E-03 0.  1.
    9900012    2    1    2    0    0 -0.25469315041E+02 -0.11458958607E+02  0.15385895030E+02  0.59301960627E+02  0.50000030273E+02 0.  0.
        -12    1    1    2    0    0  0.25469315041E+02  0.11458958607E+02 -0.15385895030E+02  0.31886039373E+02  0.00000000000E+00 0.  1.
         11    1    3    3    0    0 -0.95644365540E+01 -0.56335161261E+01  0.26880387834E+01  0.11421055262E+02  0.51100000000E-03 0. -1.
        -11    1    3    3    0    0 -0.64178155267E+01 -0.83683070283E+01  0.27874783622E+02  0.29803028049E+02  0.51100000000E-03 0.  1.
         12    1    3    3    0    0 -0.94870629599E+01  0.25428645472E+01 -0.15176927375E+02  0.18077877316E+02  0.00000000000E+00 0. -1.
</event>
<event>
 7    1  0.1184848E-011  0.5930209E+02  0.7816164E-02  0.1266604E+00
        -11   -1    0    0    0    0  0.00000000000E+00  0.00000000000E+00  0.45593999997E+02  0.45594000000E+02  0.51100000000E-03 0. -1.
         11   -1    0    0    0    0 -0.00000000000E+00 -0.00000000000E+00 -0.45593999997E+02  0.45594000000E+02  0.51100000000E-03 0.  1.
    9900012    2    1    2    0    0  0.11419413923E+02 -0.11031012746E+02  0.27651851300E+02  0.59302091877E+02  0.50000269641E+02 0.  0.
        -12    1    1    2    0    0 -0.11419413923E+02  0.11031012746E+02 -0.27651851300E+02  0.31885908123E+02  0.00000000000E+00 0.  1.
         11    1    3    3    0    0  0.51644707350E+01  0.47825850016E+00  0.23383615347E+02  0.23951909237E+02  0.51100000000E-03 0. -1.
        -11    1    3    3    0    0 -0.26624290239E+01  0.93581477950E+01  0.76888810847E+01  0.12400901220E+02  0.51100000000E-03 0.  1.
        -12    1    3    3    0    0  0.89173722117E+01 -0.20867419041E+02 -0.34206451316E+01  0.22949281420E+02  0.00000000000E+00 0.  1.
</event>
<event>
 7    1  0.1184848E-011  0.5930196E+02  0.7816164E-02  0.1266605E+00
        -11   -1    0    0    0    0  0.00000000000E+00  0.00000000000E+00  0.45593999997E+02  0.45594000000E+02  0.51100000000E-03 0. -1.
         11   -1    0    0    0    0 -0.00000000000E+00 -0.00000000000E+00 -0.45593999997E+02  0.45594000000E+02  0.51100000000E-03 0.  1.
    9900012    2    1    2    0    0  0.21483574039E+02  0.12217553123E+02  0.20147132552E+02  0.59301960612E+02  0.50000030245E+02 0.  0.
        -12    1    1    2    0    0 -0.21483574039E+02 -0.12217553123E+02 -0.20147132552E+02  0.31886039388E+02  0.00000000000E+00 0.  1.
         11    1    3    3    0    0  0.46567619817E+01  0.88628603908E+01  0.13822864259E+02  0.17067726945E+02  0.51100000000E-03 0. -1.
        -11    1    3    3    0    0 -0.35056795292E+01 -0.10909596360E+02 -0.76096456083E+01  0.13755572989E+02  0.51100000000E-03 0.  1.
         12    1    3    3    0    0  0.20332491587E+02  0.14264289092E+02  0.13933913901E+02  0.28478660678E+02  0.00000000000E+00 0. -1.
</event>
<event>
 7    1  0.1184848E-011  0.5930193E+02  0.7816164E-02  0.1266605E+00
        -11   -1    0    0    0    0  0.00000000000E+00  0.00000000000E+00  0.45593999997E+02  0.45594000000E+02  0.51100000000E-03 0. -1.
         11   -1    0    0    0    0 -0.00000000000E+00 -0.00000000000E+00 -0.45593999997E+02  0.45594000000E+02  0.51100000000E-03 0.  1.
    9900012    2    1    2    0    0 -0.24303204890E+02 -0.17011211795E+02  0.11691638308E+02  0.59301929358E+02  0.49999973245E+02 0.  0.
        -12    1    1    2    0    0  0.24303204890E+02  0.17011211795E+02 -0.11691638308E+02  0.31886070642E+02  0.00000000000E+00 0.  1.
         11    1    3    3    0    0 -0.67088666030E+01 -0.68820704578E+00 -0.95162826654E+01  0.11663711076E+02  0.51100000000E-03 0. -1.
        -11    1    3    3    0    0  0.27314521312E+01  0.60211540842E+01 -0.44798290172E+01  0.79864883106E+01  0.51100000000E-03 0.  1.
         12    1    3    3    0    0 -0.20325790418E+02 -0.22344158834E+02  0.25687749991E+02  0.39651729971E+02  0.00000000000E+00 0. -1.
</event>
<event>
 7    1  0.1184848E-011  0.5930197E+02  0.7816164E-02  0.1266605E+00
        -11   -1    0    0    0    0  0.00000000000E+00  0.00000000000E+00  0.45593999997E+02  0.45594000000E+02  0.51100000000E-03 0.  1.
         11   -1    0    0    0    0 -0.00000000000E+00 -0.00000000000E+00 -0.45593999997E+02  0.45594000000E+02  0.51100000000E-03 0. -1.
    9900012    2    1    2    0    0  0.17803373483E+00  0.43878858730E+01 -0.31582170400E+02  0.59301972878E+02  0.50000052616E+02 0.  0.
        -12    1    1    2    0    0 -0.17803373483E+00 -0.43878858730E+01  0.31582170400E+02  0.31886027122E+02  0.00000000000E+00 0.  1.
         11    1    3    3    0    0  0.75062569632E+01  0.11971787399E+01 -0.60644190108E+00  0.76252804914E+01  0.51100000000E-03 0. -1.
        -11    1    3    3    0    0 -0.92556856619E+01 -0.45425193700E+01  0.72659663306E+01  0.12613344770E+02  0.51100000000E-03 0.  1.
         12    1    3    3    0    0  0.19274624336E+01  0.77332265031E+01 -0.38241694830E+02  0.39063347617E+02  0.00000000000E+00 0. -1.
</event>
<event>
 7    1  0.1184848E-011  0.5930192E+02  0.7816164E-02  0.1266605E+00
        -11   -1    0    0    0    0  0.00000000000E+00  0.00000000000E+00  0.45593999997E+02  0.45594000000E+02  0.51100000000E-03 0.  1.
         11   -1    0    0    0    0 -0.00000000000E+00 -0.00000000000E+00 -0.45593999997E+02  0.45594000000E+02  0.51100000000E-03 0. -1.
    9900012    2    1    2    0    0  0.13492478258E+02  0.16269472536E+02 -0.23874241399E+02  0.59301919832E+02  0.49999955872E+02 0.  0.
        -12    1    1    2    0    0 -0.13492478258E+02 -0.16269472536E+02  0.23874241399E+02  0.31886080168E+02  0.00000000000E+00 0.  1.
         11    1    3    3    0    0  0.43388069018E+01  0.10692360855E+02 -0.41254607538E+01  0.12254438081E+02  0.51100000000E-03 0. -1.
        -11    1    3    3    0    0 -0.15600683752E+02  0.62170855681E+01 -0.13397902712E+02  0.21483418812E+02  0.51100000000E-03 0.  1.
        -12    1    3    3    0    0  0.24754355108E+02 -0.63997388777E+00 -0.63508779331E+01  0.25564062938E+02  0.00000000000E+00 0.  1.
</event>
<event>
 7    1  0.1184848E-011  0.5930194E+02  0.7816164E-02  0.1266605E+00
        -11   -1    0    0    0    0  0.00000000000E+00  0.00000000000E+00  0.45593999997E+02  0.45594000000E+02  0.51100000000E-03 0.  1.
         11   -1    0    0    0    0 -0.00000000000E+00 -0.00000000000E+00 -0.45593999997E+02  0.45594000000E+02  0.51100000000E-03 0. -1.
    9900012    2    1    2    0    0 -0.98007240853E+00  0.25663236316E+02 -0.18898637784E+02  0.59301941131E+02  0.49999994716E+02 0.  0.
        -12    1    1    2    0    0  0.98007240853E+00 -0.25663236316E+02  0.18898637784E+02  0.31886058869E+02  0.00000000000E+00 0.  1.
         11    1    3    3    0    0  0.10623649401E+02  0.23727862756E+01 -0.16768809606E+02  0.19992123878E+02  0.51100000000E-03 0. -1.
        -11    1    3    3    0    0  0.57007103573E+01  0.13758382134E+02 -0.10112947115E+02  0.18001746502E+02  0.51100000000E-03 0.  1.
        -12    1    3    3    0    0 -0.17304432167E+02  0.95320679063E+01  0.79831189359E+01  0.21308070751E+02  0.00000000000E+00 0.  1.
</event>
<event>
 7    1  0.1184848E-011  0.5930199E+02  0.7816164E-02  0.1266605E+00
        -11   -1    0    0    0    0  0.00000000000E+00  0.00000000000E+00  0.45593999997E+02  0.45594000000E+02  0.51100000000E-03 0.  1.
         11   -1    0    0    0    0 -0.00000000000E+00 -0.00000000000E+00 -0.45593999997E+02  0.45594000000E+02  0.51100000000E-03 0. -1.
    9900012    2    1    2    0    0 -0.13121174836E+02 -0.29284911482E+01 -0.28913257667E+02  0.59301988045E+02  0.50000080277E+02 0.  0.
        -12    1    1    2    0    0  0.13121174836E+02  0.29284911482E+01  0.28913257667E+02  0.31886011955E+02  0.00000000000E+00 0.  1.
         11    1    3    3    0    0  0.76278487292E+01 -0.51576856271E+00 -0.47390362372E+01  0.89949184635E+01  0.51100000000E-03 0. -1.
        -11    1    3    3    0    0 -0.12975771256E+02 -0.27647950916E+01  0.91305854863E+01  0.16105350762E+02  0.51100000000E-03 0.  1.
         12    1    3    3    0    0 -0.77732523096E+01  0.35207250613E+00 -0.33304806916E+02  0.34201718820E+02  0.00000000000E+00 0. -1.
</event>
<event>
 7    1  0.1184848E-011  0.5930196E+02  0.7816164E-02  0.1266605E+00
        -11   -1    0    0    0    0  0.00000000000E+00  0.00000000000E+00  0.45593999997E+02  0.45594000000E+02  0.51100000000E-03 0.  1.
         11   -1    0    0    0    0 -0.00000000000E+00 -0.00000000000E+00 -0.45593999997E+02  0.45594000000E+02  0.51100000000E-03 0. -1.
    9900012    2    1    2    0    0 -0.55778358492E+01 -0.29581496398E+02 -0.10513900933E+02  0.59301963954E+02  0.50000036341E+02 0.  0.
        -12    1    1    2    0    0  0.55778358492E+01  0.29581496398E+02  0.10513900933E+02  0.31886036046E+02  0.00000000000E+00 0.  1.
         11    1    3    3    0    0 -0.13132569222E+02 -0.19763841090E+02 -0.20323716295E+02  0.31243034956E+02  0.51100000000E-03 0. -1.
        -11    1    3    3    0    0  0.13700184504E+01 -0.16414062305E+02  0.30069692735E+01  0.16743364547E+02  0.51100000000E-03 0.  1.
         12    1    3    3    0    0  0.61847149222E+01  0.65964069965E+01  0.68028460881E+01  0.11315564450E+02  0.00000000000E+00 0. -1.
</event>
<event>
 7    1  0.1184848E-011  0.5930191E+02  0.7816164E-02  0.1266605E+00
        -11   -1    0    0    0    0  0.00000000000E+00  0.00000000000E+00  0.45593999997E+02  0.45594000000E+02  0.51100000000E-03 0.  1.
         11   -1    0    0    0    0 -0.00000000000E+00 -0.00000000000E+00 -0.45593999997E+02  0.45594000000E+02  0.51100000000E-03 0. -1.
    9900012    2    1    2    0    0 -0.12536510181E+02  0.15042842080E+02 -0.25164888469E+02  0.59301909035E+02  0.49999936181E+02 0.  0.
        -12    1    1    2    0    0  0.12536510181E+02 -0.15042842080E+02  0.25164888469E+02  0.31886090965E+02  0.00000000000E+00 0.  1.
         11    1    3    3    0    0 -0.38862509131E+01 -0.66748568596E+01 -0.66722876782E+01  0.10206668574E+02  0.51100000000E-03 0. -1.
        -11    1    3    3    0    0 -0.22865115658E+02  0.19647473692E+02 -0.76630811060E+01  0.31105619248E+02  0.51100000000E-03 0.  1.
         12    1    3    3    0    0  0.14214856390E+02  0.20702252478E+01 -0.10829519685E+02  0.17989621213E+02  0.00000000000E+00 0. -1.
</event>
<event>
 7    1  0.1184848E-011  0.5930184E+02  0.7816164E-02  0.1266605E+00
        -11   -1    0    0    0    0  0.00000000000E+00  0.00000000000E+00  0.45593999997E+02  0.45594000000E+02  0.51100000000E-03 0. -1.
         11   -1    0    0    0    0 -0.00000000000E+00 -0.00000000000E+00 -0.45593999997E+02  0.45594000000E+02  0.51100000000E-03 0.  1.
    9900012    2    1    2    0    0 -0.24440509176E+02  0.15204398451E+02 -0.13719143367E+02  0.59301841313E+02  0.49999812673E+02 0.  0.
        -12    1    1    2    0    0  0.24440509176E+02 -0.15204398451E+02  0.13719143367E+02  0.31886158687E+02  0.00000000000E+00 0.  1.
         11    1    3    3    0    0 -0.14029597802E+02  0.25760527885E+02  0.41484182791E+01  0.29625053348E+02  0.51100000000E-03 0. -1.
        -11    1    3    3    0    0  0.14066807609E+01  0.11274628520E+00  0.30668962463E+01  0.33759910152E+01  0.51100000000E-03 0.  1.
        -12    1    3    3    0    0 -0.11817592135E+02 -0.10668875719E+02 -0.20934457893E+02  0.26300796950E+02  0.00000000000E+00 0.  1.
</event>
<event>
 7    1  0.1184848E-011  0.5930196E+02  0.7816164E-02  0.1266605E+00
        -11   -1    0    0    0    0  0.00000000000E+00  0.00000000000E+00  0.45593999997E+02  0.45594000000E+02  0.51100000000E-03 0.  1.
         11   -1    0    0    0    0 -0.00000000000E+00 -0.00000000000E+00 -0.45593999997E+02  0.45594000000E+02  0.51100000000E-03 0. -1.
    9900012    2    1    2    0    0 -0.87794815997E+01 -0.29965912548E+02 -0.64563212237E+01  0.59301963938E+02  0.50000036312E+02 0.  0.
        -12    1    1    2    0    0  0.87794815997E+01  0.29965912548E+02  0.64563212237E+01  0.31886036062E+02  0.00000000000E+00 0.  1.
         11    1    3    3    0    0  0.14031467395E+02  0.14497476009E+01 -0.16643516456E+01  0.14204010421E+02  0.51100000000E-03 0. -1.
        -11    1    3    3    0    0 -0.63054600562E+01 -0.93042672742E+00  0.60373228103E+01  0.87791678076E+01  0.51100000000E-03 0.  1.
        -12    1    3    3    0    0 -0.16505488939E+02 -0.30485233421E+02 -0.10829292388E+02  0.36318785710E+02  0.00000000000E+00 0.  1.
</event>
<event>
 7    1  0.1184848E-011  0.5930195E+02  0.7816164E-02  0.1266605E+00
        -11   -1    0    0    0    0  0.00000000000E+00  0.00000000000E+00  0.45593999997E+02  0.45594000000E+02  0.51100000000E-03 0.  1.
         11   -1    0    0    0    0 -0.00000000000E+00 -0.00000000000E+00 -0.45593999997E+02  0.45594000000E+02  0.51100000000E-03 0. -1.
    9900012    2    1    2    0    0 -0.45954061040E+01  0.21301854766E+02 -0.23277318083E+02  0.59301948020E+02  0.50000007281E+02 0.  0.
        -12    1    1    2    0    0  0.45954061040E+01 -0.21301854766E+02  0.23277318083E+02  0.31886051980E+02  0.00000000000E+00 0.  1.
         11    1    3    3    0    0  0.25852551535E+01  0.13202931331E+02  0.27375796383E+01  0.13729358415E+02  0.51100000000E-03 0.  1.
        -11    1    3    3    0    0  0.11534856829E+02  0.11521705831E+02 -0.46278229294E+01  0.16947547688E+02  0.51100000000E-03 0. -1.
        -12    1    3    3    0    0 -0.18715518087E+02 -0.34227823959E+01 -0.21387074792E+02  0.28625041917E+02  0.00000000000E+00 0.  1.
</event>
<event>
 7    1  0.1184848E-011  0.5930199E+02  0.7816164E-02  0.1266605E+00
        -11   -1    0    0    0    0  0.00000000000E+00  0.00000000000E+00  0.45593999997E+02  0.45594000000E+02  0.51100000000E-03 0.  1.
         11   -1    0    0    0    0 -0.00000000000E+00 -0.00000000000E+00 -0.45593999997E+02  0.45594000000E+02  0.51100000000E-03 0. -1.
    9900012    2    1    2    0    0  0.77056433997E+01 -0.93780916177E+01 -0.29485451242E+02  0.59301994018E+02  0.50000091169E+02 0.  0.
        -12    1    1    2    0    0 -0.77056433997E+01  0.93780916177E+01  0.29485451242E+02  0.31886005982E+02  0.00000000000E+00 0.  1.
         11    1    3    3    0    0  0.53874856803E+01 -0.20630940387E+02 -0.25796699856E+02  0.33468349630E+02  0.51100000000E-03 0. -1.
        -11    1    3    3    0    0  0.11091411753E+02  0.34557144650E+01 -0.70944030983E+01  0.13612197939E+02  0.51100000000E-03 0.  1.
         12    1    3    3    0    0 -0.87732540337E+01  0.77971343047E+01  0.34056517132E+01  0.12221446449E+02  0.00000000000E+00 0. -1.
</event>
<event>
 7    1  0.1184848E-011  0.5930198E+02  0.7816164E-02  0.1266605E+00
        -11   -1    0    0    0    0  0.00000000000E+00  0.00000000000E+00  0.45593999997E+02  0.45594000000E+02  0.51100000000E-03 0.  1.
         11   -1    0    0    0    0 -0.00000000000E+00 -0.00000000000E+00 -0.45593999997E+02  0.45594000000E+02  0.51100000000E-03 0. -1.
    9900012    2    1    2    0    0 -0.27858539347E+02 -0.80622551356E+01  0.13252173873E+02  0.59301979791E+02  0.50000065223E+02 0.  0.
        -12    1    1    2    0    0  0.27858539347E+02  0.80622551356E+01 -0.13252173873E+02  0.31886020209E+02  0.00000000000E+00 0.  1.
         11    1    3    3    0    0 -0.14129257143E+02  0.13598115114E+02  0.86154925620E+01  0.21418948490E+02  0.51100000000E-03 0. -1.
        -11    1    3    3    0    0 -0.99441186637E+01 -0.17308685186E+01  0.12552654649E+02  0.16107468480E+02  0.51100000000E-03 0.  1.
        -12    1    3    3    0    0 -0.37851635408E+01 -0.19929501731E+02 -0.79159733383E+01  0.21775562821E+02  0.00000000000E+00 0.  1.
</event>
<event>
 7    1  0.1184848E-011  0.5930194E+02  0.7816164E-02  0.1266605E+00
        -11   -1    0    0    0    0  0.00000000000E+00  0.00000000000E+00  0.45593999997E+02  0.45594000000E+02  0.51100000000E-03 0.  1.
         11   -1    0    0    0    0 -0.00000000000E+00 -0.00000000000E+00 -0.45593999997E+02  0.45594000000E+02  0.51100000000E-03 0. -1.
    9900012    2    1    2    0    0  0.26547519924E+02 -0.17452544879E+01 -0.17575676684E+02  0.59301935046E+02  0.49999983620E+02 0.  0.
        -12    1    1    2    0    0 -0.26547519924E+02  0.17452544879E+01  0.17575676684E+02  0.31886064954E+02  0.00000000000E+00 0.  1.
         11    1    3    3    0    0  0.14692867414E+02  0.74179273300E+01 -0.18350305382E+02  0.24650349015E+02  0.51100000000E-03 0. -1.
        -11    1    3    3    0    0 -0.72325922894E+01  0.66625224155E+01  0.67465323259E+00  0.98567110847E+01  0.51100000000E-03 0.  1.
         12    1    3    3    0    0  0.19087244799E+02 -0.15825704233E+02  0.99975465030E-01  0.24794874946E+02  0.00000000000E+00 0. -1.
</event>
<event>
 7    1  0.1184848E-011  0.5930194E+02  0.7816164E-02  0.1266605E+00
        -11   -1    0    0    0    0  0.00000000000E+00  0.00000000000E+00  0.45593999997E+02  0.45594000000E+02  0.51100000000E-03 0.  1.
         11   -1    0    0    0    0 -0.00000000000E+00 -0.00000000000E+00 -0.45593999997E+02  0.45594000000E+02  0.51100000000E-03 0. -1.
    9900012    2    1    2    0    0  0.29411827339E+02  0.32897164334E+01 -0.11867729447E+02  0.59301939976E+02  0.49999992610E+02 0.  0.
        -12    1    1    2    0    0 -0.29411827339E+02 -0.32897164334E+01  0.11867729447E+02  0.31886060024E+02  0.00000000000E+00 0.  1.
         11    1    3    3    0    0  0.46467037698E+01  0.11743929224E+02 -0.15355834438E+02  0.19882489308E+02  0.51100000000E-03 0. -1.
        -11    1    3    3    0    0  0.24388799169E+02  0.12146477260E+01 -0.67475156856E+01  0.25334124460E+02  0.51100000000E-03 0.  1.
        -12    1    3    3    0    0  0.37632440070E+00 -0.96688605164E+01  0.10235620676E+02  0.14085326207E+02  0.00000000000E+00 0.  1.
</event>
<event>
 7    1  0.1184848E-011  0.5930195E+02  0.7816164E-02  0.1266605E+00
        -11   -1    0    0    0    0  0.00000000000E+00  0.00000000000E+00  0.45593999997E+02  0.45594000000E+02  0.51100000000E-03 0.  1.
         11   -1    0    0    0    0 -0.00000000000E+00 -0.00000000000E+00 -0.45593999997E+02  0.45594000000E+02  0.51100000000E-03 0. -1.
    9900012    2    1    2    0    0  0.15481090003E+02  0.24721323294E+02 -0.12880684134E+02  0.59301952944E+02  0.50000016260E+02 0.  0.
        -12    1    1    2    0    0 -0.15481090003E+02 -0.24721323294E+02  0.12880684134E+02  0.31886047056E+02  0.00000000000E+00 0.  1.
         11    1    3    3    0    0  0.55861945251E+01 -0.28053373689E+01 -0.15885496831E+02  0.17071159798E+02  0.51100000000E-03 0. -1.
        -11    1    3    3    0    0 -0.10276099967E+02  0.14386522966E+02 -0.14861104422E+01  0.17742006597E+02  0.51100000000E-03 0.  1.
        -12    1    3    3    0    0  0.20170995445E+02  0.13140137697E+02  0.44909231393E+01  0.24488786548E+02  0.00000000000E+00 0.  1.
</event>
<event>
 7    1  0.1184848E-011  0.5930194E+02  0.7816164E-02  0.1266605E+00
        -11   -1    0    0    0    0  0.00000000000E+00  0.00000000000E+00  0.45593999997E+02  0.45594000000E+02  0.51100000000E-03 0.  1.
         11   -1    0    0    0    0 -0.00000000000E+00 -0.00000000000E+00 -0.45593999997E+02  0.45594000000E+02  0.51100000000E-03 0. -1.
    9900012    2    1    2    0    0  0.22703829863E+02  0.21406189658E+02  0.65598967732E+01  0.59301935774E+02  0.49999984947E+02 0.  0.
        -12    1    1    2    0    0 -0.22703829863E+02 -0.21406189658E+02 -0.65598967732E+01  0.31886064226E+02  0.00000000000E+00 0.  1.
         11    1    3    3    0    0  0.27003106474E+02  0.12337995749E+02 -0.10713363467E+02  0.31562161767E+02  0.51100000000E-03 0. -1.
        -11    1    3    3    0    0  0.77005003613E+01  0.31183500744E+01  0.63633510331E+01  0.10464896064E+02  0.51100000000E-03 0.  1.
        -12    1    3    3    0    0 -0.11999776972E+02  0.59498438350E+01  0.10909909207E+02  0.17274877943E+02  0.00000000000E+00 0.  1.
</event>
<event>
 7    1  0.1184848E-011  0.5930197E+02  0.7816164E-02  0.1266605E+00
        -11   -1    0    0    0    0  0.00000000000E+00  0.00000000000E+00  0.45593999997E+02  0.45594000000E+02  0.51100000000E-03 0.  1.
         11   -1    0    0    0    0 -0.00000000000E+00 -0.00000000000E+00 -0.45593999997E+02  0.45594000000E+02  0.51100000000E-03 0. -1.
    9900012    2    1    2    0    0 -0.16140872971E+01 -0.31041295399E+02 -0.71099837896E+01  0.59301965952E+02  0.50000039985E+02 0.  0.
        -12    1    1    2    0    0  0.16140872971E+01  0.31041295399E+02  0.71099837896E+01  0.31886034048E+02  0.00000000000E+00 0.  1.
         11    1    3    3    0    0 -0.20442071074E+01  0.60466979639E+01 -0.74540899058E+01  0.98135006776E+01  0.51100000000E-03 0. -1.
        -11    1    3    3    0    0 -0.94691672365E+01 -0.23479108682E+01  0.79362875306E+01  0.12576266283E+02  0.51100000000E-03 0.  1.
        -12    1    3    3    0    0  0.98992870468E+01 -0.34740082494E+02 -0.75921814144E+01  0.36912198991E+02  0.00000000000E+00 0.  1.
</event>
<event>
 7    1  0.1184848E-011  0.5930214E+02  0.7816164E-02  0.1266604E+00
        -11   -1    0    0    0    0  0.00000000000E+00  0.00000000000E+00  0.45593999997E+02  0.45594000000E+02  0.51100000000E-03 0.  1.
         11   -1    0    0    0    0 -0.00000000000E+00 -0.00000000000E+00 -0.45593999997E+02  0.45594000000E+02  0.51100000000E-03 0. -1.
    9900012    2    1    2    0    0  0.29389811295E+02  0.31458177943E+01 -0.11960399487E+02  0.59302135837E+02  0.50000349812E+02 0.  0.
        -12    1    1    2    0    0 -0.29389811295E+02 -0.31458177943E+01  0.11960399487E+02  0.31885864163E+02  0.00000000000E+00 0.  1.
         11    1    3    3    0    0 -0.28622597505E+01 -0.67305677517E+01 -0.83272808232E+01  0.11083170995E+02  0.51100000000E-03 0. -1.
        -11    1    3    3    0    0  0.14948579073E+02 -0.99299210094E+01  0.77663824066E+01  0.19554540227E+02  0.51100000000E-03 0.  1.
        -12    1    3    3    0    0  0.17303491973E+02  0.19806306555E+02 -0.11399501071E+02  0.28664424614E+02  0.00000000000E+00 0.  1.
</event>
<event>
 7    1  0.1184848E-011  0.5930193E+02  0.7816164E-02  0.1266605E+00
        -11   -1    0    0    0    0  0.00000000000E+00  0.00000000000E+00  0.45593999997E+02  0.45594000000E+02  0.51100000000E-03 0.  1.
         11   -1    0    0    0    0 -0.00000000000E+00 -0.00000000000E+00 -0.45593999997E+02  0.45594000000E+02  0.51100000000E-03 0. -1.
    9900012    2    1    2    0    0 -0.23356041447E+02  0.66274273888E+01 -0.20671095700E+02  0.59301926812E+02  0.49999968603E+02 0.  0.
        -12    1    1    2    0    0  0.23356041447E+02 -0.66274273888E+01  0.20671095700E+02  0.31886073188E+02  0.00000000000E+00 0.  1.
         11    1    3    3    0    0 -0.47589344010E+01  0.11991214774E+02 -0.17561070210E+02  0.21790545555E+02  0.51100000000E-03 0. -1.
        -11    1    3    3    0    0 -0.22451281787E+02  0.62821494857E+01  0.35029276832E+01  0.23575325208E+02  0.51100000000E-03 0.  1.
         12    1    3    3    0    0  0.38541747406E+01 -0.11645936871E+02 -0.66129531730E+01  0.13936056049E+02  0.00000000000E+00 0. -1.
</event>
<event>
 7    1  0.1184848E-011  0.5930194E+02  0.7816164E-02  0.1266605E+00
        -11   -1    0    0    0    0  0.00000000000E+00  0.00000000000E+00  0.45593999997E+02  0.45594000000E+02  0.51100000000E-03 0.  1.
         11   -1    0    0    0    0 -0.00000000000E+00 -0.00000000000E+00 -0.45593999997E+02  0.45594000000E+02  0.51100000000E-03 0. -1.
    9900012    2    1    2    0    0  0.37186651347E+01 -0.30528004845E+02 -0.84221753747E+01  0.59301943671E+02  0.49999999349E+02 0.  0.
        -12    1    1    2    0    0 -0.37186651347E+01  0.30528004845E+02  0.84221753747E+01  0.31886056329E+02  0.00000000000E+00 0.  1.
         11    1    3    3    0    0 -0.13303703585E+02 -0.21224262885E+02 -0.96465184782E+01  0.26842376629E+02  0.51100000000E-03 0. -1.
        -11    1    3    3    0    0 -0.46100619884E+01  0.47572495771E+01 -0.95270970521E-01  0.66251922156E+01  0.51100000000E-03 0.  1.
        -12    1    3    3    0    0  0.21632430708E+02 -0.14060991537E+02  0.13196140740E+01  0.25834374826E+02  0.00000000000E+00 0.  1.
</event>
<event>
 7    1  0.1184848E-011  0.5930190E+02  0.7816164E-02  0.1266605E+00
        -11   -1    0    0    0    0  0.00000000000E+00  0.00000000000E+00  0.45593999997E+02  0.45594000000E+02  0.51100000000E-03 0. -1.
         11   -1    0    0    0    0 -0.00000000000E+00 -0.00000000000E+00 -0.45593999997E+02  0.45594000000E+02  0.51100000000E-03 0.  1.
    9900012    2    1    2    0    0  0.29551559346E+02  0.84849646718E+00 -0.11946084156E+02  0.59301897500E+02  0.49999915144E+02 0.  0.
        -12    1    1    2    0    0 -0.29551559346E+02 -0.84849646718E+00  0.11946084156E+02  0.31886102500E+02  0.00000000000E+00 0.  1.
         11    1    3    3    0    0 -0.13118552179E+01  0.36577778865E+01  0.98454557799E+01  0.10584578544E+02  0.51100000000E-03 0. -1.
        -11    1    3    3    0    0  0.75390747813E+01  0.46134798740E+01 -0.22558593199E+02  0.24228329956E+02  0.51100000000E-03 0.  1.
         12    1    3    3    0    0  0.23324339782E+02 -0.74227612933E+01  0.76705326332E+00  0.24488988999E+02  0.00000000000E+00 0. -1.
</event>
<event>
 7    1  0.1184848E-011  0.5930194E+02  0.7816164E-02  0.1266605E+00
        -11   -1    0    0    0    0  0.00000000000E+00  0.00000000000E+00  0.45593999997E+02  0.45594000000E+02  0.51100000000E-03 0.  1.
         11   -1    0    0    0    0 -0.00000000000E+00 -0.00000000000E+00 -0.45593999997E+02  0.45594000000E+02  0.51100000000E-03 0. -1.
    9900012    2    1    2    0    0 -0.11205081941E+02  0.16985594507E+02 -0.24549069921E+02  0.59301935394E+02  0.49999984255E+02 0.  0.
        -12    1    1    2    0    0  0.11205081941E+02 -0.16985594507E+02  0.24549069921E+02  0.31886064606E+02  0.00000000000E+00 0.  1.
         11    1    3    3    0    0  0.12781817025E+02  0.84108332410E+01 -0.56650233334E+01  0.16315926327E+02  0.51100000000E-03 0.  1.
        -11    1    3    3    0    0 -0.51585500975E+01 -0.12570972871E+01 -0.20980571095E+02  0.21641979956E+02  0.51100000000E-03 0. -1.
        -12    1    3    3    0    0 -0.18828348868E+02  0.98318585536E+01  0.20965245074E+01  0.21344029112E+02  0.00000000000E+00 0.  1.
</event>
<event>
 7    1  0.1184848E-011  0.5930195E+02  0.7816164E-02  0.1266605E+00
        -11   -1    0    0    0    0  0.00000000000E+00  0.00000000000E+00  0.45593999997E+02  0.45594000000E+02  0.51100000000E-03 0.  1.
         11   -1    0    0    0    0 -0.00000000000E+00 -0.00000000000E+00 -0.45593999997E+02  0.45594000000E+02  0.51100000000E-03 0. -1.
    9900012    2    1    2    0    0 -0.17608530992E+02 -0.23797895007E+02 -0.11845671845E+02  0.59301951140E+02  0.50000012971E+02 0.  0.
        -12    1    1    2    0    0  0.17608530992E+02  0.23797895007E+02  0.11845671845E+02  0.31886048860E+02  0.00000000000E+00 0.  1.
         11    1    3    3    0    0 -0.86122830387E+01 -0.26439744486E+02  0.74964093303E+01  0.28799785776E+02  0.51100000000E-03 0. -1.
        -11    1    3    3    0    0  0.40715887255E+01 -0.23091964469E+01  0.19197016823E+01  0.50591973464E+01  0.51100000000E-03 0.  1.
        -12    1    3    3    0    0 -0.13067836679E+02  0.49510459265E+01 -0.21261782858E+02  0.25442968017E+02  0.00000000000E+00 0.  1.
</event>
<event>
 7    1  0.1184848E-011  0.5930195E+02  0.7816164E-02  0.1266605E+00
        -11   -1    0    0    0    0  0.00000000000E+00  0.00000000000E+00  0.45593999997E+02  0.45594000000E+02  0.51100000000E-03 0. -1.
         11   -1    0    0    0    0 -0.00000000000E+00 -0.00000000000E+00 -0.45593999997E+02  0.45594000000E+02  0.51100000000E-03 0.  1.
    9900012    2    1    2    0    0  0.11478674714E+02 -0.28027784567E+02  0.99701408749E+01  0.59301946780E+02  0.50000005019E+02 0.  0.
        -12    1    1    2    0    0 -0.11478674714E+02  0.28027784567E+02 -0.99701408749E+01  0.31886053220E+02  0.00000000000E+00 0.  1.
         11    1    3    3    0    0  0.10855704912E+02  0.51047319849E+01 -0.10295003185E+01  0.12040119972E+02  0.51100000000E-03 0. -1.
        -11    1    3    3    0    0  0.35921243076E+01 -0.18313713801E+02 -0.10167776447E+02  0.21252744490E+02  0.51100000000E-03 0.  1.
         12    1    3    3    0    0 -0.29691545061E+01 -0.14818802751E+02  0.21167417640E+02  0.26009082317E+02  0.00000000000E+00 0. -1.
</event>
<event>
 7    1  0.1184848E-011  0.5930197E+02  0.7816164E-02  0.1266605E+00
        -11   -1    0    0    0    0  0.00000000000E+00  0.00000000000E+00  0.45593999997E+02  0.45594000000E+02  0.51100000000E-03 0. -1.
         11   -1    0    0    0    0 -0.00000000000E+00 -0.00000000000E+00 -0.45593999997E+02  0.45594000000E+02  0.51100000000E-03 0.  1.
    9900012    2    1    2    0    0 -0.49510779535E+01  0.59600999453E+01  0.30930293313E+02  0.59301968439E+02  0.50000044520E+02 0.  0.
        -12    1    1    2    0    0  0.49510779535E+01 -0.59600999453E+01 -0.30930293313E+02  0.31886031561E+02  0.00000000000E+00 0.  1.
         11    1    3    3    0    0  0.20002822212E+01  0.83578214617E+01 -0.12313249803E+01  0.86816167860E+01  0.51100000000E-03 0. -1.
        -11    1    3    3    0    0  0.13995055404E+02 -0.95411244721E+01  0.13117009746E+02  0.21423131817E+02  0.51100000000E-03 0.  1.
         12    1    3    3    0    0 -0.20946415578E+02  0.71434029556E+01  0.19044608548E+02  0.29197219836E+02  0.00000000000E+00 0. -1.
</event>
<event>
 7    1  0.1184848E-011  0.5930196E+02  0.7816164E-02  0.1266605E+00
        -11   -1    0    0    0    0  0.00000000000E+00  0.00000000000E+00  0.45593999997E+02  0.45594000000E+02  0.51100000000E-03 0.  1.
         11   -1    0    0    0    0 -0.00000000000E+00 -0.00000000000E+00 -0.45593999997E+02  0.45594000000E+02  0.51100000000E-03 0. -1.
    9900012    2    1    2    0    0 -0.77211622332E+01  0.13101276866E+02 -0.28026060363E+02  0.59301955071E+02  0.50000020141E+02 0.  0.
        -12    1    1    2    0    0  0.77211622332E+01 -0.13101276866E+02  0.28026060363E+02  0.31886044929E+02  0.00000000000E+00 0.  1.
         11    1    3    3    0    0 -0.17444958617E+02  0.14529690643E+02 -0.12804690410E+01  0.22739351190E+02  0.51100000000E-03 0. -1.
        -11    1    3    3    0    0 -0.75321510890E+01 -0.57623455667E+00 -0.66814338130E+01  0.10084984103E+02  0.51100000000E-03 0.  1.
         12    1    3    3    0    0  0.17255947473E+02 -0.85217922013E+00 -0.20064157509E+02  0.26477619779E+02  0.00000000000E+00 0. -1.
</event>
<event>
 7    1  0.1184848E-011  0.5930194E+02  0.7816164E-02  0.1266605E+00
        -11   -1    0    0    0    0  0.00000000000E+00  0.00000000000E+00  0.45593999997E+02  0.45594000000E+02  0.51100000000E-03 0.  1.
         11   -1    0    0    0    0 -0.00000000000E+00 -0.00000000000E+00 -0.45593999997E+02  0.45594000000E+02  0.51100000000E-03 0. -1.
    9900012    2    1    2    0    0  0.23913181637E+02 -0.37394530370E+01 -0.20758054526E+02  0.59301943601E+02  0.49999999221E+02 0.  0.
        -12    1    1    2    0    0 -0.23913181637E+02  0.37394530370E+01  0.20758054526E+02  0.31886056399E+02  0.00000000000E+00 0.  1.
         11    1    3    3    0    0  0.18115075902E+02 -0.33431979172E+01  0.46298954439E+01  0.18993916904E+02  0.51100000000E-03 0. -1.
        -11    1    3    3    0    0  0.95615537707E+01  0.12363631782E+02 -0.58868349351E+01  0.16701422908E+02  0.51100000000E-03 0.  1.
         12    1    3    3    0    0 -0.37634480364E+01 -0.12759886901E+02 -0.19501115035E+02  0.23606603789E+02  0.00000000000E+00 0. -1.
</event>
<event>
 7    1  0.1184848E-011  0.5930193E+02  0.7816164E-02  0.1266605E+00
        -11   -1    0    0    0    0  0.00000000000E+00  0.00000000000E+00  0.45593999997E+02  0.45594000000E+02  0.51100000000E-03 0. -1.
         11   -1    0    0    0    0 -0.00000000000E+00 -0.00000000000E+00 -0.45593999997E+02  0.45594000000E+02  0.51100000000E-03 0.  1.
    9900012    2    1    2    0    0 -0.28717185393E+02  0.11989539720E+02  0.69494877647E+01  0.59301934395E+02  0.49999982432E+02 0.  0.
        -12    1    1    2    0    0  0.28717185393E+02 -0.11989539720E+02 -0.69494877647E+01  0.31886065605E+02  0.00000000000E+00 0.  1.
         11    1    3    3    0    0 -0.69651263049E+01 -0.90262595992E+01  0.87384502705E+01  0.14364778459E+02  0.51100000000E-03 0. -1.
        -11    1    3    3    0    0 -0.24720777784E+01  0.50015876887E+01  0.14166858544E+02  0.15225863825E+02  0.51100000000E-03 0.  1.
        -12    1    3    3    0    0 -0.19279981310E+02  0.16014211631E+02 -0.15955821050E+02  0.29711292110E+02  0.00000000000E+00 0.  1.
</event>
<event>
 7    1  0.1184848E-011  0.5930194E+02  0.7816164E-02  0.1266605E+00
        -11   -1    0    0    0    0  0.00000000000E+00  0.00000000000E+00  0.45593999997E+02  0.45594000000E+02  0.51100000000E-03 0.  1.
         11   -1    0    0    0    0 -0.00000000000E+00 -0.00000000000E+00 -0.45593999997E+02  0.45594000000E+02  0.51100000000E-03 0. -1.
    9900012    2    1    2    0    0  0.98998712731E+00  0.23499667920E+02 -0.21529194924E+02  0.59301941903E+02  0.49999996125E+02 0.  0.
        -12    1    1    2    0    0 -0.98998712731E+00 -0.23499667920E+02  0.21529194924E+02  0.31886058097E+02  0.00000000000E+00 0.  1.
         11    1    3    3    0    0  0.42392233079E+01 -0.25727930310E+01  0.15060081017E+01  0.51825031499E+01  0.51100000000E-03 0. -1.
        -11    1    3    3    0    0  0.12027745318E+02 -0.95924683451E+00 -0.19415357504E+02  0.22859197693E+02  0.51100000000E-03 0.  1.
         12    1    3    3    0    0 -0.15276981499E+02  0.27031707786E+02 -0.36198455224E+01  0.31260241060E+02  0.00000000000E+00 0. -1.
</event>
<event>
 7    1  0.1184848E-011  0.5930194E+02  0.7816164E-02  0.1266605E+00
        -11   -1    0    0    0    0  0.00000000000E+00  0.00000000000E+00  0.45593999997E+02  0.45594000000E+02  0.51100000000E-03 0.  1.
         11   -1    0    0    0    0 -0.00000000000E+00 -0.00000000000E+00 -0.45593999997E+02  0.45594000000E+02  0.51100000000E-03 0. -1.
    9900012    2    1    2    0    0  0.28158029345E+02  0.11306702129E+02 -0.97981874968E+01  0.59301943363E+02  0.49999998788E+02 0.  0.
        -12    1    1    2    0    0 -0.28158029345E+02 -0.11306702129E+02  0.97981874968E+01  0.31886056637E+02  0.00000000000E+00 0.  1.
         11    1    3    3    0    0 -0.54603711445E+00  0.44509891790E+01 -0.19906494010E+02  0.20405341586E+02  0.51100000000E-03 0. -1.
        -11    1    3    3    0    0  0.71037395744E+00 -0.33201974750E+01  0.84017897471E+01  0.90619210793E+01  0.51100000000E-03 0.  1.
         12    1    3    3    0    0  0.27993692502E+02  0.10175910425E+02  0.17065167661E+01  0.29834680698E+02  0.00000000000E+00 0. -1.
</event>
<event>
 7    1  0.1184848E-011  0.5930194E+02  0.7816164E-02  0.1266605E+00
        -11   -1    0    0    0    0  0.00000000000E+00  0.00000000000E+00  0.45593999997E+02  0.45594000000E+02  0.51100000000E-03 0.  1.
         11   -1    0    0    0    0 -0.00000000000E+00 -0.00000000000E+00 -0.45593999997E+02  0.45594000000E+02  0.51100000000E-03 0. -1.
    9900012    2    1    2    0    0  0.20504077147E+02 -0.49765536894E+01 -0.23906858175E+02  0.59301935112E+02  0.49999983739E+02 0.  0.
        -12    1    1    2    0    0 -0.20504077147E+02  0.49765536894E+01  0.23906858175E+02  0.31886064888E+02  0.00000000000E+00 0.  1.
         11    1    3    3    0    0  0.16594407922E+02 -0.35369589949E+01 -0.35976051666E+02  0.39776384287E+02  0.51100000000E-03 0. -1.
        -11    1    3    3    0    0  0.30380562947E+01 -0.65948040549E+01  0.10599721644E+01  0.73378994149E+01  0.51100000000E-03 0.  1.
        -12    1    3    3    0    0  0.87161293020E+00  0.51552093604E+01  0.11009221327E+02  0.12187651409E+02  0.00000000000E+00 0.  1.
</event>
<event>
 7    1  0.1184848E-011  0.5930196E+02  0.7816164E-02  0.1266605E+00
        -11   -1    0    0    0    0  0.00000000000E+00  0.00000000000E+00  0.45593999997E+02  0.45594000000E+02  0.51100000000E-03 0. -1.
         11   -1    0    0    0    0 -0.00000000000E+00 -0.00000000000E+00 -0.45593999997E+02  0.45594000000E+02  0.51100000000E-03 0.  1.
    9900012    2    1    2    0    0 -0.26101813775E+02 -0.15139874052E+02 -0.10305306355E+02  0.59301955910E+02  0.50000021671E+02 0.  0.
        -12    1    1    2    0    0  0.26101813775E+02  0.15139874052E+02  0.10305306355E+02  0.31886044090E+02  0.00000000000E+00 0.  1.
         11    1    3    3    0    0 -0.12335367737E+02  0.49007613328E+01 -0.22248854920E+01  0.13458412780E+02  0.51100000000E-03 0. -1.
        -11    1    3    3    0    0  0.99289992056E+01  0.44092061923E+01 -0.62428200309E-01  0.10864162278E+02  0.51100000000E-03 0.  1.
         12    1    3    3    0    0 -0.23695445243E+02 -0.24449841577E+02 -0.80179926627E+01  0.34979380851E+02  0.00000000000E+00 0. -1.
</event>
<event>
 7    1  0.1184848E-011  0.5930202E+02  0.7816164E-02  0.1266604E+00
        -11   -1    0    0    0    0  0.00000000000E+00  0.00000000000E+00  0.45593999997E+02  0.45594000000E+02  0.51100000000E-03 0.  1.
         11   -1    0    0    0    0 -0.00000000000E+00 -0.00000000000E+00 -0.45593999997E+02  0.45594000000E+02  0.51100000000E-03 0. -1.
    9900012    2    1    2    0    0 -0.70137783349E+01  0.17063282314E+02 -0.26007058100E+02  0.59302019367E+02  0.50000137401E+02 0.  0.
        -12    1    1    2    0    0  0.70137783349E+01 -0.17063282314E+02  0.26007058100E+02  0.31885980633E+02  0.00000000000E+00 0.  1.
         11    1    3    3    0    0  0.42043085522E-01 -0.38488285114E+01  0.95866774649E+01  0.10330519523E+02  0.51100000000E-03 0. -1.
        -11    1    3    3    0    0  0.16413192296E+01 -0.26049779676E+01  0.20806794686E+01  0.37160552118E+01  0.51100000000E-03 0.  1.
         12    1    3    3    0    0 -0.86971406500E+01  0.23517088793E+02 -0.37674415034E+02  0.45255444633E+02  0.00000000000E+00 0. -1.
</event>
<event>
 7    1  0.1184848E-011  0.5930195E+02  0.7816164E-02  0.1266605E+00
        -11   -1    0    0    0    0  0.00000000000E+00  0.00000000000E+00  0.45593999997E+02  0.45594000000E+02  0.51100000000E-03 0. -1.
         11   -1    0    0    0    0 -0.00000000000E+00 -0.00000000000E+00 -0.45593999997E+02  0.45594000000E+02  0.51100000000E-03 0.  1.
    9900012    2    1    2    0    0 -0.29359745927E+02 -0.12148812209E+02  0.26705795528E+01  0.59301947969E+02  0.50000007188E+02 0.  0.
        -12    1    1    2    0    0  0.29359745927E+02  0.12148812209E+02 -0.26705795528E+01  0.31886052031E+02  0.00000000000E+00 0.  1.
         11    1    3    3    0    0 -0.11538296031E+02 -0.15911712792E+02  0.13731993781E+02  0.23976708130E+02  0.51100000000E-03 0. -1.
        -11    1    3    3    0    0 -0.36351643666E+01 -0.10777425229E+02 -0.97289025764E+01  0.14967259607E+02  0.51100000000E-03 0.  1.
        -12    1    3    3    0    0 -0.14186285529E+02  0.14540325812E+02 -0.13325116519E+01  0.20357980232E+02  0.00000000000E+00 0.  1.
</event>
<event>
 7    1  0.1184848E-011  0.5930196E+02  0.7816164E-02  0.1266605E+00
        -11   -1    0    0    0    0  0.00000000000E+00  0.00000000000E+00  0.45593999997E+02  0.45594000000E+02  0.51100000000E-03 0.  1.
         11   -1    0    0    0    0 -0.00000000000E+00 -0.00000000000E+00 -0.45593999997E+02  0.45594000000E+02  0.51100000000E-03 0. -1.
    9900012    2    1    2    0    0 -0.18803323191E+01 -0.30384822865E+02  0.94840210009E+01  0.59301956587E+02  0.50000022906E+02 0.  0.
        -12    1    1    2    0    0  0.18803323191E+01  0.30384822865E+02 -0.94840210009E+01  0.31886043413E+02  0.00000000000E+00 0.  1.
         11    1    3    3    0    0  0.85522501534E+00 -0.33914116477E+01 -0.13504968243E+02  0.13950528675E+02  0.51100000000E-03 0. -1.
        -11    1    3    3    0    0  0.82853803777E+01 -0.20653364644E+02  0.41710606331E+01  0.22640820351E+02  0.51100000000E-03 0.  1.
        -12    1    3    3    0    0 -0.11020937712E+02 -0.63400465733E+01  0.18817928611E+02  0.22710607561E+02  0.00000000000E+00 0.  1.
</event>
<event>
 7    1  0.1184848E-011  0.5930206E+02  0.7816164E-02  0.1266604E+00
        -11   -1    0    0    0    0  0.00000000000E+00  0.00000000000E+00  0.45593999997E+02  0.45594000000E+02  0.51100000000E-03 0.  1.
         11   -1    0    0    0    0 -0.00000000000E+00 -0.00000000000E+00 -0.45593999997E+02  0.45594000000E+02  0.51100000000E-03 0. -1.
    9900012    2    1    2    0    0  0.30341802422E+02  0.55667524744E+01 -0.80684051695E+01  0.59302064711E+02  0.50000220096E+02 0.  0.
        -12    1    1    2    0    0 -0.30341802422E+02 -0.55667524744E+01  0.80684051695E+01  0.31885935289E+02  0.00000000000E+00 0.  1.
         11    1    3    3    0    0  0.35132614724E+01  0.29776245007E+01  0.71640860353E+01  0.85166532642E+01  0.51100000000E-03 0. -1.
        -11    1    3    3    0    0 -0.21168459464E+01 -0.12021447713E+02  0.42895274017E+01  0.12938171720E+02  0.51100000000E-03 0.  1.
        -12    1    3    3    0    0  0.28945386896E+02  0.14610575686E+02 -0.19522018607E+02  0.37847239726E+02  0.00000000000E+00 0.  1.
</event>
<event>
 7    1  0.1184848E-011  0.5930221E+02  0.7816164E-02  0.1266604E+00
        -11   -1    0    0    0    0  0.00000000000E+00  0.00000000000E+00  0.45593999997E+02  0.45594000000E+02  0.51100000000E-03 0. -1.
         11   -1    0    0    0    0 -0.00000000000E+00 -0.00000000000E+00 -0.45593999997E+02  0.45594000000E+02  0.51100000000E-03 0.  1.
    9900012    2    1    2    0    0  0.22176076340E+01 -0.17643019002E+01  0.31759610252E+02  0.59302213383E+02  0.50000491237E+02 0.  0.
        -12    1    1    2    0    0 -0.22176076340E+01  0.17643019002E+01 -0.31759610252E+02  0.31885786617E+02  0.00000000000E+00 0.  1.
         11    1    3    3    0    0  0.18412522077E+02 -0.10676080332E+02  0.29122060525E+02  0.36070681584E+02  0.51100000000E-03 0. -1.
        -11    1    3    3    0    0 -0.50885614712E+01 -0.26100784569E+01  0.42815344343E+01  0.71440538052E+01  0.51100000000E-03 0.  1.
        -12    1    3    3    0    0 -0.11106352971E+02  0.11521856889E+02 -0.16439847071E+01  0.16087477994E+02  0.00000000000E+00 0.  1.
</event>
<event>
 7    1  0.1184848E-011  0.5930195E+02  0.7816164E-02  0.1266605E+00
        -11   -1    0    0    0    0  0.00000000000E+00  0.00000000000E+00  0.45593999997E+02  0.45594000000E+02  0.51100000000E-03 0. -1.
         11   -1    0    0    0    0 -0.00000000000E+00 -0.00000000000E+00 -0.45593999997E+02  0.45594000000E+02  0.51100000000E-03 0.  1.
    9900012    2    1    2    0    0  0.85013541748E+01  0.28251960096E+02 -0.12094379127E+02  0.59301948527E+02  0.50000008206E+02 0.  0.
        -12    1    1    2    0    0 -0.85013541748E+01 -0.28251960096E+02  0.12094379127E+02  0.31886051473E+02  0.00000000000E+00 0.  1.
         11    1    3    3    0    0  0.12864608635E+01  0.18440269356E+02 -0.85024263208E+01  0.20346738536E+02  0.51100000000E-03 0. -1.
        -11    1    3    3    0    0 -0.46766275452E+01 -0.60815624758E+01 -0.14427764955E+02  0.16340644087E+02  0.51100000000E-03 0.  1.
         12    1    3    3    0    0  0.11891520857E+02  0.15893253216E+02  0.10835812149E+02  0.22614565903E+02  0.00000000000E+00 0. -1.
</event>
<event>
 7    1  0.1184848E-011  0.5930194E+02  0.7816164E-02  0.1266605E+00
        -11   -1    0    0    0    0  0.00000000000E+00  0.00000000000E+00  0.45593999997E+02  0.45594000000E+02  0.51100000000E-03 0.  1.
         11   -1    0    0    0    0 -0.00000000000E+00 -0.00000000000E+00 -0.45593999997E+02  0.45594000000E+02  0.51100000000E-03 0. -1.
    9900012    2    1    2    0    0 -0.11180268244E+02 -0.94690702723E+01 -0.28320646356E+02  0.59301941920E+02  0.49999996157E+02 0.  0.
        -12    1    1    2    0    0  0.11180268244E+02  0.94690702723E+01  0.28320646356E+02  0.31886058080E+02  0.00000000000E+00 0.  1.
         11    1    3    3    0    0 -0.17513894772E+02  0.44816926441E+00  0.51683146678E+01  0.18266057115E+02  0.51100000000E-03 0. -1.
        -11    1    3    3    0    0  0.33130346297E+01  0.51690230921E+01 -0.28883606338E+01  0.67851032119E+01  0.51100000000E-03 0.  1.
         12    1    3    3    0    0  0.30205918984E+01 -0.15086262629E+02 -0.30600600390E+02  0.34250781593E+02  0.00000000000E+00 0. -1.
</event>
<event>
 7    1  0.1184848E-011  0.5930193E+02  0.7816164E-02  0.1266605E+00
        -11   -1    0    0    0    0  0.00000000000E+00  0.00000000000E+00  0.45593999997E+02  0.45594000000E+02  0.51100000000E-03 0.  1.
         11   -1    0    0    0    0 -0.00000000000E+00 -0.00000000000E+00 -0.45593999997E+02  0.45594000000E+02  0.51100000000E-03 0. -1.
    9900012    2    1    2    0    0  0.29290485332E+01  0.21967142870E+02 -0.22925676544E+02  0.59301931942E+02  0.49999977959E+02 0.  0.
        -12    1    1    2    0    0 -0.29290485332E+01 -0.21967142870E+02  0.22925676544E+02  0.31886068058E+02  0.00000000000E+00 0.  1.
         11    1    3    3    0    0 -0.88526415954E+01  0.11268101583E+02 -0.17910505584E+02  0.22937427646E+02  0.51100000000E-03 0. -1.
        -11    1    3    3    0    0 -0.66788828204E+01  0.15526395927E+02 -0.15705553661E+01  0.16974778073E+02  0.51100000000E-03 0.  1.
         12    1    3    3    0    0  0.18460572949E+02 -0.48273546394E+01 -0.34446155938E+01  0.19389726223E+02  0.00000000000E+00 0. -1.
</event>
<event>
 7    1  0.1184848E-011  0.5930188E+02  0.7816164E-02  0.1266605E+00
        -11   -1    0    0    0    0  0.00000000000E+00  0.00000000000E+00  0.45593999997E+02  0.45594000000E+02  0.51100000000E-03 0. -1.
         11   -1    0    0    0    0 -0.00000000000E+00 -0.00000000000E+00 -0.45593999997E+02  0.45594000000E+02  0.51100000000E-03 0.  1.
    9900012    2    1    2    0    0 -0.14109561094E+01 -0.18419801761E+02 -0.25989324824E+02  0.59301876076E+02  0.49999876072E+02 0.  0.
        -12    1    1    2    0    0  0.14109561094E+01  0.18419801761E+02  0.25989324824E+02  0.31886123924E+02  0.00000000000E+00 0.  1.
         11    1    3    3    0    0 -0.12857667214E+02 -0.25107683276E+02 -0.85063422544E+01  0.29463082400E+02  0.51100000000E-03 0. -1.
        -11    1    3    3    0    0  0.43111607327E+01 -0.39105461825E+01  0.23249541764E+01  0.62676862152E+01  0.51100000000E-03 0.  1.
        -12    1    3    3    0    0  0.71355503722E+01  0.10598427698E+02 -0.19807936747E+02  0.23571107461E+02  0.00000000000E+00 0.  1.
</event>
<event>
 7    1  0.1184848E-011  0.5930195E+02  0.7816164E-02  0.1266605E+00
        -11   -1    0    0    0    0  0.00000000000E+00  0.00000000000E+00  0.45593999997E+02  0.45594000000E+02  0.51100000000E-03 0. -1.
         11   -1    0    0    0    0 -0.00000000000E+00 -0.00000000000E+00 -0.45593999997E+02  0.45594000000E+02  0.51100000000E-03 0.  1.
    9900012    2    1    2    0    0  0.13647600850E+02 -0.21826218963E+01  0.28734979999E+02  0.59301954104E+02  0.50000018378E+02 0.  0.
        -12    1    1    2    0    0 -0.13647600850E+02  0.21826218963E+01 -0.28734979999E+02  0.31886045896E+02  0.00000000000E+00 0.  1.
         11    1    3    3    0    0  0.71876578208E+01 -0.68354736733E+01 -0.60248052596E+01  0.11605361001E+02  0.51100000000E-03 0. -1.
        -11    1    3    3    0    0 -0.81024831285E+01 -0.83678396717E+01  0.64893098634E+01  0.13333496030E+02  0.51100000000E-03 0.  1.
         12    1    3    3    0    0  0.14562426158E+02  0.13020691449E+02  0.28270475395E+02  0.34363097073E+02  0.00000000000E+00 0. -1.
</event>
<event>
 7    1  0.1184848E-011  0.5930195E+02  0.7816164E-02  0.1266605E+00
        -11   -1    0    0    0    0  0.00000000000E+00  0.00000000000E+00  0.45593999997E+02  0.45594000000E+02  0.51100000000E-03 0. -1.
         11   -1    0    0    0    0 -0.00000000000E+00 -0.00000000000E+00 -0.45593999997E+02  0.45594000000E+02  0.51100000000E-03 0.  1.
    9900012    2    1    2    0    0 -0.26695242931E+02 -0.55716257225E+01 -0.16523951099E+02  0.59301953392E+02  0.50000017079E+02 0.  0.
        -12    1    1    2    0    0  0.26695242931E+02  0.55716257225E+01  0.16523951099E+02  0.31886046608E+02  0.00000000000E+00 0.  1.
         11    1    3    3    0    0 -0.11936299691E+02  0.10078932063E+02  0.62200590404E+01  0.16815149615E+02  0.51100000000E-03 0. -1.
        -11    1    3    3    0    0  0.22731146995E+01  0.65969386397E+01 -0.10603845163E+01  0.70576954763E+01  0.51100000000E-03 0.  1.
         12    1    3    3    0    0 -0.17032057940E+02 -0.22247496425E+02 -0.21683625623E+02  0.35429108301E+02  0.00000000000E+00 0. -1.
</event>
<event>
 7    1  0.1184848E-011  0.5930190E+02  0.7816164E-02  0.1266605E+00
        -11   -1    0    0    0    0  0.00000000000E+00  0.00000000000E+00  0.45593999997E+02  0.45594000000E+02  0.51100000000E-03 0.  1.
         11   -1    0    0    0    0 -0.00000000000E+00 -0.00000000000E+00 -0.45593999997E+02  0.45594000000E+02  0.51100000000E-03 0. -1.
    9900012    2    1    2    0    0 -0.30198372921E+02  0.10219370325E+02  0.58826683827E+00  0.59301900916E+02  0.49999921374E+02 0.  0.
        -12    1    1    2    0    0  0.30198372921E+02 -0.10219370325E+02 -0.58826683827E+00  0.31886099084E+02  0.00000000000E+00 0.  1.
         11    1    3    3    0    0 -0.40868983415E+01  0.10204117106E+02 -0.13741052835E+02  0.17596683700E+02  0.51100000000E-03 0. -1.
        -11    1    3    3    0    0 -0.13653747826E+01  0.11461947859E+02  0.68911808412E+01  0.13443543829E+02  0.51100000000E-03 0.  1.
        -12    1    3    3    0    0 -0.24746099797E+02 -0.11446694640E+02  0.74381388319E+01  0.28261673387E+02  0.00000000000E+00 0.  1.
</event>
<event>
 7    1  0.1184848E-011  0.5930193E+02  0.7816164E-02  0.1266605E+00
        -11   -1    0    0    0    0  0.00000000000E+00  0.00000000000E+00  0.45593999997E+02  0.45594000000E+02  0.51100000000E-03 0.  1.
         11   -1    0    0    0    0 -0.00000000000E+00 -0.00000000000E+00 -0.45593999997E+02  0.45594000000E+02  0.51100000000E-03 0. -1.
    9900012    2    1    2    0    0 -0.29546972923E+02  0.11964989191E+02  0.73293391545E+00  0.59301925181E+02  0.49999965629E+02 0.  0.
        -12    1    1    2    0    0  0.29546972923E+02 -0.11964989191E+02 -0.73293391545E+00  0.31886074819E+02  0.00000000000E+00 0.  1.
         11    1    3    3    0    0 -0.43726937813E+01  0.14458800676E+02 -0.39891053021E+01  0.15623390454E+02  0.51100000000E-03 0. -1.
        -11    1    3    3    0    0 -0.14898586630E+02  0.16200883711E+02  0.37225229880E+01  0.22322493011E+02  0.51100000000E-03 0.  1.
         12    1    3    3    0    0 -0.10275692511E+02 -0.18694695197E+02  0.99951622958E+00  0.21356041716E+02  0.00000000000E+00 0. -1.
</event>
<event>
 7    1  0.1184848E-011  0.5930191E+02  0.7816164E-02  0.1266605E+00
        -11   -1    0    0    0    0  0.00000000000E+00  0.00000000000E+00  0.45593999997E+02  0.45594000000E+02  0.51100000000E-03 0.  1.
         11   -1    0    0    0    0 -0.00000000000E+00 -0.00000000000E+00 -0.45593999997E+02  0.45594000000E+02  0.51100000000E-03 0. -1.
    9900012    2    1    2    0    0  0.77596428295E+01  0.30896414835E+02  0.13864240229E+01  0.59301910901E+02  0.49999939584E+02 0.  0.
        -12    1    1    2    0    0 -0.77596428295E+01 -0.30896414835E+02 -0.13864240229E+01  0.31886089099E+02  0.00000000000E+00 0.  1.
         11    1    3    3    0    0  0.27042796205E+01  0.23148279551E+02 -0.91169028883E+00  0.23323532191E+02  0.51100000000E-03 0. -1.
        -11    1    3    3    0    0  0.52377582539E+01  0.32530166195E+01  0.18323729092E+02  0.19333268651E+02  0.51100000000E-03 0.  1.
        -12    1    3    3    0    0 -0.18239504498E+00  0.44951186640E+01 -0.16025614780E+02  0.16645110058E+02  0.00000000000E+00 0.  1.
</event>
<event>
 7    1  0.1184848E-011  0.5930194E+02  0.7816164E-02  0.1266605E+00
        -11   -1    0    0    0    0  0.00000000000E+00  0.00000000000E+00  0.45593999997E+02  0.45594000000E+02  0.51100000000E-03 0.  1.
         11   -1    0    0    0    0 -0.00000000000E+00 -0.00000000000E+00 -0.45593999997E+02  0.45594000000E+02  0.51100000000E-03 0. -1.
    9900012    2    1    2    0    0 -0.16982544718E+02  0.21527150045E+02 -0.16275623476E+02  0.59301938254E+02  0.49999989470E+02 0.  0.
        -12    1    1    2    0    0  0.16982544718E+02 -0.21527150045E+02  0.16275623476E+02  0.31886061746E+02  0.00000000000E+00 0.  1.
         11    1    3    3    0    0 -0.19493237731E+02  0.12194531864E+02 -0.28420582284E+02  0.36557111788E+02  0.51100000000E-03 0. -1.
        -11    1    3    3    0    0 -0.52639915336E+01  0.94103092082E+01  0.40427943461E+01  0.11515542221E+02  0.51100000000E-03 0.  1.
        -12    1    3    3    0    0  0.77746845468E+01 -0.77691027969E-01  0.81021644614E+01  0.11229284245E+02  0.00000000000E+00 0.  1.
</event>
<event>
 7    1  0.1184848E-011  0.5930196E+02  0.7816164E-02  0.1266605E+00
        -11   -1    0    0    0    0  0.00000000000E+00  0.00000000000E+00  0.45593999997E+02  0.45594000000E+02  0.51100000000E-03 0. -1.
         11   -1    0    0    0    0 -0.00000000000E+00 -0.00000000000E+00 -0.45593999997E+02  0.45594000000E+02  0.51100000000E-03 0.  1.
    9900012    2    1    2    0    0  0.26519515097E+02  0.65925413190E+01  0.16430866688E+02  0.59301958192E+02  0.50000025833E+02 0.  0.
        -12    1    1    2    0    0 -0.26519515097E+02 -0.65925413190E+01 -0.16430866688E+02  0.31886041808E+02  0.00000000000E+00 0.  1.
         11    1    3    3    0    0  0.10510682306E+02  0.66593520835E+01  0.28622839139E+01  0.12767696823E+02  0.51100000000E-03 0. -1.
        -11    1    3    3    0    0 -0.21307492333E+01  0.14442068388E+02 -0.63647936557E+01  0.15925577860E+02  0.51100000000E-03 0.  1.
        -12    1    3    3    0    0  0.18139582025E+02 -0.14508879153E+02  0.19933376430E+02  0.30608683510E+02  0.00000000000E+00 0.  1.
</event>
<event>
 7    1  0.1184848E-011  0.5930193E+02  0.7816164E-02  0.1266605E+00
        -11   -1    0    0    0    0  0.00000000000E+00  0.00000000000E+00  0.45593999997E+02  0.45594000000E+02  0.51100000000E-03 0.  1.
         11   -1    0    0    0    0 -0.00000000000E+00 -0.00000000000E+00 -0.45593999997E+02  0.45594000000E+02  0.51100000000E-03 0. -1.
    9900012    2    1    2    0    0  0.14042561467E+02  0.22216110014E+02 -0.18054713867E+02  0.59301925147E+02  0.49999965567E+02 0.  0.
        -12    1    1    2    0    0 -0.14042561467E+02 -0.22216110014E+02  0.18054713867E+02  0.31886074853E+02  0.00000000000E+00 0.  1.
         11    1    3    3    0    0  0.51950100810E+01  0.24921361675E+02 -0.74145132231E+01  0.26514852519E+02  0.51100000000E-03 0.  1.
        -11    1    3    3    0    0  0.14048742924E+02 -0.88400666930E+00 -0.18463647291E+02  0.23217556225E+02  0.51100000000E-03 0. -1.
        -12    1    3    3    0    0 -0.52011915376E+01 -0.18212449922E+01  0.78234466480E+01  0.95695164030E+01  0.00000000000E+00 0.  1.
</event>
<event>
 7    1  0.1184848E-011  0.5930195E+02  0.7816164E-02  0.1266605E+00
        -11   -1    0    0    0    0  0.00000000000E+00  0.00000000000E+00  0.45593999997E+02  0.45594000000E+02  0.51100000000E-03 0. -1.
         11   -1    0    0    0    0 -0.00000000000E+00 -0.00000000000E+00 -0.45593999997E+02  0.45594000000E+02  0.51100000000E-03 0.  1.
    9900012    2    1    2    0    0 -0.64530576517E+01  0.52808836616E+01  0.30776459923E+02  0.59301950218E+02  0.50000011289E+02 0.  0.
        -12    1    1    2    0    0  0.64530576517E+01 -0.52808836616E+01 -0.30776459923E+02  0.31886049782E+02  0.00000000000E+00 0.  1.
         11    1    3    3    0    0  0.29995122069E+01  0.28518950569E+01  0.18088621061E+02  0.18556093097E+02  0.51100000000E-03 0. -1.
        -11    1    3    3    0    0  0.10566981456E+02  0.12409063708E+02  0.43067381939E+01  0.16858053071E+02  0.51100000000E-03 0.  1.
        -12    1    3    3    0    0 -0.20019551314E+02 -0.99800751035E+01  0.83811006690E+01  0.23887804050E+02  0.00000000000E+00 0.  1.
</event>
<event>
 7    1  0.1379973E-011  0.5930194E+02  0.7816164E-02  0.1266605E+00
        -11   -1    0    0    0    0  0.00000000000E+00  0.00000000000E+00  0.45593999997E+02  0.45594000000E+02  0.51100000000E-03 0.  1.
         11   -1    0    0    0    0 -0.00000000000E+00 -0.00000000000E+00 -0.45593999997E+02  0.45594000000E+02  0.51100000000E-03 0. -1.
    9900012    2    1    2    0    0  0.85837611394E+01 -0.20366417029E+02 -0.22983664328E+02  0.59301941545E+02  0.49999995471E+02 0.  0.
        -12    1    1    2    0    0 -0.85837611394E+01  0.20366417029E+02  0.22983664328E+02  0.31886058455E+02  0.00000000000E+00 0.  1.
         11    1    3    3    0    0 -0.64924375649E+01 -0.38490634852E+01 -0.28589085111E+00  0.75530635564E+01  0.51100000000E-03 0. -1.
        -11    1    3    3    0    0  0.15680398543E+02 -0.93620358886E+01  0.82062133816E+01  0.20021602153E+02  0.51100000000E-03 0.  1.
         12    1    3    3    0    0 -0.60419983867E+00 -0.71553176550E+01 -0.30903986858E+02  0.31727275835E+02  0.00000000000E+00 0. -1.
</event>
<event>
 7    1  0.1184848E-011  0.5930192E+02  0.7816164E-02  0.1266605E+00
        -11   -1    0    0    0    0  0.00000000000E+00  0.00000000000E+00  0.45593999997E+02  0.45594000000E+02  0.51100000000E-03 0. -1.
         11   -1    0    0    0    0 -0.00000000000E+00 -0.00000000000E+00 -0.45593999997E+02  0.45594000000E+02  0.51100000000E-03 0.  1.
    9900012    2    1    2    0    0  0.33973937572E+01  0.68372677464E+00  0.31697194313E+02  0.59301923196E+02  0.49999962008E+02 0.  0.
        -12    1    1    2    0    0 -0.33973937572E+01 -0.68372677464E+00 -0.31697194313E+02  0.31886076804E+02  0.00000000000E+00 0.  1.
         11    1    3    3    0    0  0.40843231018E+01  0.94369957879E+01  0.15338137949E+02  0.18466105727E+02  0.51100000000E-03 0. -1.
        -11    1    3    3    0    0  0.32315662289E+01  0.13939479537E+02  0.49950805536E+01  0.15155953947E+02  0.51100000000E-03 0.  1.
         12    1    3    3    0    0 -0.39184955735E+01 -0.22692748550E+02  0.11363975810E+02  0.25679863522E+02  0.00000000000E+00 0. -1.
</event>
<event>
 7    1  0.1184848E-011  0.5930192E+02  0.7816164E-02  0.1266605E+00
        -11   -1    0    0    0    0  0.00000000000E+00  0.00000000000E+00  0.45593999997E+02  0.45594000000E+02  0.51100000000E-03 0. -1.
         11   -1    0    0    0    0 -0.00000000000E+00 -0.00000000000E+00 -0.45593999997E+02  0.45594000000E+02  0.51100000000E-03 0.  1.
    9900012    2    1    2    0    0 -0.92999457602E+01 -0.26825500955E+02  0.14512937237E+02  0.59301924044E+02  0.49999963555E+02 0.  0.
        -12    1    1    2    0    0  0.92999457602E+01  0.26825500955E+02 -0.14512937237E+02  0.31886075956E+02  0.00000000000E+00 0.  1.
         11    1    3    3    0    0 -0.97518377112E+01 -0.13860835865E+02 -0.27263689725E+01  0.17165494390E+02  0.51100000000E-03 0. -1.
        -11    1    3    3    0    0 -0.14648782919E+01 -0.11794875301E+02 -0.95538771215E+01  0.15249312119E+02  0.51100000000E-03 0.  1.
        -12    1    3    3    0    0  0.19167702430E+01 -0.11697897882E+01  0.26793183331E+02  0.26887117535E+02  0.00000000000E+00 0.  1.
</event>
<event>
 7    1  0.1184848E-011  0.5930195E+02  0.7816164E-02  0.1266605E+00
        -11   -1    0    0    0    0  0.00000000000E+00  0.00000000000E+00  0.45593999997E+02  0.45594000000E+02  0.51100000000E-03 0. -1.
         11   -1    0    0    0    0 -0.00000000000E+00 -0.00000000000E+00 -0.45593999997E+02  0.45594000000E+02  0.51100000000E-03 0.  1.
    9900012    2    1    2    0    0 -0.35348929304E+01 -0.10593195825E+02  0.29866516874E+02  0.59301951390E+02  0.50000013427E+02 0.  0.
        -12    1    1    2    0    0  0.35348929304E+01  0.10593195825E+02 -0.29866516874E+02  0.31886048610E+02  0.00000000000E+00 0.  1.
         11    1    3    3    0    0 -0.15498846335E+02 -0.15826763942E+01  0.94259886870E+01  0.18209018789E+02  0.51100000000E-03 0. -1.
        -11    1    3    3    0    0 -0.22800130532E+01 -0.15954273662E+02  0.11914373721E+01  0.16160347486E+02  0.51100000000E-03 0.  1.
         12    1    3    3    0    0  0.14243966458E+02  0.69437542317E+01  0.19249090815E+02  0.24932585114E+02  0.00000000000E+00 0. -1.
</event>
<event>
 7    1  0.1184848E-011  0.5930193E+02  0.7816164E-02  0.1266605E+00
        -11   -1    0    0    0    0  0.00000000000E+00  0.00000000000E+00  0.45593999997E+02  0.45594000000E+02  0.51100000000E-03 0.  1.
         11   -1    0    0    0    0 -0.00000000000E+00 -0.00000000000E+00 -0.45593999997E+02  0.45594000000E+02  0.51100000000E-03 0. -1.
    9900012    2    1    2    0    0 -0.22209578233E+02  0.21187113684E+02  0.86349621790E+01  0.59301925871E+02  0.49999966886E+02 0.  0.
        -12    1    1    2    0    0  0.22209578233E+02 -0.21187113684E+02 -0.86349621790E+01  0.31886074129E+02  0.00000000000E+00 0.  1.
         11    1    3    3    0    0 -0.18354162430E+02  0.58482116073E+01 -0.53635942566E+01  0.19996124652E+02  0.51100000000E-03 0. -1.
        -11    1    3    3    0    0 -0.44725803625E+01 -0.96375505355E+01 -0.86038814218E-01  0.10625147451E+02  0.51100000000E-03 0.  1.
        -12    1    3    3    0    0  0.61716455895E+00  0.24976452612E+02  0.14084595250E+02  0.28680653767E+02  0.00000000000E+00 0.  1.
</event>
<event>
 7    1  0.1184848E-011  0.5930197E+02  0.7816164E-02  0.1266605E+00
        -11   -1    0    0    0    0  0.00000000000E+00  0.00000000000E+00  0.45593999997E+02  0.45594000000E+02  0.51100000000E-03 0. -1.
         11   -1    0    0    0    0 -0.00000000000E+00 -0.00000000000E+00 -0.45593999997E+02  0.45594000000E+02  0.51100000000E-03 0.  1.
    9900012    2    1    2    0    0 -0.88258757121E+01  0.85247370018E+01  0.29430456333E+02  0.59301968842E+02  0.50000045255E+02 0.  0.
        -12    1    1    2    0    0  0.88258757121E+01 -0.85247370018E+01 -0.29430456333E+02  0.31886031158E+02  0.00000000000E+00 0.  1.
         11    1    3    3    0    0 -0.43712011182E+01 -0.11776996925E+01  0.10237456702E+02  0.11193743599E+02  0.51100000000E-03 0. -1.
        -11    1    3    3    0    0  0.23244547083E+01 -0.14133092579E+02 -0.32365285706E+01  0.14684090472E+02  0.51100000000E-03 0.  1.
        -12    1    3    3    0    0 -0.67791293022E+01  0.23835529273E+02  0.22429528202E+02  0.33424134771E+02  0.00000000000E+00 0.  1.
</event>
<event>
 7    1  0.1184848E-011  0.5930193E+02  0.7816164E-02  0.1266605E+00
        -11   -1    0    0    0    0  0.00000000000E+00  0.00000000000E+00  0.45593999997E+02  0.45594000000E+02  0.51100000000E-03 0.  1.
         11   -1    0    0    0    0 -0.00000000000E+00 -0.00000000000E+00 -0.45593999997E+02  0.45594000000E+02  0.51100000000E-03 0. -1.
    9900012    2    1    2    0    0 -0.25365827376E+02 -0.18846072685E+02 -0.42569836893E+01  0.59301928366E+02  0.49999971436E+02 0.  0.
        -12    1    1    2    0    0  0.25365827376E+02  0.18846072685E+02  0.42569836893E+01  0.31886071634E+02  0.00000000000E+00 0.  1.
         11    1    3    3    0    0  0.75809884138E+01 -0.16038281838E+02  0.15821219229E+01  0.17810136992E+02  0.51100000000E-03 0. -1.
        -11    1    3    3    0    0 -0.14144907757E+02  0.79803170944E+01  0.53473982902E+01  0.17098495405E+02  0.51100000000E-03 0.  1.
        -12    1    3    3    0    0 -0.18801908033E+02 -0.10788107941E+02 -0.11186503902E+02  0.24393295968E+02  0.00000000000E+00 0.  1.
</event>
<event>
 7    1  0.1184848E-011  0.5930188E+02  0.7816164E-02  0.1266605E+00
        -11   -1    0    0    0    0  0.00000000000E+00  0.00000000000E+00  0.45593999997E+02  0.45594000000E+02  0.51100000000E-03 0.  1.
         11   -1    0    0    0    0 -0.00000000000E+00 -0.00000000000E+00 -0.45593999997E+02  0.45594000000E+02  0.51100000000E-03 0. -1.
    9900012    2    1    2    0    0  0.75585644138E+01 -0.16791299213E+02 -0.26031613976E+02  0.59301881524E+02  0.49999886007E+02 0.  0.
        -12    1    1    2    0    0 -0.75585644138E+01  0.16791299213E+02  0.26031613976E+02  0.31886118476E+02  0.00000000000E+00 0.  1.
         11    1    3    3    0    0  0.20083240708E+01 -0.77124506228E+01  0.87765310187E+01  0.11855073056E+02  0.51100000000E-03 0. -1.
        -11    1    3    3    0    0  0.16203748272E+02 -0.16468737151E+01 -0.91338316449E+01  0.18673524892E+02  0.51100000000E-03 0.  1.
         12    1    3    3    0    0 -0.10653507929E+02 -0.74319748755E+01 -0.25674313350E+02  0.28773283576E+02  0.00000000000E+00 0. -1.
</event>
<event>
 7    1  0.1184848E-011  0.5930199E+02  0.7816164E-02  0.1266605E+00
        -11   -1    0    0    0    0  0.00000000000E+00  0.00000000000E+00  0.45593999997E+02  0.45594000000E+02  0.51100000000E-03 0.  1.
         11   -1    0    0    0    0 -0.00000000000E+00 -0.00000000000E+00 -0.45593999997E+02  0.45594000000E+02  0.51100000000E-03 0. -1.
    9900012    2    1    2    0    0 -0.21591610305E+02 -0.18707023987E+02 -0.14162187680E+02  0.59301985168E+02  0.50000075029E+02 0.  0.
        -12    1    1    2    0    0  0.21591610305E+02  0.18707023987E+02  0.14162187680E+02  0.31886014832E+02  0.00000000000E+00 0.  1.
         11    1    3    3    0    0 -0.13193033116E+02 -0.10465133114E+02 -0.22644790598E+02  0.28219880854E+02  0.51100000000E-03 0. -1.
        -11    1    3    3    0    0 -0.12007133408E+02  0.13464066083E+01 -0.58822865562E+01  0.13438205193E+02  0.51100000000E-03 0.  1.
        -12    1    3    3    0    0  0.36085562182E+01 -0.95882974807E+01  0.14364889475E+02  0.17643899121E+02  0.00000000000E+00 0.  1.
</event>
<event>
 7    1  0.1184848E-011  0.5930168E+02  0.7816164E-02  0.1266606E+00
        -11   -1    0    0    0    0  0.00000000000E+00  0.00000000000E+00  0.45593999997E+02  0.45594000000E+02  0.51100000000E-03 0.  1.
         11   -1    0    0    0    0 -0.00000000000E+00 -0.00000000000E+00 -0.45593999997E+02  0.45594000000E+02  0.51100000000E-03 0. -1.
    9900012    2    1    2    0    0  0.16914601713E+01 -0.86877938116E+01 -0.30633289877E+02  0.59301682441E+02  0.49999522926E+02 0.  0.
        -12    1    1    2    0    0 -0.16914601713E+01  0.86877938116E+01  0.30633289877E+02  0.31886317559E+02  0.00000000000E+00 0.  1.
         11    1    3    3    0    0  0.64404946509E+01  0.96563593473E+00 -0.21489041096E+02  0.22454204764E+02  0.51100000000E-03 0. -1.
        -11    1    3    3    0    0 -0.96875219827E+01 -0.16303414386E+02 -0.16972641178E+02  0.25450342859E+02  0.51100000000E-03 0.  1.
        -12    1    3    3    0    0  0.49384875031E+01  0.66499846399E+01  0.78283923971E+01  0.11397134818E+02  0.00000000000E+00 0.  1.
</event>
<event>
 7    1  0.1184848E-011  0.5930193E+02  0.7816164E-02  0.1266605E+00
        -11   -1    0    0    0    0  0.00000000000E+00  0.00000000000E+00  0.45593999997E+02  0.45594000000E+02  0.51100000000E-03 0. -1.
         11   -1    0    0    0    0 -0.00000000000E+00 -0.00000000000E+00 -0.45593999997E+02  0.45594000000E+02  0.51100000000E-03 0.  1.
    9900012    2    1    2    0    0 -0.16900522574E+02 -0.20095383056E+02  0.18090580769E+02  0.59301934140E+02  0.49999981968E+02 0.  0.
        -12    1    1    2    0    0  0.16900522574E+02  0.20095383056E+02 -0.18090580769E+02  0.31886065860E+02  0.00000000000E+00 0.  1.
         11    1    3    3    0    0  0.79655363419E+00  0.28958262826E+01 -0.14569731918E+01  0.33381250267E+01  0.51100000000E-03 0. -1.
        -11    1    3    3    0    0  0.68333527365E+01  0.55594449901E+01  0.15859819977E+02  0.18142106498E+02  0.51100000000E-03 0.  1.
         12    1    3    3    0    0 -0.24530428944E+02 -0.28550654329E+02  0.36877339837E+01  0.37821702616E+02  0.00000000000E+00 0. -1.
</event>
<event>
 7    1  0.1184848E-011  0.5930201E+02  0.7816164E-02  0.1266605E+00
        -11   -1    0    0    0    0  0.00000000000E+00  0.00000000000E+00  0.45593999997E+02  0.45594000000E+02  0.51100000000E-03 0.  1.
         11   -1    0    0    0    0 -0.00000000000E+00 -0.00000000000E+00 -0.45593999997E+02  0.45594000000E+02  0.51100000000E-03 0. -1.
    9900012    2    1    2    0    0  0.76472052829E+00 -0.24909132003E+02 -0.19891374536E+02  0.59302008788E+02  0.50000118108E+02 0.  0.
        -12    1    1    2    0    0 -0.76472052829E+00  0.24909132003E+02  0.19891374536E+02  0.31885991212E+02  0.00000000000E+00 0.  1.
         11    1    3    3    0    0 -0.66289733548E+01 -0.94645372126E+01 -0.22773158727E+02  0.25536983202E+02  0.51100000000E-03 0. -1.
        -11    1    3    3    0    0 -0.95957625495E+01  0.68279167665E+00 -0.20267432110E+01  0.98312029622E+01  0.51100000000E-03 0.  1.
        -12    1    3    3    0    0  0.16989456433E+02 -0.16127386467E+02  0.49085274029E+01  0.23933822624E+02  0.00000000000E+00 0.  1.
</event>
<event>
 7    1  0.1184848E-011  0.5930205E+02  0.7816164E-02  0.1266604E+00
        -11   -1    0    0    0    0  0.00000000000E+00  0.00000000000E+00  0.45593999997E+02  0.45594000000E+02  0.51100000000E-03 0.  1.
         11   -1    0    0    0    0 -0.00000000000E+00 -0.00000000000E+00 -0.45593999997E+02  0.45594000000E+02  0.51100000000E-03 0. -1.
    9900012    2    1    2    0    0 -0.72439206430E+00  0.51941405653E+01 -0.31451708028E+02  0.59302050462E+02  0.50000194110E+02 0.  0.
        -12    1    1    2    0    0  0.72439206430E+00 -0.51941405653E+01  0.31451708028E+02  0.31885949538E+02  0.00000000000E+00 0.  1.
         11    1    3    3    0    0 -0.39303020432E+01  0.38322150005E+01 -0.27612272397E+02  0.28152632793E+02  0.51100000000E-03 0. -1.
        -11    1    3    3    0    0  0.14850587022E+02  0.53919303809E+01 -0.85417581523E+01  0.17960358592E+02  0.51100000000E-03 0.  1.
        -12    1    3    3    0    0 -0.11644677043E+02 -0.40300048161E+01  0.47023225217E+01  0.13189059078E+02  0.00000000000E+00 0.  1.
</event>
<event>
 7    1  0.1184848E-011  0.5930193E+02  0.7816164E-02  0.1266605E+00
        -11   -1    0    0    0    0  0.00000000000E+00  0.00000000000E+00  0.45593999997E+02  0.45594000000E+02  0.51100000000E-03 0. -1.
         11   -1    0    0    0    0 -0.00000000000E+00 -0.00000000000E+00 -0.45593999997E+02  0.45594000000E+02  0.51100000000E-03 0.  1.
    9900012    2    1    2    0    0 -0.22187991156E+01  0.36825970362E+01  0.31594889215E+02  0.59301927571E+02  0.49999969986E+02 0.  0.
        -12    1    1    2    0    0  0.22187991156E+01 -0.36825970362E+01 -0.31594889215E+02  0.31886072429E+02  0.00000000000E+00 0.  1.
         11    1    3    3    0    0 -0.49805185475E+00  0.17889217595E+02  0.16669653307E+02  0.24457095156E+02  0.51100000000E-03 0. -1.
        -11    1    3    3    0    0 -0.21130933216E+00  0.18832948330E+01  0.18248056197E+02  0.18346198687E+02  0.51100000000E-03 0.  1.
        -12    1    3    3    0    0 -0.15094379287E+01 -0.16089915392E+02 -0.33228202887E+01  0.16498633727E+02  0.00000000000E+00 0.  1.
</event>
<event>
 7    1  0.1184848E-011  0.5930204E+02  0.7816164E-02  0.1266604E+00
        -11   -1    0    0    0    0  0.00000000000E+00  0.00000000000E+00  0.45593999997E+02  0.45594000000E+02  0.51100000000E-03 0. -1.
         11   -1    0    0    0    0 -0.00000000000E+00 -0.00000000000E+00 -0.45593999997E+02  0.45594000000E+02  0.51100000000E-03 0.  1.
    9900012    2    1    2    0    0 -0.61410116263E+01 -0.30314234009E+02  0.77491551207E+01  0.59302043649E+02  0.50000181684E+02 0.  0.
        -12    1    1    2    0    0  0.61410116263E+01  0.30314234009E+02 -0.77491551207E+01  0.31885956351E+02  0.00000000000E+00 0.  1.
         11    1    3    3    0    0 -0.40217932750E+01  0.10985845758E+02  0.38734350015E+01  0.12323438121E+02  0.51100000000E-03 0. -1.
        -11    1    3    3    0    0 -0.25030845798E+01 -0.19983200693E+01 -0.56883119480E+01  0.65280631578E+01  0.51100000000E-03 0.  1.
        -12    1    3    3    0    0  0.38386622852E+00 -0.39301759698E+02  0.95640320672E+01  0.40450542370E+02  0.00000000000E+00 0.  1.
</event>
<event>
 7    1  0.1184848E-011  0.5930194E+02  0.7816164E-02  0.1266605E+00
        -11   -1    0    0    0    0  0.00000000000E+00  0.00000000000E+00  0.45593999997E+02  0.45594000000E+02  0.51100000000E-03 0.  1.
         11   -1    0    0    0    0 -0.00000000000E+00 -0.00000000000E+00 -0.45593999997E+02  0.45594000000E+02  0.51100000000E-03 0. -1.
    9900012    2    1    2    0    0 -0.14185557319E+02 -0.55269925256E+01 -0.28016839872E+02  0.59301937226E+02  0.49999987595E+02 0.  0.
        -12    1    1    2    0    0  0.14185557319E+02  0.55269925256E+01  0.28016839872E+02  0.31886062774E+02  0.00000000000E+00 0.  1.
         11    1    3    3    0    0 -0.20050488162E+02 -0.11378233331E+02 -0.63473594513E+01  0.23911822212E+02  0.51100000000E-03 0. -1.
        -11    1    3    3    0    0  0.41854377797E+01  0.97883160450E+01  0.24250618677E+01  0.10918330721E+02  0.51100000000E-03 0.  1.
        -12    1    3    3    0    0  0.16794930626E+01 -0.39370752395E+01 -0.24094542288E+02  0.24471784293E+02  0.00000000000E+00 0.  1.
</event>
<event>
 7    1  0.1184848E-011  0.5930197E+02  0.7816164E-02  0.1266605E+00
        -11   -1    0    0    0    0  0.00000000000E+00  0.00000000000E+00  0.45593999997E+02  0.45594000000E+02  0.51100000000E-03 0. -1.
         11   -1    0    0    0    0 -0.00000000000E+00 -0.00000000000E+00 -0.45593999997E+02  0.45594000000E+02  0.51100000000E-03 0.  1.
    9900012    2    1    2    0    0 -0.11353072429E+02 -0.29633821670E+02 -0.31085435374E+01  0.59301973542E+02  0.50000053827E+02 0.  0.
        -12    1    1    2    0    0  0.11353072429E+02  0.29633821670E+02  0.31085435374E+01  0.31886026458E+02  0.00000000000E+00 0.  1.
         11    1    3    3    0    0 -0.71438024394E+01 -0.99840336654E+01  0.11301861783E+02  0.16686728905E+02  0.51100000000E-03 0. -1.
        -11    1    3    3    0    0 -0.30385789609E+01  0.90249585478E+01  0.17457916286E+01  0.96814579255E+01  0.51100000000E-03 0.  1.
        -12    1    3    3    0    0 -0.11706910292E+01 -0.28674746552E+02 -0.16156196949E+02  0.32933786712E+02  0.00000000000E+00 0.  1.
</event>
<event>
 7    1  0.1184848E-011  0.5930195E+02  0.7816164E-02  0.1266605E+00
        -11   -1    0    0    0    0  0.00000000000E+00  0.00000000000E+00  0.45593999997E+02  0.45594000000E+02  0.51100000000E-03 0.  1.
         11   -1    0    0    0    0 -0.00000000000E+00 -0.00000000000E+00 -0.45593999997E+02  0.45594000000E+02  0.51100000000E-03 0. -1.
    9900012    2    1    2    0    0 -0.17664075040E+02  0.26434866978E+02  0.24286708816E+01  0.59301950050E+02  0.50000010984E+02 0.  0.
        -12    1    1    2    0    0  0.17664075040E+02 -0.26434866978E+02 -0.24286708816E+01  0.31886049950E+02  0.00000000000E+00 0.  1.
         11    1    3    3    0    0  0.10312722088E+02  0.35019448632E+01 -0.52256795667E+01  0.12079883355E+02  0.51100000000E-03 0. -1.
        -11    1    3    3    0    0  0.41636797776E+01 -0.24301585857E+01  0.37229329406E+01  0.60911517781E+01  0.51100000000E-03 0.  1.
        -12    1    3    3    0    0 -0.32140476905E+02  0.25363080700E+02  0.39314175077E+01  0.41130914917E+02  0.00000000000E+00 0.  1.
</event>
<event>
 7    1  0.1184848E-011  0.5930195E+02  0.7816164E-02  0.1266605E+00
        -11   -1    0    0    0    0  0.00000000000E+00  0.00000000000E+00  0.45593999997E+02  0.45594000000E+02  0.51100000000E-03 0.  1.
         11   -1    0    0    0    0 -0.00000000000E+00 -0.00000000000E+00 -0.45593999997E+02  0.45594000000E+02  0.51100000000E-03 0. -1.
    9900012    2    1    2    0    0 -0.21299318511E+02  0.86425621705E+01 -0.22098995376E+02  0.59301945893E+02  0.50000003401E+02 0.  0.
        -12    1    1    2    0    0  0.21299318511E+02 -0.86425621705E+01  0.22098995376E+02  0.31886054107E+02  0.00000000000E+00 0.  1.
         11    1    3    3    0    0  0.30840582616E+01 -0.12086529359E+01 -0.22583582760E+02  0.22825215614E+02  0.51100000000E-03 0. -1.
        -11    1    3    3    0    0 -0.19862837331E+02  0.80672726411E+01 -0.10934816929E+02  0.24066229788E+02  0.51100000000E-03 0.  1.
        -12    1    3    3    0    0 -0.45205394420E+01  0.17839424653E+01  0.11419404313E+02  0.12410500490E+02  0.00000000000E+00 0.  1.
</event>
<event>
 7    1  0.1184848E-011  0.5930194E+02  0.7816164E-02  0.1266605E+00
        -11   -1    0    0    0    0  0.00000000000E+00  0.00000000000E+00  0.45593999997E+02  0.45594000000E+02  0.51100000000E-03 0. -1.
         11   -1    0    0    0    0 -0.00000000000E+00 -0.00000000000E+00 -0.45593999997E+02  0.45594000000E+02  0.51100000000E-03 0.  1.
    9900012    2    1    2    0    0  0.30685942991E+02  0.67751780493E+01  0.54028510613E+01  0.59301938242E+02  0.49999989447E+02 0.  0.
        -12    1    1    2    0    0 -0.30685942991E+02 -0.67751780493E+01 -0.54028510613E+01  0.31886061758E+02  0.00000000000E+00 0.  1.
         11    1    3    3    0    0  0.20131290936E+02 -0.15902852879E+02  0.86740610658E+01  0.27081523962E+02  0.51100000000E-03 0. -1.
        -11    1    3    3    0    0  0.55166357501E+01 -0.21672271930E+01 -0.34711896170E+01  0.68687190454E+01  0.51100000000E-03 0.  1.
        -12    1    3    3    0    0  0.50380163049E+01  0.24845258121E+02  0.19997961259E+00  0.25351695234E+02  0.00000000000E+00 0.  1.
</event>
<event>
 7    1  0.1184848E-011  0.5930191E+02  0.7816164E-02  0.1266605E+00
        -11   -1    0    0    0    0  0.00000000000E+00  0.00000000000E+00  0.45593999997E+02  0.45594000000E+02  0.51100000000E-03 0. -1.
         11   -1    0    0    0    0 -0.00000000000E+00 -0.00000000000E+00 -0.45593999997E+02  0.45594000000E+02  0.51100000000E-03 0.  1.
    9900012    2    1    2    0    0 -0.27263272665E+02 -0.80025143225E+01 -0.14470536601E+02  0.59301910534E+02  0.49999938916E+02 0.  0.
        -12    1    1    2    0    0  0.27263272665E+02  0.80025143225E+01  0.14470536601E+02  0.31886089466E+02  0.00000000000E+00 0.  1.
         11    1    3    3    0    0  0.74048715064E+01 -0.10077127473E+02 -0.26701191259E+01  0.12787108999E+02  0.51100000000E-03 0. -1.
        -11    1    3    3    0    0 -0.58007011248E+01  0.23602022063E+01  0.89775931264E+01  0.10946043422E+02  0.51100000000E-03 0.  1.
        -12    1    3    3    0    0 -0.28867443047E+02 -0.28558905549E+00 -0.20778010601E+02  0.35568758113E+02  0.00000000000E+00 0.  1.
</event>
<event>
 7    1  0.1184848E-011  0.5930190E+02  0.7816164E-02  0.1266605E+00
        -11   -1    0    0    0    0  0.00000000000E+00  0.00000000000E+00  0.45593999997E+02  0.45594000000E+02  0.51100000000E-03 0.  1.
         11   -1    0    0    0    0 -0.00000000000E+00 -0.00000000000E+00 -0.45593999997E+02  0.45594000000E+02  0.51100000000E-03 0. -1.
    9900012    2    1    2    0    0 -0.21634483316E+02 -0.10121330807E+02 -0.21124180049E+02  0.59301902898E+02  0.49999924989E+02 0.  0.
        -12    1    1    2    0    0  0.21634483316E+02  0.10121330807E+02  0.21124180049E+02  0.31886097102E+02  0.00000000000E+00 0.  1.
         11    1    3    3    0    0 -0.20563082343E+01 -0.15703179759E+02 -0.25755555267E+02  0.30235192830E+02  0.51100000000E-03 0. -1.
        -11    1    3    3    0    0 -0.66963039780E+01 -0.74666131220E+01  0.37566685509E+01  0.10709965329E+02  0.51100000000E-03 0.  1.
        -12    1    3    3    0    0 -0.12881871104E+02  0.13048462075E+02  0.87470666735E+00  0.18356744739E+02  0.00000000000E+00 0.  1.
</event>
<event>
 7    1  0.1184848E-011  0.5930192E+02  0.7816164E-02  0.1266605E+00
        -11   -1    0    0    0    0  0.00000000000E+00  0.00000000000E+00  0.45593999997E+02  0.45594000000E+02  0.51100000000E-03 0. -1.
         11   -1    0    0    0    0 -0.00000000000E+00 -0.00000000000E+00 -0.45593999997E+02  0.45594000000E+02  0.51100000000E-03 0.  1.
    9900012    2    1    2    0    0 -0.59926700911E+01  0.27615867832E+02  0.14770699885E+02  0.59301924261E+02  0.49999963950E+02 0.  0.
        -12    1    1    2    0    0  0.59926700911E+01 -0.27615867832E+02 -0.14770699885E+02  0.31886075739E+02  0.00000000000E+00 0.  1.
         11    1    3    3    0    0 -0.88488930742E+01  0.26309438610E+01 -0.48537348734E+01  0.10429933687E+02  0.51100000000E-03 0. -1.
        -11    1    3    3    0    0  0.78677141215E+00  0.40402358585E+01 -0.10981670337E+02  0.11727727772E+02  0.51100000000E-03 0.  1.
         12    1    3    3    0    0  0.20694515709E+01  0.20944688113E+02  0.30606105096E+02  0.37144262801E+02  0.00000000000E+00 0. -1.
</event>
<event>
 7    1  0.1184848E-011  0.5930198E+02  0.7816164E-02  0.1266605E+00
        -11   -1    0    0    0    0  0.00000000000E+00  0.00000000000E+00  0.45593999997E+02  0.45594000000E+02  0.51100000000E-03 0.  1.
         11   -1    0    0    0    0 -0.00000000000E+00 -0.00000000000E+00 -0.45593999997E+02  0.45594000000E+02  0.51100000000E-03 0. -1.
    9900012    2    1    2    0    0  0.27358818004E+02  0.10363959938E+02 -0.12680764720E+02  0.59301978266E+02  0.50000062442E+02 0.  0.
        -12    1    1    2    0    0 -0.27358818004E+02 -0.10363959938E+02  0.12680764720E+02  0.31886021734E+02  0.00000000000E+00 0.  1.
         11    1    3    3    0    0  0.10108511296E+02 -0.83003122276E+01 -0.15733080909E+01  0.13173931923E+02  0.51100000000E-03 0. -1.
        -11    1    3    3    0    0  0.15409102980E-02 -0.72281944610E+01  0.70569675443E+01  0.10101860656E+02  0.51100000000E-03 0.  1.
        -12    1    3    3    0    0  0.17248765797E+02  0.25892466626E+02 -0.18164424173E+02  0.36026185686E+02  0.00000000000E+00 0.  1.
</event>
<event>
 7    1  0.1184848E-011  0.5930192E+02  0.7816164E-02  0.1266605E+00
        -11   -1    0    0    0    0  0.00000000000E+00  0.00000000000E+00  0.45593999997E+02  0.45594000000E+02  0.51100000000E-03 0. -1.
         11   -1    0    0    0    0 -0.00000000000E+00 -0.00000000000E+00 -0.45593999997E+02  0.45594000000E+02  0.51100000000E-03 0.  1.
    9900012    2    1    2    0    0 -0.12850305911E+02 -0.29088505657E+02 -0.23346645680E+01  0.59301918679E+02  0.49999953770E+02 0.  0.
        -12    1    1    2    0    0  0.12850305911E+02  0.29088505657E+02  0.23346645680E+01  0.31886081321E+02  0.00000000000E+00 0.  1.
         11    1    3    3    0    0  0.44116381432E+01 -0.22177253143E+02  0.10794544164E+02  0.25056242576E+02  0.51100000000E-03 0. -1.
        -11    1    3    3    0    0  0.32240622724E+01  0.10476569390E+01 -0.11744940633E+02  0.12224393373E+02  0.51100000000E-03 0.  1.
         12    1    3    3    0    0 -0.20486006327E+02 -0.79589094530E+01 -0.13842680988E+01  0.22021282730E+02  0.00000000000E+00 0. -1.
</event>
<event>
 7    1  0.1184848E-011  0.5930196E+02  0.7816164E-02  0.1266605E+00
        -11   -1    0    0    0    0  0.00000000000E+00  0.00000000000E+00  0.45593999997E+02  0.45594000000E+02  0.51100000000E-03 0.  1.
         11   -1    0    0    0    0 -0.00000000000E+00 -0.00000000000E+00 -0.45593999997E+02  0.45594000000E+02  0.51100000000E-03 0. -1.
    9900012    2    1    2    0    0 -0.10352386556E+02 -0.25668358828E+02 -0.15832970215E+02  0.59301960764E+02  0.50000030523E+02 0.  0.
        -12    1    1    2    0    0  0.10352386556E+02  0.25668358828E+02  0.15832970215E+02  0.31886039236E+02  0.00000000000E+00 0.  1.
         11    1    3    3    0    0 -0.68975732350E+01 -0.48637913372E+01  0.35636878733E+01  0.91614875552E+01  0.51100000000E-03 0. -1.
        -11    1    3    3    0    0 -0.19115373340E+02 -0.12811833338E+02 -0.22617107145E+02  0.32265680022E+02  0.51100000000E-03 0.  1.
         12    1    3    3    0    0  0.15660560018E+02 -0.79927341533E+01  0.32204490570E+01  0.17874793187E+02  0.00000000000E+00 0. -1.
</event>
<event>
 7    1  0.1184848E-011  0.5930193E+02  0.7816164E-02  0.1266605E+00
        -11   -1    0    0    0    0  0.00000000000E+00  0.00000000000E+00  0.45593999997E+02  0.45594000000E+02  0.51100000000E-03 0.  1.
         11   -1    0    0    0    0 -0.00000000000E+00 -0.00000000000E+00 -0.45593999997E+02  0.45594000000E+02  0.51100000000E-03 0. -1.
    9900012    2    1    2    0    0  0.25937473090E+02  0.15252958581E+02 -0.10550656921E+02  0.59301927536E+02  0.49999969922E+02 0.  0.
        -12    1    1    2    0    0 -0.25937473090E+02 -0.15252958581E+02  0.10550656921E+02  0.31886072464E+02  0.00000000000E+00 0.  1.
         11    1    3    3    0    0  0.99700997668E+01  0.26124108531E+01  0.11725398349E+02  0.15611295479E+02  0.51100000000E-03 0. -1.
        -11    1    3    3    0    0  0.19812040439E+01 -0.43031153840E+01  0.61504576916E+01  0.77633820948E+01  0.51100000000E-03 0.  1.
        -12    1    3    3    0    0  0.13986169279E+02  0.16943663111E+02 -0.28426512961E+02  0.35927249962E+02  0.00000000000E+00 0.  1.
</event>
<event>
 7    1  0.1184848E-011  0.5930197E+02  0.7816164E-02  0.1266605E+00
        -11   -1    0    0    0    0  0.00000000000E+00  0.00000000000E+00  0.45593999997E+02  0.45594000000E+02  0.51100000000E-03 0.  1.
         11   -1    0    0    0    0 -0.00000000000E+00 -0.00000000000E+00 -0.45593999997E+02  0.45594000000E+02  0.51100000000E-03 0. -1.
    9900012    2    1    2    0    0 -0.13277981947E+02  0.78375462109E+01 -0.27910342049E+02  0.59301966561E+02  0.50000041095E+02 0.  0.
        -12    1    1    2    0    0  0.13277981947E+02 -0.78375462109E+01  0.27910342049E+02  0.31886033439E+02  0.00000000000E+00 0.  1.
         11    1    3    3    0    0  0.39304076332E+01  0.19354254592E+02 -0.88196482193E+01  0.21629180982E+02  0.51100000000E-03 0. -1.
        -11    1    3    3    0    0 -0.65758952173E+01  0.79372716337E+01 -0.60949698187E+01  0.11974612154E+02  0.51100000000E-03 0.  1.
         12    1    3    3    0    0 -0.10632494363E+02 -0.19453980014E+02 -0.12995724011E+02  0.25698173425E+02  0.00000000000E+00 0. -1.
</event>
<event>
 7    1  0.1184848E-011  0.5930194E+02  0.7816164E-02  0.1266605E+00
        -11   -1    0    0    0    0  0.00000000000E+00  0.00000000000E+00  0.45593999997E+02  0.45594000000E+02  0.51100000000E-03 0.  1.
         11   -1    0    0    0    0 -0.00000000000E+00 -0.00000000000E+00 -0.45593999997E+02  0.45594000000E+02  0.51100000000E-03 0. -1.
    9900012    2    1    2    0    0 -0.28586657014E+02  0.12093731488E+02 -0.72983191842E+01  0.59301940923E+02  0.49999994338E+02 0.  0.
        -12    1    1    2    0    0  0.28586657014E+02 -0.12093731488E+02  0.72983191842E+01  0.31886059077E+02  0.00000000000E+00 0.  1.
         11    1    3    3    0    0  0.67615433143E+01  0.16028854680E+01 -0.12082477859E+02  0.13938220162E+02  0.51100000000E-03 0. -1.
        -11    1    3    3    0    0 -0.31550006969E+00 -0.49052886352E+01 -0.37189920743E+01  0.61637893538E+01  0.51100000000E-03 0.  1.
        -12    1    3    3    0    0 -0.35032700258E+02  0.15396134655E+02  0.85031507487E+01  0.39199931408E+02  0.00000000000E+00 0.  1.
</event>
<event>
 7    1  0.1184848E-011  0.5930195E+02  0.7816164E-02  0.1266605E+00
        -11   -1    0    0    0    0  0.00000000000E+00  0.00000000000E+00  0.45593999997E+02  0.45594000000E+02  0.51100000000E-03 0.  1.
         11   -1    0    0    0    0 -0.00000000000E+00 -0.00000000000E+00 -0.45593999997E+02  0.45594000000E+02  0.51100000000E-03 0. -1.
    9900012    2    1    2    0    0  0.89973979268E+01  0.14105784213E+02 -0.27143945925E+02  0.59301951043E+02  0.50000012794E+02 0.  0.
        -12    1    1    2    0    0 -0.89973979268E+01 -0.14105784213E+02  0.27143945925E+02  0.31886048957E+02  0.00000000000E+00 0.  1.
         11    1    3    3    0    0 -0.11509402862E+02  0.11089367127E+02 -0.22873395130E+02  0.27903989367E+02  0.51100000000E-03 0. -1.
        -11    1    3    3    0    0  0.13885722531E+02 -0.49361314535E+01 -0.11568598659E+02  0.18735291808E+02  0.51100000000E-03 0.  1.
         12    1    3    3    0    0  0.66210782580E+01  0.79525485396E+01  0.72980478643E+01  0.12662669869E+02  0.00000000000E+00 0. -1.
</event>
<event>
 7    1  0.1184848E-011  0.5930195E+02  0.7816164E-02  0.1266605E+00
        -11   -1    0    0    0    0  0.00000000000E+00  0.00000000000E+00  0.45593999997E+02  0.45594000000E+02  0.51100000000E-03 0.  1.
         11   -1    0    0    0    0 -0.00000000000E+00 -0.00000000000E+00 -0.45593999997E+02  0.45594000000E+02  0.51100000000E-03 0. -1.
    9900012    2    1    2    0    0 -0.15162355933E+02 -0.26597999988E+02 -0.89089639140E+01  0.59301948522E+02  0.50000008197E+02 0.  0.
        -12    1    1    2    0    0  0.15162355933E+02  0.26597999988E+02  0.89089639140E+01  0.31886051478E+02  0.00000000000E+00 0.  1.
         11    1    3    3    0    0 -0.33311043967E+01 -0.19031149661E+01 -0.30432668052E+01  0.48968945450E+01  0.51100000000E-03 0. -1.
        -11    1    3    3    0    0 -0.68148706905E+01  0.10111376491E+02  0.10053597146E+02  0.15803708834E+02  0.51100000000E-03 0.  1.
         12    1    3    3    0    0 -0.50163808460E+01 -0.34806261513E+02 -0.15919294255E+02  0.38601345143E+02  0.00000000000E+00 0. -1.
</event>
<event>
 7    1  0.1184848E-011  0.5930196E+02  0.7816164E-02  0.1266605E+00
        -11   -1    0    0    0    0  0.00000000000E+00  0.00000000000E+00  0.45593999997E+02  0.45594000000E+02  0.51100000000E-03 0. -1.
         11   -1    0    0    0    0 -0.00000000000E+00 -0.00000000000E+00 -0.45593999997E+02  0.45594000000E+02  0.51100000000E-03 0.  1.
    9900012    2    1    2    0    0  0.20338234551E+01 -0.31080175521E+02  0.68268476238E+01  0.59301959218E+02  0.50000027703E+02 0.  0.
        -12    1    1    2    0    0 -0.20338234551E+01  0.31080175521E+02 -0.68268476238E+01  0.31886040782E+02  0.00000000000E+00 0.  1.
         11    1    3    3    0    0 -0.13392284994E+00 -0.12131132013E+02 -0.14608903490E+02  0.18989532924E+02  0.51100000000E-03 0.  1.
        -11    1    3    3    0    0 -0.10259972630E+02  0.10840223139E+01  0.88254193196E+01  0.13576824708E+02  0.51100000000E-03 0. -1.
        -12    1    3    3    0    0  0.12427718935E+02 -0.20033065822E+02  0.12610331794E+02  0.26735601585E+02  0.00000000000E+00 0.  1.
</event>
<event>
 7    1  0.1184848E-011  0.5930196E+02  0.7816164E-02  0.1266605E+00
        -11   -1    0    0    0    0  0.00000000000E+00  0.00000000000E+00  0.45593999997E+02  0.45594000000E+02  0.51100000000E-03 0.  1.
         11   -1    0    0    0    0 -0.00000000000E+00 -0.00000000000E+00 -0.45593999997E+02  0.45594000000E+02  0.51100000000E-03 0. -1.
    9900012    2    1    2    0    0 -0.11958056927E+02  0.18187813094E+02 -0.23300806206E+02  0.59301964805E+02  0.50000037893E+02 0.  0.
        -12    1    1    2    0    0  0.11958056927E+02 -0.18187813094E+02  0.23300806206E+02  0.31886035195E+02  0.00000000000E+00 0.  1.
         11    1    3    3    0    0 -0.67137662711E+01 -0.69436991392E+01 -0.24808819256E+02  0.26622680715E+02  0.51100000000E-03 0. -1.
        -11    1    3    3    0    0  0.35387658948E+00  0.69036190325E+01 -0.86510693926E+01  0.11073670859E+02  0.51100000000E-03 0.  1.
        -12    1    3    3    0    0 -0.55981672458E+01  0.18227893200E+02  0.10159082443E+02  0.21605613232E+02  0.00000000000E+00 0.  1.
</event>
<event>
 7    1  0.1184848E-011  0.5930194E+02  0.7816164E-02  0.1266605E+00
        -11   -1    0    0    0    0  0.00000000000E+00  0.00000000000E+00  0.45593999997E+02  0.45594000000E+02  0.51100000000E-03 0. -1.
         11   -1    0    0    0    0 -0.00000000000E+00 -0.00000000000E+00 -0.45593999997E+02  0.45594000000E+02  0.51100000000E-03 0.  1.
    9900012    2    1    2    0    0  0.99811654505E+00  0.22165222090E+02  0.22900377640E+02  0.59301943439E+02  0.49999998927E+02 0.  0.
        -12    1    1    2    0    0 -0.99811654505E+00 -0.22165222090E+02 -0.22900377640E+02  0.31886056561E+02  0.00000000000E+00 0.  1.
         11    1    3    3    0    0  0.88453053204E+00  0.12593575583E+02  0.57899069412E+01  0.13888972708E+02  0.51100000000E-03 0. -1.
        -11    1    3    3    0    0  0.14917680216E+01  0.17678696831E+02 -0.76515548339E+01  0.19321179703E+02  0.51100000000E-03 0.  1.
         12    1    3    3    0    0 -0.13781820086E+01 -0.81070503239E+01  0.24762025532E+02  0.26091791028E+02  0.00000000000E+00 0. -1.
</event>
<event>
 7    1  0.1184848E-011  0.5930199E+02  0.7816164E-02  0.1266605E+00
        -11   -1    0    0    0    0  0.00000000000E+00  0.00000000000E+00  0.45593999997E+02  0.45594000000E+02  0.51100000000E-03 0. -1.
         11   -1    0    0    0    0 -0.00000000000E+00 -0.00000000000E+00 -0.45593999997E+02  0.45594000000E+02  0.51100000000E-03 0.  1.
    9900012    2    1    2    0    0 -0.94142754162E+01 -0.26702349387E+02  0.14665380901E+02  0.59301993016E+02  0.50000089342E+02 0.  0.
        -12    1    1    2    0    0  0.94142754162E+01  0.26702349387E+02 -0.14665380901E+02  0.31886006984E+02  0.00000000000E+00 0.  1.
         11    1    3    3    0    0 -0.11801965963E+02 -0.13037832459E+02 -0.35874036663E+01  0.17948285187E+02  0.51100000000E-03 0. -1.
        -11    1    3    3    0    0 -0.12622097189E+02 -0.17424625356E+02  0.89823520960E+01  0.23315607555E+02  0.51100000000E-03 0.  1.
        -12    1    3    3    0    0  0.15009787736E+02  0.37601084274E+01  0.92704324717E+01  0.18038100274E+02  0.00000000000E+00 0.  1.
</event>
<event>
 7    1  0.1184848E-011  0.5930189E+02  0.7816164E-02  0.1266605E+00
        -11   -1    0    0    0    0  0.00000000000E+00  0.00000000000E+00  0.45593999997E+02  0.45594000000E+02  0.51100000000E-03 0. -1.
         11   -1    0    0    0    0 -0.00000000000E+00 -0.00000000000E+00 -0.45593999997E+02  0.45594000000E+02  0.51100000000E-03 0.  1.
    9900012    2    1    2    0    0  0.86952345931E+01  0.20806560507E+01  0.30606986319E+02  0.59301892590E+02  0.49999906189E+02 0.  0.
        -12    1    1    2    0    0 -0.86952345931E+01 -0.20806560507E+01 -0.30606986319E+02  0.31886107410E+02  0.00000000000E+00 0.  1.
         11    1    3    3    0    0  0.81368166877E+00  0.16765722358E-01  0.41128929885E+02  0.41136981327E+02  0.51100000000E-03 0. -1.
        -11    1    3    3    0    0  0.27262555494E+01 -0.36105715611E+01  0.69600175990E+00  0.45774572668E+01  0.51100000000E-03 0.  1.
         12    1    3    3    0    0  0.51552973749E+01  0.56744618895E+01 -0.11217945326E+02  0.13587453996E+02  0.00000000000E+00 0. -1.
</event>
<event>
 7    1  0.1184848E-011  0.5930189E+02  0.7816164E-02  0.1266605E+00
        -11   -1    0    0    0    0  0.00000000000E+00  0.00000000000E+00  0.45593999997E+02  0.45594000000E+02  0.51100000000E-03 0. -1.
         11   -1    0    0    0    0 -0.00000000000E+00 -0.00000000000E+00 -0.45593999997E+02  0.45594000000E+02  0.51100000000E-03 0.  1.
    9900012    2    1    2    0    0  0.85145773498E+01  0.15703385525E+02  0.26412681030E+02  0.59301889174E+02  0.49999899960E+02 0.  0.
        -12    1    1    2    0    0 -0.85145773498E+01 -0.15703385525E+02 -0.26412681030E+02  0.31886110826E+02  0.00000000000E+00 0.  1.
         11    1    3    3    0    0  0.16424821364E+02  0.26658273286E+02  0.67333615903E+01  0.32027745003E+02  0.51100000000E-03 0. -1.
        -11    1    3    3    0    0  0.36697063187E-01 -0.10952456508E+01 -0.19347262180E+01  0.22235277173E+01  0.51100000000E-03 0.  1.
         12    1    3    3    0    0 -0.79469410773E+01 -0.98596421099E+01  0.21614045658E+02  0.25050616454E+02  0.00000000000E+00 0. -1.
</event>
<event>
 7    1  0.1184848E-011  0.5930213E+02  0.7816164E-02  0.1266604E+00
        -11   -1    0    0    0    0  0.00000000000E+00  0.00000000000E+00  0.45593999997E+02  0.45594000000E+02  0.51100000000E-03 0. -1.
         11   -1    0    0    0    0 -0.00000000000E+00 -0.00000000000E+00 -0.45593999997E+02  0.45594000000E+02  0.51100000000E-03 0.  1.
    9900012    2    1    2    0    0 -0.21320887521E+02  0.22278588179E+02  0.81112943476E+01  0.59302128020E+02  0.50000335556E+02 0.  0.
        -12    1    1    2    0    0  0.21320887521E+02 -0.22278588179E+02 -0.81112943476E+01  0.31885871980E+02  0.00000000000E+00 0.  1.
         11    1    3    3    0    0 -0.74997116174E+01  0.52059792114E+01  0.12895234266E+02  0.15799840535E+02  0.51100000000E-03 0. -1.
        -11    1    3    3    0    0  0.10151029605E+02  0.16146846284E+02 -0.17449438457E+00  0.19073397587E+02  0.51100000000E-03 0.  1.
         12    1    3    3    0    0 -0.23972205509E+02  0.92576268422E+00 -0.46094455334E+01  0.24428889898E+02  0.00000000000E+00 0. -1.
</event>
<event>
 7    1  0.1184848E-011  0.5930196E+02  0.7816164E-02  0.1266605E+00
        -11   -1    0    0    0    0  0.00000000000E+00  0.00000000000E+00  0.45593999997E+02  0.45594000000E+02  0.51100000000E-03 0.  1.
         11   -1    0    0    0    0 -0.00000000000E+00 -0.00000000000E+00 -0.45593999997E+02  0.45594000000E+02  0.51100000000E-03 0. -1.
    9900012    2    1    2    0    0 -0.94329805850E+01 -0.68672463356E+01 -0.29674556273E+02  0.59301960971E+02  0.50000030901E+02 0.  0.
        -12    1    1    2    0    0  0.94329805850E+01  0.68672463356E+01  0.29674556273E+02  0.31886039029E+02  0.00000000000E+00 0.  1.
         11    1    3    3    0    0 -0.75204514952E+01 -0.66574227591E+01 -0.47989096579E+01  0.11131397156E+02  0.51100000000E-03 0. -1.
        -11    1    3    3    0    0 -0.20791569419E+02  0.14438496784E+01 -0.66484172113E+01  0.21876368814E+02  0.51100000000E-03 0.  1.
         12    1    3    3    0    0  0.18879040330E+02 -0.16536732549E+01 -0.18227229404E+02  0.26294195001E+02  0.00000000000E+00 0. -1.
</event>
<event>
 7    1  0.1184848E-011  0.5930196E+02  0.7816164E-02  0.1266605E+00
        -11   -1    0    0    0    0  0.00000000000E+00  0.00000000000E+00  0.45593999997E+02  0.45594000000E+02  0.51100000000E-03 0. -1.
         11   -1    0    0    0    0 -0.00000000000E+00 -0.00000000000E+00 -0.45593999997E+02  0.45594000000E+02  0.51100000000E-03 0.  1.
    9900012    2    1    2    0    0  0.28747083130E+02  0.13482365344E+02  0.29241670916E+01  0.59301957334E+02  0.50000024267E+02 0.  0.
        -12    1    1    2    0    0 -0.28747083130E+02 -0.13482365344E+02 -0.29241670916E+01  0.31886042666E+02  0.00000000000E+00 0.  1.
         11    1    3    3    0    0  0.12879213482E+02  0.97953293131E+01  0.15549031696E+02  0.22440922513E+02  0.51100000000E-03 0. -1.
        -11    1    3    3    0    0 -0.62495402498E+01  0.92944962304E+01 -0.97692350082E+00  0.11242721792E+02  0.51100000000E-03 0.  1.
        -12    1    3    3    0    0  0.22117409898E+02 -0.56074601997E+01 -0.11647941104E+02  0.25618313029E+02  0.00000000000E+00 0.  1.
</event>
<event>
 7    1  0.1184848E-011  0.5930191E+02  0.7816164E-02  0.1266605E+00
        -11   -1    0    0    0    0  0.00000000000E+00  0.00000000000E+00  0.45593999997E+02  0.45594000000E+02  0.51100000000E-03 0. -1.
         11   -1    0    0    0    0 -0.00000000000E+00 -0.00000000000E+00 -0.45593999997E+02  0.45594000000E+02  0.51100000000E-03 0.  1.
    9900012    2    1    2    0    0 -0.10727628416E+02  0.26726091535E+02  0.13687829192E+02  0.59301911370E+02  0.49999940440E+02 0.  0.
        -12    1    1    2    0    0  0.10727628416E+02 -0.26726091535E+02 -0.13687829192E+02  0.31886088630E+02  0.00000000000E+00 0.  1.
         11    1    3    3    0    0 -0.59686922625E+01  0.20576286847E+01  0.22181598285E+02  0.23062576306E+02  0.51100000000E-03 0. -1.
        -11    1    3    3    0    0  0.40820818726E+01  0.16940189746E+02  0.52151175319E+01  0.18188756752E+02  0.51100000000E-03 0.  1.
        -12    1    3    3    0    0 -0.88410180261E+01  0.77282731038E+01 -0.13708886625E+02  0.18050578312E+02  0.00000000000E+00 0.  1.
</event>
<event>
 7    1  0.1184848E-011  0.5930195E+02  0.7816164E-02  0.1266605E+00
        -11   -1    0    0    0    0  0.00000000000E+00  0.00000000000E+00  0.45593999997E+02  0.45594000000E+02  0.51100000000E-03 0.  1.
         11   -1    0    0    0    0 -0.00000000000E+00 -0.00000000000E+00 -0.45593999997E+02  0.45594000000E+02  0.51100000000E-03 0. -1.
    9900012    2    1    2    0    0  0.26036501395E+02  0.27678436927E+01 -0.18197803913E+02  0.59301946138E+02  0.50000003849E+02 0.  0.
        -12    1    1    2    0    0 -0.26036501395E+02 -0.27678436927E+01  0.18197803913E+02  0.31886053862E+02  0.00000000000E+00 0.  1.
         11    1    3    3    0    0  0.78314254723E+01 -0.15651023589E+02 -0.14027396763E+02  0.22428856960E+02  0.51100000000E-03 0.  1.
        -11    1    3    3    0    0  0.18604489062E+02  0.20852534960E+02 -0.10676232943E+02  0.29915500625E+02  0.51100000000E-03 0. -1.
         12    1    3    3    0    0 -0.39941313931E+00 -0.24336676783E+01  0.65058257938E+01  0.69575885537E+01  0.00000000000E+00 0. -1.
</event>
<event>
 7    1  0.1184848E-011  0.5930194E+02  0.7816164E-02  0.1266605E+00
        -11   -1    0    0    0    0  0.00000000000E+00  0.00000000000E+00  0.45593999997E+02  0.45594000000E+02  0.51100000000E-03 0. -1.
         11   -1    0    0    0    0 -0.00000000000E+00 -0.00000000000E+00 -0.45593999997E+02  0.45594000000E+02  0.51100000000E-03 0.  1.
    9900012    2    1    2    0    0  0.19449238219E+02 -0.19775775635E+02  0.15727888747E+02  0.59301942644E+02  0.49999997477E+02 0.  0.
        -12    1    1    2    0    0 -0.19449238219E+02  0.19775775635E+02 -0.15727888747E+02  0.31886057356E+02  0.00000000000E+00 0.  1.
         11    1    3    3    0    0 -0.39494194985E+01  0.67800360950E+01  0.85480668443E+01  0.11603286210E+02  0.51100000000E-03 0. -1.
        -11    1    3    3    0    0  0.83299412882E+01  0.47283375586E+01  0.87022472790E+01  0.12941182554E+02  0.51100000000E-03 0.  1.
         12    1    3    3    0    0  0.15068716429E+02 -0.31284149289E+02 -0.15224253767E+01  0.34757473881E+02  0.00000000000E+00 0. -1.
</event>
<event>
 7    1  0.1184848E-011  0.5930201E+02  0.7816164E-02  0.1266605E+00
        -11   -1    0    0    0    0  0.00000000000E+00  0.00000000000E+00  0.45593999997E+02  0.45594000000E+02  0.51100000000E-03 0. -1.
         11   -1    0    0    0    0 -0.00000000000E+00 -0.00000000000E+00 -0.45593999997E+02  0.45594000000E+02  0.51100000000E-03 0.  1.
    9900012    2    1    2    0    0 -0.25622548510E+02 -0.10244673696E+01  0.18951298719E+02  0.59302011719E+02  0.50000123452E+02 0.  0.
        -12    1    1    2    0    0  0.25622548510E+02  0.10244673696E+01 -0.18951298719E+02  0.31885988281E+02  0.00000000000E+00 0.  1.
         11    1    3    3    0    0  0.21146602868E+01 -0.15493721170E+02 -0.22670764492E+01  0.15800848703E+02  0.51100000000E-03 0. -1.
        -11    1    3    3    0    0 -0.16679788303E+01  0.81390341103E+01 -0.13832313225E+01  0.84225506101E+01  0.51100000000E-03 0.  1.
        -12    1    3    3    0    0 -0.26069229967E+02  0.63302196905E+01  0.22601606490E+02  0.35078612406E+02  0.00000000000E+00 0.  1.
</event>
<event>
 7    1  0.1184848E-011  0.5930188E+02  0.7816164E-02  0.1266605E+00
        -11   -1    0    0    0    0  0.00000000000E+00  0.00000000000E+00  0.45593999997E+02  0.45594000000E+02  0.51100000000E-03 0. -1.
         11   -1    0    0    0    0 -0.00000000000E+00 -0.00000000000E+00 -0.45593999997E+02  0.45594000000E+02  0.51100000000E-03 0.  1.
    9900012    2    1    2    0    0 -0.86637985834E+00  0.14491206254E+02  0.28389770142E+02  0.59301878858E+02  0.49999881146E+02 0.  0.
        -12    1    1    2    0    0  0.86637985834E+00 -0.14491206254E+02 -0.28389770142E+02  0.31886121142E+02  0.00000000000E+00 0.  1.
         11    1    3    3    0    0 -0.21397213603E+02  0.71045138390E+01  0.95433753462E+01  0.24482460663E+02  0.51100000000E-03 0. -1.
        -11    1    3    3    0    0  0.98560730262E+01  0.38542195471E+01 -0.23360712148E+01  0.10837638709E+02  0.51100000000E-03 0.  1.
        -12    1    3    3    0    0  0.10674760719E+02  0.35324728679E+01  0.21182466011E+02  0.23981779485E+02  0.00000000000E+00 0.  1.
</event>
<event>
 7    1  0.1184848E-011  0.5930194E+02  0.7816164E-02  0.1266605E+00
        -11   -1    0    0    0    0  0.00000000000E+00  0.00000000000E+00  0.45593999997E+02  0.45594000000E+02  0.51100000000E-03 0.  1.
         11   -1    0    0    0    0 -0.00000000000E+00 -0.00000000000E+00 -0.45593999997E+02  0.45594000000E+02  0.51100000000E-03 0. -1.
    9900012    2    1    2    0    0  0.15977498671E+02 -0.18863751902E+02 -0.20139496976E+02  0.59301938185E+02  0.49999989345E+02 0.  0.
        -12    1    1    2    0    0 -0.15977498671E+02  0.18863751902E+02  0.20139496976E+02  0.31886061815E+02  0.00000000000E+00 0.  1.
         11    1    3    3    0    0  0.59418772958E+01 -0.18071859635E+02 -0.11044386971E+02  0.21997193009E+02  0.51100000000E-03 0. -1.
        -11    1    3    3    0    0 -0.42086294806E+01 -0.76866923039E+01  0.94749532871E+01  0.12906298491E+02  0.51100000000E-03 0.  1.
         12    1    3    3    0    0  0.14244250856E+02  0.68948000367E+01 -0.18570063292E+02  0.24398446685E+02  0.00000000000E+00 0. -1.
</event>
<event>
 7    1  0.1184848E-011  0.5930192E+02  0.7816164E-02  0.1266605E+00
        -11   -1    0    0    0    0  0.00000000000E+00  0.00000000000E+00  0.45593999997E+02  0.45594000000E+02  0.51100000000E-03 0. -1.
         11   -1    0    0    0    0 -0.00000000000E+00 -0.00000000000E+00 -0.45593999997E+02  0.45594000000E+02  0.51100000000E-03 0.  1.
    9900012    2    1    2    0    0 -0.28048464495E+02  0.70474731586E+01 -0.13429040957E+02  0.59301915582E+02  0.49999948122E+02 0.  0.
        -12    1    1    2    0    0  0.28048464495E+02 -0.70474731586E+01  0.13429040957E+02  0.31886084418E+02  0.00000000000E+00 0.  1.
         11    1    3    3    0    0 -0.91253164150E+01 -0.12410696375E+01 -0.10517050836E+02  0.13979270799E+02  0.51100000000E-03 0. -1.
        -11    1    3    3    0    0 -0.91710197334E+00 -0.15424486062E+02 -0.76022313361E+00  0.15470416471E+02  0.51100000000E-03 0.  1.
         12    1    3    3    0    0 -0.18006046107E+02  0.23713028858E+02 -0.21517669877E+01  0.29852228312E+02  0.00000000000E+00 0. -1.
</event>
<event>
 7    1  0.1184848E-011  0.5930194E+02  0.7816164E-02  0.1266605E+00
        -11   -1    0    0    0    0  0.00000000000E+00  0.00000000000E+00  0.45593999997E+02  0.45594000000E+02  0.51100000000E-03 0. -1.
         11   -1    0    0    0    0 -0.00000000000E+00 -0.00000000000E+00 -0.45593999997E+02  0.45594000000E+02  0.51100000000E-03 0.  1.
    9900012    2    1    2    0    0 -0.10638641431E+02 -0.69317269595E+00  0.30050948362E+02  0.59301942273E+02  0.49999996800E+02 0.  0.
        -12    1    1    2    0    0  0.10638641431E+02  0.69317269595E+00 -0.30050948362E+02  0.31886057727E+02  0.00000000000E+00 0.  1.
         11    1    3    3    0    0 -0.12036601885E+02  0.14367087380E+02  0.23554576128E+02  0.30101678384E+02  0.51100000000E-03 0. -1.
        -11    1    3    3    0    0  0.15852301969E+01  0.34199657875E+01 -0.58608619290E+01  0.69684161455E+01  0.51100000000E-03 0.  1.
        -12    1    3    3    0    0 -0.18726974320E+00 -0.18480225863E+02  0.12357234163E+02  0.22231847743E+02  0.00000000000E+00 0.  1.
</event>
<event>
 7    1  0.1184848E-011  0.5930195E+02  0.7816164E-02  0.1266605E+00
        -11   -1    0    0    0    0  0.00000000000E+00  0.00000000000E+00  0.45593999997E+02  0.45594000000E+02  0.51100000000E-03 0.  1.
         11   -1    0    0    0    0 -0.00000000000E+00 -0.00000000000E+00 -0.45593999997E+02  0.45594000000E+02  0.51100000000E-03 0. -1.
    9900012    2    1    2    0    0 -0.10848904478E+02 -0.16688376831E+02 -0.24910234638E+02  0.59301946005E+02  0.50000003606E+02 0.  0.
        -12    1    1    2    0    0  0.10848904478E+02  0.16688376831E+02  0.24910234638E+02  0.31886053995E+02  0.00000000000E+00 0.  1.
         11    1    3    3    0    0 -0.15256079731E+02 -0.10504706846E+02 -0.66076633321E+01  0.19666165098E+02  0.51100000000E-03 0. -1.
        -11    1    3    3    0    0  0.77909453012E+01 -0.16941120701E+02 -0.61229177427E+00  0.18656776270E+02  0.51100000000E-03 0.  1.
         12    1    3    3    0    0 -0.33837700486E+01  0.10757450717E+02 -0.17690279532E+02  0.20979004637E+02  0.00000000000E+00 0. -1.
</event>
<event>
 7    1  0.1184848E-011  0.5930193E+02  0.7816164E-02  0.1266605E+00
        -11   -1    0    0    0    0  0.00000000000E+00  0.00000000000E+00  0.45593999997E+02  0.45594000000E+02  0.51100000000E-03 0. -1.
         11   -1    0    0    0    0 -0.00000000000E+00 -0.00000000000E+00 -0.45593999997E+02  0.45594000000E+02  0.51100000000E-03 0.  1.
    9900012    2    1    2    0    0  0.51416415173E+01 -0.82295617923E+01  0.30373657937E+02  0.59301933117E+02  0.49999980102E+02 0.  0.
        -12    1    1    2    0    0 -0.51416415173E+01  0.82295617923E+01 -0.30373657937E+02  0.31886066883E+02  0.00000000000E+00 0.  1.
         11    1    3    3    0    0 -0.67092842065E+01 -0.48500375594E-01  0.23029670321E+02  0.23987133264E+02  0.51100000000E-03 0. -1.
        -11    1    3    3    0    0  0.13163857380E+02  0.10105661344E+01  0.17259885231E+02  0.21730440020E+02  0.51100000000E-03 0.  1.
        -12    1    3    3    0    0 -0.13129316558E+01 -0.91916275511E+01 -0.99158976149E+01  0.13584359833E+02  0.00000000000E+00 0.  1.
</event>
<event>
 7    1  0.1184848E-011  0.5930196E+02  0.7816164E-02  0.1266605E+00
        -11   -1    0    0    0    0  0.00000000000E+00  0.00000000000E+00  0.45593999997E+02  0.45594000000E+02  0.51100000000E-03 0. -1.
         11   -1    0    0    0    0 -0.00000000000E+00 -0.00000000000E+00 -0.45593999997E+02  0.45594000000E+02  0.51100000000E-03 0.  1.
    9900012    2    1    2    0    0 -0.23575360579E+02  0.16256181018E+02  0.14023507426E+02  0.59301955901E+02  0.50000021655E+02 0.  0.
        -12    1    1    2    0    0  0.23575360579E+02 -0.16256181018E+02 -0.14023507426E+02  0.31886044099E+02  0.00000000000E+00 0.  1.
         11    1    3    3    0    0 -0.21725563854E+02  0.23594935303E+02  0.12568948317E+02  0.34448505901E+02  0.51100000000E-03 0.  1.
        -11    1    3    3    0    0 -0.60108779162E+01  0.29099223109E+01  0.91867955484E+01  0.11357619200E+02  0.51100000000E-03 0. -1.
        -12    1    3    3    0    0  0.41610811913E+01 -0.10248676596E+02 -0.77322364394E+01  0.13495830801E+02  0.00000000000E+00 0.  1.
</event>
<event>
 7    1  0.1184848E-011  0.5930193E+02  0.7816164E-02  0.1266605E+00
        -11   -1    0    0    0    0  0.00000000000E+00  0.00000000000E+00  0.45593999997E+02  0.45594000000E+02  0.51100000000E-03 0. -1.
         11   -1    0    0    0    0 -0.00000000000E+00 -0.00000000000E+00 -0.45593999997E+02  0.45594000000E+02  0.51100000000E-03 0.  1.
    9900012    2    1    2    0    0 -0.16447665076E+02 -0.17165320902E+02  0.21249651724E+02  0.59301927390E+02  0.49999969656E+02 0.  0.
        -12    1    1    2    0    0  0.16447665076E+02  0.17165320902E+02 -0.21249651724E+02  0.31886072610E+02  0.00000000000E+00 0.  1.
         11    1    3    3    0    0  0.31864197241E+01 -0.82235686491E+01 -0.26161618018E+01  0.91991659849E+01  0.51100000000E-03 0. -1.
        -11    1    3    3    0    0 -0.18930129185E+02 -0.22513430852E+02  0.11045143763E+02  0.31419732028E+02  0.51100000000E-03 0.  1.
        -12    1    3    3    0    0 -0.70395561513E+00  0.13571678600E+02  0.12820669763E+02  0.18683029377E+02  0.00000000000E+00 0.  1.
</event>
<event>
 7    1  0.1184848E-011  0.5930194E+02  0.7816164E-02  0.1266605E+00
        -11   -1    0    0    0    0  0.00000000000E+00  0.00000000000E+00  0.45593999997E+02  0.45594000000E+02  0.51100000000E-03 0. -1.
         11   -1    0    0    0    0 -0.00000000000E+00 -0.00000000000E+00 -0.45593999997E+02  0.45594000000E+02  0.51100000000E-03 0.  1.
    9900012    2    1    2    0    0 -0.29815089534E+02 -0.29813609540E+01  0.10903783686E+02  0.59301943867E+02  0.49999999706E+02 0.  0.
        -12    1    1    2    0    0  0.29815089534E+02  0.29813609540E+01 -0.10903783686E+02  0.31886056133E+02  0.00000000000E+00 0.  1.
         11    1    3    3    0    0 -0.13155023990E+02 -0.66112139486E+01  0.67903414241E+01  0.16213313757E+02  0.51100000000E-03 0. -1.
        -11    1    3    3    0    0 -0.24533091165E+02  0.90044292897E+01  0.13753303678E+02  0.29531435307E+02  0.51100000000E-03 0.  1.
        -12    1    3    3    0    0  0.78730256213E+01 -0.53745762951E+01 -0.96398614169E+01  0.13557194803E+02  0.00000000000E+00 0.  1.
</event>
<event>
 7    1  0.1184848E-011  0.5930197E+02  0.7816164E-02  0.1266605E+00
        -11   -1    0    0    0    0  0.00000000000E+00  0.00000000000E+00  0.45593999997E+02  0.45594000000E+02  0.51100000000E-03 0.  1.
         11   -1    0    0    0    0 -0.00000000000E+00 -0.00000000000E+00 -0.45593999997E+02  0.45594000000E+02  0.51100000000E-03 0. -1.
    9900012    2    1    2    0    0 -0.93219930554E+01 -0.19824624541E+02 -0.23169017316E+02  0.59301973968E+02  0.50000054604E+02 0.  0.
        -12    1    1    2    0    0  0.93219930554E+01  0.19824624541E+02  0.23169017316E+02  0.31886026032E+02  0.00000000000E+00 0.  1.
         11    1    3    3    0    0  0.69195857709E+00 -0.50208649527E+00 -0.12192535480E+02  0.12222471895E+02  0.51100000000E-03 0. -1.
        -11    1    3    3    0    0  0.25160564978E+01 -0.26173354639E+02 -0.17286036044E+02  0.31467158686E+02  0.51100000000E-03 0.  1.
        -12    1    3    3    0    0 -0.12530008130E+02  0.68508165934E+01  0.63095542087E+01  0.15612343388E+02  0.00000000000E+00 0.  1.
</event>
<event>
 7    1  0.1184848E-011  0.5930194E+02  0.7816164E-02  0.1266605E+00
        -11   -1    0    0    0    0  0.00000000000E+00  0.00000000000E+00  0.45593999997E+02  0.45594000000E+02  0.51100000000E-03 0.  1.
         11   -1    0    0    0    0 -0.00000000000E+00 -0.00000000000E+00 -0.45593999997E+02  0.45594000000E+02  0.51100000000E-03 0. -1.
    9900012    2    1    2    0    0 -0.73511742479E+01  0.17930917529E+02 -0.25321195479E+02  0.59301944948E+02  0.50000001679E+02 0.  0.
        -12    1    1    2    0    0  0.73511742479E+01 -0.17930917529E+02  0.25321195479E+02  0.31886055052E+02  0.00000000000E+00 0.  1.
         11    1    3    3    0    0 -0.81408222781E+01  0.20928436153E+02 -0.47352239916E+01  0.22949831670E+02  0.51100000000E-03 0. -1.
        -11    1    3    3    0    0 -0.18988143067E+01  0.12396479050E+02 -0.15457529698E+02  0.19905110229E+02  0.51100000000E-03 0.  1.
        -12    1    3    3    0    0  0.26884623369E+01 -0.15393997673E+02 -0.51284417895E+01  0.16447003049E+02  0.00000000000E+00 0.  1.
</event>
<event>
 7    1  0.1184848E-011  0.5930196E+02  0.7816164E-02  0.1266605E+00
        -11   -1    0    0    0    0  0.00000000000E+00  0.00000000000E+00  0.45593999997E+02  0.45594000000E+02  0.51100000000E-03 0. -1.
         11   -1    0    0    0    0 -0.00000000000E+00 -0.00000000000E+00 -0.45593999997E+02  0.45594000000E+02  0.51100000000E-03 0.  1.
    9900012    2    1    2    0    0 -0.29646495193E+02 -0.45850246073E+00  0.11730081457E+02  0.59301957399E+02  0.50000024387E+02 0.  0.
        -12    1    1    2    0    0  0.29646495193E+02  0.45850246073E+00 -0.11730081457E+02  0.31886042601E+02  0.00000000000E+00 0.  1.
         11    1    3    3    0    0 -0.10337940998E+02 -0.42121549764E+01 -0.81719515842E+00  0.11192992532E+02  0.51100000000E-03 0. -1.
        -11    1    3    3    0    0 -0.21691289019E+02  0.97417804752E+01 -0.91474224946E+01  0.25477237776E+02  0.51100000000E-03 0.  1.
        -12    1    3    3    0    0  0.23827348241E+01 -0.59881279596E+01  0.21694699110E+02  0.22631727092E+02  0.00000000000E+00 0.  1.
</event>
<event>
 7    1  0.1184848E-011  0.5930193E+02  0.7816164E-02  0.1266605E+00
        -11   -1    0    0    0    0  0.00000000000E+00  0.00000000000E+00  0.45593999997E+02  0.45594000000E+02  0.51100000000E-03 0. -1.
         11   -1    0    0    0    0 -0.00000000000E+00 -0.00000000000E+00 -0.45593999997E+02  0.45594000000E+02  0.51100000000E-03 0.  1.
    9900012    2    1    2    0    0  0.11959177221E+02 -0.22829414275E+02  0.18775443839E+02  0.59301931455E+02  0.49999977070E+02 0.  0.
        -12    1    1    2    0    0 -0.11959177221E+02  0.22829414275E+02 -0.18775443839E+02  0.31886068545E+02  0.00000000000E+00 0.  1.
         11    1    3    3    0    0  0.13678621549E+02 -0.15250263169E+02  0.19366237130E+02  0.28190891349E+02  0.51100000000E-03 0. -1.
        -11    1    3    3    0    0  0.99777211672E+01  0.67164872688E+01  0.27548839438E+01  0.12339185821E+02  0.51100000000E-03 0.  1.
        -12    1    3    3    0    0 -0.11697165495E+02 -0.14295638374E+02 -0.33456772345E+01  0.18771854285E+02  0.00000000000E+00 0.  1.
</event>
<event>
 7    1  0.1184848E-011  0.5930196E+02  0.7816164E-02  0.1266605E+00
        -11   -1    0    0    0    0  0.00000000000E+00  0.00000000000E+00  0.45593999997E+02  0.45594000000E+02  0.51100000000E-03 0.  1.
         11   -1    0    0    0    0 -0.00000000000E+00 -0.00000000000E+00 -0.45593999997E+02  0.45594000000E+02  0.51100000000E-03 0. -1.
    9900012    2    1    2    0    0 -0.13857996835E+02  0.11615231774E+01 -0.28693665259E+02  0.59301958565E+02  0.50000026513E+02 0.  0.
        -12    1    1    2    0    0  0.13857996835E+02 -0.11615231774E+01  0.28693665259E+02  0.31886041435E+02  0.00000000000E+00 0.  1.
         11    1    3    3    0    0 -0.44727008729E+01  0.53735766278E+01 -0.20444192757E+02  0.21606605393E+02  0.51100000000E-03 0. -1.
        -11    1    3    3    0    0 -0.44964237015E+01  0.13600943407E+02 -0.12188190761E+02  0.18808388606E+02  0.51100000000E-03 0.  1.
        -12    1    3    3    0    0 -0.48888722607E+01 -0.17812996857E+02  0.39387182586E+01  0.18886964567E+02  0.00000000000E+00 0.  1.
</event>
<event>
 7    1  0.1184848E-011  0.5930193E+02  0.7816164E-02  0.1266605E+00
        -11   -1    0    0    0    0  0.00000000000E+00  0.00000000000E+00  0.45593999997E+02  0.45594000000E+02  0.51100000000E-03 0.  1.
         11   -1    0    0    0    0 -0.00000000000E+00 -0.00000000000E+00 -0.45593999997E+02  0.45594000000E+02  0.51100000000E-03 0. -1.
    9900012    2    1    2    0    0 -0.21924841231E+01  0.13153287623E+02 -0.28963864840E+02  0.59301930496E+02  0.49999975321E+02 0.  0.
        -12    1    1    2    0    0  0.21924841231E+01 -0.13153287623E+02  0.28963864840E+02  0.31886069504E+02  0.00000000000E+00 0.  1.
         11    1    3    3    0    0 -0.11740552834E+01 -0.87325526452E+01 -0.18866599197E+02  0.20822690677E+02  0.51100000000E-03 0. -1.
        -11    1    3    3    0    0  0.96714022442E+01 -0.29006197436E+01 -0.19543080714E+01  0.10284402587E+02  0.51100000000E-03 0.  1.
         12    1    3    3    0    0 -0.10689831084E+02  0.24786460012E+02 -0.81429575717E+01  0.28194837232E+02  0.00000000000E+00 0. -1.
</event>
<event>
 7    1  0.1184848E-011  0.5930198E+02  0.7816164E-02  0.1266605E+00
        -11   -1    0    0    0    0  0.00000000000E+00  0.00000000000E+00  0.45593999997E+02  0.45594000000E+02  0.51100000000E-03 0.  1.
         11   -1    0    0    0    0 -0.00000000000E+00 -0.00000000000E+00 -0.45593999997E+02  0.45594000000E+02  0.51100000000E-03 0. -1.
    9900012    2    1    2    0    0 -0.53314541992E+01  0.11285706743E+02 -0.29341556794E+02  0.59301975857E+02  0.50000058048E+02 0.  0.
        -12    1    1    2    0    0  0.53314541992E+01 -0.11285706743E+02  0.29341556794E+02  0.31886024143E+02  0.00000000000E+00 0.  1.
         11    1    3    3    0    0  0.13208910516E+02  0.28870900505E+01 -0.26109671504E+02  0.29402815380E+02  0.51100000000E-03 0. -1.
        -11    1    3    3    0    0  0.35316020806E+01 -0.14884279949E+01  0.30653563914E+01  0.49075494108E+01  0.51100000000E-03 0.  1.
        -12    1    3    3    0    0 -0.22071966796E+02  0.98870446871E+01 -0.62972416822E+01  0.24991611066E+02  0.00000000000E+00 0.  1.
</event>
<event>
 7    1  0.1184848E-011  0.5930195E+02  0.7816164E-02  0.1266605E+00
        -11   -1    0    0    0    0  0.00000000000E+00  0.00000000000E+00  0.45593999997E+02  0.45594000000E+02  0.51100000000E-03 0. -1.
         11   -1    0    0    0    0 -0.00000000000E+00 -0.00000000000E+00 -0.45593999997E+02  0.45594000000E+02  0.51100000000E-03 0.  1.
    9900012    2    1    2    0    0  0.20446444765E+02 -0.20711671453E+02 -0.13026501035E+02  0.59301950274E+02  0.50000011392E+02 0.  0.
        -12    1    1    2    0    0 -0.20446444765E+02  0.20711671453E+02  0.13026501035E+02  0.31886049726E+02  0.00000000000E+00 0.  1.
         11    1    3    3    0    0  0.18107422016E+02 -0.13336027225E+02  0.37819250983E+01  0.22804195051E+02  0.51100000000E-03 0. -1.
        -11    1    3    3    0    0  0.15196719969E+02 -0.34373413499E+01 -0.16985663907E+02  0.23049260119E+02  0.51100000000E-03 0.  1.
        -12    1    3    3    0    0 -0.12857697220E+02 -0.39383028774E+01  0.17723777346E+00  0.13448495105E+02  0.00000000000E+00 0.  1.
</event>
<event>
 7    1  0.1184848E-011  0.5930199E+02  0.7816164E-02  0.1266605E+00
        -11   -1    0    0    0    0  0.00000000000E+00  0.00000000000E+00  0.45593999997E+02  0.45594000000E+02  0.51100000000E-03 0. -1.
         11   -1    0    0    0    0 -0.00000000000E+00 -0.00000000000E+00 -0.45593999997E+02  0.45594000000E+02  0.51100000000E-03 0.  1.
    9900012    2    1    2    0    0 -0.19514235706E+02  0.11626427769E+02  0.22377187883E+02  0.59301988092E+02  0.50000080363E+02 0.  0.
        -12    1    1    2    0    0  0.19514235706E+02 -0.11626427769E+02 -0.22377187883E+02  0.31886011908E+02  0.00000000000E+00 0.  1.
         11    1    3    3    0    0  0.88709731350E+01 -0.28763899430E+01  0.77518374387E+01  0.12126778938E+02  0.51100000000E-03 0. -1.
        -11    1    3    3    0    0 -0.36853886344E+01 -0.91990429049E+01  0.69185580960E+01  0.12085980562E+02  0.51100000000E-03 0.  1.
         12    1    3    3    0    0 -0.24699820206E+02  0.23701860617E+02  0.77067923481E+01  0.35089228593E+02  0.00000000000E+00 0. -1.
</event>
<event>
 7    1  0.1184848E-011  0.5930194E+02  0.7816164E-02  0.1266605E+00
        -11   -1    0    0    0    0  0.00000000000E+00  0.00000000000E+00  0.45593999997E+02  0.45594000000E+02  0.51100000000E-03 0.  1.
         11   -1    0    0    0    0 -0.00000000000E+00 -0.00000000000E+00 -0.45593999997E+02  0.45594000000E+02  0.51100000000E-03 0. -1.
    9900012    2    1    2    0    0  0.72058036250E+01 -0.70331673845E+01 -0.30254449447E+02  0.59301940967E+02  0.49999994417E+02 0.  0.
        -12    1    1    2    0    0 -0.72058036250E+01  0.70331673845E+01  0.30254449447E+02  0.31886059033E+02  0.00000000000E+00 0.  1.
         11    1    3    3    0    0  0.69878217830E+01 -0.12938407695E+02 -0.38010595029E+02  0.40755826352E+02  0.51100000000E-03 0. -1.
        -11    1    3    3    0    0  0.63877301945E+01  0.79227598041E+01  0.60296549859E+01  0.11829199443E+02  0.51100000000E-03 0.  1.
        -12    1    3    3    0    0 -0.61697483525E+01 -0.20175194936E+01  0.17264905961E+01  0.67169151713E+01  0.00000000000E+00 0.  1.
</event>
<event>
 7    1  0.1184848E-011  0.5930193E+02  0.7816164E-02  0.1266605E+00
        -11   -1    0    0    0    0  0.00000000000E+00  0.00000000000E+00  0.45593999997E+02  0.45594000000E+02  0.51100000000E-03 0. -1.
         11   -1    0    0    0    0 -0.00000000000E+00 -0.00000000000E+00 -0.45593999997E+02  0.45594000000E+02  0.51100000000E-03 0.  1.
    9900012    2    1    2    0    0  0.10777805427E+02  0.18003594070E+02  0.24008983301E+02  0.59301925165E+02  0.49999965599E+02 0.  0.
        -12    1    1    2    0    0 -0.10777805427E+02 -0.18003594070E+02 -0.24008983301E+02  0.31886074835E+02  0.00000000000E+00 0.  1.
         11    1    3    3    0    0 -0.11103807878E+02  0.27977378742E+01  0.11367202947E+02  0.16134905940E+02  0.51100000000E-03 0. -1.
        -11    1    3    3    0    0 -0.10349242851E+01  0.57818965719E+01 -0.86779584716E+01  0.10478948408E+02  0.51100000000E-03 0.  1.
        -12    1    3    3    0    0  0.22916537590E+02  0.94239596234E+01  0.21319738826E+02  0.32688070817E+02  0.00000000000E+00 0.  1.
</event>
<event>
 7    1  0.1184848E-011  0.5930194E+02  0.7816164E-02  0.1266605E+00
        -11   -1    0    0    0    0  0.00000000000E+00  0.00000000000E+00  0.45593999997E+02  0.45594000000E+02  0.51100000000E-03 0.  1.
         11   -1    0    0    0    0 -0.00000000000E+00 -0.00000000000E+00 -0.45593999997E+02  0.45594000000E+02  0.51100000000E-03 0. -1.
    9900012    2    1    2    0    0  0.99484441402E+01 -0.29000844772E+02  0.87578662645E+01  0.59301940980E+02  0.49999994442E+02 0.  0.
        -12    1    1    2    0    0 -0.99484441402E+01  0.29000844772E+02 -0.87578662645E+01  0.31886059020E+02  0.00000000000E+00 0.  1.
         11    1    3    3    0    0 -0.32302602114E+01 -0.17239890587E+02 -0.11693085563E+02  0.21080243328E+02  0.51100000000E-03 0. -1.
        -11    1    3    3    0    0 -0.51297656478E+01 -0.49245887059E+00 -0.33518611106E+01  0.61475185650E+01  0.51100000000E-03 0.  1.
        -12    1    3    3    0    0  0.18308469999E+02 -0.11268495314E+02  0.23802812938E+02  0.32074179088E+02  0.00000000000E+00 0.  1.
</event>
<event>
 7    1  0.1184848E-011  0.5930198E+02  0.7816164E-02  0.1266605E+00
        -11   -1    0    0    0    0  0.00000000000E+00  0.00000000000E+00  0.45593999997E+02  0.45594000000E+02  0.51100000000E-03 0.  1.
         11   -1    0    0    0    0 -0.00000000000E+00 -0.00000000000E+00 -0.45593999997E+02  0.45594000000E+02  0.51100000000E-03 0. -1.
    9900012    2    1    2    0    0  0.96272136467E+00  0.31259441241E+02 -0.62160333720E+01  0.59301975318E+02  0.50000057066E+02 0.  0.
        -12    1    1    2    0    0 -0.96272136467E+00 -0.31259441241E+02  0.62160333720E+01  0.31886024682E+02  0.00000000000E+00 0.  1.
         11    1    3    3    0    0 -0.10553378800E+01  0.98731912964E+01  0.47147728026E+01  0.10991939195E+02  0.51100000000E-03 0. -1.
        -11    1    3    3    0    0 -0.12492048027E+02  0.62108186687E+01  0.11136119954E+02  0.17850453785E+02  0.51100000000E-03 0.  1.
        -12    1    3    3    0    0  0.14510107272E+02  0.15175431276E+02 -0.22066926129E+02  0.30459582338E+02  0.00000000000E+00 0.  1.
</event>
<event>
 7    1  0.1184848E-011  0.5930194E+02  0.7816164E-02  0.1266605E+00
        -11   -1    0    0    0    0  0.00000000000E+00  0.00000000000E+00  0.45593999997E+02  0.45594000000E+02  0.51100000000E-03 0.  1.
         11   -1    0    0    0    0 -0.00000000000E+00 -0.00000000000E+00 -0.45593999997E+02  0.45594000000E+02  0.51100000000E-03 0. -1.
    9900012    2    1    2    0    0 -0.83391154034E+01  0.91812639708E+01 -0.29374893674E+02  0.59301939845E+02  0.49999992373E+02 0.  0.
        -12    1    1    2    0    0  0.83391154034E+01 -0.91812639708E+01  0.29374893674E+02  0.31886060155E+02  0.00000000000E+00 0.  1.
         11    1    3    3    0    0  0.11864611696E+02  0.12976456350E+02 -0.17765307868E+02  0.24995271433E+02  0.51100000000E-03 0. -1.
        -11    1    3    3    0    0  0.37314661582E+01  0.50486632526E+00 -0.91132002574E+01  0.98604842117E+01  0.51100000000E-03 0.  1.
        -12    1    3    3    0    0 -0.23935193258E+02 -0.43000587043E+01 -0.24963855483E+01  0.24446184200E+02  0.00000000000E+00 0.  1.
</event>
<event>
 7    1  0.1184848E-011  0.5930196E+02  0.7816164E-02  0.1266605E+00
        -11   -1    0    0    0    0  0.00000000000E+00  0.00000000000E+00  0.45593999997E+02  0.45594000000E+02  0.51100000000E-03 0. -1.
         11   -1    0    0    0    0 -0.00000000000E+00 -0.00000000000E+00 -0.45593999997E+02  0.45594000000E+02  0.51100000000E-03 0.  1.
    9900012    2    1    2    0    0  0.73318790482E+00 -0.29088764159E+02  0.13039401807E+02  0.59301956591E+02  0.50000022912E+02 0.  0.
        -12    1    1    2    0    0 -0.73318790482E+00  0.29088764159E+02 -0.13039401807E+02  0.31886043409E+02  0.00000000000E+00 0.  1.
         11    1    3    3    0    0  0.95751878929E+01 -0.11183616481E+02  0.73958342081E+01  0.16475917719E+02  0.51100000000E-03 0. -1.
        -11    1    3    3    0    0 -0.27203655190E+01 -0.13718557536E+02  0.21311923932E+02  0.25491122207E+02  0.51100000000E-03 0.  1.
        -12    1    3    3    0    0 -0.61216344691E+01 -0.41865901424E+01 -0.15668356333E+02  0.17334916665E+02  0.00000000000E+00 0.  1.
</event>
<event>
 7    1  0.1184848E-011  0.5930194E+02  0.7816164E-02  0.1266605E+00
        -11   -1    0    0    0    0  0.00000000000E+00  0.00000000000E+00  0.45593999997E+02  0.45594000000E+02  0.51100000000E-03 0. -1.
         11   -1    0    0    0    0 -0.00000000000E+00 -0.00000000000E+00 -0.45593999997E+02  0.45594000000E+02  0.51100000000E-03 0.  1.
    9900012    2    1    2    0    0 -0.82457162977E+01  0.29967195250E+02 -0.71201247425E+01  0.59301940275E+02  0.49999993156E+02 0.  0.
        -12    1    1    2    0    0  0.82457162977E+01 -0.29967195250E+02  0.71201247425E+01  0.31886059725E+02  0.00000000000E+00 0.  1.
         11    1    3    3    0    0  0.99318556081E+00  0.91036012242E+01  0.41670602793E+01  0.10061131370E+02  0.51100000000E-03 0. -1.
        -11    1    3    3    0    0 -0.21632001404E+02  0.81901087713E+01  0.66046768810E+01  0.24055002045E+02  0.51100000000E-03 0.  1.
        -12    1    3    3    0    0  0.12393099545E+02  0.12673485255E+02 -0.17891861903E+02  0.25185806860E+02  0.00000000000E+00 0.  1.
</event>
<event>
 7    1  0.1184848E-011  0.5930205E+02  0.7816164E-02  0.1266604E+00
        -11   -1    0    0    0    0  0.00000000000E+00  0.00000000000E+00  0.45593999997E+02  0.45594000000E+02  0.51100000000E-03 0.  1.
         11   -1    0    0    0    0 -0.00000000000E+00 -0.00000000000E+00 -0.45593999997E+02  0.45594000000E+02  0.51100000000E-03 0. -1.
    9900012    2    1    2    0    0  0.16699585799E+02  0.25559024333E+02 -0.91963961008E+01  0.59302053378E+02  0.50000199428E+02 0.  0.
        -12    1    1    2    0    0 -0.16699585799E+02 -0.25559024333E+02  0.91963961008E+01  0.31885946622E+02  0.00000000000E+00 0.  1.
         11    1    3    3    0    0  0.19561802834E+02  0.27432073632E+02 -0.20710399480E+02  0.39548747651E+02  0.51100000000E-03 0. -1.
        -11    1    3    3    0    0 -0.57687404539E+01  0.52100006020E+01  0.30763141221E+01  0.83597955439E+01  0.51100000000E-03 0.  1.
        -12    1    3    3    0    0  0.29065234193E+01 -0.70830499007E+01  0.84376892575E+01  0.11393510183E+02  0.00000000000E+00 0.  1.
</event>
<event>
 7    1  0.1184848E-011  0.5930194E+02  0.7816164E-02  0.1266605E+00
        -11   -1    0    0    0    0  0.00000000000E+00  0.00000000000E+00  0.45593999997E+02  0.45594000000E+02  0.51100000000E-03 0.  1.
         11   -1    0    0    0    0 -0.00000000000E+00 -0.00000000000E+00 -0.45593999997E+02  0.45594000000E+02  0.51100000000E-03 0. -1.
    9900012    2    1    2    0    0  0.12247512400E+02  0.29374383230E+02  0.19658911153E+01  0.59301942262E+02  0.49999996780E+02 0.  0.
        -12    1    1    2    0    0 -0.12247512400E+02 -0.29374383230E+02 -0.19658911153E+01  0.31886057738E+02  0.00000000000E+00 0.  1.
         11    1    3    3    0    0 -0.11350551223E+02  0.51199608738E+01  0.95846838436E+01  0.15713534837E+02  0.51100000000E-03 0. -1.
        -11    1    3    3    0    0  0.14952175080E+02 -0.21477515081E+01 -0.19066345123E+01  0.15225492819E+02  0.51100000000E-03 0.  1.
        -12    1    3    3    0    0  0.86458885437E+01  0.26402173865E+02 -0.57121582160E+01  0.28362914607E+02  0.00000000000E+00 0.  1.
</event>
<event>
 7    1  0.1184848E-011  0.5930196E+02  0.7816164E-02  0.1266605E+00
        -11   -1    0    0    0    0  0.00000000000E+00  0.00000000000E+00  0.45593999997E+02  0.45594000000E+02  0.51100000000E-03 0. -1.
         11   -1    0    0    0    0 -0.00000000000E+00 -0.00000000000E+00 -0.45593999997E+02  0.45594000000E+02  0.51100000000E-03 0.  1.
    9900012    2    1    2    0    0 -0.37136893660E+01 -0.30699880594E+02  0.77746608572E+01  0.59301960599E+02  0.50000030223E+02 0.  0.
        -12    1    1    2    0    0  0.37136893660E+01  0.30699880594E+02 -0.77746608572E+01  0.31886039401E+02  0.00000000000E+00 0.  1.
         11    1    3    3    0    0  0.81464562112E+01 -0.24212998282E+01 -0.89066430051E+01  0.12310797356E+02  0.51100000000E-03 0. -1.
        -11    1    3    3    0    0  0.42902936737E+01 -0.24541955514E+02  0.22553453014E+01  0.25016010532E+02  0.51100000000E-03 0.  1.
         12    1    3    3    0    0 -0.16150439251E+02 -0.37366252519E+01  0.14425958561E+02  0.21975152711E+02  0.00000000000E+00 0. -1.
</event>
<event>
 7    1  0.1184848E-011  0.5930194E+02  0.7816164E-02  0.1266605E+00
        -11   -1    0    0    0    0  0.00000000000E+00  0.00000000000E+00  0.45593999997E+02  0.45594000000E+02  0.51100000000E-03 0. -1.
         11   -1    0    0    0    0 -0.00000000000E+00 -0.00000000000E+00 -0.45593999997E+02  0.45594000000E+02  0.51100000000E-03 0.  1.
    9900012    2    1    2    0    0  0.31776371867E+02  0.45603378349E+00  0.26028457013E+01  0.59301943775E+02  0.49999999540E+02 0.  0.
        -12    1    1    2    0    0 -0.31776371867E+02 -0.45603378349E+00 -0.26028457013E+01  0.31886056225E+02  0.00000000000E+00 0.  1.
         11    1    3    3    0    0  0.34037858114E+01  0.25778711882E+01  0.74520618689E+00  0.43343408074E+01  0.51100000000E-03 0. -1.
        -11    1    3    3    0    0  0.39381399260E+02 -0.10281109893E+02 -0.19423828136E+01  0.40747621765E+02  0.51100000000E-03 0.  1.
         12    1    3    3    0    0 -0.11008813205E+02  0.81592724880E+01  0.38000223281E+01  0.14219981203E+02  0.00000000000E+00 0. -1.
</event>
<event>
 7    1  0.1184848E-011  0.5930196E+02  0.7816164E-02  0.1266605E+00
        -11   -1    0    0    0    0  0.00000000000E+00  0.00000000000E+00  0.45593999997E+02  0.45594000000E+02  0.51100000000E-03 0. -1.
         11   -1    0    0    0    0 -0.00000000000E+00 -0.00000000000E+00 -0.45593999997E+02  0.45594000000E+02  0.51100000000E-03 0.  1.
    9900012    2    1    2    0    0  0.17281943653E+02  0.18554662923E+02  0.19333357975E+02  0.59301955667E+02  0.50000021228E+02 0.  0.
        -12    1    1    2    0    0 -0.17281943653E+02 -0.18554662923E+02 -0.19333357975E+02  0.31886044333E+02  0.00000000000E+00 0.  1.
         11    1    3    3    0    0  0.96426520034E+01  0.15555598444E+02  0.12190336843E+02  0.21990036226E+02  0.51100000000E-03 0. -1.
        -11    1    3    3    0    0  0.14890093836E+02  0.15479231722E+02  0.78322356640E+01  0.22861877108E+02  0.51100000000E-03 0.  1.
        -12    1    3    3    0    0 -0.72508021871E+01 -0.12480167243E+02 -0.68921453206E+00  0.14450042333E+02  0.00000000000E+00 0.  1.
</event>
<event>
 7    1  0.1184848E-011  0.5930194E+02  0.7816164E-02  0.1266605E+00
        -11   -1    0    0    0    0  0.00000000000E+00  0.00000000000E+00  0.45593999997E+02  0.45594000000E+02  0.51100000000E-03 0.  1.
         11   -1    0    0    0    0 -0.00000000000E+00 -0.00000000000E+00 -0.45593999997E+02  0.45594000000E+02  0.51100000000E-03 0. -1.
    9900012    2    1    2    0    0 -0.15686502431E+02  0.24179402753E+02 -0.13638580115E+02  0.59301941235E+02  0.49999994907E+02 0.  0.
        -12    1    1    2    0    0  0.15686502431E+02 -0.24179402753E+02  0.13638580115E+02  0.31886058765E+02  0.00000000000E+00 0.  1.
         11    1    3    3    0    0  0.83791054834E+01 -0.27331258065E+01  0.31353755777E+00  0.88191661418E+01  0.51100000000E-03 0. -1.
        -11    1    3    3    0    0 -0.60390388546E+01  0.75474525697E+01  0.10630530764E+02  0.14368097131E+02  0.51100000000E-03 0.  1.
        -12    1    3    3    0    0 -0.18026569060E+02  0.19365075990E+02 -0.24582648437E+02  0.36114677962E+02  0.00000000000E+00 0.  1.
</event>
<event>
 7    1  0.1221432E-011  0.5930194E+02  0.7816164E-02  0.1266605E+00
        -11   -1    0    0    0    0  0.00000000000E+00  0.00000000000E+00  0.45593999997E+02  0.45594000000E+02  0.51100000000E-03 0. -1.
         11   -1    0    0    0    0 -0.00000000000E+00 -0.00000000000E+00 -0.45593999997E+02  0.45594000000E+02  0.51100000000E-03 0.  1.
    9900012    2    1    2    0    0 -0.10261499692E+02 -0.89788479663E+01  0.28823644433E+02  0.59301944033E+02  0.50000000010E+02 0.  0.
        -12    1    1    2    0    0  0.10261499692E+02  0.89788479663E+01 -0.28823644433E+02  0.31886055967E+02  0.00000000000E+00 0.  1.
         11    1    3    3    0    0  0.43346153992E+01 -0.65335053313E+00 -0.23015977646E+01  0.49510716122E+01  0.51100000000E-03 0. -1.
        -11    1    3    3    0    0  0.43784733747E+01  0.12825702504E+02  0.20679630748E+01  0.13709345183E+02  0.51100000000E-03 0.  1.
         12    1    3    3    0    0 -0.18974588466E+02 -0.21151199937E+02  0.29057279122E+02  0.40641527238E+02  0.00000000000E+00 0. -1.
</event>
<event>
 7    1  0.1184848E-011  0.5930196E+02  0.7816164E-02  0.1266605E+00
        -11   -1    0    0    0    0  0.00000000000E+00  0.00000000000E+00  0.45593999997E+02  0.45594000000E+02  0.51100000000E-03 0.  1.
         11   -1    0    0    0    0 -0.00000000000E+00 -0.00000000000E+00 -0.45593999997E+02  0.45594000000E+02  0.51100000000E-03 0. -1.
    9900012    2    1    2    0    0  0.10639551312E+02  0.14533159953E+02 -0.26311718885E+02  0.59301963228E+02  0.50000035017E+02 0.  0.
        -12    1    1    2    0    0 -0.10639551312E+02 -0.14533159953E+02  0.26311718885E+02  0.31886036772E+02  0.00000000000E+00 0.  1.
         11    1    3    3    0    0  0.11620340965E+02 -0.26006076945E+01 -0.14086082044E+02  0.18444868992E+02  0.51100000000E-03 0. -1.
        -11    1    3    3    0    0 -0.13963766596E+02 -0.36565646018E+01 -0.36479064628E+01  0.14888400319E+02  0.51100000000E-03 0.  1.
        -12    1    3    3    0    0  0.12982976942E+02  0.20790332250E+02 -0.85777303782E+01  0.25968693917E+02  0.00000000000E+00 0.  1.
</event>
<event>
 7    1  0.1184848E-011  0.5930194E+02  0.7816164E-02  0.1266605E+00
        -11   -1    0    0    0    0  0.00000000000E+00  0.00000000000E+00  0.45593999997E+02  0.45594000000E+02  0.51100000000E-03 0.  1.
         11   -1    0    0    0    0 -0.00000000000E+00 -0.00000000000E+00 -0.45593999997E+02  0.45594000000E+02  0.51100000000E-03 0. -1.
    9900012    2    1    2    0    0 -0.38381409232E+01  0.85153483036E+01 -0.30487344291E+02  0.59301942790E+02  0.49999997743E+02 0.  0.
        -12    1    1    2    0    0  0.38381409232E+01 -0.85153483036E+01  0.30487344291E+02  0.31886057210E+02  0.00000000000E+00 0.  1.
         11    1    3    3    0    0  0.11893937117E+02  0.88674842121E+01  0.81103818813E+01  0.16907877186E+02  0.51100000000E-03 0.  1.
        -11    1    3    3    0    0 -0.50520857848E+01 -0.37874024858E+01 -0.14200667301E+02  0.15541137038E+02  0.51100000000E-03 0. -1.
        -12    1    3    3    0    0 -0.10679992256E+02  0.34352665773E+01 -0.24397058871E+02  0.26852928567E+02  0.00000000000E+00 0.  1.
</event>
<event>
 7    1  0.1184848E-011  0.5930195E+02  0.7816164E-02  0.1266605E+00
        -11   -1    0    0    0    0  0.00000000000E+00  0.00000000000E+00  0.45593999997E+02  0.45594000000E+02  0.51100000000E-03 0. -1.
         11   -1    0    0    0    0 -0.00000000000E+00 -0.00000000000E+00 -0.45593999997E+02  0.45594000000E+02  0.51100000000E-03 0.  1.
    9900012    2    1    2    0    0 -0.26120015110E+02  0.72185277065E+01  0.16803501977E+02  0.59301952733E+02  0.50000015877E+02 0.  0.
        -12    1    1    2    0    0  0.26120015110E+02 -0.72185277065E+01 -0.16803501977E+02  0.31886047267E+02  0.00000000000E+00 0.  1.
         11    1    3    3    0    0 -0.24334543498E+02 -0.59102327652E+01  0.78616045073E+01  0.26247012864E+02  0.51100000000E-03 0. -1.
        -11    1    3    3    0    0 -0.13426439302E+02  0.14855474075E+02  0.49330915816E+01  0.20622555010E+02  0.51100000000E-03 0.  1.
        -12    1    3    3    0    0  0.11640967691E+02 -0.17267136027E+01  0.40088058883E+01  0.12432384859E+02  0.00000000000E+00 0.  1.
</event>
<event>
 7    1  0.1184848E-011  0.5930199E+02  0.7816164E-02  0.1266605E+00
        -11   -1    0    0    0    0  0.00000000000E+00  0.00000000000E+00  0.45593999997E+02  0.45594000000E+02  0.51100000000E-03 0. -1.
         11   -1    0    0    0    0 -0.00000000000E+00 -0.00000000000E+00 -0.45593999997E+02  0.45594000000E+02  0.51100000000E-03 0.  1.
    9900012    2    1    2    0    0 -0.67729248673E+01 -0.81375686448E+01  0.30076984330E+02  0.59301991766E+02  0.50000087063E+02 0.  0.
        -12    1    1    2    0    0  0.67729248673E+01  0.81375686448E+01 -0.30076984330E+02  0.31886008234E+02  0.00000000000E+00 0.  1.
         11    1    3    3    0    0  0.85368305104E+00  0.11907508592E+02  0.30502286781E+02  0.32755259650E+02  0.51100000000E-03 0. -1.
        -11    1    3    3    0    0  0.30788792487E+01 -0.44821552209E+01  0.44632981328E+01  0.70349302296E+01  0.51100000000E-03 0.  1.
         12    1    3    3    0    0 -0.10705487167E+02 -0.15562922016E+02 -0.48886005837E+01  0.19511801886E+02  0.00000000000E+00 0. -1.
</event>
<event>
 7    1  0.1184848E-011  0.5930177E+02  0.7816164E-02  0.1266605E+00
        -11   -1    0    0    0    0  0.00000000000E+00  0.00000000000E+00  0.45593999997E+02  0.45594000000E+02  0.51100000000E-03 0. -1.
         11   -1    0    0    0    0 -0.00000000000E+00 -0.00000000000E+00 -0.45593999997E+02  0.45594000000E+02  0.51100000000E-03 0.  1.
    9900012    2    1    2    0    0 -0.70932818678E+01  0.27056673528E+01  0.30969278388E+02  0.59301772764E+02  0.49999687656E+02 0.  0.
        -12    1    1    2    0    0  0.70932818678E+01 -0.27056673528E+01 -0.30969278388E+02  0.31886227236E+02  0.00000000000E+00 0.  1.
         11    1    3    3    0    0 -0.12072869651E+02  0.73963394415E+01  0.18954329523E+02  0.23658542362E+02  0.51100000000E-03 0. -1.
        -11    1    3    3    0    0 -0.42274143300E+01  0.10238713196E+02  0.14153905289E+02  0.17973183219E+02  0.51100000000E-03 0.  1.
         12    1    3    3    0    0  0.92070021131E+01 -0.14929385285E+02 -0.21389564250E+01  0.17670047184E+02  0.00000000000E+00 0. -1.
</event>
<event>
 7    1  0.1184848E-011  0.5930194E+02  0.7816164E-02  0.1266605E+00
        -11   -1    0    0    0    0  0.00000000000E+00  0.00000000000E+00  0.45593999997E+02  0.45594000000E+02  0.51100000000E-03 0. -1.
         11   -1    0    0    0    0 -0.00000000000E+00 -0.00000000000E+00 -0.45593999997E+02  0.45594000000E+02  0.51100000000E-03 0.  1.
    9900012    2    1    2    0    0  0.90378450953E+01 -0.17370639227E+02  0.25165440166E+02  0.59301935177E+02  0.49999983859E+02 0.  0.
        -12    1    1    2    0    0 -0.90378450953E+01  0.17370639227E+02 -0.25165440166E+02  0.31886064823E+02  0.00000000000E+00 0.  1.
         11    1    3    3    0    0 -0.10975125483E+01  0.29948884938E+00  0.21747023400E+02  0.21776759501E+02  0.51100000000E-03 0. -1.
        -11    1    3    3    0    0 -0.98248036935E+01  0.47434102965E-02  0.45778338368E+01  0.10838973799E+02  0.51100000000E-03 0.  1.
        -12    1    3    3    0    0  0.19960161337E+02 -0.17674871486E+02 -0.11594170705E+01  0.26686201877E+02  0.00000000000E+00 0.  1.
</event>
<event>
 7    1  0.1184848E-011  0.5930195E+02  0.7816164E-02  0.1266605E+00
        -11   -1    0    0    0    0  0.00000000000E+00  0.00000000000E+00  0.45593999997E+02  0.45594000000E+02  0.51100000000E-03 0.  1.
         11   -1    0    0    0    0 -0.00000000000E+00 -0.00000000000E+00 -0.45593999997E+02  0.45594000000E+02  0.51100000000E-03 0. -1.
    9900012    2    1    2    0    0  0.17670406042E+02 -0.26211748111E+02 -0.41738843381E+01  0.59301948203E+02  0.50000007615E+02 0.  0.
        -12    1    1    2    0    0 -0.17670406042E+02  0.26211748111E+02  0.41738843381E+01  0.31886051797E+02  0.00000000000E+00 0.  1.
         11    1    3    3    0    0  0.94169234120E+01 -0.26500170065E+02 -0.82236721891E+01  0.29301301073E+02  0.51100000000E-03 0. -1.
        -11    1    3    3    0    0  0.72612776634E+01  0.45081855818E+00 -0.11938596431E+02  0.13980682233E+02  0.51100000000E-03 0.  1.
         12    1    3    3    0    0  0.99220496692E+00 -0.16239660378E+00  0.15988384282E+02  0.16019964897E+02  0.00000000000E+00 0. -1.
</event>
<event>
 7    1  0.1184848E-011  0.5930196E+02  0.7816164E-02  0.1266605E+00
        -11   -1    0    0    0    0  0.00000000000E+00  0.00000000000E+00  0.45593999997E+02  0.45594000000E+02  0.51100000000E-03 0. -1.
         11   -1    0    0    0    0 -0.00000000000E+00 -0.00000000000E+00 -0.45593999997E+02  0.45594000000E+02  0.51100000000E-03 0.  1.
    9900012    2    1    2    0    0 -0.10828731907E+02  0.29513049217E+02  0.53327209504E+01  0.59301961965E+02  0.50000032714E+02 0.  0.
        -12    1    1    2    0    0  0.10828731907E+02 -0.29513049217E+02 -0.53327209504E+01  0.31886038035E+02  0.00000000000E+00 0.  1.
         11    1    3    3    0    0  0.13652658421E+02  0.91317643757E+01 -0.48762413984E+01  0.17133649144E+02  0.51100000000E-03 0. -1.
        -11    1    3    3    0    0  0.38464209687E+01 -0.24124890273E+01  0.14810817322E+01  0.47758413849E+01  0.51100000000E-03 0.  1.
        -12    1    3    3    0    0 -0.28327811296E+02  0.22793773869E+02  0.87278806165E+01  0.37392471436E+02  0.00000000000E+00 0.  1.
</event>
<event>
 7    1  0.1184848E-011  0.5930191E+02  0.7816164E-02  0.1266605E+00
        -11   -1    0    0    0    0  0.00000000000E+00  0.00000000000E+00  0.45593999997E+02  0.45594000000E+02  0.51100000000E-03 0.  1.
         11   -1    0    0    0    0 -0.00000000000E+00 -0.00000000000E+00 -0.45593999997E+02  0.45594000000E+02  0.51100000000E-03 0. -1.
    9900012    2    1    2    0    0 -0.47893151036E+01  0.78316880627E+01 -0.30536039835E+02  0.59301912032E+02  0.49999941647E+02 0.  0.
        -12    1    1    2    0    0  0.47893151036E+01 -0.78316880627E+01  0.30536039835E+02  0.31886087968E+02  0.00000000000E+00 0.  1.
         11    1    3    3    0    0 -0.81703945139E+01 -0.35847626523E+01 -0.49600101475E+01  0.10208210946E+02  0.51100000000E-03 0. -1.
        -11    1    3    3    0    0 -0.12902629893E+01 -0.31061415787E+01  0.99112038606E+01  0.10466367866E+02  0.51100000000E-03 0.  1.
         12    1    3    3    0    0  0.46713423996E+01  0.14522592294E+02 -0.35487233549E+02  0.38627333220E+02  0.00000000000E+00 0. -1.
</event>
<event>
 7    1  0.1184848E-011  0.5930195E+02  0.7816164E-02  0.1266605E+00
        -11   -1    0    0    0    0  0.00000000000E+00  0.00000000000E+00  0.45593999997E+02  0.45594000000E+02  0.51100000000E-03 0. -1.
         11   -1    0    0    0    0 -0.00000000000E+00 -0.00000000000E+00 -0.45593999997E+02  0.45594000000E+02  0.51100000000E-03 0.  1.
    9900012    2    1    2    0    0  0.14266270144E+02 -0.20744503959E+02  0.19566791091E+02  0.59301949415E+02  0.50000009825E+02 0.  0.
        -12    1    1    2    0    0 -0.14266270144E+02  0.20744503959E+02 -0.19566791091E+02  0.31886050585E+02  0.00000000000E+00 0.  1.
         11    1    3    3    0    0  0.75815776550E+01  0.43827667591E+01  0.33690393057E+01  0.93829307952E+01  0.51100000000E-03 0. -1.
        -11    1    3    3    0    0  0.45905086245E+01 -0.99205732194E+01 -0.12967923314E+02  0.16960471036E+02  0.51100000000E-03 0.  1.
         12    1    3    3    0    0  0.20941838650E+01 -0.15206697498E+02  0.29165675099E+02  0.32958547584E+02  0.00000000000E+00 0. -1.
</event>
<event>
 7    1  0.1184848E-011  0.5930194E+02  0.7816164E-02  0.1266605E+00
        -11   -1    0    0    0    0  0.00000000000E+00  0.00000000000E+00  0.45593999997E+02  0.45594000000E+02  0.51100000000E-03 0.  1.
         11   -1    0    0    0    0 -0.00000000000E+00 -0.00000000000E+00 -0.45593999997E+02  0.45594000000E+02  0.51100000000E-03 0. -1.
    9900012    2    1    2    0    0 -0.10730196819E+02  0.72722376700E+01 -0.29132429803E+02  0.59301936732E+02  0.49999986694E+02 0.  0.
        -12    1    1    2    0    0  0.10730196819E+02 -0.72722376700E+01  0.29132429803E+02  0.31886063268E+02  0.00000000000E+00 0.  1.
         11    1    3    3    0    0 -0.11189062398E+01  0.10586799605E+02 -0.22303856380E+01  0.10876897417E+02  0.51100000000E-03 0. -1.
        -11    1    3    3    0    0 -0.18138659176E+02  0.96840815809E+01 -0.43226664984E+01  0.21011374032E+02  0.51100000000E-03 0.  1.
        -12    1    3    3    0    0  0.85273685973E+01 -0.12998643516E+02 -0.22579377667E+02  0.27413665284E+02  0.00000000000E+00 0.  1.
</event>
<event>
 7    1  0.1184848E-011  0.5930198E+02  0.7816164E-02  0.1266605E+00
        -11   -1    0    0    0    0  0.00000000000E+00  0.00000000000E+00  0.45593999997E+02  0.45594000000E+02  0.51100000000E-03 0.  1.
         11   -1    0    0    0    0 -0.00000000000E+00 -0.00000000000E+00 -0.45593999997E+02  0.45594000000E+02  0.51100000000E-03 0. -1.
    9900012    2    1    2    0    0  0.64018806532E+01  0.32494211123E+01 -0.31067274829E+02  0.59301978317E+02  0.50000062536E+02 0.  0.
        -12    1    1    2    0    0 -0.64018806532E+01 -0.32494211123E+01  0.31067274829E+02  0.31886021683E+02  0.00000000000E+00 0.  1.
         11    1    3    3    0    0 -0.19880428251E+01  0.15763544417E+02 -0.18287882627E+02  0.24225777554E+02  0.51100000000E-03 0. -1.
        -11    1    3    3    0    0  0.58485428973E+01  0.23155844674E+01 -0.18065063292E+02  0.19128876011E+02  0.51100000000E-03 0.  1.
        -12    1    3    3    0    0  0.25413805810E+01 -0.14829707772E+02  0.52856710909E+01  0.15947324752E+02  0.00000000000E+00 0.  1.
</event>
<event>
 7    1  0.1184848E-011  0.5930195E+02  0.7816164E-02  0.1266605E+00
        -11   -1    0    0    0    0  0.00000000000E+00  0.00000000000E+00  0.45593999997E+02  0.45594000000E+02  0.51100000000E-03 0. -1.
         11   -1    0    0    0    0 -0.00000000000E+00 -0.00000000000E+00 -0.45593999997E+02  0.45594000000E+02  0.51100000000E-03 0.  1.
    9900012    2    1    2    0    0 -0.52276099290E+01  0.31110135184E+02 -0.46423712065E+01  0.59301952469E+02  0.50000015395E+02 0.  0.
        -12    1    1    2    0    0  0.52276099290E+01 -0.31110135184E+02  0.46423712065E+01  0.31886047531E+02  0.00000000000E+00 0.  1.
         11    1    3    3    0    0 -0.34116355614E+01  0.93341221536E+01 -0.39948441956E+00  0.99460887612E+01  0.51100000000E-03 0. -1.
        -11    1    3    3    0    0  0.91617229489E+00  0.27668941997E+02 -0.18766882908E+02  0.33445561997E+02  0.51100000000E-03 0.  1.
        -12    1    3    3    0    0 -0.27321466625E+01 -0.58929289672E+01  0.14523996121E+02  0.15910301711E+02  0.00000000000E+00 0.  1.
</event>
<event>
 7    1  0.1184848E-011  0.5930195E+02  0.7816164E-02  0.1266605E+00
        -11   -1    0    0    0    0  0.00000000000E+00  0.00000000000E+00  0.45593999997E+02  0.45594000000E+02  0.51100000000E-03 0.  1.
         11   -1    0    0    0    0 -0.00000000000E+00 -0.00000000000E+00 -0.45593999997E+02  0.45594000000E+02  0.51100000000E-03 0. -1.
    9900012    2    1    2    0    0 -0.26666028973E+01  0.30933127119E+02  0.72630111969E+01  0.59301945744E+02  0.50000003130E+02 0.  0.
        -12    1    1    2    0    0  0.26666028973E+01 -0.30933127119E+02 -0.72630111969E+01  0.31886054256E+02  0.00000000000E+00 0.  1.
         11    1    3    3    0    0  0.10158996727E+01  0.65760866379E+00 -0.86682206220E+01  0.87522882901E+01  0.51100000000E-03 0. -1.
        -11    1    3    3    0    0 -0.17553750135E+02  0.39279263843E+01  0.83055096438E+01  0.19812729246E+02  0.51100000000E-03 0.  1.
         12    1    3    3    0    0  0.13871247565E+02  0.26347592071E+02  0.76257221752E+01  0.30736928208E+02  0.00000000000E+00 0. -1.
</event>
<event>
 7    1  0.1184848E-011  0.5930194E+02  0.7816164E-02  0.1266605E+00
        -11   -1    0    0    0    0  0.00000000000E+00  0.00000000000E+00  0.45593999997E+02  0.45594000000E+02  0.51100000000E-03 0.  1.
         11   -1    0    0    0    0 -0.00000000000E+00 -0.00000000000E+00 -0.45593999997E+02  0.45594000000E+02  0.51100000000E-03 0. -1.
    9900012    2    1    2    0    0  0.30988238313E+02 -0.55804955405E+01 -0.50307275816E+01  0.59301936206E+02  0.49999985736E+02 0.  0.
        -12    1    1    2    0    0 -0.30988238313E+02  0.55804955405E+01  0.50307275816E+01  0.31886063794E+02  0.00000000000E+00 0.  1.
         11    1    3    3    0    0  0.16888959266E+02 -0.39276657140E+00 -0.17023596827E+02  0.23983203703E+02  0.51100000000E-03 0. -1.
        -11    1    3    3    0    0  0.20833621251E+02  0.44904317046E+01  0.91312236598E+01  0.23185836131E+02  0.51100000000E-03 0.  1.
         12    1    3    3    0    0 -0.67343422031E+01 -0.96781606737E+01  0.28616455854E+01  0.12132896373E+02  0.00000000000E+00 0. -1.
</event>
<event>
 7    1  0.1184848E-011  0.5930194E+02  0.7816164E-02  0.1266605E+00
        -11   -1    0    0    0    0  0.00000000000E+00  0.00000000000E+00  0.45593999997E+02  0.45594000000E+02  0.51100000000E-03 0.  1.
         11   -1    0    0    0    0 -0.00000000000E+00 -0.00000000000E+00 -0.45593999997E+02  0.45594000000E+02  0.51100000000E-03 0. -1.
    9900012    2    1    2    0    0 -0.60237223740E+01  0.14110082751E+02 -0.27952482736E+02  0.59301937879E+02  0.49999988786E+02 0.  0.
        -12    1    1    2    0    0  0.60237223740E+01 -0.14110082751E+02  0.27952482736E+02  0.31886062121E+02  0.00000000000E+00 0.  1.
         11    1    3    3    0    0  0.68946358484E+01  0.33327611099E+01 -0.16282913806E+02  0.17993792884E+02  0.51100000000E-03 0. -1.
        -11    1    3    3    0    0  0.47596924734E+01  0.19364996995E+02 -0.66892942087E+01  0.21033412427E+02  0.51100000000E-03 0.  1.
         12    1    3    3    0    0 -0.17678050696E+02 -0.85876753535E+01 -0.49802747213E+01  0.20274732567E+02  0.00000000000E+00 0. -1.
</event>
<event>
 7    1  0.1184848E-011  0.5930175E+02  0.7816164E-02  0.1266605E+00
        -11   -1    0    0    0    0  0.00000000000E+00  0.00000000000E+00  0.45593999997E+02  0.45594000000E+02  0.51100000000E-03 0. -1.
         11   -1    0    0    0    0 -0.00000000000E+00 -0.00000000000E+00 -0.45593999997E+02  0.45594000000E+02  0.51100000000E-03 0.  1.
    9900012    2    1    2    0    0  0.30483985583E+02  0.26758860540E+00  0.93481643055E+01  0.59301746589E+02  0.49999639918E+02 0.  0.
        -12    1    1    2    0    0 -0.30483985583E+02 -0.26758860540E+00 -0.93481643055E+01  0.31886253411E+02  0.00000000000E+00 0.  1.
         11    1    3    3    0    0  0.79712356994E+01 -0.50463951365E+01 -0.12091925866E+01  0.95115114163E+01  0.51100000000E-03 0. -1.
        -11    1    3    3    0    0  0.35195353490E+02  0.68975421793E+01  0.72928769464E+01  0.36598839460E+02  0.51100000000E-03 0.  1.
        -12    1    3    3    0    0 -0.12682603606E+02 -0.15835584374E+01  0.32644799457E+01  0.13191395713E+02  0.00000000000E+00 0.  1.
</event>
<event>
 7    1  0.1184848E-011  0.5930195E+02  0.7816164E-02  0.1266605E+00
        -11   -1    0    0    0    0  0.00000000000E+00  0.00000000000E+00  0.45593999997E+02  0.45594000000E+02  0.51100000000E-03 0.  1.
         11   -1    0    0    0    0 -0.00000000000E+00 -0.00000000000E+00 -0.45593999997E+02  0.45594000000E+02  0.51100000000E-03 0. -1.
    9900012    2    1    2    0    0 -0.21131365697E+02 -0.23645954309E+02 -0.33248231078E+01  0.59301949444E+02  0.50000009877E+02 0.  0.
        -12    1    1    2    0    0  0.21131365697E+02  0.23645954309E+02  0.33248231078E+01  0.31886050556E+02  0.00000000000E+00 0.  1.
         11    1    3    3    0    0 -0.15394078682E+02 -0.10475580915E+02  0.17568321066E+01  0.18702992094E+02  0.51100000000E-03 0. -1.
        -11    1    3    3    0    0 -0.12973771554E+02  0.94979197516E+01  0.76091238298E+00  0.16096838691E+02  0.51100000000E-03 0.  1.
        -12    1    3    3    0    0  0.72364845386E+01 -0.22668293146E+02 -0.58425675973E+01  0.24502118658E+02  0.00000000000E+00 0.  1.
</event>
<event>
 7    1  0.1184848E-011  0.5930195E+02  0.7816164E-02  0.1266605E+00
        -11   -1    0    0    0    0  0.00000000000E+00  0.00000000000E+00  0.45593999997E+02  0.45594000000E+02  0.51100000000E-03 0.  1.
         11   -1    0    0    0    0 -0.00000000000E+00 -0.00000000000E+00 -0.45593999997E+02  0.45594000000E+02  0.51100000000E-03 0. -1.
    9900012    2    1    2    0    0 -0.71895279846E+01 -0.85386555235E+01 -0.29868411334E+02  0.59301953735E+02  0.50000017703E+02 0.  0.
        -12    1    1    2    0    0  0.71895279846E+01  0.85386555235E+01  0.29868411334E+02  0.31886046265E+02  0.00000000000E+00 0.  1.
         11    1    3    3    0    0 -0.16046358245E+02 -0.87007237387E+01 -0.30472184986E+02  0.35521011592E+02  0.51100000000E-03 0. -1.
        -11    1    3    3    0    0 -0.29961513273E+01 -0.67973395488E+01 -0.49819136873E+01  0.89442837592E+01  0.51100000000E-03 0.  1.
        -12    1    3    3    0    0  0.11852981587E+02  0.69594077640E+01  0.55856873385E+01  0.14836658383E+02  0.00000000000E+00 0.  1.
</event>
<event>
 7    1  0.1184848E-011  0.5930196E+02  0.7816164E-02  0.1266605E+00
        -11   -1    0    0    0    0  0.00000000000E+00  0.00000000000E+00  0.45593999997E+02  0.45594000000E+02  0.51100000000E-03 0. -1.
         11   -1    0    0    0    0 -0.00000000000E+00 -0.00000000000E+00 -0.45593999997E+02  0.45594000000E+02  0.51100000000E-03 0.  1.
    9900012    2    1    2    0    0  0.11106905937E+02 -0.48818692840E+00  0.29885078510E+02  0.59301959112E+02  0.50000027510E+02 0.  0.
        -12    1    1    2    0    0 -0.11106905937E+02  0.48818692840E+00 -0.29885078510E+02  0.31886040888E+02  0.00000000000E+00 0.  1.
         11    1    3    3    0    0 -0.10632073480E+02 -0.42432065359E-01  0.15121612220E+02  0.18485289918E+02  0.51100000000E-03 0. -1.
        -11    1    3    3    0    0  0.21816769165E+02 -0.49162791554E+01  0.22599772616E+02  0.31794511163E+02  0.51100000000E-03 0.  1.
        -12    1    3    3    0    0 -0.77789747871E-01  0.44705242924E+01 -0.78363063266E+01  0.90221580311E+01  0.00000000000E+00 0.  1.
</event>
<event>
 7    1  0.1184848E-011  0.5930198E+02  0.7816164E-02  0.1266605E+00
        -11   -1    0    0    0    0  0.00000000000E+00  0.00000000000E+00  0.45593999997E+02  0.45594000000E+02  0.51100000000E-03 0.  1.
         11   -1    0    0    0    0 -0.00000000000E+00 -0.00000000000E+00 -0.45593999997E+02  0.45594000000E+02  0.51100000000E-03 0. -1.
    9900012    2    1    2    0    0 -0.21844609506E+02 -0.17042024829E+02 -0.15782920424E+02  0.59301981875E+02  0.50000069025E+02 0.  0.
        -12    1    1    2    0    0  0.21844609506E+02  0.17042024829E+02  0.15782920424E+02  0.31886018125E+02  0.00000000000E+00 0.  1.
         11    1    3    3    0    0 -0.16162278314E+01 -0.80185756908E+01 -0.15811379764E+02  0.17801951545E+02  0.51100000000E-03 0. -1.
        -11    1    3    3    0    0 -0.18046101893E+02 -0.86905147294E+01 -0.15804389765E+02  0.25514027042E+02  0.51100000000E-03 0.  1.
        -12    1    3    3    0    0 -0.21822797818E+01 -0.33293440874E+00  0.15832849105E+02  0.15986003288E+02  0.00000000000E+00 0.  1.
</event>
<event>
 7    1  0.1184848E-011  0.5930193E+02  0.7816164E-02  0.1266605E+00
        -11   -1    0    0    0    0  0.00000000000E+00  0.00000000000E+00  0.45593999997E+02  0.45594000000E+02  0.51100000000E-03 0.  1.
         11   -1    0    0    0    0 -0.00000000000E+00 -0.00000000000E+00 -0.45593999997E+02  0.45594000000E+02  0.51100000000E-03 0. -1.
    9900012    2    1    2    0    0  0.30851670255E+02 -0.79772088717E+01 -0.11224865088E+01  0.59301931022E+02  0.49999976281E+02 0.  0.
        -12    1    1    2    0    0 -0.30851670255E+02  0.79772088717E+01  0.11224865088E+01  0.31886068978E+02  0.00000000000E+00 0.  1.
         11    1    3    3    0    0  0.23451028122E+02  0.62136861490E+01  0.36287118925E+01  0.24530148100E+02  0.51100000000E-03 0. -1.
        -11    1    3    3    0    0  0.88229056515E+01  0.72260785492E+01  0.32602466699E+01  0.11861242934E+02  0.51100000000E-03 0.  1.
         12    1    3    3    0    0 -0.14222635190E+01 -0.21416973570E+02 -0.80114450713E+01  0.22910539988E+02  0.00000000000E+00 0. -1.
</event>
<event>
 7    1  0.1184848E-011  0.5930193E+02  0.7816164E-02  0.1266605E+00
        -11   -1    0    0    0    0  0.00000000000E+00  0.00000000000E+00  0.45593999997E+02  0.45594000000E+02  0.51100000000E-03 0.  1.
         11   -1    0    0    0    0 -0.00000000000E+00 -0.00000000000E+00 -0.45593999997E+02  0.45594000000E+02  0.51100000000E-03 0. -1.
    9900012    2    1    2    0    0 -0.23993020142E+02  0.15777316042E+01 -0.20941995669E+02  0.59301930391E+02  0.49999975129E+02 0.  0.
        -12    1    1    2    0    0  0.23993020142E+02 -0.15777316042E+01  0.20941995669E+02  0.31886069609E+02  0.00000000000E+00 0.  1.
         11    1    3    3    0    0 -0.47635394779E+01  0.11530548737E+02 -0.19271077841E+02  0.22956901009E+02  0.51100000000E-03 0. -1.
        -11    1    3    3    0    0  0.45483462055E+01 -0.61654389951E+01  0.73652845797E+01  0.10627676529E+02  0.51100000000E-03 0.  1.
        -12    1    3    3    0    0 -0.23777826869E+02 -0.37873781377E+01 -0.90362024076E+01  0.25717352853E+02  0.00000000000E+00 0.  1.
</event>
<event>
 7    1  0.1184848E-011  0.5930194E+02  0.7816164E-02  0.1266605E+00
        -11   -1    0    0    0    0  0.00000000000E+00  0.00000000000E+00  0.45593999997E+02  0.45594000000E+02  0.51100000000E-03 0.  1.
         11   -1    0    0    0    0 -0.00000000000E+00 -0.00000000000E+00 -0.45593999997E+02  0.45594000000E+02  0.51100000000E-03 0. -1.
    9900012    2    1    2    0    0 -0.31228363606E+01  0.29865482905E+02  0.10724827390E+02  0.59301935668E+02  0.49999984753E+02 0.  0.
        -12    1    1    2    0    0  0.31228363606E+01 -0.29865482905E+02 -0.10724827390E+02  0.31886064332E+02  0.00000000000E+00 0.  1.
         11    1    3    3    0    0  0.32116861463E+01  0.13016371158E+02  0.29334449351E+01  0.13723918736E+02  0.51100000000E-03 0. -1.
        -11    1    3    3    0    0 -0.15075186298E+02  0.22732945068E+02  0.16525062850E+02  0.31892408750E+02  0.51100000000E-03 0.  1.
         12    1    3    3    0    0  0.87406637915E+01 -0.58838333215E+01 -0.87336803950E+01  0.13685608182E+02  0.00000000000E+00 0. -1.
</event>
<event>
 7    1  0.1184848E-011  0.5930196E+02  0.7816164E-02  0.1266605E+00
        -11   -1    0    0    0    0  0.00000000000E+00  0.00000000000E+00  0.45593999997E+02  0.45594000000E+02  0.51100000000E-03 0. -1.
         11   -1    0    0    0    0 -0.00000000000E+00 -0.00000000000E+00 -0.45593999997E+02  0.45594000000E+02  0.51100000000E-03 0.  1.
    9900012    2    1    2    0    0 -0.19003831112E+02 -0.24504708715E+02  0.74224920208E+01  0.59301957067E+02  0.50000023780E+02 0.  0.
        -12    1    1    2    0    0  0.19003831112E+02  0.24504708715E+02 -0.74224920208E+01  0.31886042933E+02  0.00000000000E+00 0.  1.
         11    1    3    3    0    0  0.11887990122E+01 -0.88555002258E+01 -0.24190543074E+01  0.92566166251E+01  0.51100000000E-03 0. -1.
        -11    1    3    3    0    0 -0.32951167319E+01 -0.27483704885E+02  0.12812516529E+01  0.27710168432E+02  0.51100000000E-03 0.  1.
        -12    1    3    3    0    0 -0.16897513392E+02  0.11834496396E+02  0.85602946753E+01  0.22335172010E+02  0.00000000000E+00 0.  1.
</event>
<event>
 7    1  0.1184848E-011  0.5930196E+02  0.7816164E-02  0.1266605E+00
        -11   -1    0    0    0    0  0.00000000000E+00  0.00000000000E+00  0.45593999997E+02  0.45594000000E+02  0.51100000000E-03 0. -1.
         11   -1    0    0    0    0 -0.00000000000E+00 -0.00000000000E+00 -0.45593999997E+02  0.45594000000E+02  0.51100000000E-03 0.  1.
    9900012    2    1    2    0    0 -0.17172513550E+02  0.27293527067E+01  0.26727797540E+02  0.59301956828E+02  0.50000023345E+02 0.  0.
        -12    1    1    2    0    0  0.17172513550E+02 -0.27293527067E+01 -0.26727797540E+02  0.31886043172E+02  0.00000000000E+00 0.  1.
         11    1    3    3    0    0 -0.16966096821E+02 -0.71191862026E+01  0.49266293583E+01  0.19047386452E+02  0.51100000000E-03 0. -1.
        -11    1    3    3    0    0 -0.10475719907E+02  0.51378771635E+01 -0.38001325722E+01  0.12271083780E+02  0.51100000000E-03 0.  1.
        -12    1    3    3    0    0  0.10269303178E+02  0.47106617458E+01  0.25601300753E+02  0.27983486597E+02  0.00000000000E+00 0.  1.
</event>
<event>
 7    1  0.1184848E-011  0.5930197E+02  0.7816164E-02  0.1266605E+00
        -11   -1    0    0    0    0  0.00000000000E+00  0.00000000000E+00  0.45593999997E+02  0.45594000000E+02  0.51100000000E-03 0. -1.
         11   -1    0    0    0    0 -0.00000000000E+00 -0.00000000000E+00 -0.45593999997E+02  0.45594000000E+02  0.51100000000E-03 0.  1.
    9900012    2    1    2    0    0 -0.76020565700E+01 -0.22963222857E+02 -0.20775415430E+02  0.59301972427E+02  0.50000051794E+02 0.  0.
        -12    1    1    2    0    0  0.76020565700E+01  0.22963222857E+02  0.20775415430E+02  0.31886027573E+02  0.00000000000E+00 0.  1.
         11    1    3    3    0    0 -0.10117118196E+02  0.11149827713E+01  0.39527678915E+01  0.10918957891E+02  0.51100000000E-03 0. -1.
        -11    1    3    3    0    0 -0.66306283193E+01  0.45952735710E+01 -0.14504823557E+02  0.16597339479E+02  0.51100000000E-03 0.  1.
         12    1    3    3    0    0  0.91456899450E+01 -0.28673479199E+02 -0.10223359765E+02  0.31785675057E+02  0.00000000000E+00 0. -1.
</event>
<event>
 7    1  0.1355387E-011  0.5930224E+02  0.7816164E-02  0.1266604E+00
        -11   -1    0    0    0    0  0.00000000000E+00  0.00000000000E+00  0.45593999997E+02  0.45594000000E+02  0.51100000000E-03 0. -1.
         11   -1    0    0    0    0 -0.00000000000E+00 -0.00000000000E+00 -0.45593999997E+02  0.45594000000E+02  0.51100000000E-03 0.  1.
    9900012    2    1    2    0    0  0.29036620926E+02 -0.34447253246E+01  0.12716531311E+02  0.59302240546E+02  0.50000540776E+02 0.  0.
        -12    1    1    2    0    0 -0.29036620926E+02  0.34447253246E+01 -0.12716531311E+02  0.31885759454E+02  0.00000000000E+00 0.  1.
         11    1    3    3    0    0  0.24137921310E+02 -0.57073563144E+01  0.20598010465E+02  0.32241141368E+02  0.51100000000E-03 0. -1.
        -11    1    3    3    0    0 -0.40056922099E+01 -0.18555729766E+01  0.75670761382E+01  0.87606713609E+01  0.51100000000E-03 0.  1.
        -12    1    3    3    0    0  0.89043918253E+01  0.41182039663E+01 -0.15448555293E+02  0.18300427818E+02  0.00000000000E+00 0.  1.
</event>
<event>
 7    1  0.1184848E-011  0.5930196E+02  0.7816164E-02  0.1266605E+00
        -11   -1    0    0    0    0  0.00000000000E+00  0.00000000000E+00  0.45593999997E+02  0.45594000000E+02  0.51100000000E-03 0.  1.
         11   -1    0    0    0    0 -0.00000000000E+00 -0.00000000000E+00 -0.45593999997E+02  0.45594000000E+02  0.51100000000E-03 0. -1.
    9900012    2    1    2    0    0  0.16351162428E+02 -0.15682940378E+02 -0.22436673580E+02  0.59301961473E+02  0.50000031816E+02 0.  0.
        -12    1    1    2    0    0 -0.16351162428E+02  0.15682940378E+02  0.22436673580E+02  0.31886038527E+02  0.00000000000E+00 0.  1.
         11    1    3    3    0    0  0.15983703820E+02 -0.69278522086E+01  0.87935056697E-01  0.17420724924E+02  0.51100000000E-03 0.  1.
        -11    1    3    3    0    0 -0.44356039232E+01  0.79477989837E+01  0.41827453089E+01  0.10016858261E+02  0.51100000000E-03 0. -1.
        -12    1    3    3    0    0  0.48030625308E+01 -0.16702887153E+02 -0.26707353945E+02  0.31864378288E+02  0.00000000000E+00 0.  1.
</event>
<event>
 7    1  0.1184848E-011  0.5930180E+02  0.7816164E-02  0.1266605E+00
        -11   -1    0    0    0    0  0.00000000000E+00  0.00000000000E+00  0.45593999997E+02  0.45594000000E+02  0.51100000000E-03 0. -1.
         11   -1    0    0    0    0 -0.00000000000E+00 -0.00000000000E+00 -0.45593999997E+02  0.45594000000E+02  0.51100000000E-03 0.  1.
    9900012    2    1    2    0    0  0.12961969504E+02  0.16263816469E+02  0.24170337411E+02  0.59301802513E+02  0.49999741911E+02 0.  0.
        -12    1    1    2    0    0 -0.12961969504E+02 -0.16263816469E+02 -0.24170337411E+02  0.31886197487E+02  0.00000000000E+00 0.  1.
         11    1    3    3    0    0  0.23247068028E+02  0.12427906854E+02  0.26754369976E+01  0.26495980904E+02  0.51100000000E-03 0. -1.
        -11    1    3    3    0    0  0.64770089167E+01  0.27057836164E+01  0.10831825631E+02  0.12907414778E+02  0.51100000000E-03 0.  1.
        -12    1    3    3    0    0 -0.16762107440E+02  0.11301259986E+01  0.10663074783E+02  0.19898406832E+02  0.00000000000E+00 0.  1.
</event>
<event>
 7    1  0.1184848E-011  0.5930203E+02  0.7816164E-02  0.1266604E+00
        -11   -1    0    0    0    0  0.00000000000E+00  0.00000000000E+00  0.45593999997E+02  0.45594000000E+02  0.51100000000E-03 0. -1.
         11   -1    0    0    0    0 -0.00000000000E+00 -0.00000000000E+00 -0.45593999997E+02  0.45594000000E+02  0.51100000000E-03 0.  1.
    9900012    2    1    2    0    0  0.14936958681E+02  0.19651884979E+02 -0.20184302801E+02  0.59302025067E+02  0.50000147796E+02 0.  0.
        -12    1    1    2    0    0 -0.14936958681E+02 -0.19651884979E+02  0.20184302801E+02  0.31885974933E+02  0.00000000000E+00 0.  1.
         11    1    3    3    0    0  0.15156605189E+01  0.67784706961E+01  0.11818227322E+02  0.13708223411E+02  0.51100000000E-03 0. -1.
        -11    1    3    3    0    0 -0.50691402341E+01 -0.22025065018E+01  0.18332157258E+00  0.55299931884E+01  0.51100000000E-03 0.  1.
         12    1    3    3    0    0  0.18490438396E+02  0.15075920785E+02 -0.32185851695E+02  0.40063808468E+02  0.00000000000E+00 0. -1.
</event>
<event>
 7    1  0.1184848E-011  0.5930193E+02  0.7816164E-02  0.1266605E+00
        -11   -1    0    0    0    0  0.00000000000E+00  0.00000000000E+00  0.45593999997E+02  0.45594000000E+02  0.51100000000E-03 0.  1.
         11   -1    0    0    0    0 -0.00000000000E+00 -0.00000000000E+00 -0.45593999997E+02  0.45594000000E+02  0.51100000000E-03 0. -1.
    9900012    2    1    2    0    0  0.15689031375E+02  0.12046118963E+02 -0.25009332319E+02  0.59301931089E+02  0.49999976403E+02 0.  0.
        -12    1    1    2    0    0 -0.15689031375E+02 -0.12046118963E+02  0.25009332319E+02  0.31886068911E+02  0.00000000000E+00 0.  1.
         11    1    3    3    0    0  0.86891725138E+01  0.82626036043E+01 -0.24440897037E+01  0.12237071220E+02  0.51100000000E-03 0. -1.
        -11    1    3    3    0    0 -0.94865586831E+01  0.17199766496E+02 -0.14129844722E+02  0.24196679014E+02  0.51100000000E-03 0.  1.
        -12    1    3    3    0    0  0.16486417544E+02 -0.13416251137E+02 -0.84353978925E+01  0.22868180855E+02  0.00000000000E+00 0.  1.
</event>
<event>
 7    1  0.1184848E-011  0.5930198E+02  0.7816164E-02  0.1266605E+00
        -11   -1    0    0    0    0  0.00000000000E+00  0.00000000000E+00  0.45593999997E+02  0.45594000000E+02  0.51100000000E-03 0.  1.
         11   -1    0    0    0    0 -0.00000000000E+00 -0.00000000000E+00 -0.45593999997E+02  0.45594000000E+02  0.51100000000E-03 0. -1.
    9900012    2    1    2    0    0 -0.18395034107E+02 -0.19816168422E+02 -0.16901487498E+02  0.59301982839E+02  0.50000070782E+02 0.  0.
        -12    1    1    2    0    0  0.18395034107E+02  0.19816168422E+02  0.16901487498E+02  0.31886017161E+02  0.00000000000E+00 0.  1.
         11    1    3    3    0    0 -0.14220330707E+01  0.25625074747E+01 -0.23852560477E+01  0.37786332564E+01  0.51100000000E-03 0. -1.
        -11    1    3    3    0    0 -0.31879296636E+02 -0.83985364448E+01 -0.66851513652E+01  0.33638017442E+02  0.51100000000E-03 0.  1.
        -12    1    3    3    0    0  0.14906295599E+02 -0.13980139452E+02 -0.78310800853E+01  0.21885332140E+02  0.00000000000E+00 0.  1.
</event>
<event>
 7    1  0.1184848E-011  0.5930199E+02  0.7816164E-02  0.1266605E+00
        -11   -1    0    0    0    0  0.00000000000E+00  0.00000000000E+00  0.45593999997E+02  0.45594000000E+02  0.51100000000E-03 0.  1.
         11   -1    0    0    0    0 -0.00000000000E+00 -0.00000000000E+00 -0.45593999997E+02  0.45594000000E+02  0.51100000000E-03 0. -1.
    9900012    2    1    2    0    0 -0.10587465087E+02 -0.19536761557E+02 -0.22867839057E+02  0.59301991591E+02  0.50000086744E+02 0.  0.
        -12    1    1    2    0    0  0.10587465087E+02  0.19536761557E+02  0.22867839057E+02  0.31886008409E+02  0.00000000000E+00 0.  1.
         11    1    3    3    0    0 -0.11312712775E+02  0.33709057529E+01 -0.28300653064E+02  0.30663780589E+02  0.51100000000E-03 0. -1.
        -11    1    3    3    0    0 -0.95693067494E+00 -0.19598392803E+02 -0.25959869306E+01  0.19792722531E+02  0.51100000000E-03 0.  1.
        -12    1    3    3    0    0  0.16821783634E+01 -0.33092745064E+01  0.80288009367E+01  0.88454884707E+01  0.00000000000E+00 0.  1.
</event>
<event>
 7    1  0.1184848E-011  0.5930195E+02  0.7816164E-02  0.1266605E+00
        -11   -1    0    0    0    0  0.00000000000E+00  0.00000000000E+00  0.45593999997E+02  0.45594000000E+02  0.51100000000E-03 0.  1.
         11   -1    0    0    0    0 -0.00000000000E+00 -0.00000000000E+00 -0.45593999997E+02  0.45594000000E+02  0.51100000000E-03 0. -1.
    9900012    2    1    2    0    0  0.16865485031E+02  0.21706929146E+02 -0.16158123975E+02  0.59301947741E+02  0.50000006772E+02 0.  0.
        -12    1    1    2    0    0 -0.16865485031E+02 -0.21706929146E+02  0.16158123975E+02  0.31886052259E+02  0.00000000000E+00 0.  1.
         11    1    3    3    0    0  0.48481268290E+01 -0.89394279884E+01  0.34912232911E+01  0.10752039194E+02  0.51100000000E-03 0. -1.
        -11    1    3    3    0    0  0.63038191972E+01  0.98279478204E+01  0.74897432410E+01  0.13871659919E+02  0.51100000000E-03 0.  1.
         12    1    3    3    0    0  0.57135390048E+01  0.20818409314E+02 -0.27139090507E+02  0.34678248628E+02  0.00000000000E+00 0. -1.
</event>
<event>
 7    1  0.1435735E-011  0.5930190E+02  0.7816164E-02  0.1266605E+00
        -11   -1    0    0    0    0  0.00000000000E+00  0.00000000000E+00  0.45593999997E+02  0.45594000000E+02  0.51100000000E-03 0. -1.
         11   -1    0    0    0    0 -0.00000000000E+00 -0.00000000000E+00 -0.45593999997E+02  0.45594000000E+02  0.51100000000E-03 0.  1.
    9900012    2    1    2    0    0 -0.78594545367E+01 -0.20356660840E+02  0.23249922676E+02  0.59301896904E+02  0.49999914058E+02 0.  0.
        -12    1    1    2    0    0  0.78594545367E+01  0.20356660840E+02 -0.23249922676E+02  0.31886103096E+02  0.00000000000E+00 0.  1.
         11    1    3    3    0    0 -0.12455261216E+02 -0.18589457654E+02  0.27771332395E+02  0.35664385192E+02  0.51100000000E-03 0. -1.
        -11    1    3    3    0    0  0.20655784748E+01 -0.42040500867E+01  0.87414387919E+01  0.99173284699E+01  0.51100000000E-03 0.  1.
        -12    1    3    3    0    0  0.25302282049E+01  0.24368469005E+01 -0.13262848511E+02  0.13720183243E+02  0.00000000000E+00 0.  1.
</event>
<event>
 7    1  0.1184848E-011  0.5930192E+02  0.7816164E-02  0.1266605E+00
        -11   -1    0    0    0    0  0.00000000000E+00  0.00000000000E+00  0.45593999997E+02  0.45594000000E+02  0.51100000000E-03 0.  1.
         11   -1    0    0    0    0 -0.00000000000E+00 -0.00000000000E+00 -0.45593999997E+02  0.45594000000E+02  0.51100000000E-03 0. -1.
    9900012    2    1    2    0    0 -0.21187866338E+02  0.18849132247E+02 -0.14577606848E+02  0.59301920156E+02  0.49999956463E+02 0.  0.
        -12    1    1    2    0    0  0.21187866338E+02 -0.18849132247E+02  0.14577606848E+02  0.31886079844E+02  0.00000000000E+00 0.  1.
         11    1    3    3    0    0 -0.13711390265E+02  0.16455657395E+02 -0.16285988470E+02  0.26907699716E+02  0.51100000000E-03 0. -1.
        -11    1    3    3    0    0  0.28911012932E+01  0.15419367396E+02  0.37100176514E+00  0.15692450418E+02  0.51100000000E-03 0.  1.
         12    1    3    3    0    0 -0.10367577366E+02 -0.13025892543E+02  0.13373798567E+01  0.16701770021E+02  0.00000000000E+00 0. -1.
</event>
<event>
 7    1  0.1184848E-011  0.5930196E+02  0.7816164E-02  0.1266605E+00
        -11   -1    0    0    0    0  0.00000000000E+00  0.00000000000E+00  0.45593999997E+02  0.45594000000E+02  0.51100000000E-03 0.  1.
         11   -1    0    0    0    0 -0.00000000000E+00 -0.00000000000E+00 -0.45593999997E+02  0.45594000000E+02  0.51100000000E-03 0. -1.
    9900012    2    1    2    0    0  0.43916441192E+01  0.80728769848E+01 -0.30532961253E+02  0.59301959109E+02  0.50000027504E+02 0.  0.
        -12    1    1    2    0    0 -0.43916441192E+01 -0.80728769848E+01  0.30532961253E+02  0.31886040891E+02  0.00000000000E+00 0.  1.
         11    1    3    3    0    0 -0.25249395398E+01  0.59012797498E+01 -0.10244851100E+02  0.12089557341E+02  0.51100000000E-03 0. -1.
        -11    1    3    3    0    0 -0.10196683043E+02 -0.14701783650E+02 -0.44718804600E+01  0.18442139319E+02  0.51100000000E-03 0.  1.
         12    1    3    3    0    0  0.17113266702E+02  0.16873380885E+02 -0.15816229692E+02  0.28770262449E+02  0.00000000000E+00 0. -1.
</event>
<event>
 7    1  0.1184848E-011  0.5930195E+02  0.7816164E-02  0.1266605E+00
        -11   -1    0    0    0    0  0.00000000000E+00  0.00000000000E+00  0.45593999997E+02  0.45594000000E+02  0.51100000000E-03 0. -1.
         11   -1    0    0    0    0 -0.00000000000E+00 -0.00000000000E+00 -0.45593999997E+02  0.45594000000E+02  0.51100000000E-03 0.  1.
    9900012    2    1    2    0    0  0.17100667998E+02  0.22984063693E+02  0.14000729465E+02  0.59301945754E+02  0.50000003148E+02 0.  0.
        -12    1    1    2    0    0 -0.17100667998E+02 -0.22984063693E+02 -0.14000729465E+02  0.31886054246E+02  0.00000000000E+00 0.  1.
         11    1    3    3    0    0  0.61801965843E+01  0.22363909342E+02 -0.93009064820E+01  0.24996922461E+02  0.51100000000E-03 0.  1.
        -11    1    3    3    0    0  0.60225383049E+01 -0.82163270858E+01  0.15274140531E+01  0.10301067535E+02  0.51100000000E-03 0. -1.
        -12    1    3    3    0    0  0.48979331088E+01  0.88364814372E+01  0.21774221894E+02  0.24003955758E+02  0.00000000000E+00 0.  1.
</event>
<event>
 7    1  0.1184848E-011  0.5930195E+02  0.7816164E-02  0.1266605E+00
        -11   -1    0    0    0    0  0.00000000000E+00  0.00000000000E+00  0.45593999997E+02  0.45594000000E+02  0.51100000000E-03 0. -1.
         11   -1    0    0    0    0 -0.00000000000E+00 -0.00000000000E+00 -0.45593999997E+02  0.45594000000E+02  0.51100000000E-03 0.  1.
    9900012    2    1    2    0    0  0.81194042669E+01 -0.16741171924E+01  0.30789488667E+02  0.59301952794E+02  0.50000015988E+02 0.  0.
        -12    1    1    2    0    0 -0.81194042669E+01  0.16741171924E+01 -0.30789488667E+02  0.31886047206E+02  0.00000000000E+00 0.  1.
         11    1    3    3    0    0  0.11983549068E+02  0.87244323758E+01  0.77532232974E+01  0.16728228845E+02  0.51100000000E-03 0. -1.
        -11    1    3    3    0    0 -0.46339691903E+00  0.80674719808E+01 -0.44967405477E+01  0.92476762855E+01  0.51100000000E-03 0.  1.
         12    1    3    3    0    0 -0.34007478817E+01 -0.18466021549E+02  0.27533005918E+02  0.33326047663E+02  0.00000000000E+00 0. -1.
</event>
<event>
 7    1  0.1184848E-011  0.5930186E+02  0.7816164E-02  0.1266605E+00
        -11   -1    0    0    0    0  0.00000000000E+00  0.00000000000E+00  0.45593999997E+02  0.45594000000E+02  0.51100000000E-03 0. -1.
         11   -1    0    0    0    0 -0.00000000000E+00 -0.00000000000E+00 -0.45593999997E+02  0.45594000000E+02  0.51100000000E-03 0.  1.
    9900012    2    1    2    0    0  0.16819544198E+02 -0.21065657084E+02  0.17031349096E+02  0.59301861515E+02  0.49999849517E+02 0.  0.
        -12    1    1    2    0    0 -0.16819544198E+02  0.21065657084E+02 -0.17031349096E+02  0.31886138485E+02  0.00000000000E+00 0.  1.
         11    1    3    3    0    0  0.91999154873E+01  0.82851265168E+00  0.74706561940E+01  0.11880049765E+02  0.51100000000E-03 0. -1.
        -11    1    3    3    0    0  0.23187143674E+02 -0.13852770161E+02 -0.88159390025E+00  0.27024434887E+02  0.51100000000E-03 0.  1.
        -12    1    3    3    0    0 -0.15567514963E+02 -0.80413995750E+01  0.10442286803E+02  0.20397376864E+02  0.00000000000E+00 0.  1.
</event>
<event>
 7    1  0.1184848E-011  0.5930196E+02  0.7816164E-02  0.1266605E+00
        -11   -1    0    0    0    0  0.00000000000E+00  0.00000000000E+00  0.45593999997E+02  0.45594000000E+02  0.51100000000E-03 0.  1.
         11   -1    0    0    0    0 -0.00000000000E+00 -0.00000000000E+00 -0.45593999997E+02  0.45594000000E+02  0.51100000000E-03 0. -1.
    9900012    2    1    2    0    0 -0.21764331309E+02  0.92801251373E+01 -0.21375516139E+02  0.59301960263E+02  0.50000029609E+02 0.  0.
        -12    1    1    2    0    0  0.21764331309E+02 -0.92801251373E+01  0.21375516139E+02  0.31886039737E+02  0.00000000000E+00 0.  1.
         11    1    3    3    0    0 -0.24965338413E+02  0.69499641069E+01 -0.35641401494E+01  0.26158616524E+02  0.51100000000E-03 0. -1.
        -11    1    3    3    0    0 -0.73181422214E+01 -0.27277514062E+01  0.37208659202E+01  0.86510506162E+01  0.51100000000E-03 0.  1.
         12    1    3    3    0    0  0.10519149326E+02  0.50579124366E+01 -0.21532241910E+02  0.24492293123E+02  0.00000000000E+00 0. -1.
</event>
<event>
 7    1  0.1184848E-011  0.5930190E+02  0.7816164E-02  0.1266605E+00
        -11   -1    0    0    0    0  0.00000000000E+00  0.00000000000E+00  0.45593999997E+02  0.45594000000E+02  0.51100000000E-03 0.  1.
         11   -1    0    0    0    0 -0.00000000000E+00 -0.00000000000E+00 -0.45593999997E+02  0.45594000000E+02  0.51100000000E-03 0. -1.
    9900012    2    1    2    0    0 -0.12800221559E+02  0.17548628008E+01 -0.29151298977E+02  0.59301898836E+02  0.49999917581E+02 0.  0.
        -12    1    1    2    0    0  0.12800221559E+02 -0.17548628008E+01  0.29151298977E+02  0.31886101164E+02  0.00000000000E+00 0.  1.
         11    1    3    3    0    0 -0.19754186330E+01  0.64301468001E+01 -0.10516607979E+02  0.12483914061E+02  0.51100000000E-03 0. -1.
        -11    1    3    3    0    0  0.14165671877E+02 -0.91881461444E+01 -0.34617969444E+01  0.17235786250E+02  0.51100000000E-03 0.  1.
         12    1    3    3    0    0 -0.24990474803E+02  0.45128621451E+01 -0.15172894053E+02  0.29582198525E+02  0.00000000000E+00 0. -1.
</event>
<event>
 7    1  0.1184848E-011  0.5930192E+02  0.7816164E-02  0.1266605E+00
        -11   -1    0    0    0    0  0.00000000000E+00  0.00000000000E+00  0.45593999997E+02  0.45594000000E+02  0.51100000000E-03 0. -1.
         11   -1    0    0    0    0 -0.00000000000E+00 -0.00000000000E+00 -0.45593999997E+02  0.45594000000E+02  0.51100000000E-03 0.  1.
    9900012    2    1    2    0    0  0.50942851900E+01 -0.29314501945E+02  0.11464309120E+02  0.59301919189E+02  0.49999954700E+02 0.  0.
        -12    1    1    2    0    0 -0.50942851900E+01  0.29314501945E+02 -0.11464309120E+02  0.31886080811E+02  0.00000000000E+00 0.  1.
         11    1    3    3    0    0 -0.77055860376E-01 -0.90604525450E+01  0.20335802592E+02  0.22263032257E+02  0.51100000000E-03 0. -1.
        -11    1    3    3    0    0 -0.11122844765E+02 -0.64524774641E+01  0.21034914677E+01  0.13029843350E+02  0.51100000000E-03 0.  1.
        -12    1    3    3    0    0  0.16294185816E+02 -0.13801571936E+02 -0.10974984941E+02  0.24009043583E+02  0.00000000000E+00 0.  1.
</event>
<event>
 7    1  0.1184848E-011  0.5930195E+02  0.7816164E-02  0.1266605E+00
        -11   -1    0    0    0    0  0.00000000000E+00  0.00000000000E+00  0.45593999997E+02  0.45594000000E+02  0.51100000000E-03 0.  1.
         11   -1    0    0    0    0 -0.00000000000E+00 -0.00000000000E+00 -0.45593999997E+02  0.45594000000E+02  0.51100000000E-03 0. -1.
    9900012    2    1    2    0    0 -0.21262142837E+02  0.18504742772E+02  0.14906907772E+02  0.59301950975E+02  0.50000012670E+02 0.  0.
        -12    1    1    2    0    0  0.21262142837E+02 -0.18504742772E+02 -0.14906907772E+02  0.31886049025E+02  0.00000000000E+00 0.  1.
         11    1    3    3    0    0  0.85635979522E+00  0.16761885983E+01 -0.37176073895E+01  0.41669611565E+01  0.51100000000E-03 0. -1.
        -11    1    3    3    0    0 -0.50185204135E+01 -0.13339616823E+02  0.14298756856E+02  0.20188743695E+02  0.51100000000E-03 0.  1.
         12    1    3    3    0    0 -0.17099982219E+02  0.30168170997E+02  0.43257583056E+01  0.34946246123E+02  0.00000000000E+00 0. -1.
</event>
<event>
 7    1  0.1184848E-011  0.5930199E+02  0.7816164E-02  0.1266605E+00
        -11   -1    0    0    0    0  0.00000000000E+00  0.00000000000E+00  0.45593999997E+02  0.45594000000E+02  0.51100000000E-03 0.  1.
         11   -1    0    0    0    0 -0.00000000000E+00 -0.00000000000E+00 -0.45593999997E+02  0.45594000000E+02  0.51100000000E-03 0. -1.
    9900012    2    1    2    0    0 -0.23965310709E+02  0.16300688171E+02 -0.13291695691E+02  0.59301988544E+02  0.50000081187E+02 0.  0.
        -12    1    1    2    0    0  0.23965310709E+02 -0.16300688171E+02  0.13291695691E+02  0.31886011456E+02  0.00000000000E+00 0.  1.
         11    1    3    3    0    0 -0.15122349262E+02  0.76554847277E+01 -0.17722738536E+02  0.24523200344E+02  0.51100000000E-03 0. -1.
        -11    1    3    3    0    0 -0.15191863658E+01  0.48837839881E+01 -0.13831122268E+02  0.14746498456E+02  0.51100000000E-03 0.  1.
        -12    1    3    3    0    0 -0.73237750814E+01  0.37614194548E+01  0.18262165114E+02  0.20032289744E+02  0.00000000000E+00 0.  1.
</event>
<event>
 7    1  0.1184848E-011  0.5930196E+02  0.7816164E-02  0.1266605E+00
        -11   -1    0    0    0    0  0.00000000000E+00  0.00000000000E+00  0.45593999997E+02  0.45594000000E+02  0.51100000000E-03 0. -1.
         11   -1    0    0    0    0 -0.00000000000E+00 -0.00000000000E+00 -0.45593999997E+02  0.45594000000E+02  0.51100000000E-03 0.  1.
    9900012    2    1    2    0    0  0.21078840491E+02  0.23777253322E+02  0.26541471719E+01  0.59301956201E+02  0.50000022201E+02 0.  0.
        -12    1    1    2    0    0 -0.21078840491E+02 -0.23777253322E+02 -0.26541471719E+01  0.31886043799E+02  0.00000000000E+00 0.  1.
         11    1    3    3    0    0 -0.27259404959E+01  0.26574947345E+02  0.54644753215E+01  0.27267546072E+02  0.51100000000E-03 0. -1.
        -11    1    3    3    0    0  0.23616708239E+02  0.49208529114E+01 -0.30100644854E+01  0.24310989077E+02  0.51100000000E-03 0.  1.
        -12    1    3    3    0    0  0.18807274758E+00 -0.77185469348E+01  0.19973633575E+00  0.77234210520E+01  0.00000000000E+00 0.  1.
</event>
<event>
 7    1  0.1184848E-011  0.5930196E+02  0.7816164E-02  0.1266605E+00
        -11   -1    0    0    0    0  0.00000000000E+00  0.00000000000E+00  0.45593999997E+02  0.45594000000E+02  0.51100000000E-03 0.  1.
         11   -1    0    0    0    0 -0.00000000000E+00 -0.00000000000E+00 -0.45593999997E+02  0.45594000000E+02  0.51100000000E-03 0. -1.
    9900012    2    1    2    0    0 -0.18991866190E+02  0.22535149935E+02 -0.12173550080E+02  0.59301964098E+02  0.50000036604E+02 0.  0.
        -12    1    1    2    0    0  0.18991866190E+02 -0.22535149935E+02  0.12173550080E+02  0.31886035902E+02  0.00000000000E+00 0.  1.
         11    1    3    3    0    0 -0.97293783322E+01  0.30182168440E+02 -0.95744480134E+01  0.33125430556E+02  0.51100000000E-03 0. -1.
        -11    1    3    3    0    0  0.33131674812E+01 -0.56336334459E+01 -0.96227499467E+01  0.11632378147E+02  0.51100000000E-03 0.  1.
        -12    1    3    3    0    0 -0.12575655339E+02 -0.20133850596E+01  0.70236478803E+01  0.14544155395E+02  0.00000000000E+00 0.  1.
</event>
<event>
 7    1  0.1184848E-011  0.5930195E+02  0.7816164E-02  0.1266605E+00
        -11   -1    0    0    0    0  0.00000000000E+00  0.00000000000E+00  0.45593999997E+02  0.45594000000E+02  0.51100000000E-03 0.  1.
         11   -1    0    0    0    0 -0.00000000000E+00 -0.00000000000E+00 -0.45593999997E+02  0.45594000000E+02  0.51100000000E-03 0. -1.
    9900012    2    1    2    0    0  0.12759324996E+02 -0.27780110624E+02 -0.90656126500E+01  0.59301948922E+02  0.50000008925E+02 0.  0.
        -12    1    1    2    0    0 -0.12759324996E+02  0.27780110624E+02  0.90656126500E+01  0.31886051078E+02  0.00000000000E+00 0.  1.
         11    1    3    3    0    0  0.64772492009E+01 -0.89964471174E+01  0.37909309346E+00  0.11092093120E+02  0.51100000000E-03 0. -1.
        -11    1    3    3    0    0  0.34097978282E+01 -0.25464241131E+01  0.16736300614E+02  0.17268895607E+02  0.51100000000E-03 0.  1.
         12    1    3    3    0    0  0.28722779674E+01 -0.16237239394E+02 -0.26181006358E+02  0.30940960194E+02  0.00000000000E+00 0. -1.
</event>
<event>
 7    1  0.1184848E-011  0.5930195E+02  0.7816164E-02  0.1266605E+00
        -11   -1    0    0    0    0  0.00000000000E+00  0.00000000000E+00  0.45593999997E+02  0.45594000000E+02  0.51100000000E-03 0. -1.
         11   -1    0    0    0    0 -0.00000000000E+00 -0.00000000000E+00 -0.45593999997E+02  0.45594000000E+02  0.51100000000E-03 0.  1.
    9900012    2    1    2    0    0 -0.24263902540E+02 -0.91489802881E+01  0.18554772617E+02  0.59301946722E+02  0.50000004915E+02 0.  0.
        -12    1    1    2    0    0  0.24263902540E+02  0.91489802881E+01 -0.18554772617E+02  0.31886053278E+02  0.00000000000E+00 0.  1.
         11    1    3    3    0    0 -0.15780407591E+02 -0.26825146561E+02  0.18015026456E+02  0.35960407815E+02  0.51100000000E-03 0. -1.
        -11    1    3    3    0    0  0.13854878743E+01  0.10843269896E+02  0.24078965457E+01  0.11193482243E+02  0.51100000000E-03 0.  1.
        -12    1    3    3    0    0 -0.98689828227E+01  0.68328963771E+01 -0.18681503853E+01  0.12148056664E+02  0.00000000000E+00 0.  1.
</event>
<event>
 7    1  0.1184848E-011  0.5930194E+02  0.7816164E-02  0.1266605E+00
        -11   -1    0    0    0    0  0.00000000000E+00  0.00000000000E+00  0.45593999997E+02  0.45594000000E+02  0.51100000000E-03 0.  1.
         11   -1    0    0    0    0 -0.00000000000E+00 -0.00000000000E+00 -0.45593999997E+02  0.45594000000E+02  0.51100000000E-03 0. -1.
    9900012    2    1    2    0    0 -0.84122419602E+01 -0.18569057116E+02 -0.24518263064E+02  0.59301938458E+02  0.49999989843E+02 0.  0.
        -12    1    1    2    0    0  0.84122419602E+01  0.18569057116E+02  0.24518263064E+02  0.31886061542E+02  0.00000000000E+00 0.  1.
         11    1    3    3    0    0  0.56110649464E+01 -0.12670954218E+02 -0.17625239349E+00  0.13858867046E+02  0.51100000000E-03 0. -1.
        -11    1    3    3    0    0 -0.35165499898E+01  0.20550756625E+00  0.91555234260E+01  0.98097893278E+01  0.51100000000E-03 0.  1.
        -12    1    3    3    0    0 -0.10506756917E+02 -0.61036104650E+01 -0.33497534096E+02  0.35633282085E+02  0.00000000000E+00 0.  1.
</event>
<event>
 7    1  0.1184848E-011  0.5930194E+02  0.7816164E-02  0.1266605E+00
        -11   -1    0    0    0    0  0.00000000000E+00  0.00000000000E+00  0.45593999997E+02  0.45594000000E+02  0.51100000000E-03 0. -1.
         11   -1    0    0    0    0 -0.00000000000E+00 -0.00000000000E+00 -0.45593999997E+02  0.45594000000E+02  0.51100000000E-03 0.  1.
    9900012    2    1    2    0    0  0.10680218201E+02  0.26608925977E+02 -0.13950573651E+02  0.59301944934E+02  0.50000001652E+02 0.  0.
        -12    1    1    2    0    0 -0.10680218201E+02 -0.26608925977E+02  0.13950573651E+02  0.31886055066E+02  0.00000000000E+00 0.  1.
         11    1    3    3    0    0 -0.24499257712E+01 -0.28023531699E+00  0.84241601047E+01  0.87776501324E+01  0.51100000000E-03 0. -1.
        -11    1    3    3    0    0  0.25822976260E-01 -0.78071074814E+01 -0.14512512705E+01  0.79408894063E+01  0.51100000000E-03 0.  1.
         12    1    3    3    0    0  0.13104320996E+02  0.34696268776E+02 -0.20923482486E+02  0.42583405395E+02  0.00000000000E+00 0. -1.
</event>
<event>
 7    1  0.1184848E-011  0.5930195E+02  0.7816164E-02  0.1266605E+00
        -11   -1    0    0    0    0  0.00000000000E+00  0.00000000000E+00  0.45593999997E+02  0.45594000000E+02  0.51100000000E-03 0. -1.
         11   -1    0    0    0    0 -0.00000000000E+00 -0.00000000000E+00 -0.45593999997E+02  0.45594000000E+02  0.51100000000E-03 0.  1.
    9900012    2    1    2    0    0  0.83822116740E+01 -0.20523288526E+02  0.22918400986E+02  0.59301953707E+02  0.50000017653E+02 0.  0.
        -12    1    1    2    0    0 -0.83822116740E+01  0.20523288526E+02 -0.22918400986E+02  0.31886046293E+02  0.00000000000E+00 0.  1.
         11    1    3    3    0    0  0.12864260646E+02 -0.65218003876E+01  0.71381437543E+00  0.14440658347E+02  0.51100000000E-03 0. -1.
        -11    1    3    3    0    0 -0.24861930791E+01 -0.26108378251E+02  0.18317623986E+02  0.31990059701E+02  0.51100000000E-03 0.  1.
         12    1    3    3    0    0 -0.19958558932E+01  0.12106890113E+02  0.38869626242E+01  0.12871235659E+02  0.00000000000E+00 0. -1.
</event>
<event>
 7    1  0.1184848E-011  0.5930192E+02  0.7816164E-02  0.1266605E+00
        -11   -1    0    0    0    0  0.00000000000E+00  0.00000000000E+00  0.45593999997E+02  0.45594000000E+02  0.51100000000E-03 0.  1.
         11   -1    0    0    0    0 -0.00000000000E+00 -0.00000000000E+00 -0.45593999997E+02  0.45594000000E+02  0.51100000000E-03 0. -1.
    9900012    2    1    2    0    0  0.21528537070E+02  0.18609199905E+02 -0.14385474503E+02  0.59301919869E+02  0.49999955939E+02 0.  0.
        -12    1    1    2    0    0 -0.21528537070E+02 -0.18609199905E+02  0.14385474503E+02  0.31886080131E+02  0.00000000000E+00 0.  1.
         11    1    3    3    0    0  0.66278616793E+01  0.52593518526E+00 -0.67433476367E+01  0.94698413857E+01  0.51100000000E-03 0. -1.
        -11    1    3    3    0    0  0.17531924914E+02 -0.10402415837E+02 -0.71450210923E+00  0.20398263650E+02  0.51100000000E-03 0.  1.
        -12    1    3    3    0    0 -0.26312495234E+01  0.28485680556E+02 -0.69276247569E+01  0.29433814832E+02  0.00000000000E+00 0.  1.
</event>
<event>
 7    1  0.1184848E-011  0.5930192E+02  0.7816164E-02  0.1266605E+00
        -11   -1    0    0    0    0  0.00000000000E+00  0.00000000000E+00  0.45593999997E+02  0.45594000000E+02  0.51100000000E-03 0.  1.
         11   -1    0    0    0    0 -0.00000000000E+00 -0.00000000000E+00 -0.45593999997E+02  0.45594000000E+02  0.51100000000E-03 0. -1.
    9900012    2    1    2    0    0 -0.21900469608E+02  0.13251425320E+02 -0.19012931388E+02  0.59301915229E+02  0.49999947477E+02 0.  0.
        -12    1    1    2    0    0  0.21900469608E+02 -0.13251425320E+02  0.19012931388E+02  0.31886084771E+02  0.00000000000E+00 0.  1.
         11    1    3    3    0    0  0.21950180568E+01  0.12408880923E+02 -0.32140479412E+01  0.13004942693E+02  0.51100000000E-03 0. -1.
        -11    1    3    3    0    0  0.42563665313E+01 -0.10284835246E+02  0.15609882121E+01  0.11239714255E+02  0.51100000000E-03 0.  1.
         12    1    3    3    0    0 -0.28351854196E+02  0.11127379643E+02 -0.17359871659E+02  0.35057258280E+02  0.00000000000E+00 0. -1.
</event>
<event>
 7    1  0.1184848E-011  0.5930194E+02  0.7816164E-02  0.1266605E+00
        -11   -1    0    0    0    0  0.00000000000E+00  0.00000000000E+00  0.45593999997E+02  0.45594000000E+02  0.51100000000E-03 0.  1.
         11   -1    0    0    0    0 -0.00000000000E+00 -0.00000000000E+00 -0.45593999997E+02  0.45594000000E+02  0.51100000000E-03 0. -1.
    9900012    2    1    2    0    0 -0.27577732871E+02 -0.13186506850E+02 -0.90722483971E+01  0.59301937149E+02  0.49999987454E+02 0.  0.
        -12    1    1    2    0    0  0.27577732871E+02  0.13186506850E+02  0.90722483971E+01  0.31886062851E+02  0.00000000000E+00 0.  1.
         11    1    3    3    0    0 -0.27006544454E+02 -0.16745045458E+01 -0.74346029757E+01  0.28061196170E+02  0.51100000000E-03 0. -1.
        -11    1    3    3    0    0 -0.41168968512E+01  0.29182802143E+01  0.10762589565E+02  0.11886905969E+02  0.51100000000E-03 0.  1.
         12    1    3    3    0    0  0.35457084344E+01 -0.14430282519E+02 -0.12400234987E+02  0.19353835010E+02  0.00000000000E+00 0. -1.
</event>
<event>
 7    1  0.1184848E-011  0.5930194E+02  0.7816164E-02  0.1266605E+00
        -11   -1    0    0    0    0  0.00000000000E+00  0.00000000000E+00  0.45593999997E+02  0.45594000000E+02  0.51100000000E-03 0.  1.
         11   -1    0    0    0    0 -0.00000000000E+00 -0.00000000000E+00 -0.45593999997E+02  0.45594000000E+02  0.51100000000E-03 0. -1.
    9900012    2    1    2    0    0 -0.31605251982E+02  0.18183455158E-02  0.42224438907E+01  0.59301937393E+02  0.49999987900E+02 0.  0.
        -12    1    1    2    0    0  0.31605251982E+02 -0.18183455158E-02 -0.42224438907E+01  0.31886062607E+02  0.00000000000E+00 0.  1.
         11    1    3    3    0    0 -0.13959641536E+02  0.13648011181E+02  0.52100098541E+01  0.20206038799E+02  0.51100000000E-03 0. -1.
        -11    1    3    3    0    0  0.59327918418E+01  0.54174154522E+01  0.28682609668E+01  0.85307286004E+01  0.51100000000E-03 0.  1.
         12    1    3    3    0    0 -0.23578402288E+02 -0.19063608288E+02 -0.38558269302E+01  0.30565169993E+02  0.00000000000E+00 0. -1.
</event>
<event>
 7    1  0.1184848E-011  0.5930161E+02  0.7816164E-02  0.1266606E+00
        -11   -1    0    0    0    0  0.00000000000E+00  0.00000000000E+00  0.45593999997E+02  0.45594000000E+02  0.51100000000E-03 0.  1.
         11   -1    0    0    0    0 -0.00000000000E+00 -0.00000000000E+00 -0.45593999997E+02  0.45594000000E+02  0.51100000000E-03 0. -1.
    9900012    2    1    2    0    0 -0.15051783077E+02  0.17860342531E+02 -0.21706999140E+02  0.59301610728E+02  0.49999392137E+02 0.  0.
        -12    1    1    2    0    0  0.15051783077E+02 -0.17860342531E+02  0.21706999140E+02  0.31886389272E+02  0.00000000000E+00 0.  1.
         11    1    3    3    0    0 -0.21346769641E+02  0.16998515190E+02 -0.27185497162E+02  0.38518636385E+02  0.51100000000E-03 0. -1.
        -11    1    3    3    0    0 -0.32303753362E+01 -0.53854685392E+01 -0.26217503967E+01  0.68053046665E+01  0.51100000000E-03 0.  1.
        -12    1    3    3    0    0  0.95253619000E+01  0.62472958810E+01  0.81002484183E+01  0.13977669677E+02  0.00000000000E+00 0.  1.
</event>
<event>
 7    1  0.1184848E-011  0.5930195E+02  0.7816164E-02  0.1266605E+00
        -11   -1    0    0    0    0  0.00000000000E+00  0.00000000000E+00  0.45593999997E+02  0.45594000000E+02  0.51100000000E-03 0. -1.
         11   -1    0    0    0    0 -0.00000000000E+00 -0.00000000000E+00 -0.45593999997E+02  0.45594000000E+02  0.51100000000E-03 0.  1.
    9900012    2    1    2    0    0 -0.13390437156E+02 -0.28301353765E+02  0.60373883906E+01  0.59301945200E+02  0.50000002137E+02 0.  0.
        -12    1    1    2    0    0  0.13390437156E+02  0.28301353765E+02 -0.60373883906E+01  0.31886054800E+02  0.00000000000E+00 0.  1.
         11    1    3    3    0    0 -0.15774605566E+02 -0.23376017001E+02  0.11678952811E+02  0.30523340096E+02  0.51100000000E-03 0. -1.
        -11    1    3    3    0    0  0.82039716374E+01 -0.18859067348E+01  0.92481277194E+01  0.12505585209E+02  0.51100000000E-03 0.  1.
        -12    1    3    3    0    0 -0.58198032269E+01 -0.30394300295E+01 -0.14889692139E+02  0.16273019895E+02  0.00000000000E+00 0.  1.
</event>
<event>
 7    1  0.1184848E-011  0.5930193E+02  0.7816164E-02  0.1266605E+00
        -11   -1    0    0    0    0  0.00000000000E+00  0.00000000000E+00  0.45593999997E+02  0.45594000000E+02  0.51100000000E-03 0. -1.
         11   -1    0    0    0    0 -0.00000000000E+00 -0.00000000000E+00 -0.45593999997E+02  0.45594000000E+02  0.51100000000E-03 0.  1.
    9900012    2    1    2    0    0 -0.29517661723E+02  0.91934706468E+00  0.12024315978E+02  0.59301925808E+02  0.49999966772E+02 0.  0.
        -12    1    1    2    0    0  0.29517661723E+02 -0.91934706468E+00 -0.12024315978E+02  0.31886074192E+02  0.00000000000E+00 0.  1.
         11    1    3    3    0    0 -0.19759831068E+02  0.12727877067E+01  0.10741103638E+02  0.22526478198E+02  0.51100000000E-03 0. -1.
        -11    1    3    3    0    0 -0.13088133724E+01 -0.15427137890E+02  0.89363167680E+01  0.17876446335E+02  0.51100000000E-03 0.  1.
         12    1    3    3    0    0 -0.84490172826E+01  0.15073697249E+02 -0.76531044283E+01  0.18899001274E+02  0.00000000000E+00 0. -1.
</event>
<event>
 7    1  0.1184848E-011  0.5930195E+02  0.7816164E-02  0.1266605E+00
        -11   -1    0    0    0    0  0.00000000000E+00  0.00000000000E+00  0.45593999997E+02  0.45594000000E+02  0.51100000000E-03 0. -1.
         11   -1    0    0    0    0 -0.00000000000E+00 -0.00000000000E+00 -0.45593999997E+02  0.45594000000E+02  0.51100000000E-03 0.  1.
    9900012    2    1    2    0    0  0.29201351430E+02 -0.76337622000E+01  0.10282356681E+02  0.59301951176E+02  0.50000013038E+02 0.  0.
        -12    1    1    2    0    0 -0.29201351430E+02  0.76337622000E+01 -0.10282356681E+02  0.31886048824E+02  0.00000000000E+00 0.  1.
         11    1    3    3    0    0  0.35835516882E+02 -0.11272046804E+02  0.86674455485E+01  0.38553442413E+02  0.51100000000E-03 0. -1.
        -11    1    3    3    0    0 -0.47950394417E+00  0.55289422314E+01  0.92339406439E+01  0.10773336823E+02  0.51100000000E-03 0.  1.
        -12    1    3    3    0    0 -0.61546615077E+01 -0.18906576275E+01 -0.76190295110E+01  0.99751719398E+01  0.00000000000E+00 0.  1.
</event>
<event>
 7    1  0.1184848E-011  0.5930194E+02  0.7816164E-02  0.1266605E+00
        -11   -1    0    0    0    0  0.00000000000E+00  0.00000000000E+00  0.45593999997E+02  0.45594000000E+02  0.51100000000E-03 0. -1.
         11   -1    0    0    0    0 -0.00000000000E+00 -0.00000000000E+00 -0.45593999997E+02  0.45594000000E+02  0.51100000000E-03 0.  1.
    9900012    2    1    2    0    0  0.26771738404E+02  0.17237134887E+02 -0.16957934006E+01  0.59301944873E+02  0.50000001541E+02 0.  0.
        -12    1    1    2    0    0 -0.26771738404E+02 -0.17237134887E+02  0.16957934006E+01  0.31886055127E+02  0.00000000000E+00 0.  1.
         11    1    3    3    0    0  0.14600065290E+02  0.23911070161E+01  0.44089250998E+01  0.15437549029E+02  0.51100000000E-03 0. -1.
        -11    1    3    3    0    0  0.13153953716E+02  0.26993959918E+02 -0.89798539641E+01  0.31342274134E+02  0.51100000000E-03 0.  1.
        -12    1    3    3    0    0 -0.98228060141E+00 -0.12147932046E+02  0.28751354636E+01  0.12522121710E+02  0.00000000000E+00 0.  1.
</event>
<event>
 7    1  0.1184848E-011  0.5930196E+02  0.7816164E-02  0.1266605E+00
        -11   -1    0    0    0    0  0.00000000000E+00  0.00000000000E+00  0.45593999997E+02  0.45594000000E+02  0.51100000000E-03 0.  1.
         11   -1    0    0    0    0 -0.00000000000E+00 -0.00000000000E+00 -0.45593999997E+02  0.45594000000E+02  0.51100000000E-03 0. -1.
    9900012    2    1    2    0    0 -0.25885725287E+02  0.44064573509E+01 -0.18089555816E+02  0.59301958075E+02  0.50000025618E+02 0.  0.
        -12    1    1    2    0    0  0.25885725287E+02 -0.44064573509E+01  0.18089555816E+02  0.31886041925E+02  0.00000000000E+00 0.  1.
         11    1    3    3    0    0 -0.61312120647E+01  0.88486009161E+01 -0.56946100767E+01  0.12178591205E+02  0.51100000000E-03 0. -1.
        -11    1    3    3    0    0 -0.11635201398E+02  0.18041192650E+02 -0.43712501484E+01  0.21908226124E+02  0.51100000000E-03 0.  1.
        -12    1    3    3    0    0 -0.81193118246E+01 -0.22483336215E+02 -0.80236955910E+01  0.25215140745E+02  0.00000000000E+00 0.  1.
</event>
<event>
 7    1  0.1184848E-011  0.5930193E+02  0.7816164E-02  0.1266605E+00
        -11   -1    0    0    0    0  0.00000000000E+00  0.00000000000E+00  0.45593999997E+02  0.45594000000E+02  0.51100000000E-03 0. -1.
         11   -1    0    0    0    0 -0.00000000000E+00 -0.00000000000E+00 -0.45593999997E+02  0.45594000000E+02  0.51100000000E-03 0.  1.
    9900012    2    1    2    0    0 -0.82234000127E+01  0.30458555721E+02  0.46231557860E+01  0.59301929471E+02  0.49999973452E+02 0.  0.
        -12    1    1    2    0    0  0.82234000127E+01 -0.30458555721E+02 -0.46231557860E+01  0.31886070529E+02  0.00000000000E+00 0.  1.
         11    1    3    3    0    0 -0.15749950141E+02  0.51421588709E+01  0.64794209229E+01  0.17790042806E+02  0.51100000000E-03 0. -1.
        -11    1    3    3    0    0 -0.10448807508E+02  0.20221327372E+02 -0.17435613580E+01  0.22828045591E+02  0.51100000000E-03 0.  1.
        -12    1    3    3    0    0  0.17975357636E+02  0.50950694778E+01 -0.11270377885E+00  0.18683841074E+02  0.00000000000E+00 0.  1.
</event>
<event>
 7    1  0.1184848E-011  0.5930194E+02  0.7816164E-02  0.1266605E+00
        -11   -1    0    0    0    0  0.00000000000E+00  0.00000000000E+00  0.45593999997E+02  0.45594000000E+02  0.51100000000E-03 0. -1.
         11   -1    0    0    0    0 -0.00000000000E+00 -0.00000000000E+00 -0.45593999997E+02  0.45594000000E+02  0.51100000000E-03 0.  1.
    9900012    2    1    2    0    0  0.30051588520E+02 -0.96980607791E+01  0.44238565914E+01  0.59301939369E+02  0.49999991503E+02 0.  0.
        -12    1    1    2    0    0 -0.30051588520E+02  0.96980607791E+01 -0.44238565914E+01  0.31886060631E+02  0.00000000000E+00 0.  1.
         11    1    3    3    0    0  0.16066382350E+02 -0.12463505924E+02 -0.70129880036E+01  0.21509291545E+02  0.51100000000E-03 0. -1.
        -11    1    3    3    0    0 -0.59021824619E+01 -0.93871083869E+01 -0.14136895551E+01  0.11178196639E+02  0.51100000000E-03 0.  1.
        -12    1    3    3    0    0  0.19887388632E+02  0.12152553532E+02  0.12850534150E+02  0.26614451185E+02  0.00000000000E+00 0.  1.
</event>
<event>
 7    1  0.1184848E-011  0.5930196E+02  0.7816164E-02  0.1266605E+00
        -11   -1    0    0    0    0  0.00000000000E+00  0.00000000000E+00  0.45593999997E+02  0.45594000000E+02  0.51100000000E-03 0.  1.
         11   -1    0    0    0    0 -0.00000000000E+00 -0.00000000000E+00 -0.45593999997E+02  0.45594000000E+02  0.51100000000E-03 0. -1.
    9900012    2    1    2    0    0 -0.23270983890E+01  0.25159970878E+02 -0.19449422447E+02  0.59301959873E+02  0.50000028898E+02 0.  0.
        -12    1    1    2    0    0  0.23270983890E+01 -0.25159970878E+02  0.19449422447E+02  0.31886040127E+02  0.00000000000E+00 0.  1.
         11    1    3    3    0    0  0.88920756298E+01  0.35755600557E+01  0.31666664837E+01  0.10093632428E+02  0.51100000000E-03 0. -1.
        -11    1    3    3    0    0  0.22365199873E+01 -0.44654535412E+01  0.62925410294E+01  0.80335776495E+01  0.51100000000E-03 0.  1.
        -12    1    3    3    0    0 -0.13455694006E+02  0.26049864363E+02 -0.28908629960E+02  0.41174749795E+02  0.00000000000E+00 0.  1.
</event>
<event>
 7    1  0.1184848E-011  0.5930196E+02  0.7816164E-02  0.1266605E+00
        -11   -1    0    0    0    0  0.00000000000E+00  0.00000000000E+00  0.45593999997E+02  0.45594000000E+02  0.51100000000E-03 0. -1.
         11   -1    0    0    0    0 -0.00000000000E+00 -0.00000000000E+00 -0.45593999997E+02  0.45594000000E+02  0.51100000000E-03 0.  1.
    9900012    2    1    2    0    0  0.12353082777E+02  0.20775632084E+02  0.20796496333E+02  0.59301955995E+02  0.50000021825E+02 0.  0.
        -12    1    1    2    0    0 -0.12353082777E+02 -0.20775632084E+02 -0.20796496333E+02  0.31886044005E+02  0.00000000000E+00 0.  1.
         11    1    3    3    0    0  0.26198239332E+01  0.15593004017E+02  0.14227501319E+02  0.21270332525E+02  0.51100000000E-03 0. -1.
        -11    1    3    3    0    0  0.13024085289E+01 -0.13367306175E+02  0.10784000159E+02  0.17224279434E+02  0.51100000000E-03 0.  1.
        -12    1    3    3    0    0  0.84308503147E+01  0.18549934242E+02 -0.42150051445E+01  0.20807344035E+02  0.00000000000E+00 0.  1.
</event>
<event>
 7    1  0.1184848E-011  0.5930195E+02  0.7816164E-02  0.1266605E+00
        -11   -1    0    0    0    0  0.00000000000E+00  0.00000000000E+00  0.45593999997E+02  0.45594000000E+02  0.51100000000E-03 0.  1.
         11   -1    0    0    0    0 -0.00000000000E+00 -0.00000000000E+00 -0.45593999997E+02  0.45594000000E+02  0.51100000000E-03 0. -1.
    9900012    2    1    2    0    0 -0.17959742616E+02  0.21083396807E+02 -0.15800579922E+02  0.59301948165E+02  0.50000007545E+02 0.  0.
        -12    1    1    2    0    0  0.17959742616E+02 -0.21083396807E+02  0.15800579922E+02  0.31886051835E+02  0.00000000000E+00 0.  1.
         11    1    3    3    0    0 -0.54702157488E+01 -0.35262786757E+01 -0.11569950905E+01  0.66103358113E+01  0.51100000000E-03 0. -1.
        -11    1    3    3    0    0  0.21118343404E+01 -0.79005213410E+01  0.71963253944E+01  0.10893354910E+02  0.51100000000E-03 0.  1.
        -12    1    3    3    0    0 -0.14601361208E+02  0.32510196824E+02 -0.21839910226E+02  0.41798257444E+02  0.00000000000E+00 0.  1.
</event>
<event>
 7    1  0.1184848E-011  0.5930193E+02  0.7816164E-02  0.1266605E+00
        -11   -1    0    0    0    0  0.00000000000E+00  0.00000000000E+00  0.45593999997E+02  0.45594000000E+02  0.51100000000E-03 0.  1.
         11   -1    0    0    0    0 -0.00000000000E+00 -0.00000000000E+00 -0.45593999997E+02  0.45594000000E+02  0.51100000000E-03 0. -1.
    9900012    2    1    2    0    0 -0.10359444802E+02 -0.30132636570E+02 -0.11946989712E+01  0.59301934251E+02  0.49999982170E+02 0.  0.
        -12    1    1    2    0    0  0.10359444802E+02  0.30132636570E+02  0.11946989712E+01  0.31886065749E+02  0.00000000000E+00 0.  1.
         11    1    3    3    0    0 -0.13052142931E+02 -0.56872519723E+01 -0.49622568881E+00  0.14246034897E+02  0.51100000000E-03 0. -1.
        -11    1    3    3    0    0  0.49135649544E+01  0.31612041967E+01  0.12929860049E+02  0.14188643828E+02  0.51100000000E-03 0.  1.
         12    1    3    3    0    0 -0.22208668259E+01 -0.27606588795E+02 -0.13628333332E+02  0.30867255526E+02  0.00000000000E+00 0. -1.
</event>
<event>
 7    1  0.1184848E-011  0.5930195E+02  0.7816164E-02  0.1266605E+00
        -11   -1    0    0    0    0  0.00000000000E+00  0.00000000000E+00  0.45593999997E+02  0.45594000000E+02  0.51100000000E-03 0.  1.
         11   -1    0    0    0    0 -0.00000000000E+00 -0.00000000000E+00 -0.45593999997E+02  0.45594000000E+02  0.51100000000E-03 0. -1.
    9900012    2    1    2    0    0  0.87231089158E+01  0.74600761467E+01 -0.29748526645E+02  0.59301949715E+02  0.50000010371E+02 0.  0.
        -12    1    1    2    0    0 -0.87231089158E+01 -0.74600761467E+01  0.29748526645E+02  0.31886050285E+02  0.00000000000E+00 0.  1.
         11    1    3    3    0    0  0.15378431596E+02  0.12299594824E+01 -0.15619881938E+02  0.21954263156E+02  0.51100000000E-03 0. -1.
        -11    1    3    3    0    0  0.89780928460E+01 -0.83840235143E+01 -0.93049624258E+01  0.15410396732E+02  0.51100000000E-03 0.  1.
        -12    1    3    3    0    0 -0.15633415527E+02  0.14614140179E+02 -0.48236822813E+01  0.21937289827E+02  0.00000000000E+00 0.  1.
</event>
<event>
 7    1  0.1184848E-011  0.5930196E+02  0.7816164E-02  0.1266605E+00
        -11   -1    0    0    0    0  0.00000000000E+00  0.00000000000E+00  0.45593999997E+02  0.45594000000E+02  0.51100000000E-03 0.  1.
         11   -1    0    0    0    0 -0.00000000000E+00 -0.00000000000E+00 -0.45593999997E+02  0.45594000000E+02  0.51100000000E-03 0. -1.
    9900012    2    1    2    0    0 -0.35722274241E+01 -0.18130643906E+02 -0.25985346614E+02  0.59301963936E+02  0.50000036308E+02 0.  0.
        -12    1    1    2    0    0  0.35722274241E+01  0.18130643906E+02  0.25985346614E+02  0.31886036064E+02  0.00000000000E+00 0.  1.
         11    1    3    3    0    0 -0.66746303290E+01  0.18753891749E+01 -0.78894062011E+01  0.10502880798E+02  0.51100000000E-03 0. -1.
        -11    1    3    3    0    0  0.59767465411E+01  0.60299177519E+01  0.81139566358E+01  0.11743836675E+02  0.51100000000E-03 0.  1.
         12    1    3    3    0    0 -0.28743436362E+01 -0.26035950833E+02 -0.26209897048E+02  0.37055246463E+02  0.00000000000E+00 0. -1.
</event>
<event>
 7    1  0.1184848E-011  0.5930194E+02  0.7816164E-02  0.1266605E+00
        -11   -1    0    0    0    0  0.00000000000E+00  0.00000000000E+00  0.45593999997E+02  0.45594000000E+02  0.51100000000E-03 0. -1.
         11   -1    0    0    0    0 -0.00000000000E+00 -0.00000000000E+00 -0.45593999997E+02  0.45594000000E+02  0.51100000000E-03 0.  1.
    9900012    2    1    2    0    0 -0.14153732367E+02 -0.93001290347E+01  0.27016662914E+02  0.59301943251E+02  0.49999998584E+02 0.  0.
        -12    1    1    2    0    0  0.14153732367E+02  0.93001290347E+01 -0.27016662914E+02  0.31886056749E+02  0.00000000000E+00 0.  1.
         11    1    3    3    0    0 -0.63632997693E+01 -0.12365023186E+02  0.32436378071E+02  0.35291698811E+02  0.51100000000E-03 0. -1.
        -11    1    3    3    0    0 -0.52887881639E+01  0.12043147402E+02  0.14703041524E+00  0.13154098136E+02  0.51100000000E-03 0.  1.
        -12    1    3    3    0    0 -0.25016444339E+01 -0.89782532506E+01 -0.55667455721E+01  0.10856146304E+02  0.00000000000E+00 0.  1.
</event>
<event>
 7    1  0.1184848E-011  0.5930193E+02  0.7816164E-02  0.1266605E+00
        -11   -1    0    0    0    0  0.00000000000E+00  0.00000000000E+00  0.45593999997E+02  0.45594000000E+02  0.51100000000E-03 0.  1.
         11   -1    0    0    0    0 -0.00000000000E+00 -0.00000000000E+00 -0.45593999997E+02  0.45594000000E+02  0.51100000000E-03 0. -1.
    9900012    2    1    2    0    0 -0.17000846061E+02  0.93336660308E+01 -0.25309591562E+02  0.59301929164E+02  0.49999972892E+02 0.  0.
        -12    1    1    2    0    0  0.17000846061E+02 -0.93336660308E+01  0.25309591562E+02  0.31886070836E+02  0.00000000000E+00 0.  1.
         11    1    3    3    0    0 -0.48499637170E+01 -0.75199361128E+01  0.67306264447E+01  0.11197004948E+02  0.51100000000E-03 0. -1.
        -11    1    3    3    0    0 -0.11913056948E+02  0.13394463303E+02 -0.21957662302E+01  0.18059733182E+02  0.51100000000E-03 0.  1.
        -12    1    3    3    0    0 -0.23782539538E+00  0.34591388409E+01 -0.29844451776E+02  0.30045191034E+02  0.00000000000E+00 0.  1.
</event>
<event>
 7    1  0.1184848E-011  0.5930194E+02  0.7816164E-02  0.1266605E+00
        -11   -1    0    0    0    0  0.00000000000E+00  0.00000000000E+00  0.45593999997E+02  0.45594000000E+02  0.51100000000E-03 0.  1.
         11   -1    0    0    0    0 -0.00000000000E+00 -0.00000000000E+00 -0.45593999997E+02  0.45594000000E+02  0.51100000000E-03 0. -1.
    9900012    2    1    2    0    0 -0.10200649358E+02 -0.29910302903E+02 -0.42474768601E+01  0.59301944635E+02  0.50000001108E+02 0.  0.
        -12    1    1    2    0    0  0.10200649358E+02  0.29910302903E+02  0.42474768601E+01  0.31886055365E+02  0.00000000000E+00 0.  1.
         11    1    3    3    0    0  0.49595153378E+01 -0.24561024600E+02 -0.65624739666E+01  0.25901868400E+02  0.51100000000E-03 0. -1.
        -11    1    3    3    0    0  0.54792681263E+01  0.81437189684E+00 -0.78292647424E+01  0.95907751226E+01  0.51100000000E-03 0.  1.
        -12    1    3    3    0    0 -0.20639432822E+02 -0.61636501998E+01  0.10144261849E+02  0.23809301113E+02  0.00000000000E+00 0.  1.
</event>
<event>
 7    1  0.1184848E-011  0.5930197E+02  0.7816164E-02  0.1266605E+00
        -11   -1    0    0    0    0  0.00000000000E+00  0.00000000000E+00  0.45593999997E+02  0.45594000000E+02  0.51100000000E-03 0.  1.
         11   -1    0    0    0    0 -0.00000000000E+00 -0.00000000000E+00 -0.45593999997E+02  0.45594000000E+02  0.51100000000E-03 0. -1.
    9900012    2    1    2    0    0 -0.27310480424E+02  0.16252135651E+02  0.25932486572E+01  0.59301965552E+02  0.50000039256E+02 0.  0.
        -12    1    1    2    0    0  0.27310480424E+02 -0.16252135651E+02 -0.25932486572E+01  0.31886034448E+02  0.00000000000E+00 0.  1.
         11    1    3    3    0    0 -0.54045968063E+01 -0.11888496167E+02 -0.13662961634E+01  0.13130604450E+02  0.51100000000E-03 0. -1.
        -11    1    3    3    0    0 -0.28018652190E+02  0.26135252009E+02  0.71710164083E+01  0.38981017748E+02  0.51100000000E-03 0.  1.
         12    1    3    3    0    0  0.61127685721E+01  0.20053798085E+01 -0.32114715878E+01  0.71903433542E+01  0.00000000000E+00 0. -1.
</event>
<event>
 7    1  0.1184848E-011  0.5930194E+02  0.7816164E-02  0.1266605E+00
        -11   -1    0    0    0    0  0.00000000000E+00  0.00000000000E+00  0.45593999997E+02  0.45594000000E+02  0.51100000000E-03 0.  1.
         11   -1    0    0    0    0 -0.00000000000E+00 -0.00000000000E+00 -0.45593999997E+02  0.45594000000E+02  0.51100000000E-03 0. -1.
    9900012    2    1    2    0    0  0.28934502916E+02 -0.58103582796E+01 -0.12072911987E+02  0.59301938371E+02  0.49999989684E+02 0.  0.
        -12    1    1    2    0    0 -0.28934502916E+02  0.58103582796E+01  0.12072911987E+02  0.31886061629E+02  0.00000000000E+00 0.  1.
         11    1    3    3    0    0  0.14884574073E+02 -0.13120709525E+02 -0.14593665020E+01  0.19895560173E+02  0.51100000000E-03 0. -1.
        -11    1    3    3    0    0  0.18093803778E+02 -0.47416056127E+01  0.49133372299E+01  0.19339323720E+02  0.51100000000E-03 0.  1.
         12    1    3    3    0    0 -0.40438749347E+01  0.12051956858E+02 -0.15526882714E+02  0.20067054478E+02  0.00000000000E+00 0. -1.
</event>
<event>
 7    1  0.1184848E-011  0.5930193E+02  0.7816164E-02  0.1266605E+00
        -11   -1    0    0    0    0  0.00000000000E+00  0.00000000000E+00  0.45593999997E+02  0.45594000000E+02  0.51100000000E-03 0. -1.
         11   -1    0    0    0    0 -0.00000000000E+00 -0.00000000000E+00 -0.45593999997E+02  0.45594000000E+02  0.51100000000E-03 0.  1.
    9900012    2    1    2    0    0 -0.48621358567E+01 -0.22724422210E+02  0.21833043687E+02  0.59301928958E+02  0.49999972517E+02 0.  0.
        -12    1    1    2    0    0  0.48621358567E+01  0.22724422210E+02 -0.21833043687E+02  0.31886071042E+02  0.00000000000E+00 0.  1.
         11    1    3    3    0    0  0.16182792664E+02 -0.13803712259E+02  0.80712290043E+01  0.22750164581E+02  0.51100000000E-03 0. -1.
        -11    1    3    3    0    0 -0.41718367321E+00  0.59197848446E+01  0.88724196278E+01  0.10674161566E+02  0.51100000000E-03 0.  1.
        -12    1    3    3    0    0 -0.20627744848E+02 -0.14840494795E+02  0.48893950544E+01  0.25877602811E+02  0.00000000000E+00 0.  1.
</event>
<event>
 7    1  0.1184848E-011  0.5930194E+02  0.7816164E-02  0.1266605E+00
        -11   -1    0    0    0    0  0.00000000000E+00  0.00000000000E+00  0.45593999997E+02  0.45594000000E+02  0.51100000000E-03 0.  1.
         11   -1    0    0    0    0 -0.00000000000E+00 -0.00000000000E+00 -0.45593999997E+02  0.45594000000E+02  0.51100000000E-03 0. -1.
    9900012    2    1    2    0    0 -0.14013913517E+02 -0.26021301677E+02 -0.11967572991E+02  0.59301941663E+02  0.49999995687E+02 0.  0.
        -12    1    1    2    0    0  0.14013913517E+02  0.26021301677E+02  0.11967572991E+02  0.31886058337E+02  0.00000000000E+00 0.  1.
         11    1    3    3    0    0 -0.13044148432E+02 -0.11410684390E+02 -0.10976589473E+02  0.20514361879E+02  0.51100000000E-03 0. -1.
        -11    1    3    3    0    0  0.21970787153E+01  0.77595027845E+01 -0.11357668162E+02  0.13929596716E+02  0.51100000000E-03 0.  1.
        -12    1    3    3    0    0 -0.31668438002E+01 -0.22370120071E+02  0.10366684645E+02  0.24857983068E+02  0.00000000000E+00 0.  1.
</event>
<event>
 7    1  0.1184848E-011  0.5930194E+02  0.7816164E-02  0.1266605E+00
        -11   -1    0    0    0    0  0.00000000000E+00  0.00000000000E+00  0.45593999997E+02  0.45594000000E+02  0.51100000000E-03 0. -1.
         11   -1    0    0    0    0 -0.00000000000E+00 -0.00000000000E+00 -0.45593999997E+02  0.45594000000E+02  0.51100000000E-03 0.  1.
    9900012    2    1    2    0    0 -0.71689781246E+01 -0.19393984772E+02  0.24273435734E+02  0.59301943878E+02  0.49999999727E+02 0.  0.
        -12    1    1    2    0    0  0.71689781246E+01  0.19393984772E+02 -0.24273435734E+02  0.31886056122E+02  0.00000000000E+00 0.  1.
         11    1    3    3    0    0  0.19242069256E+01 -0.98750159330E+01 -0.43317133114E+01  0.10953641059E+02  0.51100000000E-03 0. -1.
        -11    1    3    3    0    0  0.13685776333E+02 -0.82257723866E+01  0.14179972163E+02  0.21354985741E+02  0.51100000000E-03 0.  1.
        -12    1    3    3    0    0 -0.22778961384E+02 -0.12931964522E+01  0.14425176883E+02  0.26993317078E+02  0.00000000000E+00 0.  1.
</event>
<event>
 7    1  0.1184848E-011  0.5930191E+02  0.7816164E-02  0.1266605E+00
        -11   -1    0    0    0    0  0.00000000000E+00  0.00000000000E+00  0.45593999997E+02  0.45594000000E+02  0.51100000000E-03 0. -1.
         11   -1    0    0    0    0 -0.00000000000E+00 -0.00000000000E+00 -0.45593999997E+02  0.45594000000E+02  0.51100000000E-03 0.  1.
    9900012    2    1    2    0    0 -0.21051485613E+02  0.23928604414E+02  0.98962956567E+00  0.59301913341E+02  0.49999944035E+02 0.  0.
        -12    1    1    2    0    0  0.21051485613E+02 -0.23928604414E+02 -0.98962956567E+00  0.31886086659E+02  0.00000000000E+00 0.  1.
         11    1    3    3    0    0  0.82508072859E+01  0.62424587506E+01  0.53720831419E+01  0.11657760920E+02  0.51100000000E-03 0. -1.
        -11    1    3    3    0    0 -0.30914590935E+01 -0.73611895316E+01  0.59373080670E+01  0.99496662251E+01  0.51100000000E-03 0.  1.
        -12    1    3    3    0    0 -0.26210833806E+02  0.25047335195E+02 -0.10319761643E+02  0.37694486196E+02  0.00000000000E+00 0.  1.
</event>
<event>
 7    1  0.1184848E-011  0.5930199E+02  0.7816164E-02  0.1266605E+00
        -11   -1    0    0    0    0  0.00000000000E+00  0.00000000000E+00  0.45593999997E+02  0.45594000000E+02  0.51100000000E-03 0.  1.
         11   -1    0    0    0    0 -0.00000000000E+00 -0.00000000000E+00 -0.45593999997E+02  0.45594000000E+02  0.51100000000E-03 0. -1.
    9900012    2    1    2    0    0  0.18076275971E+02 -0.17513035001E+02  0.19577010313E+02  0.59301992399E+02  0.50000088218E+02 0.  0.
        -12    1    1    2    0    0 -0.18076275971E+02  0.17513035001E+02 -0.19577010313E+02  0.31886007601E+02  0.00000000000E+00 0.  1.
         11    1    3    3    0    0 -0.14660074791E+02 -0.65681562620E+01  0.39418223241E+01  0.16540750680E+02  0.51100000000E-03 0. -1.
        -11    1    3    3    0    0  0.45928888650E+00 -0.13732623028E+01  0.81436957435E+01  0.82714313306E+01  0.51100000000E-03 0.  1.
        -12    1    3    3    0    0  0.32277061876E+02 -0.95716164364E+01  0.74914922450E+01  0.34489810388E+02  0.00000000000E+00 0.  1.
</event>
<event>
 7    1  0.1184848E-011  0.5930189E+02  0.7816164E-02  0.1266605E+00
        -11   -1    0    0    0    0  0.00000000000E+00  0.00000000000E+00  0.45593999997E+02  0.45594000000E+02  0.51100000000E-03 0. -1.
         11   -1    0    0    0    0 -0.00000000000E+00 -0.00000000000E+00 -0.45593999997E+02  0.45594000000E+02  0.51100000000E-03 0.  1.
    9900012    2    1    2    0    0  0.15280641507E+02 -0.57843334616E+01  0.27381884345E+02  0.59301888467E+02  0.49999898670E+02 0.  0.
        -12    1    1    2    0    0 -0.15280641507E+02  0.57843334616E+01 -0.27381884345E+02  0.31886111533E+02  0.00000000000E+00 0.  1.
         11    1    3    3    0    0  0.64158018080E+00  0.15040508256E+02  0.76795640650E+01  0.16899828940E+02  0.51100000000E-03 0. -1.
        -11    1    3    3    0    0 -0.21404832493E+01 -0.10950829088E+02  0.20032129398E+02  0.22930079257E+02  0.51100000000E-03 0.  1.
        -12    1    3    3    0    0  0.16779544575E+02 -0.98740126290E+01 -0.32980911834E+00  0.19471980269E+02  0.00000000000E+00 0.  1.
</event>
<event>
 7    1  0.1184848E-011  0.5930196E+02  0.7816164E-02  0.1266605E+00
        -11   -1    0    0    0    0  0.00000000000E+00  0.00000000000E+00  0.45593999997E+02  0.45594000000E+02  0.51100000000E-03 0.  1.
         11   -1    0    0    0    0 -0.00000000000E+00 -0.00000000000E+00 -0.45593999997E+02  0.45594000000E+02  0.51100000000E-03 0. -1.
    9900012    2    1    2    0    0 -0.22760272673E+02 -0.20442052256E+02  0.89895576605E+01  0.59301958234E+02  0.50000025908E+02 0.  0.
        -12    1    1    2    0    0  0.22760272673E+02  0.20442052256E+02 -0.89895576605E+01  0.31886041766E+02  0.00000000000E+00 0.  1.
         11    1    3    3    0    0 -0.27567117071E+02 -0.25449173590E+01  0.15716625383E+02  0.31834491698E+02  0.51100000000E-03 0. -1.
        -11    1    3    3    0    0  0.11059883038E+01  0.28199895897E+01  0.30176902180E+01  0.42757462422E+01  0.51100000000E-03 0.  1.
        -12    1    3    3    0    0  0.37008560942E+01 -0.20717124487E+02 -0.97447579409E+01  0.23191720293E+02  0.00000000000E+00 0.  1.
</event>
<event>
 7    1  0.1315254E-011  0.5930192E+02  0.7816164E-02  0.1266605E+00
        -11   -1    0    0    0    0  0.00000000000E+00  0.00000000000E+00  0.45593999997E+02  0.45594000000E+02  0.51100000000E-03 0. -1.
         11   -1    0    0    0    0 -0.00000000000E+00 -0.00000000000E+00 -0.45593999997E+02  0.45594000000E+02  0.51100000000E-03 0.  1.
    9900012    2    1    2    0    0 -0.21636422233E+02  0.70758346982E+01  0.22327559050E+02  0.59301920014E+02  0.49999956205E+02 0.  0.
        -12    1    1    2    0    0  0.21636422233E+02 -0.70758346982E+01 -0.22327559050E+02  0.31886079986E+02  0.00000000000E+00 0.  1.
         11    1    3    3    0    0 -0.21514254422E+01  0.97390374177E+01 -0.28056910065E+01  0.10360954760E+02  0.51100000000E-03 0. -1.
        -11    1    3    3    0    0  0.35903562423E+01 -0.10035595967E+02 -0.36997912518E+01  0.11282388928E+02  0.51100000000E-03 0.  1.
         12    1    3    3    0    0 -0.23075353033E+02  0.73723932474E+01  0.28833041308E+02  0.37658576326E+02  0.00000000000E+00 0. -1.
</event>
<event>
 7    1  0.1184848E-011  0.5930196E+02  0.7816164E-02  0.1266605E+00
        -11   -1    0    0    0    0  0.00000000000E+00  0.00000000000E+00  0.45593999997E+02  0.45594000000E+02  0.51100000000E-03 0. -1.
         11   -1    0    0    0    0 -0.00000000000E+00 -0.00000000000E+00 -0.45593999997E+02  0.45594000000E+02  0.51100000000E-03 0.  1.
    9900012    2    1    2    0    0 -0.31792518705E+00  0.31676367361E+02 -0.36368228004E+01  0.59301955941E+02  0.50000021728E+02 0.  0.
        -12    1    1    2    0    0  0.31792518705E+00 -0.31676367361E+02  0.36368228004E+01  0.31886044059E+02  0.00000000000E+00 0.  1.
         11    1    3    3    0    0 -0.36121728512E+01  0.33896446584E+02  0.89199783737E+01  0.35236102199E+02  0.51100000000E-03 0. -1.
        -11    1    3    3    0    0  0.95312101915E+01 -0.13957598456E+01  0.42258890160E+00  0.96421312428E+01  0.51100000000E-03 0.  1.
         12    1    3    3    0    0 -0.62369625274E+01 -0.82431937757E+00 -0.12979390076E+02  0.14423722499E+02  0.00000000000E+00 0. -1.
</event>
<event>
 7    1  0.1184848E-011  0.5930194E+02  0.7816164E-02  0.1266605E+00
        -11   -1    0    0    0    0  0.00000000000E+00  0.00000000000E+00  0.45593999997E+02  0.45594000000E+02  0.51100000000E-03 0. -1.
         11   -1    0    0    0    0 -0.00000000000E+00 -0.00000000000E+00 -0.45593999997E+02  0.45594000000E+02  0.51100000000E-03 0.  1.
    9900012    2    1    2    0    0 -0.49796839235E+01  0.31426704374E+02 -0.20702003792E+01  0.59301941457E+02  0.49999995312E+02 0.  0.
        -12    1    1    2    0    0  0.49796839235E+01 -0.31426704374E+02  0.20702003792E+01  0.31886058543E+02  0.00000000000E+00 0.  1.
         11    1    3    3    0    0 -0.36952407180E+01 -0.74698930979E+01  0.21973346635E+01  0.86187230343E+01  0.51100000000E-03 0. -1.
        -11    1    3    3    0    0 -0.13868603122E+02  0.56888941964E+01 -0.14149779145E+01  0.15056687301E+02  0.51100000000E-03 0.  1.
        -12    1    3    3    0    0  0.12584159916E+02  0.33207703275E+02 -0.28525571282E+01  0.35626531122E+02  0.00000000000E+00 0.  1.
</event>
<event>
 7    1  0.1184848E-011  0.5930186E+02  0.7816164E-02  0.1266605E+00
        -11   -1    0    0    0    0  0.00000000000E+00  0.00000000000E+00  0.45593999997E+02  0.45594000000E+02  0.51100000000E-03 0. -1.
         11   -1    0    0    0    0 -0.00000000000E+00 -0.00000000000E+00 -0.45593999997E+02  0.45594000000E+02  0.51100000000E-03 0.  1.
    9900012    2    1    2    0    0 -0.91561187875E+01 -0.69225198707E+01  0.29748444543E+02  0.59301862803E+02  0.49999851865E+02 0.  0.
        -12    1    1    2    0    0  0.91561187875E+01  0.69225198707E+01 -0.29748444543E+02  0.31886137197E+02  0.00000000000E+00 0.  1.
         11    1    3    3    0    0 -0.40249032047E+01 -0.56964665221E+01 -0.43945267458E+01  0.82438730112E+01  0.51100000000E-03 0.  1.
        -11    1    3    3    0    0 -0.12531731267E+02 -0.16199194419E+02  0.13612966296E+02  0.24592093039E+02  0.51100000000E-03 0. -1.
        -12    1    3    3    0    0  0.74005156846E+01  0.14973141071E+02  0.20530004993E+02  0.26465896753E+02  0.00000000000E+00 0.  1.
</event>
<event>
 7    1  0.1184848E-011  0.5930192E+02  0.7816164E-02  0.1266605E+00
        -11   -1    0    0    0    0  0.00000000000E+00  0.00000000000E+00  0.45593999997E+02  0.45594000000E+02  0.51100000000E-03 0.  1.
         11   -1    0    0    0    0 -0.00000000000E+00 -0.00000000000E+00 -0.45593999997E+02  0.45594000000E+02  0.51100000000E-03 0. -1.
    9900012    2    1    2    0    0  0.25448055472E+02 -0.19075305440E+02  0.22916373963E+01  0.59301915153E+02  0.49999947339E+02 0.  0.
        -12    1    1    2    0    0 -0.25448055472E+02  0.19075305440E+02 -0.22916373963E+01  0.31886084847E+02  0.00000000000E+00 0.  1.
         11    1    3    3    0    0  0.12637684135E+02  0.43849944094E+01  0.98423681948E+01  0.16607572014E+02  0.51100000000E-03 0. -1.
        -11    1    3    3    0    0 -0.93440927995E+01 -0.29832148184E+01  0.37184249857E+01  0.10489915421E+02  0.51100000000E-03 0.  1.
         12    1    3    3    0    0  0.22154464137E+02 -0.20477085031E+02 -0.11269155784E+02  0.32204427718E+02  0.00000000000E+00 0. -1.
</event>
<event>
 7    1  0.1184848E-011  0.5930197E+02  0.7816164E-02  0.1266605E+00
        -11   -1    0    0    0    0  0.00000000000E+00  0.00000000000E+00  0.45593999997E+02  0.45594000000E+02  0.51100000000E-03 0.  1.
         11   -1    0    0    0    0 -0.00000000000E+00 -0.00000000000E+00 -0.45593999997E+02  0.45594000000E+02  0.51100000000E-03 0. -1.
    9900012    2    1    2    0    0  0.18168699373E+02 -0.22976707766E+02 -0.12597148162E+02  0.59301970481E+02  0.50000048244E+02 0.  0.
        -12    1    1    2    0    0 -0.18168699373E+02  0.22976707766E+02  0.12597148162E+02  0.31886029519E+02  0.00000000000E+00 0.  1.
         11    1    3    3    0    0 -0.49932543852E+01  0.54826246569E+01  0.45106061094E+01  0.86797079570E+01  0.51100000000E-03 0.  1.
        -11    1    3    3    0    0 -0.64782046930E+01 -0.59388519700E+01 -0.88901543284E+01  0.12500877690E+02  0.51100000000E-03 0. -1.
         12    1    3    3    0    0  0.29640158451E+02 -0.22520480453E+02 -0.82175999426E+01  0.38121384834E+02  0.00000000000E+00 0. -1.
</event>
<event>
 7    1  0.1184848E-011  0.5930194E+02  0.7816164E-02  0.1266605E+00
        -11   -1    0    0    0    0  0.00000000000E+00  0.00000000000E+00  0.45593999997E+02  0.45594000000E+02  0.51100000000E-03 0.  1.
         11   -1    0    0    0    0 -0.00000000000E+00 -0.00000000000E+00 -0.45593999997E+02  0.45594000000E+02  0.51100000000E-03 0. -1.
    9900012    2    1    2    0    0  0.19075967577E+02 -0.24758482282E+02  0.63123354274E+01  0.59301944075E+02  0.50000000086E+02 0.  0.
        -12    1    1    2    0    0 -0.19075967577E+02  0.24758482282E+02 -0.63123354274E+01  0.31886055925E+02  0.00000000000E+00 0.  1.
         11    1    3    3    0    0  0.13412350799E+02 -0.35980215279E+01 -0.64835531220E+01  0.15325579083E+02  0.51100000000E-03 0. -1.
        -11    1    3    3    0    0 -0.32206476928E+01 -0.90202522638E+01 -0.11767231483E+02  0.15172516584E+02  0.51100000000E-03 0.  1.
        -12    1    3    3    0    0  0.88842644708E+01 -0.12140208491E+02  0.24563120032E+02  0.28803848408E+02  0.00000000000E+00 0.  1.
</event>
<event>
 7    1  0.1184848E-011  0.5930191E+02  0.7816164E-02  0.1266605E+00
        -11   -1    0    0    0    0  0.00000000000E+00  0.00000000000E+00  0.45593999997E+02  0.45594000000E+02  0.51100000000E-03 0.  1.
         11   -1    0    0    0    0 -0.00000000000E+00 -0.00000000000E+00 -0.45593999997E+02  0.45594000000E+02  0.51100000000E-03 0. -1.
    9900012    2    1    2    0    0  0.13967899319E+02 -0.15243306552E+02 -0.24274717532E+02  0.59301913421E+02  0.49999944181E+02 0.  0.
        -12    1    1    2    0    0 -0.13967899319E+02  0.15243306552E+02  0.24274717532E+02  0.31886086579E+02  0.00000000000E+00 0.  1.
         11    1    3    3    0    0 -0.17382546403E+01 -0.14424388117E+02 -0.47220391235E+01  0.15276850313E+02  0.51100000000E-03 0. -1.
        -11    1    3    3    0    0 -0.35507524567E+01 -0.98612567100E+01 -0.20182294258E+02  0.22741530922E+02  0.51100000000E-03 0.  1.
        -12    1    3    3    0    0  0.19256906416E+02  0.90423382751E+01  0.62961584897E+00  0.21283532186E+02  0.00000000000E+00 0.  1.
</event>
<event>
 7    1  0.1184848E-011  0.5930195E+02  0.7816164E-02  0.1266605E+00
        -11   -1    0    0    0    0  0.00000000000E+00  0.00000000000E+00  0.45593999997E+02  0.45594000000E+02  0.51100000000E-03 0.  1.
         11   -1    0    0    0    0 -0.00000000000E+00 -0.00000000000E+00 -0.45593999997E+02  0.45594000000E+02  0.51100000000E-03 0. -1.
    9900012    2    1    2    0    0 -0.16021802714E+02  0.24536319488E+02 -0.12569450887E+02  0.59301949259E+02  0.50000009541E+02 0.  0.
        -12    1    1    2    0    0  0.16021802714E+02 -0.24536319488E+02  0.12569450887E+02  0.31886050741E+02  0.00000000000E+00 0.  1.
         11    1    3    3    0    0 -0.10805200701E+01  0.12586442661E+02 -0.18924128673E+02  0.22753213153E+02  0.51100000000E-03 0. -1.
        -11    1    3    3    0    0  0.33821940725E-01 -0.82205788077E+01 -0.42807819782E+01  0.92684494099E+01  0.51100000000E-03 0.  1.
        -12    1    3    3    0    0 -0.14975104585E+02  0.20170455634E+02  0.10635459765E+02  0.27280286696E+02  0.00000000000E+00 0.  1.
</event>
<event>
 7    1  0.1184848E-011  0.5930194E+02  0.7816164E-02  0.1266605E+00
        -11   -1    0    0    0    0  0.00000000000E+00  0.00000000000E+00  0.45593999997E+02  0.45594000000E+02  0.51100000000E-03 0.  1.
         11   -1    0    0    0    0 -0.00000000000E+00 -0.00000000000E+00 -0.45593999997E+02  0.45594000000E+02  0.51100000000E-03 0. -1.
    9900012    2    1    2    0    0  0.27480911591E+02  0.15949688092E+02 -0.26698283510E+01  0.59301936657E+02  0.49999986557E+02 0.  0.
        -12    1    1    2    0    0 -0.27480911591E+02 -0.15949688092E+02  0.26698283510E+01  0.31886063343E+02  0.00000000000E+00 0.  1.
         11    1    3    3    0    0  0.66417683954E+01  0.60106187984E+01 -0.10835885217E+02  0.14059055247E+02  0.51100000000E-03 0. -1.
        -11    1    3    3    0    0  0.29814826199E+02  0.33943064326E+01 -0.21483970787E+01  0.30084228222E+02  0.51100000000E-03 0.  1.
         12    1    3    3    0    0 -0.89756830036E+01  0.65447628610E+01  0.10314453944E+02  0.15158653188E+02  0.00000000000E+00 0. -1.
</event>
<event>
 7    1  0.1184848E-011  0.5930193E+02  0.7816164E-02  0.1266605E+00
        -11   -1    0    0    0    0  0.00000000000E+00  0.00000000000E+00  0.45593999997E+02  0.45594000000E+02  0.51100000000E-03 0. -1.
         11   -1    0    0    0    0 -0.00000000000E+00 -0.00000000000E+00 -0.45593999997E+02  0.45594000000E+02  0.51100000000E-03 0.  1.
    9900012    2    1    2    0    0 -0.66406489874E+01  0.15742300585E+02  0.26922163900E+02  0.59301934772E+02  0.49999983119E+02 0.  0.
        -12    1    1    2    0    0  0.66406489874E+01 -0.15742300585E+02 -0.26922163900E+02  0.31886065228E+02  0.00000000000E+00 0.  1.
         11    1    3    3    0    0  0.40801033852E+01 -0.19886570989E+01  0.30908908780E+01  0.54914121473E+01  0.51100000000E-03 0.  1.
        -11    1    3    3    0    0 -0.16756628095E+02 -0.92413970437E+01  0.16367571854E+02  0.25181052660E+02  0.51100000000E-03 0. -1.
         12    1    3    3    0    0  0.60358757222E+01  0.26972354728E+02  0.74637011685E+01  0.28629469964E+02  0.00000000000E+00 0. -1.
</event>
<event>
 7    1  0.1184848E-011  0.5930194E+02  0.7816164E-02  0.1266605E+00
        -11   -1    0    0    0    0  0.00000000000E+00  0.00000000000E+00  0.45593999997E+02  0.45594000000E+02  0.51100000000E-03 0.  1.
         11   -1    0    0    0    0 -0.00000000000E+00 -0.00000000000E+00 -0.45593999997E+02  0.45594000000E+02  0.51100000000E-03 0. -1.
    9900012    2    1    2    0    0 -0.22582145095E+02  0.16180897649E+02 -0.15650761346E+02  0.59301936327E+02  0.49999985957E+02 0.  0.
        -12    1    1    2    0    0  0.22582145095E+02 -0.16180897649E+02  0.15650761346E+02  0.31886063673E+02  0.00000000000E+00 0.  1.
         11    1    3    3    0    0 -0.25968111470E+02 -0.52193852516E+01 -0.20512368993E+01  0.26566753072E+02  0.51100000000E-03 0. -1.
        -11    1    3    3    0    0  0.11026113278E+01 -0.40037536951E+01 -0.29543585177E+01  0.50964722999E+01  0.51100000000E-03 0.  1.
        -12    1    3    3    0    0  0.22833550471E+01  0.25404036595E+02 -0.10645165930E+02  0.27638710956E+02  0.00000000000E+00 0.  1.
</event>
<event>
 7    1  0.1184848E-011  0.5930194E+02  0.7816164E-02  0.1266605E+00
        -11   -1    0    0    0    0  0.00000000000E+00  0.00000000000E+00  0.45593999997E+02  0.45594000000E+02  0.51100000000E-03 0.  1.
         11   -1    0    0    0    0 -0.00000000000E+00 -0.00000000000E+00 -0.45593999997E+02  0.45594000000E+02  0.51100000000E-03 0. -1.
    9900012    2    1    2    0    0 -0.18060904866E+01 -0.11634926296E+02 -0.29632540270E+02  0.59301938538E+02  0.49999989987E+02 0.  0.
        -12    1    1    2    0    0  0.18060904866E+01  0.11634926296E+02  0.29632540270E+02  0.31886061462E+02  0.00000000000E+00 0.  1.
         11    1    3    3    0    0  0.25348127094E+00  0.76363349689E+01 -0.23344446853E+01  0.79892112728E+01  0.51100000000E-03 0. -1.
        -11    1    3    3    0    0 -0.19528029332E+02 -0.55380547389E+01 -0.77823455501E+01  0.21738879512E+02  0.51100000000E-03 0.  1.
         12    1    3    3    0    0  0.17468457575E+02 -0.13733206526E+02 -0.19515750034E+02  0.29573847753E+02  0.00000000000E+00 0. -1.
</event>
<event>
 7    1  0.1184848E-011  0.5930198E+02  0.7816164E-02  0.1266605E+00
        -11   -1    0    0    0    0  0.00000000000E+00  0.00000000000E+00  0.45593999997E+02  0.45594000000E+02  0.51100000000E-03 0. -1.
         11   -1    0    0    0    0 -0.00000000000E+00 -0.00000000000E+00 -0.45593999997E+02  0.45594000000E+02  0.51100000000E-03 0.  1.
    9900012    2    1    2    0    0  0.13028319609E+02  0.15196355085E+02  0.24820395567E+02  0.59301978677E+02  0.50000063192E+02 0.  0.
        -12    1    1    2    0    0 -0.13028319609E+02 -0.15196355085E+02 -0.24820395567E+02  0.31886021323E+02  0.00000000000E+00 0.  1.
         11    1    3    3    0    0  0.13888479634E+02  0.25952450460E+02  0.72460625367E+01  0.30313775317E+02  0.51100000000E-03 0. -1.
        -11    1    3    3    0    0  0.46254981574E+01 -0.19444693308E+01 -0.30693653989E+01  0.58819383196E+01  0.51100000000E-03 0.  1.
         12    1    3    3    0    0 -0.54856581826E+01 -0.88116260449E+01  0.20643698430E+02  0.23106265040E+02  0.00000000000E+00 0. -1.
</event>
<event>
 7    1  0.1184848E-011  0.5930194E+02  0.7816164E-02  0.1266605E+00
        -11   -1    0    0    0    0  0.00000000000E+00  0.00000000000E+00  0.45593999997E+02  0.45594000000E+02  0.51100000000E-03 0. -1.
         11   -1    0    0    0    0 -0.00000000000E+00 -0.00000000000E+00 -0.45593999997E+02  0.45594000000E+02  0.51100000000E-03 0.  1.
    9900012    2    1    2    0    0 -0.26208654899E+02  0.11130948667E+02 -0.14350241415E+02  0.59301936610E+02  0.49999986471E+02 0.  0.
        -12    1    1    2    0    0  0.26208654899E+02 -0.11130948667E+02  0.14350241415E+02  0.31886063390E+02  0.00000000000E+00 0.  1.
         11    1    3    3    0    0 -0.22329100885E+02 -0.14323673791E+01 -0.20173736626E+01  0.22465756595E+02  0.51100000000E-03 0. -1.
        -11    1    3    3    0    0  0.34155398731E+01  0.19131298133E+00  0.98401705999E+01  0.10417843874E+02  0.51100000000E-03 0.  1.
        -12    1    3    3    0    0 -0.72950938876E+01  0.12372003065E+02 -0.22173038352E+02  0.26418336141E+02  0.00000000000E+00 0.  1.
</event>
<event>
 7    1  0.1184848E-011  0.5930199E+02  0.7816164E-02  0.1266605E+00
        -11   -1    0    0    0    0  0.00000000000E+00  0.00000000000E+00  0.45593999997E+02  0.45594000000E+02  0.51100000000E-03 0.  1.
         11   -1    0    0    0    0 -0.00000000000E+00 -0.00000000000E+00 -0.45593999997E+02  0.45594000000E+02  0.51100000000E-03 0. -1.
    9900012    2    1    2    0    0 -0.88756743886E+01 -0.88575595005E+01 -0.29316956244E+02  0.59301986145E+02  0.50000076811E+02 0.  0.
        -12    1    1    2    0    0  0.88756743886E+01  0.88575595005E+01  0.29316956244E+02  0.31886013855E+02  0.00000000000E+00 0.  1.
         11    1    3    3    0    0  0.88941157704E+01 -0.14934949365E+02 -0.52843577677E+01  0.18168171211E+02  0.51100000000E-03 0. -1.
        -11    1    3    3    0    0 -0.14796679790E+02 -0.32911924111E+01  0.11487680809E-01  0.15158291873E+02  0.51100000000E-03 0.  1.
        -12    1    3    3    0    0 -0.29731103694E+01  0.93685822761E+01 -0.24044086157E+02  0.25975523060E+02  0.00000000000E+00 0.  1.
</event>
<event>
 7    1  0.1184848E-011  0.5930197E+02  0.7816164E-02  0.1266605E+00
        -11   -1    0    0    0    0  0.00000000000E+00  0.00000000000E+00  0.45593999997E+02  0.45594000000E+02  0.51100000000E-03 0.  1.
         11   -1    0    0    0    0 -0.00000000000E+00 -0.00000000000E+00 -0.45593999997E+02  0.45594000000E+02  0.51100000000E-03 0. -1.
    9900012    2    1    2    0    0 -0.28985934637E+02  0.13281648870E+02  0.36367304585E+00  0.59301970746E+02  0.50000048728E+02 0.  0.
        -12    1    1    2    0    0  0.28985934637E+02 -0.13281648870E+02 -0.36367304585E+00  0.31886029254E+02  0.00000000000E+00 0.  1.
         11    1    3    3    0    0 -0.11506621025E+01  0.14517609902E+02  0.11208669820E+02  0.18377140690E+02  0.51100000000E-03 0. -1.
        -11    1    3    3    0    0  0.25179258978E+01 -0.74356963022E+01  0.65878172714E+00  0.78780406162E+01  0.51100000000E-03 0.  1.
         12    1    3    3    0    0 -0.30353198432E+02  0.61997352701E+01 -0.11503778501E+02  0.33046789440E+02  0.00000000000E+00 0. -1.
</event>
<event>
 7    1  0.1184848E-011  0.5930194E+02  0.7816164E-02  0.1266605E+00
        -11   -1    0    0    0    0  0.00000000000E+00  0.00000000000E+00  0.45593999997E+02  0.45594000000E+02  0.51100000000E-03 0.  1.
         11   -1    0    0    0    0 -0.00000000000E+00 -0.00000000000E+00 -0.45593999997E+02  0.45594000000E+02  0.51100000000E-03 0. -1.
    9900012    2    1    2    0    0  0.20963950156E+02 -0.15008587943E+02 -0.18761027139E+02  0.59301936312E+02  0.49999985929E+02 0.  0.
        -12    1    1    2    0    0 -0.20963950156E+02  0.15008587943E+02  0.18761027139E+02  0.31886063688E+02  0.00000000000E+00 0.  1.
         11    1    3    3    0    0 -0.73497206965E+01 -0.55394988891E+01 -0.13767955504E+02  0.16560828520E+02  0.51100000000E-03 0. -1.
        -11    1    3    3    0    0  0.25093761215E+01 -0.15516246975E+01 -0.13983674570E+02  0.14291524148E+02  0.51100000000E-03 0.  1.
        -12    1    3    3    0    0  0.25804294731E+02 -0.79174643565E+01  0.89906029348E+01  0.28449583644E+02  0.00000000000E+00 0.  1.
</event>
<event>
 7    1  0.1184848E-011  0.5930194E+02  0.7816164E-02  0.1266605E+00
        -11   -1    0    0    0    0  0.00000000000E+00  0.00000000000E+00  0.45593999997E+02  0.45594000000E+02  0.51100000000E-03 0.  1.
         11   -1    0    0    0    0 -0.00000000000E+00 -0.00000000000E+00 -0.45593999997E+02  0.45594000000E+02  0.51100000000E-03 0. -1.
    9900012    2    1    2    0    0 -0.32613296186E+01 -0.31006002998E+02 -0.66867166505E+01  0.59301942352E+02  0.49999996944E+02 0.  0.
        -12    1    1    2    0    0  0.32613296186E+01  0.31006002998E+02  0.66867166505E+01  0.31886057648E+02  0.00000000000E+00 0.  1.
         11    1    3    3    0    0 -0.68720895515E+01 -0.26508710692E+02 -0.12202737492E+02  0.29980729809E+02  0.51100000000E-03 0. -1.
        -11    1    3    3    0    0  0.22071977706E+00 -0.58089391630E+01 -0.10982994260E+02  0.12426530272E+02  0.51100000000E-03 0.  1.
        -12    1    3    3    0    0  0.33900401558E+01  0.13116468569E+01  0.16499015101E+02  0.16894682271E+02  0.00000000000E+00 0.  1.
</event>
<event>
 7    1  0.1184848E-011  0.5930200E+02  0.7816164E-02  0.1266605E+00
        -11   -1    0    0    0    0  0.00000000000E+00  0.00000000000E+00  0.45593999997E+02  0.45594000000E+02  0.51100000000E-03 0.  1.
         11   -1    0    0    0    0 -0.00000000000E+00 -0.00000000000E+00 -0.45593999997E+02  0.45594000000E+02  0.51100000000E-03 0. -1.
    9900012    2    1    2    0    0  0.25133683591E+02  0.17844442148E+02 -0.81603274382E+01  0.59301998208E+02  0.50000098811E+02 0.  0.
        -12    1    1    2    0    0 -0.25133683591E+02 -0.17844442148E+02  0.81603274382E+01  0.31886001792E+02  0.00000000000E+00 0.  1.
         11    1    3    3    0    0  0.11661643123E+02 -0.88096302863E+01  0.45356077203E+01  0.15302785491E+02  0.51100000000E-03 0. -1.
        -11    1    3    3    0    0 -0.41372923601E+01  0.30389090814E+01  0.69138530892E+01  0.86112438868E+01  0.51100000000E-03 0.  1.
         12    1    3    3    0    0  0.17609332827E+02  0.23615163353E+02 -0.19609788248E+02  0.35387968830E+02  0.00000000000E+00 0. -1.
</event>
<event>
 7    1  0.1184848E-011  0.5930196E+02  0.7816164E-02  0.1266605E+00
        -11   -1    0    0    0    0  0.00000000000E+00  0.00000000000E+00  0.45593999997E+02  0.45594000000E+02  0.51100000000E-03 0. -1.
         11   -1    0    0    0    0 -0.00000000000E+00 -0.00000000000E+00 -0.45593999997E+02  0.45594000000E+02  0.51100000000E-03 0.  1.
    9900012    2    1    2    0    0  0.73796919847E+01  0.22964785156E+02  0.20853730315E+02  0.59301964199E+02  0.50000036787E+02 0.  0.
        -12    1    1    2    0    0 -0.73796919847E+01 -0.22964785156E+02 -0.20853730315E+02  0.31886035801E+02  0.00000000000E+00 0.  1.
         11    1    3    3    0    0  0.17269883978E+02  0.15888872709E+01  0.15698259110E+02  0.23392494411E+02  0.51100000000E-03 0. -1.
        -11    1    3    3    0    0 -0.61322798287E+01 -0.70427346738E+00 -0.78682645684E+01  0.10000522216E+02  0.51100000000E-03 0.  1.
         12    1    3    3    0    0 -0.37579121650E+01  0.22080171353E+02  0.13023735773E+02  0.25908947572E+02  0.00000000000E+00 0. -1.
</event>
<event>
 7    1  0.1184848E-011  0.5930196E+02  0.7816164E-02  0.1266605E+00
        -11   -1    0    0    0    0  0.00000000000E+00  0.00000000000E+00  0.45593999997E+02  0.45594000000E+02  0.51100000000E-03 0.  1.
         11   -1    0    0    0    0 -0.00000000000E+00 -0.00000000000E+00 -0.45593999997E+02  0.45594000000E+02  0.51100000000E-03 0. -1.
    9900012    2    1    2    0    0  0.25427829433E+02  0.16825012003E+02 -0.93308243047E+01  0.59301955705E+02  0.50000021297E+02 0.  0.
        -12    1    1    2    0    0 -0.25427829433E+02 -0.16825012003E+02  0.93308243047E+01  0.31886044295E+02  0.00000000000E+00 0.  1.
         11    1    3    3    0    0 -0.42185590525E+01  0.35764437925E+01  0.63995249276E+01  0.84581978128E+01  0.51100000000E-03 0. -1.
        -11    1    3    3    0    0  0.14742199607E+02  0.20925945177E+02  0.29225736626E+01  0.25763716112E+02  0.51100000000E-03 0.  1.
         12    1    3    3    0    0  0.14904188878E+02 -0.76773769663E+01 -0.18652922895E+02  0.25080041781E+02  0.00000000000E+00 0. -1.
</event>
<event>
 7    1  0.1184848E-011  0.5930196E+02  0.7816164E-02  0.1266605E+00
        -11   -1    0    0    0    0  0.00000000000E+00  0.00000000000E+00  0.45593999997E+02  0.45594000000E+02  0.51100000000E-03 0.  1.
         11   -1    0    0    0    0 -0.00000000000E+00 -0.00000000000E+00 -0.45593999997E+02  0.45594000000E+02  0.51100000000E-03 0. -1.
    9900012    2    1    2    0    0 -0.25809011561E+02 -0.15909516793E+02 -0.98743098427E+01  0.59301956075E+02  0.50000021971E+02 0.  0.
        -12    1    1    2    0    0  0.25809011561E+02  0.15909516793E+02  0.98743098427E+01  0.31886043925E+02  0.00000000000E+00 0.  1.
         11    1    3    3    0    0 -0.48513352994E+00 -0.16135655457E+02  0.65652076655E+00  0.16156291386E+02  0.51100000000E-03 0. -1.
        -11    1    3    3    0    0  0.34957869810E+01 -0.92733313827E+01 -0.79244149249E+01  0.12689032812E+02  0.51100000000E-03 0.  1.
        -12    1    3    3    0    0 -0.28819665012E+02  0.94994700462E+01 -0.26064156844E+01  0.30456631877E+02  0.00000000000E+00 0.  1.
</event>
<event>
 7    1  0.1184848E-011  0.5930196E+02  0.7816164E-02  0.1266605E+00
        -11   -1    0    0    0    0  0.00000000000E+00  0.00000000000E+00  0.45593999997E+02  0.45594000000E+02  0.51100000000E-03 0.  1.
         11   -1    0    0    0    0 -0.00000000000E+00 -0.00000000000E+00 -0.45593999997E+02  0.45594000000E+02  0.51100000000E-03 0. -1.
    9900012    2    1    2    0    0 -0.14066173704E+02  0.14124445346E+02 -0.24886988699E+02  0.59301962217E+02  0.50000033173E+02 0.  0.
        -12    1    1    2    0    0  0.14066173704E+02 -0.14124445346E+02  0.24886988699E+02  0.31886037783E+02  0.00000000000E+00 0.  1.
         11    1    3    3    0    0  0.53353719287E+01  0.13493828935E+02 -0.25574539530E+02  0.29404195031E+02  0.51100000000E-03 0. -1.
        -11    1    3    3    0    0 -0.93436137274E+01  0.10872911469E+02 -0.38475372193E+01  0.14843411475E+02  0.51100000000E-03 0.  1.
         12    1    3    3    0    0 -0.10057931905E+02 -0.10242295058E+02  0.45350880506E+01  0.15054355711E+02  0.00000000000E+00 0. -1.
</event>
<event>
 7    1  0.1184848E-011  0.5930195E+02  0.7816164E-02  0.1266605E+00
        -11   -1    0    0    0    0  0.00000000000E+00  0.00000000000E+00  0.45593999997E+02  0.45594000000E+02  0.51100000000E-03 0.  1.
         11   -1    0    0    0    0 -0.00000000000E+00 -0.00000000000E+00 -0.45593999997E+02  0.45594000000E+02  0.51100000000E-03 0. -1.
    9900012    2    1    2    0    0 -0.11828023867E+02  0.96832169000E+01 -0.27983093146E+02  0.59301947561E+02  0.50000006444E+02 0.  0.
        -12    1    1    2    0    0  0.11828023867E+02 -0.96832169000E+01  0.27983093146E+02  0.31886052439E+02  0.00000000000E+00 0.  1.
         11    1    3    3    0    0  0.92907456870E+01  0.10955337218E+02 -0.14016254807E+02  0.20069697757E+02  0.51100000000E-03 0. -1.
        -11    1    3    3    0    0 -0.11098923966E+01 -0.79955115988E+01 -0.16106221296E+02  0.18015838353E+02  0.51100000000E-03 0.  1.
        -12    1    3    3    0    0 -0.20008877158E+02  0.67233912810E+01  0.21393829576E+01  0.21216411451E+02  0.00000000000E+00 0.  1.
</event>
<event>
 7    1  0.1184848E-011  0.5930194E+02  0.7816164E-02  0.1266605E+00
        -11   -1    0    0    0    0  0.00000000000E+00  0.00000000000E+00  0.45593999997E+02  0.45594000000E+02  0.51100000000E-03 0.  1.
         11   -1    0    0    0    0 -0.00000000000E+00 -0.00000000000E+00 -0.45593999997E+02  0.45594000000E+02  0.51100000000E-03 0. -1.
    9900012    2    1    2    0    0  0.64810465752E+01 -0.22790184984E+02 -0.21338323365E+02  0.59301944422E+02  0.50000000718E+02 0.  0.
        -12    1    1    2    0    0 -0.64810465752E+01  0.22790184984E+02  0.21338323365E+02  0.31886055578E+02  0.00000000000E+00 0.  1.
         11    1    3    3    0    0  0.31198200680E+00 -0.27059665744E+01 -0.64031611522E+01  0.69584524771E+01  0.51100000000E-03 0. -1.
        -11    1    3    3    0    0  0.23941276743E+02 -0.29448737321E+01 -0.13427731435E+02  0.27607263268E+02  0.51100000000E-03 0.  1.
        -12    1    3    3    0    0 -0.17772212175E+02 -0.17139344678E+02 -0.15074307780E+01  0.24736228676E+02  0.00000000000E+00 0.  1.
</event>
<event>
 7    1  0.1184848E-011  0.5930193E+02  0.7816164E-02  0.1266605E+00
        -11   -1    0    0    0    0  0.00000000000E+00  0.00000000000E+00  0.45593999997E+02  0.45594000000E+02  0.51100000000E-03 0. -1.
         11   -1    0    0    0    0 -0.00000000000E+00 -0.00000000000E+00 -0.45593999997E+02  0.45594000000E+02  0.51100000000E-03 0.  1.
    9900012    2    1    2    0    0  0.15274261852E+02  0.19256964476E+02  0.20312261414E+02  0.59301925928E+02  0.49999966991E+02 0.  0.
        -12    1    1    2    0    0 -0.15274261852E+02 -0.19256964476E+02 -0.20312261414E+02  0.31886074072E+02  0.00000000000E+00 0.  1.
         11    1    3    3    0    0  0.63494435873E+01 -0.73520378263E+01  0.26241088725E+02  0.27981469436E+02  0.51100000000E-03 0. -1.
        -11    1    3    3    0    0  0.59562375050E+01  0.39691407522E+01 -0.44733079984E+01  0.84404578215E+01  0.51100000000E-03 0.  1.
        -12    1    3    3    0    0  0.29685807602E+01  0.22639861550E+02 -0.14555193120E+01  0.22879998671E+02  0.00000000000E+00 0.  1.
</event>
<event>
 7    1  0.1184848E-011  0.5930193E+02  0.7816164E-02  0.1266605E+00
        -11   -1    0    0    0    0  0.00000000000E+00  0.00000000000E+00  0.45593999997E+02  0.45594000000E+02  0.51100000000E-03 0.  1.
         11   -1    0    0    0    0 -0.00000000000E+00 -0.00000000000E+00 -0.45593999997E+02  0.45594000000E+02  0.51100000000E-03 0. -1.
    9900012    2    1    2    0    0  0.87506946642E+01 -0.24504607581E+02 -0.18430170102E+02  0.59301927495E+02  0.49999969849E+02 0.  0.
        -12    1    1    2    0    0 -0.87506946642E+01  0.24504607581E+02  0.18430170102E+02  0.31886072505E+02  0.00000000000E+00 0.  1.
         11    1    3    3    0    0  0.87581536264E+01 -0.54308463478E+01  0.12311339985E+02  0.16055168622E+02  0.51100000000E-03 0. -1.
        -11    1    3    3    0    0  0.98815465087E+01 -0.10143926985E+02 -0.64936377835E+01  0.15579202419E+02  0.51100000000E-03 0.  1.
         12    1    3    3    0    0 -0.98890054710E+01 -0.89298342477E+01 -0.24247872304E+02  0.27667556454E+02  0.00000000000E+00 0. -1.
</event>
<event>
 7    1  0.1184848E-011  0.5930174E+02  0.7816164E-02  0.1266605E+00
        -11   -1    0    0    0    0  0.00000000000E+00  0.00000000000E+00  0.45593999997E+02  0.45594000000E+02  0.51100000000E-03 0. -1.
         11   -1    0    0    0    0 -0.00000000000E+00 -0.00000000000E+00 -0.45593999997E+02  0.45594000000E+02  0.51100000000E-03 0.  1.
    9900012    2    1    2    0    0 -0.19018987053E+02 -0.25458858475E+02  0.26187808464E+01  0.59301743454E+02  0.49999634200E+02 0.  0.
        -12    1    1    2    0    0  0.19018987053E+02  0.25458858475E+02 -0.26187808464E+01  0.31886256546E+02  0.00000000000E+00 0.  1.
         11    1    3    3    0    0  0.12646521899E+02 -0.81612670290E+01  0.11166751817E+02  0.18741321780E+02  0.51100000000E-03 0. -1.
        -11    1    3    3    0    0 -0.54573742592E+01 -0.11443064686E+02 -0.42078987671E+01  0.13357884395E+02  0.51100000000E-03 0.  1.
        -12    1    3    3    0    0 -0.26208134693E+02 -0.58545267606E+01 -0.43400722036E+01  0.27202537279E+02  0.00000000000E+00 0.  1.
</event>
<event>
 7    1  0.1184848E-011  0.5930194E+02  0.7816164E-02  0.1266605E+00
        -11   -1    0    0    0    0  0.00000000000E+00  0.00000000000E+00  0.45593999997E+02  0.45594000000E+02  0.51100000000E-03 0.  1.
         11   -1    0    0    0    0 -0.00000000000E+00 -0.00000000000E+00 -0.45593999997E+02  0.45594000000E+02  0.51100000000E-03 0. -1.
    9900012    2    1    2    0    0  0.29654561280E+02  0.83536358768E+01 -0.82185701860E+01  0.59301935129E+02  0.49999983770E+02 0.  0.
        -12    1    1    2    0    0 -0.29654561280E+02 -0.83536358768E+01  0.82185701860E+01  0.31886064871E+02  0.00000000000E+00 0.  1.
         11    1    3    3    0    0  0.67427006631E+01 -0.75807162609E+00 -0.16901818515E+02  0.18212911744E+02  0.51100000000E-03 0. -1.
        -11    1    3    3    0    0 -0.49624165649E+01  0.10578465456E+02  0.57492104711E+01  0.13022401118E+02  0.51100000000E-03 0.  1.
         12    1    3    3    0    0  0.27874277182E+02 -0.14667579534E+01  0.29340378581E+01  0.28066622267E+02  0.00000000000E+00 0. -1.
</event>
<event>
 7    1  0.1184848E-011  0.5930195E+02  0.7816164E-02  0.1266605E+00
        -11   -1    0    0    0    0  0.00000000000E+00  0.00000000000E+00  0.45593999997E+02  0.45594000000E+02  0.51100000000E-03 0.  1.
         11   -1    0    0    0    0 -0.00000000000E+00 -0.00000000000E+00 -0.45593999997E+02  0.45594000000E+02  0.51100000000E-03 0. -1.
    9900012    2    1    2    0    0  0.22347078213E+02 -0.20952683239E+02 -0.88494857884E+01  0.59301949158E+02  0.50000009356E+02 0.  0.
        -12    1    1    2    0    0 -0.22347078213E+02  0.20952683239E+02  0.88494857884E+01  0.31886050842E+02  0.00000000000E+00 0.  1.
         11    1    3    3    0    0  0.37132350062E+01 -0.24590138281E+02 -0.15053777174E+02  0.29070246342E+02  0.51100000000E-03 0. -1.
        -11    1    3    3    0    0 -0.46728311391E+01 -0.13003977772E+01  0.40346484014E+01  0.63091024098E+01  0.51100000000E-03 0.  1.
         12    1    3    3    0    0  0.23306674346E+02  0.49378528191E+01  0.21696429845E+01  0.23922600406E+02  0.00000000000E+00 0. -1.
</event>
<event>
 7    1  0.1184848E-011  0.5930200E+02  0.7816164E-02  0.1266605E+00
        -11   -1    0    0    0    0  0.00000000000E+00  0.00000000000E+00  0.45593999997E+02  0.45594000000E+02  0.51100000000E-03 0.  1.
         11   -1    0    0    0    0 -0.00000000000E+00 -0.00000000000E+00 -0.45593999997E+02  0.45594000000E+02  0.51100000000E-03 0. -1.
    9900012    2    1    2    0    0 -0.10176829767E+02 -0.27226317484E+02 -0.13110174374E+02  0.59302001506E+02  0.50000104827E+02 0.  0.
        -12    1    1    2    0    0  0.10176829767E+02  0.27226317484E+02  0.13110174374E+02  0.31885998494E+02  0.00000000000E+00 0.  1.
         11    1    3    3    0    0 -0.17317557352E+02 -0.28331580619E+02 -0.18495725129E+02  0.38008789790E+02  0.51100000000E-03 0. -1.
        -11    1    3    3    0    0 -0.51256096054E+01  0.24346584227E+01  0.68199682946E+01  0.88719447283E+01  0.51100000000E-03 0.  1.
        -12    1    3    3    0    0  0.12266337191E+02 -0.13293952873E+01 -0.14344175396E+01  0.12421266988E+02  0.00000000000E+00 0.  1.
</event>
<event>
 7    1  0.1184848E-011  0.5930190E+02  0.7816164E-02  0.1266605E+00
        -11   -1    0    0    0    0  0.00000000000E+00  0.00000000000E+00  0.45593999997E+02  0.45594000000E+02  0.51100000000E-03 0.  1.
         11   -1    0    0    0    0 -0.00000000000E+00 -0.00000000000E+00 -0.45593999997E+02  0.45594000000E+02  0.51100000000E-03 0. -1.
    9900012    2    1    2    0    0 -0.26654611371E+02 -0.44551761254E+01 -0.16923539037E+02  0.59301904674E+02  0.49999928228E+02 0.  0.
        -12    1    1    2    0    0  0.26654611371E+02  0.44551761254E+01  0.16923539037E+02  0.31886095326E+02  0.00000000000E+00 0.  1.
         11    1    3    3    0    0 -0.24343008403E+02 -0.51180573766E+01 -0.28093850363E+02  0.37523872374E+02  0.51100000000E-03 0. -1.
        -11    1    3    3    0    0  0.74262003609E+01 -0.30911173083E+01  0.32458232139E+01  0.86740317391E+01  0.51100000000E-03 0.  1.
        -12    1    3    3    0    0 -0.97378033286E+01  0.37539985594E+01  0.79244881127E+01  0.13104000561E+02  0.00000000000E+00 0.  1.
</event>
<event>
 7    1  0.1184848E-011  0.5930195E+02  0.7816164E-02  0.1266605E+00
        -11   -1    0    0    0    0  0.00000000000E+00  0.00000000000E+00  0.45593999997E+02  0.45594000000E+02  0.51100000000E-03 0.  1.
         11   -1    0    0    0    0 -0.00000000000E+00 -0.00000000000E+00 -0.45593999997E+02  0.45594000000E+02  0.51100000000E-03 0. -1.
    9900012    2    1    2    0    0  0.21615695749E+02  0.18746710421E+02 -0.14072769506E+02  0.59301948255E+02  0.50000007709E+02 0.  0.
        -12    1    1    2    0    0 -0.21615695749E+02 -0.18746710421E+02  0.14072769506E+02  0.31886051745E+02  0.00000000000E+00 0.  1.
         11    1    3    3    0    0  0.28005727112E+02  0.86378024928E+01 -0.13703360704E+02  0.32352967064E+02  0.51100000000E-03 0. -1.
        -11    1    3    3    0    0  0.47469179149E+01 -0.22979178695E+01 -0.72058465487E+01  0.89296069886E+01  0.51100000000E-03 0.  1.
        -12    1    3    3    0    0 -0.11136949278E+02  0.12406825797E+02  0.68364377467E+01  0.18019374203E+02  0.00000000000E+00 0.  1.
</event>
<event>
 7    1  0.1184848E-011  0.5930190E+02  0.7816164E-02  0.1266605E+00
        -11   -1    0    0    0    0  0.00000000000E+00  0.00000000000E+00  0.45593999997E+02  0.45594000000E+02  0.51100000000E-03 0.  1.
         11   -1    0    0    0    0 -0.00000000000E+00 -0.00000000000E+00 -0.45593999997E+02  0.45594000000E+02  0.51100000000E-03 0. -1.
    9900012    2    1    2    0    0 -0.10380079835E+02  0.33698099433E+01 -0.29960333613E+02  0.59301901671E+02  0.49999922752E+02 0.  0.
        -12    1    1    2    0    0  0.10380079835E+02 -0.33698099433E+01  0.29960333613E+02  0.31886098329E+02  0.00000000000E+00 0.  1.
         11    1    3    3    0    0 -0.67651160492E+01  0.16643596460E+01 -0.30042296157E+02  0.30839527345E+02  0.51100000000E-03 0. -1.
        -11    1    3    3    0    0  0.80238551590E+01 -0.55184193945E+01 -0.79601521281E+01  0.12577727394E+02  0.51100000000E-03 0.  1.
         12    1    3    3    0    0 -0.11638818945E+02  0.72238696919E+01  0.80421146725E+01  0.15884646933E+02  0.00000000000E+00 0. -1.
</event>
<event>
 7    1  0.1184848E-011  0.5930165E+02  0.7816164E-02  0.1266606E+00
        -11   -1    0    0    0    0  0.00000000000E+00  0.00000000000E+00  0.45593999997E+02  0.45594000000E+02  0.51100000000E-03 0. -1.
         11   -1    0    0    0    0 -0.00000000000E+00 -0.00000000000E+00 -0.45593999997E+02  0.45594000000E+02  0.51100000000E-03 0.  1.
    9900012    2    1    2    0    0 -0.30991551882E+01 -0.27506218316E+02  0.15828541755E+02  0.59301646446E+02  0.49999457279E+02 0.  0.
        -12    1    1    2    0    0  0.30991551882E+01  0.27506218316E+02 -0.15828541755E+02  0.31886353554E+02  0.00000000000E+00 0.  1.
         11    1    3    3    0    0 -0.14726652215E+01  0.48869355406E+00 -0.83945744293E+00  0.17641579589E+01  0.51100000000E-03 0. -1.
        -11    1    3    3    0    0 -0.14867919315E+02 -0.36574729675E+01 -0.10632327886E+02  0.18640775998E+02  0.51100000000E-03 0.  1.
         12    1    3    3    0    0  0.13241429348E+02 -0.24337438902E+02  0.27300327084E+02  0.38896712489E+02  0.00000000000E+00 0. -1.
</event>
<event>
 7    1  0.1184848E-011  0.5930194E+02  0.7816164E-02  0.1266605E+00
        -11   -1    0    0    0    0  0.00000000000E+00  0.00000000000E+00  0.45593999997E+02  0.45594000000E+02  0.51100000000E-03 0. -1.
         11   -1    0    0    0    0 -0.00000000000E+00 -0.00000000000E+00 -0.45593999997E+02  0.45594000000E+02  0.51100000000E-03 0.  1.
    9900012    2    1    2    0    0  0.12835970738E+02  0.19237115767E+02  0.21952035613E+02  0.59301942931E+02  0.49999998001E+02 0.  0.
        -12    1    1    2    0    0 -0.12835970738E+02 -0.19237115767E+02 -0.21952035613E+02  0.31886057069E+02  0.00000000000E+00 0.  1.
         11    1    3    3    0    0  0.65651208434E+01  0.32448392829E+02  0.14831808949E+02  0.36276460216E+02  0.51100000000E-03 0. -1.
        -11    1    3    3    0    0 -0.43659107659E+01 -0.42876442635E+01  0.67855489432E+01  0.91372175671E+01  0.51100000000E-03 0.  1.
        -12    1    3    3    0    0  0.10636760660E+02 -0.89236327980E+01  0.33467772114E+00  0.13888265148E+02  0.00000000000E+00 0.  1.
</event>
<event>
 7    1  0.1184848E-011  0.5930195E+02  0.7816164E-02  0.1266605E+00
        -11   -1    0    0    0    0  0.00000000000E+00  0.00000000000E+00  0.45593999997E+02  0.45594000000E+02  0.51100000000E-03 0.  1.
         11   -1    0    0    0    0 -0.00000000000E+00 -0.00000000000E+00 -0.45593999997E+02  0.45594000000E+02  0.51100000000E-03 0. -1.
    9900012    2    1    2    0    0 -0.25475899457E+02  0.18518223566E+02  0.49773437277E+01  0.59301952773E+02  0.50000015948E+02 0.  0.
        -12    1    1    2    0    0  0.25475899457E+02 -0.18518223566E+02 -0.49773437277E+01  0.31886047227E+02  0.00000000000E+00 0.  1.
         11    1    3    3    0    0 -0.14036934454E+02  0.11433490459E+02  0.70161998292E+01  0.19416160621E+02  0.51100000000E-03 0. -1.
        -11    1    3    3    0    0  0.72328664613E+01  0.24312669412E+01  0.13262370570E+02  0.15300846041E+02  0.51100000000E-03 0.  1.
         12    1    3    3    0    0 -0.18671831465E+02  0.46534661659E+01 -0.15301226671E+02  0.24584946111E+02  0.00000000000E+00 0. -1.
</event>
<event>
 7    1  0.1184848E-011  0.5930194E+02  0.7816164E-02  0.1266605E+00
        -11   -1    0    0    0    0  0.00000000000E+00  0.00000000000E+00  0.45593999997E+02  0.45594000000E+02  0.51100000000E-03 0.  1.
         11   -1    0    0    0    0 -0.00000000000E+00 -0.00000000000E+00 -0.45593999997E+02  0.45594000000E+02  0.51100000000E-03 0. -1.
    9900012    2    1    2    0    0  0.17204742200E+02  0.15513711056E+02 -0.21909876481E+02  0.59301936081E+02  0.49999985506E+02 0.  0.
        -12    1    1    2    0    0 -0.17204742200E+02 -0.15513711056E+02  0.21909876481E+02  0.31886063919E+02  0.00000000000E+00 0.  1.
         11    1    3    3    0    0  0.16188115462E+02 -0.20714690228E+01 -0.11764997698E+02  0.20118678814E+02  0.51100000000E-03 0. -1.
        -11    1    3    3    0    0  0.66887682454E+01 -0.86543597806E+01 -0.19132247133E+01  0.11103962937E+02  0.51100000000E-03 0.  1.
        -12    1    3    3    0    0 -0.56721415079E+01  0.26239539859E+02 -0.82316540690E+01  0.28079294329E+02  0.00000000000E+00 0.  1.
</event>
<event>
 7    1  0.1184848E-011  0.5930194E+02  0.7816164E-02  0.1266605E+00
        -11   -1    0    0    0    0  0.00000000000E+00  0.00000000000E+00  0.45593999997E+02  0.45594000000E+02  0.51100000000E-03 0.  1.
         11   -1    0    0    0    0 -0.00000000000E+00 -0.00000000000E+00 -0.45593999997E+02  0.45594000000E+02  0.51100000000E-03 0. -1.
    9900012    2    1    2    0    0 -0.21178076515E+01 -0.35204634696E+01 -0.31620281513E+02  0.59301937602E+02  0.49999988282E+02 0.  0.
        -12    1    1    2    0    0  0.21178076515E+01  0.35204634696E+01  0.31620281513E+02  0.31886062398E+02  0.00000000000E+00 0.  1.
         11    1    3    3    0    0  0.32540884834E-01 -0.83105934053E+00  0.53039260642E+01  0.53687382588E+01  0.51100000000E-03 0. -1.
        -11    1    3    3    0    0 -0.30637409995E+01  0.16099171347E+02 -0.29428639469E+02  0.33684041448E+02  0.51100000000E-03 0.  1.
         12    1    3    3    0    0  0.91339246321E+00 -0.18788575476E+02 -0.74955681076E+01  0.20249157896E+02  0.00000000000E+00 0. -1.
</event>
<event>
 7    1  0.1888211E-011  0.5930195E+02  0.7816164E-02  0.1266605E+00
        -11   -1    0    0    0    0  0.00000000000E+00  0.00000000000E+00  0.45593999997E+02  0.45594000000E+02  0.51100000000E-03 0. -1.
         11   -1    0    0    0    0 -0.00000000000E+00 -0.00000000000E+00 -0.45593999997E+02  0.45594000000E+02  0.51100000000E-03 0.  1.
    9900012    2    1    2    0    0  0.10732856461E+01 -0.12109744496E+02  0.29477490792E+02  0.59301947920E+02  0.50000007099E+02 0.  0.
        -12    1    1    2    0    0 -0.10732856461E+01  0.12109744496E+02 -0.29477490792E+02  0.31886052080E+02  0.00000000000E+00 0.  1.
         11    1    3    3    0    0  0.82513928683E+00  0.97559358830E+01  0.46186495541E+01  0.10825482149E+02  0.51100000000E-03 0. -1.
        -11    1    3    3    0    0  0.81549241482E+01 -0.74998273062E+01 -0.66744071492E+01  0.12934369275E+02  0.51100000000E-03 0.  1.
         12    1    3    3    0    0 -0.79067777889E+01 -0.14365853072E+02  0.31533248387E+02  0.35542096496E+02  0.00000000000E+00 0. -1.
</event>
<event>
 7    1  0.1184848E-011  0.5930199E+02  0.7816164E-02  0.1266605E+00
        -11   -1    0    0    0    0  0.00000000000E+00  0.00000000000E+00  0.45593999997E+02  0.45594000000E+02  0.51100000000E-03 0.  1.
         11   -1    0    0    0    0 -0.00000000000E+00 -0.00000000000E+00 -0.45593999997E+02  0.45594000000E+02  0.51100000000E-03 0. -1.
    9900012    2    1    2    0    0 -0.28731751810E+01 -0.18581971711E+02 -0.25752147352E+02  0.59301985801E+02  0.50000076184E+02 0.  0.
        -12    1    1    2    0    0  0.28731751810E+01  0.18581971711E+02  0.25752147352E+02  0.31886014199E+02  0.00000000000E+00 0.  1.
         11    1    3    3    0    0 -0.46616861765E+01 -0.99053916577E+01  0.11494879262E+02  0.15873888982E+02  0.51100000000E-03 0.  1.
        -11    1    3    3    0    0  0.73536983520E+01 -0.13009214423E+02 -0.21605803495E+02  0.26270273777E+02  0.51100000000E-03 0. -1.
        -12    1    3    3    0    0 -0.55651873566E+01  0.43326343697E+01 -0.15641223119E+02  0.17157823042E+02  0.00000000000E+00 0.  1.
</event>
<event>
 7    1  0.1184848E-011  0.5930194E+02  0.7816164E-02  0.1266605E+00
        -11   -1    0    0    0    0  0.00000000000E+00  0.00000000000E+00  0.45593999997E+02  0.45594000000E+02  0.51100000000E-03 0.  1.
         11   -1    0    0    0    0 -0.00000000000E+00 -0.00000000000E+00 -0.45593999997E+02  0.45594000000E+02  0.51100000000E-03 0. -1.
    9900012    2    1    2    0    0  0.86730080110E+00  0.26398322945E+02 -0.17863292452E+02  0.59301939061E+02  0.49999990942E+02 0.  0.
        -12    1    1    2    0    0 -0.86730080110E+00 -0.26398322945E+02  0.17863292452E+02  0.31886060939E+02  0.00000000000E+00 0.  1.
         11    1    3    3    0    0  0.42255539183E+01  0.89384309309E+01  0.57784871736E+01  0.11451714618E+02  0.51100000000E-03 0. -1.
        -11    1    3    3    0    0  0.67064687901E+01 -0.96974255753E+01 -0.26613717475E+01  0.12087170317E+02  0.51100000000E-03 0.  1.
         12    1    3    3    0    0 -0.10064721907E+02  0.27157317589E+02 -0.20980407878E+02  0.35763054126E+02  0.00000000000E+00 0. -1.
</event>
<event>
 7    1  0.1184848E-011  0.5930192E+02  0.7816164E-02  0.1266605E+00
        -11   -1    0    0    0    0  0.00000000000E+00  0.00000000000E+00  0.45593999997E+02  0.45594000000E+02  0.51100000000E-03 0.  1.
         11   -1    0    0    0    0 -0.00000000000E+00 -0.00000000000E+00 -0.45593999997E+02  0.45594000000E+02  0.51100000000E-03 0. -1.
    9900012    2    1    2    0    0 -0.27616657727E+01  0.22170955929E+02 -0.22749592908E+02  0.59301920559E+02  0.49999957199E+02 0.  0.
        -12    1    1    2    0    0  0.27616657727E+01 -0.22170955929E+02  0.22749592908E+02  0.31886079441E+02  0.00000000000E+00 0.  1.
         11    1    3    3    0    0 -0.20696633270E+01  0.16188625195E+02  0.19615597332E+01  0.16437846844E+02  0.51100000000E-03 0. -1.
        -11    1    3    3    0    0  0.18056656707E+01  0.20069390034E+02 -0.18170273167E+02  0.27132999688E+02  0.51100000000E-03 0.  1.
        -12    1    3    3    0    0 -0.24976681164E+01 -0.14087059301E+02 -0.65408794741E+01  0.15731074028E+02  0.00000000000E+00 0.  1.
</event>
<event>
 7    1  0.1184848E-011  0.5930197E+02  0.7816164E-02  0.1266605E+00
        -11   -1    0    0    0    0  0.00000000000E+00  0.00000000000E+00  0.45593999997E+02  0.45594000000E+02  0.51100000000E-03 0.  1.
         11   -1    0    0    0    0 -0.00000000000E+00 -0.00000000000E+00 -0.45593999997E+02  0.45594000000E+02  0.51100000000E-03 0. -1.
    9900012    2    1    2    0    0 -0.16909352793E+02  0.26623406663E+02 -0.46890378070E+01  0.59301967481E+02  0.50000042773E+02 0.  0.
        -12    1    1    2    0    0  0.16909352793E+02 -0.26623406663E+02  0.46890378070E+01  0.31886032519E+02  0.00000000000E+00 0.  1.
         11    1    3    3    0    0 -0.11771109388E+02  0.78529521439E+00 -0.16265708755E+02  0.20093506075E+02  0.51100000000E-03 0. -1.
        -11    1    3    3    0    0  0.24279127962E+01 -0.30836888580E+00 -0.62223123675E+01  0.66863310848E+01  0.51100000000E-03 0.  1.
        -12    1    3    3    0    0 -0.75661562012E+01  0.26146480335E+02  0.17798983316E+02  0.32522130321E+02  0.00000000000E+00 0.  1.
</event>
<event>
 7    1  0.1184848E-011  0.5930195E+02  0.7816164E-02  0.1266605E+00
        -11   -1    0    0    0    0  0.00000000000E+00  0.00000000000E+00  0.45593999997E+02  0.45594000000E+02  0.51100000000E-03 0. -1.
         11   -1    0    0    0    0 -0.00000000000E+00 -0.00000000000E+00 -0.45593999997E+02  0.45594000000E+02  0.51100000000E-03 0.  1.
    9900012    2    1    2    0    0 -0.61956433183E+01 -0.31276394086E+02 -0.34833846144E+00  0.59301950341E+02  0.50000011514E+02 0.  0.
        -12    1    1    2    0    0  0.61956433183E+01  0.31276394086E+02  0.34833846144E+00  0.31886049659E+02  0.00000000000E+00 0.  1.
         11    1    3    3    0    0 -0.70603153953E+01 -0.10916302380E+02  0.49771445584E+00  0.13010051155E+02  0.51100000000E-03 0. -1.
        -11    1    3    3    0    0 -0.12707510935E+02 -0.97763114842E+01 -0.16514447189E+02  0.23017038616E+02  0.51100000000E-03 0.  1.
        -12    1    3    3    0    0  0.13572183012E+02 -0.10583780222E+02  0.15668394272E+02  0.23274860570E+02  0.00000000000E+00 0.  1.
</event>
<event>
 7    1  0.1184848E-011  0.5930197E+02  0.7816164E-02  0.1266605E+00
        -11   -1    0    0    0    0  0.00000000000E+00  0.00000000000E+00  0.45593999997E+02  0.45594000000E+02  0.51100000000E-03 0.  1.
         11   -1    0    0    0    0 -0.00000000000E+00 -0.00000000000E+00 -0.45593999997E+02  0.45594000000E+02  0.51100000000E-03 0. -1.
    9900012    2    1    2    0    0  0.19333618920E+02 -0.24815690273E+02 -0.52068773275E+01  0.59301970524E+02  0.50000048322E+02 0.  0.
        -12    1    1    2    0    0 -0.19333618920E+02  0.24815690273E+02  0.52068773275E+01  0.31886029476E+02  0.00000000000E+00 0.  1.
         11    1    3    3    0    0  0.18381783273E+02  0.33059126847E+00  0.19025810556E+01  0.18482939750E+02  0.51100000000E-03 0. -1.
        -11    1    3    3    0    0 -0.89077780806E+01 -0.16178680144E+02  0.84684401949E+01  0.20317792231E+02  0.51100000000E-03 0.  1.
        -12    1    3    3    0    0  0.98596137277E+01 -0.89676013977E+01 -0.15577898578E+02  0.20501238543E+02  0.00000000000E+00 0.  1.
</event>
<event>
 7    1  0.1184848E-011  0.5930194E+02  0.7816164E-02  0.1266605E+00
        -11   -1    0    0    0    0  0.00000000000E+00  0.00000000000E+00  0.45593999997E+02  0.45594000000E+02  0.51100000000E-03 0. -1.
         11   -1    0    0    0    0 -0.00000000000E+00 -0.00000000000E+00 -0.45593999997E+02  0.45594000000E+02  0.51100000000E-03 0.  1.
    9900012    2    1    2    0    0  0.12031560528E+02 -0.56473182061E+01  0.28983963505E+02  0.59301940474E+02  0.49999993518E+02 0.  0.
        -12    1    1    2    0    0 -0.12031560528E+02  0.56473182061E+01 -0.28983963505E+02  0.31886059526E+02  0.00000000000E+00 0.  1.
         11    1    3    3    0    0  0.91301455513E+01  0.32985712356E+01  0.26018569791E+02  0.27770597836E+02  0.51100000000E-03 0. -1.
        -11    1    3    3    0    0 -0.30980305205E+01 -0.13590765175E+02  0.12925913753E+02  0.19010153544E+02  0.51100000000E-03 0.  1.
        -12    1    3    3    0    0  0.59994454970E+01  0.46448757336E+01 -0.99605200389E+01  0.12521189093E+02  0.00000000000E+00 0.  1.
</event>
<event>
 7    1  0.1184848E-011  0.5930192E+02  0.7816164E-02  0.1266605E+00
        -11   -1    0    0    0    0  0.00000000000E+00  0.00000000000E+00  0.45593999997E+02  0.45594000000E+02  0.51100000000E-03 0.  1.
         11   -1    0    0    0    0 -0.00000000000E+00 -0.00000000000E+00 -0.45593999997E+02  0.45594000000E+02  0.51100000000E-03 0. -1.
    9900012    2    1    2    0    0 -0.16876881323E+01  0.31661264727E+02 -0.33820757579E+01  0.59301915076E+02  0.49999947199E+02 0.  0.
        -12    1    1    2    0    0  0.16876881323E+01 -0.31661264727E+02  0.33820757579E+01  0.31886084924E+02  0.00000000000E+00 0.  1.
         11    1    3    3    0    0 -0.45484185545E+01  0.54724697813E+01  0.24285478059E+01  0.75189016193E+01  0.51100000000E-03 0.  1.
        -11    1    3    3    0    0  0.11442917803E+02  0.67573059593E+01  0.16360757086E+02  0.21077853884E+02  0.51100000000E-03 0. -1.
         12    1    3    3    0    0 -0.85821873809E+01  0.19431488986E+02 -0.22171380650E+02  0.30705159573E+02  0.00000000000E+00 0. -1.
</event>
<event>
 7    1  0.1184848E-011  0.5930196E+02  0.7816164E-02  0.1266605E+00
        -11   -1    0    0    0    0  0.00000000000E+00  0.00000000000E+00  0.45593999997E+02  0.45594000000E+02  0.51100000000E-03 0. -1.
         11   -1    0    0    0    0 -0.00000000000E+00 -0.00000000000E+00 -0.45593999997E+02  0.45594000000E+02  0.51100000000E-03 0.  1.
    9900012    2    1    2    0    0  0.10878693963E+02 -0.26030236924E+02  0.14859358892E+02  0.59301956605E+02  0.50000022939E+02 0.  0.
        -12    1    1    2    0    0 -0.10878693963E+02  0.26030236924E+02 -0.14859358892E+02  0.31886043395E+02  0.00000000000E+00 0.  1.
         11    1    3    3    0    0 -0.24775838698E+01 -0.47673817210E+01  0.40291934224E+01  0.67157092107E+01  0.51100000000E-03 0. -1.
        -11    1    3    3    0    0 -0.14734682683E+02  0.20914195139E+01  0.41408927288E+01  0.15447715113E+02  0.51100000000E-03 0.  1.
        -12    1    3    3    0    0  0.28090960516E+02 -0.23354274717E+02  0.66892727412E+01  0.37138532282E+02  0.00000000000E+00 0.  1.
</event>
<event>
 7    1  0.1184848E-011  0.5930196E+02  0.7816164E-02  0.1266605E+00
        -11   -1    0    0    0    0  0.00000000000E+00  0.00000000000E+00  0.45593999997E+02  0.45594000000E+02  0.51100000000E-03 0.  1.
         11   -1    0    0    0    0 -0.00000000000E+00 -0.00000000000E+00 -0.45593999997E+02  0.45594000000E+02  0.51100000000E-03 0. -1.
    9900012    2    1    2    0    0 -0.15727298041E+02 -0.86589002829E+01 -0.26351378448E+02  0.59301959106E+02  0.50000027498E+02 0.  0.
        -12    1    1    2    0    0  0.15727298041E+02  0.86589002829E+01  0.26351378448E+02  0.31886040894E+02  0.00000000000E+00 0.  1.
         11    1    3    3    0    0 -0.64661177413E+01  0.45185389829E+00 -0.13176954783E+02  0.14684923841E+02  0.51100000000E-03 0. -1.
        -11    1    3    3    0    0  0.15623728552E+02  0.49228684709E+00 -0.22478875976E+01  0.15792284164E+02  0.51100000000E-03 0.  1.
         12    1    3    3    0    0 -0.24884908852E+02 -0.96030410283E+01 -0.10926536068E+02  0.28824751101E+02  0.00000000000E+00 0. -1.
</event>
<event>
 7    1  0.1184848E-011  0.5930192E+02  0.7816164E-02  0.1266605E+00
        -11   -1    0    0    0    0  0.00000000000E+00  0.00000000000E+00  0.45593999997E+02  0.45594000000E+02  0.51100000000E-03 0.  1.
         11   -1    0    0    0    0 -0.00000000000E+00 -0.00000000000E+00 -0.45593999997E+02  0.45594000000E+02  0.51100000000E-03 0. -1.
    9900012    2    1    2    0    0  0.25868734876E+02  0.11111141118E+02  0.14969067753E+02  0.59301923252E+02  0.49999962109E+02 0.  0.
        -12    1    1    2    0    0 -0.25868734876E+02 -0.11111141118E+02 -0.14969067753E+02  0.31886076748E+02  0.00000000000E+00 0.  1.
         11    1    3    3    0    0  0.13830904194E+02  0.17979189414E+02 -0.89254390404E+01  0.24376394834E+02  0.51100000000E-03 0. -1.
        -11    1    3    3    0    0  0.29920469169E+01 -0.55459863306E+01 -0.26610639754E+01  0.68404364535E+01  0.51100000000E-03 0.  1.
        -12    1    3    3    0    0  0.90457837652E+01 -0.13220619654E+01  0.26555570768E+02  0.28085091964E+02  0.00000000000E+00 0.  1.
</event>
<event>
 7    1  0.1184848E-011  0.5930190E+02  0.7816164E-02  0.1266605E+00
        -11   -1    0    0    0    0  0.00000000000E+00  0.00000000000E+00  0.45593999997E+02  0.45594000000E+02  0.51100000000E-03 0.  1.
         11   -1    0    0    0    0 -0.00000000000E+00 -0.00000000000E+00 -0.45593999997E+02  0.45594000000E+02  0.51100000000E-03 0. -1.
    9900012    2    1    2    0    0  0.37279874097E+01  0.20970566400E+02 -0.23728904743E+02  0.59301898552E+02  0.49999917063E+02 0.  0.
        -12    1    1    2    0    0 -0.37279874097E+01 -0.20970566400E+02  0.23728904743E+02  0.31886101448E+02  0.00000000000E+00 0.  1.
         11    1    3    3    0    0 -0.33588318274E+01 -0.82158765603E+01 -0.18708678306E+02  0.20707414690E+02  0.51100000000E-03 0.  1.
        -11    1    3    3    0    0 -0.14864032912E+01  0.14181504251E+02 -0.13239619837E+02  0.19457954447E+02  0.51100000000E-03 0. -1.
         12    1    3    3    0    0  0.85732225283E+01  0.15004938709E+02  0.82193934005E+01  0.19136529415E+02  0.00000000000E+00 0. -1.
</event>
<event>
 7    1  0.1184848E-011  0.5930198E+02  0.7816164E-02  0.1266605E+00
        -11   -1    0    0    0    0  0.00000000000E+00  0.00000000000E+00  0.45593999997E+02  0.45594000000E+02  0.51100000000E-03 0.  1.
         11   -1    0    0    0    0 -0.00000000000E+00 -0.00000000000E+00 -0.45593999997E+02  0.45594000000E+02  0.51100000000E-03 0. -1.
    9900012    2    1    2    0    0  0.28101286423E+02 -0.14562840728E+02  0.38677956924E+01  0.59301976852E+02  0.50000059863E+02 0.  0.
        -12    1    1    2    0    0 -0.28101286423E+02  0.14562840728E+02 -0.38677956924E+01  0.31886023148E+02  0.00000000000E+00 0.  1.
         11    1    3    3    0    0  0.17069736232E+02  0.12366589964E+02 -0.48430260193E+01  0.21627837239E+02  0.51100000000E-03 0. -1.
        -11    1    3    3    0    0  0.13284075792E+02 -0.84515056672E+01 -0.25034031610E+01  0.15942447909E+02  0.51100000000E-03 0.  1.
        -12    1    3    3    0    0 -0.22525256006E+01 -0.18477925025E+02  0.11214224873E+02  0.21731691704E+02  0.00000000000E+00 0.  1.
</event>
<event>
 7    1  0.1184848E-011  0.5930194E+02  0.7816164E-02  0.1266605E+00
        -11   -1    0    0    0    0  0.00000000000E+00  0.00000000000E+00  0.45593999997E+02  0.45594000000E+02  0.51100000000E-03 0.  1.
         11   -1    0    0    0    0 -0.00000000000E+00 -0.00000000000E+00 -0.45593999997E+02  0.45594000000E+02  0.51100000000E-03 0. -1.
    9900012    2    1    2    0    0 -0.18151100930E+00 -0.29175423589E+02 -0.12864010292E+02  0.59301936452E+02  0.49999986183E+02 0.  0.
        -12    1    1    2    0    0  0.18151100930E+00  0.29175423589E+02  0.12864010292E+02  0.31886063548E+02  0.00000000000E+00 0.  1.
         11    1    3    3    0    0 -0.45186022439E+01  0.41670683698E+00 -0.14762816196E+02  0.15444486172E+02  0.51100000000E-03 0. -1.
        -11    1    3    3    0    0 -0.11559601979E+02 -0.19534810641E+02 -0.59641232521E+01  0.23469213688E+02  0.51100000000E-03 0.  1.
         12    1    3    3    0    0  0.15896693214E+02 -0.10057319784E+02  0.78629291566E+01  0.20388236591E+02  0.00000000000E+00 0. -1.
</event>
<event>
 7    1  0.1184848E-011  0.5930192E+02  0.7816164E-02  0.1266605E+00
        -11   -1    0    0    0    0  0.00000000000E+00  0.00000000000E+00  0.45593999997E+02  0.45594000000E+02  0.51100000000E-03 0. -1.
         11   -1    0    0    0    0 -0.00000000000E+00 -0.00000000000E+00 -0.45593999997E+02  0.45594000000E+02  0.51100000000E-03 0.  1.
    9900012    2    1    2    0    0  0.98824850187E+01 -0.19676730877E+02  0.23062634532E+02  0.59301915892E+02  0.49999948688E+02 0.  0.
        -12    1    1    2    0    0 -0.98824850187E+01  0.19676730877E+02 -0.23062634532E+02  0.31886084108E+02  0.00000000000E+00 0.  1.
         11    1    3    3    0    0 -0.45185119433E+01  0.13773245605E+02  0.73994722135E+01  0.16274871243E+02  0.51100000000E-03 0. -1.
        -11    1    3    3    0    0  0.15891819416E+02 -0.16030379752E+02  0.94816463452E+01  0.24483149655E+02  0.51100000000E-03 0.  1.
        -12    1    3    3    0    0 -0.14908224538E+01 -0.17419596730E+02  0.61815159735E+01  0.18543894994E+02  0.00000000000E+00 0.  1.
</event>
<event>
 7    1  0.1184848E-011  0.5930195E+02  0.7816164E-02  0.1266605E+00
        -11   -1    0    0    0    0  0.00000000000E+00  0.00000000000E+00  0.45593999997E+02  0.45594000000E+02  0.51100000000E-03 0.  1.
         11   -1    0    0    0    0 -0.00000000000E+00 -0.00000000000E+00 -0.45593999997E+02  0.45594000000E+02  0.51100000000E-03 0. -1.
    9900012    2    1    2    0    0  0.28434042166E+02 -0.79687394963E+01  0.12030156541E+02  0.59301949297E+02  0.50000009610E+02 0.  0.
        -12    1    1    2    0    0 -0.28434042166E+02  0.79687394963E+01 -0.12030156541E+02  0.31886050703E+02  0.00000000000E+00 0.  1.
         11    1    3    3    0    0  0.22678786640E+01 -0.23488004910E+01  0.36490185086E+01  0.48964756426E+01  0.51100000000E-03 0. -1.
        -11    1    3    3    0    0  0.37190942801E+01 -0.23827857712E+02 -0.64693743052E+00  0.24125028367E+02  0.51100000000E-03 0.  1.
         12    1    3    3    0    0  0.22447069222E+02  0.18207918706E+02  0.90280754630E+01  0.30280445288E+02  0.00000000000E+00 0. -1.
</event>
<event>
 7    1  0.1184848E-011  0.5930201E+02  0.7816164E-02  0.1266605E+00
        -11   -1    0    0    0    0  0.00000000000E+00  0.00000000000E+00  0.45593999997E+02  0.45594000000E+02  0.51100000000E-03 0.  1.
         11   -1    0    0    0    0 -0.00000000000E+00 -0.00000000000E+00 -0.45593999997E+02  0.45594000000E+02  0.51100000000E-03 0. -1.
    9900012    2    1    2    0    0  0.30717102198E+02  0.17257133282E+01  0.83784066303E+01  0.59302013241E+02  0.50000126228E+02 0.  0.
        -12    1    1    2    0    0 -0.30717102198E+02 -0.17257133282E+01 -0.83784066303E+01  0.31885986759E+02  0.00000000000E+00 0.  1.
         11    1    3    3    0    0  0.18813390507E+02  0.75873196890E+01  0.26394812135E+01  0.20456733458E+02  0.51100000000E-03 0. -1.
        -11    1    3    3    0    0 -0.25993375107E+01  0.13757742831E+02  0.26961771548E+01  0.14258380511E+02  0.51100000000E-03 0.  1.
        -12    1    3    3    0    0  0.14503049202E+02 -0.19619349191E+02  0.30427482620E+01  0.24586899272E+02  0.00000000000E+00 0.  1.
</event>
<event>
 7    1  0.1184848E-011  0.5930192E+02  0.7816164E-02  0.1266605E+00
        -11   -1    0    0    0    0  0.00000000000E+00  0.00000000000E+00  0.45593999997E+02  0.45594000000E+02  0.51100000000E-03 0.  1.
         11   -1    0    0    0    0 -0.00000000000E+00 -0.00000000000E+00 -0.45593999997E+02  0.45594000000E+02  0.51100000000E-03 0. -1.
    9900012    2    1    2    0    0 -0.15762821027E+01 -0.28761574298E+02  0.13675128948E+02  0.59301921955E+02  0.49999959744E+02 0.  0.
        -12    1    1    2    0    0  0.15762821027E+01  0.28761574298E+02 -0.13675128948E+02  0.31886078045E+02  0.00000000000E+00 0.  1.
         11    1    3    3    0    0  0.62634663350E+01 -0.74153814860E+00 -0.18716228092E+01  0.65790471618E+01  0.51100000000E-03 0. -1.
        -11    1    3    3    0    0  0.10754122400E+02 -0.23935516417E+02 -0.26675291080E+01  0.26375666941E+02  0.51100000000E-03 0.  1.
         12    1    3    3    0    0 -0.18593870838E+02 -0.40845197319E+01  0.18214280865E+02  0.26347207852E+02  0.00000000000E+00 0. -1.
</event>
<event>
 7    1  0.1184848E-011  0.5930197E+02  0.7816164E-02  0.1266605E+00
        -11   -1    0    0    0    0  0.00000000000E+00  0.00000000000E+00  0.45593999997E+02  0.45594000000E+02  0.51100000000E-03 0. -1.
         11   -1    0    0    0    0 -0.00000000000E+00 -0.00000000000E+00 -0.45593999997E+02  0.45594000000E+02  0.51100000000E-03 0.  1.
    9900012    2    1    2    0    0  0.50667154333E+01 -0.90077771527E+01  0.30164666719E+02  0.59301972139E+02  0.50000051268E+02 0.  0.
        -12    1    1    2    0    0 -0.50667154333E+01  0.90077771527E+01 -0.30164666719E+02  0.31886027861E+02  0.00000000000E+00 0.  1.
         11    1    3    3    0    0  0.92456639174E+01  0.39687667025E+01 -0.62010949031E+01  0.11818925022E+02  0.51100000000E-03 0. -1.
        -11    1    3    3    0    0  0.29122966407E+01 -0.59637490447E+01 -0.26994751931E+01  0.71648406103E+01  0.51100000000E-03 0.  1.
         12    1    3    3    0    0 -0.70912451248E+01 -0.70127948105E+01  0.39065236815E+02  0.40318206506E+02  0.00000000000E+00 0. -1.
</event>
<event>
 7    1  0.1184848E-011  0.5930195E+02  0.7816164E-02  0.1266605E+00
        -11   -1    0    0    0    0  0.00000000000E+00  0.00000000000E+00  0.45593999997E+02  0.45594000000E+02  0.51100000000E-03 0. -1.
         11   -1    0    0    0    0 -0.00000000000E+00 -0.00000000000E+00 -0.45593999997E+02  0.45594000000E+02  0.51100000000E-03 0.  1.
    9900012    2    1    2    0    0  0.23650566854E+01  0.31186698587E+02  0.62061698957E+01  0.59301949654E+02  0.50000010261E+02 0.  0.
        -12    1    1    2    0    0 -0.23650566854E+01 -0.31186698587E+02 -0.62061698957E+01  0.31886050346E+02  0.00000000000E+00 0.  1.
         11    1    3    3    0    0  0.12296199689E+02  0.27153685064E+02 -0.79021076061E+00  0.29818510571E+02  0.51100000000E-03 0. -1.
        -11    1    3    3    0    0  0.40862132570E+01  0.15736716838E+01 -0.78054831213E+01  0.89498127561E+01  0.51100000000E-03 0.  1.
        -12    1    3    3    0    0 -0.14017356261E+02  0.24593418391E+01  0.14801863778E+02  0.20533626327E+02  0.00000000000E+00 0.  1.
</event>
<event>
 7    1  0.1184848E-011  0.5930196E+02  0.7816164E-02  0.1266605E+00
        -11   -1    0    0    0    0  0.00000000000E+00  0.00000000000E+00  0.45593999997E+02  0.45594000000E+02  0.51100000000E-03 0.  1.
         11   -1    0    0    0    0 -0.00000000000E+00 -0.00000000000E+00 -0.45593999997E+02  0.45594000000E+02  0.51100000000E-03 0. -1.
    9900012    2    1    2    0    0  0.12029347318E+02  0.10268132372E+02 -0.27687177656E+02  0.59301960016E+02  0.50000029159E+02 0.  0.
        -12    1    1    2    0    0 -0.12029347318E+02 -0.10268132372E+02  0.27687177656E+02  0.31886039984E+02  0.00000000000E+00 0.  1.
         11    1    3    3    0    0 -0.58400136149E+01  0.14641857147E+01 -0.17148083933E+02  0.18174333046E+02  0.51100000000E-03 0. -1.
        -11    1    3    3    0    0 -0.14988365418E+01 -0.98691012628E+01 -0.10128420237E+02  0.14220779426E+02  0.51100000000E-03 0.  1.
        -12    1    3    3    0    0  0.19368197475E+02  0.18673047920E+02 -0.41067348503E+00  0.26906847544E+02  0.00000000000E+00 0.  1.
</event>
<event>
 7    1  0.1184848E-011  0.5930194E+02  0.7816164E-02  0.1266605E+00
        -11   -1    0    0    0    0  0.00000000000E+00  0.00000000000E+00  0.45593999997E+02  0.45594000000E+02  0.51100000000E-03 0. -1.
         11   -1    0    0    0    0 -0.00000000000E+00 -0.00000000000E+00 -0.45593999997E+02  0.45594000000E+02  0.51100000000E-03 0.  1.
    9900012    2    1    2    0    0  0.46892027247E+01  0.17108264042E+01  0.31492937716E+02  0.59301942308E+02  0.49999996863E+02 0.  0.
        -12    1    1    2    0    0 -0.46892027247E+01 -0.17108264042E+01 -0.31492937716E+02  0.31886057692E+02  0.00000000000E+00 0.  1.
         11    1    3    3    0    0 -0.75428212010E+01 -0.26816103233E+01 -0.17438073833E+00  0.80072213969E+01  0.51100000000E-03 0. -1.
        -11    1    3    3    0    0  0.53493721819E+01 -0.16761683963E+02  0.18078685403E+02  0.25227142093E+02  0.51100000000E-03 0.  1.
         12    1    3    3    0    0  0.68826517437E+01  0.21154120691E+02  0.13588633052E+02  0.26067578818E+02  0.00000000000E+00 0. -1.
</event>
<event>
 7    1  0.1184848E-011  0.5930192E+02  0.7816164E-02  0.1266605E+00
        -11   -1    0    0    0    0  0.00000000000E+00  0.00000000000E+00  0.45593999997E+02  0.45594000000E+02  0.51100000000E-03 0.  1.
         11   -1    0    0    0    0 -0.00000000000E+00 -0.00000000000E+00 -0.45593999997E+02  0.45594000000E+02  0.51100000000E-03 0. -1.
    9900012    2    1    2    0    0  0.25965683912E+02  0.56000598511E+01 -0.17639299256E+02  0.59301916991E+02  0.49999950692E+02 0.  0.
        -12    1    1    2    0    0 -0.25965683912E+02 -0.56000598511E+01  0.17639299256E+02  0.31886083009E+02  0.00000000000E+00 0.  1.
         11    1    3    3    0    0  0.19516543029E+01 -0.75897687557E+01 -0.17712503302E+02  0.19368694271E+02  0.51100000000E-03 0. -1.
        -11    1    3    3    0    0 -0.68067093501E+01  0.15757044242E+01  0.35334403941E+00  0.69956407055E+01  0.51100000000E-03 0.  1.
        -12    1    3    3    0    0  0.30820738960E+02  0.11614124183E+02 -0.28013999329E+00  0.32937582015E+02  0.00000000000E+00 0.  1.
</event>
<event>
 7    1  0.1184848E-011  0.5930194E+02  0.7816164E-02  0.1266605E+00
        -11   -1    0    0    0    0  0.00000000000E+00  0.00000000000E+00  0.45593999997E+02  0.45594000000E+02  0.51100000000E-03 0.  1.
         11   -1    0    0    0    0 -0.00000000000E+00 -0.00000000000E+00 -0.45593999997E+02  0.45594000000E+02  0.51100000000E-03 0. -1.
    9900012    2    1    2    0    0 -0.17177388153E+02  0.80323964314E+01 -0.25634720090E+02  0.59301938308E+02  0.49999989568E+02 0.  0.
        -12    1    1    2    0    0  0.17177388153E+02 -0.80323964314E+01  0.25634720090E+02  0.31886061692E+02  0.00000000000E+00 0.  1.
         11    1    3    3    0    0  0.84527557168E+01  0.41779148514E+01 -0.12128448678E+02  0.15362399530E+02  0.51100000000E-03 0. -1.
        -11    1    3    3    0    0 -0.29314442488E+02  0.65380769556E+01 -0.37216368275E+00  0.30037002093E+02  0.51100000000E-03 0.  1.
         12    1    3    3    0    0  0.36842986187E+01 -0.26835953756E+01 -0.13134107728E+02  0.13902536685E+02  0.00000000000E+00 0. -1.
</event>
<event>
 7    1  0.1184848E-011  0.5930194E+02  0.7816164E-02  0.1266605E+00
        -11   -1    0    0    0    0  0.00000000000E+00  0.00000000000E+00  0.45593999997E+02  0.45594000000E+02  0.51100000000E-03 0. -1.
         11   -1    0    0    0    0 -0.00000000000E+00 -0.00000000000E+00 -0.45593999997E+02  0.45594000000E+02  0.51100000000E-03 0.  1.
    9900012    2    1    2    0    0  0.29399179418E+02  0.27634787585E+01  0.12032139239E+02  0.59301938155E+02  0.49999989290E+02 0.  0.
        -12    1    1    2    0    0 -0.29399179418E+02 -0.27634787585E+01 -0.12032139239E+02  0.31886061845E+02  0.00000000000E+00 0.  1.
         11    1    3    3    0    0  0.35480236468E+01  0.10475583871E+02 -0.31724673453E+01  0.11506123524E+02  0.51100000000E-03 0. -1.
        -11    1    3    3    0    0  0.60958381612E+01  0.14013367260E+02  0.91564622168E+01  0.17815007871E+02  0.51100000000E-03 0.  1.
         12    1    3    3    0    0  0.19755317610E+02 -0.21725472373E+02  0.60481443676E+01  0.29980806760E+02  0.00000000000E+00 0. -1.
</event>
<event>
 7    1  0.1184848E-011  0.5930196E+02  0.7816164E-02  0.1266605E+00
        -11   -1    0    0    0    0  0.00000000000E+00  0.00000000000E+00  0.45593999997E+02  0.45594000000E+02  0.51100000000E-03 0.  1.
         11   -1    0    0    0    0 -0.00000000000E+00 -0.00000000000E+00 -0.45593999997E+02  0.45594000000E+02  0.51100000000E-03 0. -1.
    9900012    2    1    2    0    0 -0.17142055076E+02 -0.20254758206E+02 -0.17680896987E+02  0.59301962296E+02  0.50000033318E+02 0.  0.
        -12    1    1    2    0    0  0.17142055076E+02  0.20254758206E+02  0.17680896987E+02  0.31886037704E+02  0.00000000000E+00 0.  1.
         11    1    3    3    0    0  0.61897477030E+01 -0.53268937924E+01  0.79286517877E+01  0.11382104091E+02  0.51100000000E-03 0. -1.
        -11    1    3    3    0    0  0.42273054967E+01  0.50045416245E+00 -0.13397177556E+02  0.14057202170E+02  0.51100000000E-03 0.  1.
         12    1    3    3    0    0 -0.27559108275E+02 -0.15428318576E+02 -0.12212371218E+02  0.33862656036E+02  0.00000000000E+00 0. -1.
</event>
<event>
 7    1  0.1184848E-011  0.5930193E+02  0.7816164E-02  0.1266605E+00
        -11   -1    0    0    0    0  0.00000000000E+00  0.00000000000E+00  0.45593999997E+02  0.45594000000E+02  0.51100000000E-03 0.  1.
         11   -1    0    0    0    0 -0.00000000000E+00 -0.00000000000E+00 -0.45593999997E+02  0.45594000000E+02  0.51100000000E-03 0. -1.
    9900012    2    1    2    0    0 -0.26415665152E+02 -0.14406163756E+02  0.10554441836E+02  0.59301934673E+02  0.49999982939E+02 0.  0.
        -12    1    1    2    0    0  0.26415665152E+02  0.14406163756E+02 -0.10554441836E+02  0.31886065327E+02  0.00000000000E+00 0.  1.
         11    1    3    3    0    0 -0.27577269901E+02 -0.59932149042E+01  0.16656347901E+02  0.32769778238E+02  0.51100000000E-03 0. -1.
        -11    1    3    3    0    0 -0.51858961761E+01  0.57837370257E+01  0.32110567659E+01  0.84057134704E+01  0.51100000000E-03 0.  1.
        -12    1    3    3    0    0  0.63475009255E+01 -0.14196685877E+02 -0.93129628306E+01  0.18126442965E+02  0.00000000000E+00 0.  1.
</event>
<event>
 7    1  0.1184848E-011  0.5930192E+02  0.7816164E-02  0.1266605E+00
        -11   -1    0    0    0    0  0.00000000000E+00  0.00000000000E+00  0.45593999997E+02  0.45594000000E+02  0.51100000000E-03 0.  1.
         11   -1    0    0    0    0 -0.00000000000E+00 -0.00000000000E+00 -0.45593999997E+02  0.45594000000E+02  0.51100000000E-03 0. -1.
    9900012    2    1    2    0    0  0.11211692705E+02  0.59442358861E+01 -0.29252112251E+02  0.59301920518E+02  0.49999957124E+02 0.  0.
        -12    1    1    2    0    0 -0.11211692705E+02 -0.59442358861E+01  0.29252112251E+02  0.31886079482E+02  0.00000000000E+00 0.  1.
         11    1    3    3    0    0  0.81197720027E+01  0.49917634892E+01 -0.72745524387E+01  0.11990309152E+02  0.51100000000E-03 0. -1.
        -11    1    3    3    0    0  0.21358836157E+02 -0.47942866895E+01 -0.16443799868E+02  0.27378524818E+02  0.51100000000E-03 0.  1.
         12    1    3    3    0    0 -0.18266915455E+02  0.57467590864E+01 -0.55337599440E+01  0.19933086549E+02  0.00000000000E+00 0. -1.
</event>
<event>
 7    1  0.1184848E-011  0.5930193E+02  0.7816164E-02  0.1266605E+00
        -11   -1    0    0    0    0  0.00000000000E+00  0.00000000000E+00  0.45593999997E+02  0.45594000000E+02  0.51100000000E-03 0. -1.
         11   -1    0    0    0    0 -0.00000000000E+00 -0.00000000000E+00 -0.45593999997E+02  0.45594000000E+02  0.51100000000E-03 0.  1.
    9900012    2    1    2    0    0  0.89029228487E+01 -0.27061695130E+02  0.14322157646E+02  0.59301928148E+02  0.49999971038E+02 0.  0.
        -12    1    1    2    0    0 -0.89029228487E+01  0.27061695130E+02 -0.14322157646E+02  0.31886071852E+02  0.00000000000E+00 0.  1.
         11    1    3    3    0    0  0.12556456979E+01 -0.10822952138E+00 -0.10740953614E+02  0.10814640287E+02  0.51100000000E-03 0. -1.
        -11    1    3    3    0    0  0.44577400104E+01  0.63586905106E+01  0.70212441018E+01  0.10469109800E+02  0.51100000000E-03 0.  1.
         12    1    3    3    0    0  0.31895371403E+01 -0.33312156119E+02  0.18041867158E+02  0.38018178060E+02  0.00000000000E+00 0. -1.
</event>
<event>
 7    1  0.1184848E-011  0.5930192E+02  0.7816164E-02  0.1266605E+00
        -11   -1    0    0    0    0  0.00000000000E+00  0.00000000000E+00  0.45593999997E+02  0.45594000000E+02  0.51100000000E-03 0.  1.
         11   -1    0    0    0    0 -0.00000000000E+00 -0.00000000000E+00 -0.45593999997E+02  0.45594000000E+02  0.51100000000E-03 0. -1.
    9900012    2    1    2    0    0  0.15602351860E+02 -0.82871549831E+01 -0.26544519663E+02  0.59301923957E+02  0.49999963395E+02 0.  0.
        -12    1    1    2    0    0 -0.15602351860E+02  0.82871549831E+01  0.26544519663E+02  0.31886076043E+02  0.00000000000E+00 0.  1.
         11    1    3    3    0    0 -0.28244303570E+01  0.28658779955E+01  0.38146533728E+01  0.55445688870E+01  0.51100000000E-03 0. -1.
        -11    1    3    3    0    0  0.45575860395E+01 -0.20900287792E+02 -0.30403278655E+01  0.21606416040E+02  0.51100000000E-03 0.  1.
         12    1    3    3    0    0  0.13869196178E+02  0.97472548137E+01 -0.27318845171E+02  0.32150939030E+02  0.00000000000E+00 0. -1.
</event>
<event>
 7    1  0.1184848E-011  0.5930197E+02  0.7816164E-02  0.1266605E+00
        -11   -1    0    0    0    0  0.00000000000E+00  0.00000000000E+00  0.45593999997E+02  0.45594000000E+02  0.51100000000E-03 0.  1.
         11   -1    0    0    0    0 -0.00000000000E+00 -0.00000000000E+00 -0.45593999997E+02  0.45594000000E+02  0.51100000000E-03 0. -1.
    9900012    2    1    2    0    0  0.26727566828E+02  0.15138009941E+02  0.85555209693E+01  0.59301966810E+02  0.50000041550E+02 0.  0.
        -12    1    1    2    0    0 -0.26727566828E+02 -0.15138009941E+02 -0.85555209693E+01  0.31886033190E+02  0.00000000000E+00 0.  1.
         11    1    3    3    0    0  0.12351924765E+02  0.26710082624E+01 -0.13303746898E+02  0.18349223753E+02  0.51100000000E-03 0.  1.
        -11    1    3    3    0    0  0.12321140027E+02  0.10007719551E+02 -0.27722310636E+01  0.16113665241E+02  0.51100000000E-03 0. -1.
        -12    1    3    3    0    0  0.20545020362E+01  0.24592821284E+01  0.24631498931E+02  0.24839077817E+02  0.00000000000E+00 0.  1.
</event>
<event>
 7    1  0.1184848E-011  0.5930192E+02  0.7816164E-02  0.1266605E+00
        -11   -1    0    0    0    0  0.00000000000E+00  0.00000000000E+00  0.45593999997E+02  0.45594000000E+02  0.51100000000E-03 0.  1.
         11   -1    0    0    0    0 -0.00000000000E+00 -0.00000000000E+00 -0.45593999997E+02  0.45594000000E+02  0.51100000000E-03 0. -1.
    9900012    2    1    2    0    0  0.25342609177E+02 -0.16674035110E+02  0.98209366117E+01  0.59301920236E+02  0.49999956610E+02 0.  0.
        -12    1    1    2    0    0 -0.25342609177E+02  0.16674035110E+02 -0.98209366117E+01  0.31886079764E+02  0.00000000000E+00 0.  1.
         11    1    3    3    0    0  0.26909565104E+02 -0.12174902984E+02 -0.13140610730E+02  0.32326902224E+02  0.51100000000E-03 0. -1.
        -11    1    3    3    0    0  0.83486491400E+00  0.38365643316E+01  0.22622264856E+01  0.45314340146E+01  0.51100000000E-03 0.  1.
        -12    1    3    3    0    0 -0.24018208414E+01 -0.83356964579E+01  0.20699320856E+02  0.22443583998E+02  0.00000000000E+00 0.  1.
</event>
<event>
 7    1  0.1184848E-011  0.5930189E+02  0.7816164E-02  0.1266605E+00
        -11   -1    0    0    0    0  0.00000000000E+00  0.00000000000E+00  0.45593999997E+02  0.45594000000E+02  0.51100000000E-03 0. -1.
         11   -1    0    0    0    0 -0.00000000000E+00 -0.00000000000E+00 -0.45593999997E+02  0.45594000000E+02  0.51100000000E-03 0.  1.
    9900012    2    1    2    0    0 -0.51750004484E+01 -0.13438261357E+01  0.31434651902E+02  0.59301892704E+02  0.49999906397E+02 0.  0.
        -12    1    1    2    0    0  0.51750004484E+01  0.13438261357E+01 -0.31434651902E+02  0.31886107296E+02  0.00000000000E+00 0.  1.
         11    1    3    3    0    0  0.10877118993E+02 -0.53920617926E+01  0.10444696085E+02  0.16014921933E+02  0.51100000000E-03 0. -1.
        -11    1    3    3    0    0 -0.15176899971E+01 -0.14023618760E+02  0.11615546019E+02  0.18272552520E+02  0.51100000000E-03 0.  1.
        -12    1    3    3    0    0 -0.14534429444E+02  0.18071854416E+02  0.93744097986E+01  0.25014418250E+02  0.00000000000E+00 0.  1.
</event>
<event>
 7    1  0.1184848E-011  0.5930188E+02  0.7816164E-02  0.1266605E+00
        -11   -1    0    0    0    0  0.00000000000E+00  0.00000000000E+00  0.45593999997E+02  0.45594000000E+02  0.51100000000E-03 0. -1.
         11   -1    0    0    0    0 -0.00000000000E+00 -0.00000000000E+00 -0.45593999997E+02  0.45594000000E+02  0.51100000000E-03 0.  1.
    9900012    2    1    2    0    0  0.35209313635E+00  0.35154197597E+01  0.31689781973E+02  0.59301883473E+02  0.49999889563E+02 0.  0.
        -12    1    1    2    0    0 -0.35209313635E+00 -0.35154197597E+01 -0.31689781973E+02  0.31886116527E+02  0.00000000000E+00 0.  1.
         11    1    3    3    0    0 -0.90139106660E+01 -0.46338788033E+00  0.53360822550E+01  0.10485184210E+02  0.51100000000E-03 0. -1.
        -11    1    3    3    0    0  0.16390393495E+01 -0.45757384034E+01 -0.97624417482E+01  0.10905461984E+02  0.51100000000E-03 0.  1.
         12    1    3    3    0    0  0.77269644529E+01  0.85545460434E+01  0.36116141466E+02  0.37911237280E+02  0.00000000000E+00 0. -1.
</event>
<event>
 7    1  0.1184848E-011  0.5930190E+02  0.7816164E-02  0.1266605E+00
        -11   -1    0    0    0    0  0.00000000000E+00  0.00000000000E+00  0.45593999997E+02  0.45594000000E+02  0.51100000000E-03 0. -1.
         11   -1    0    0    0    0 -0.00000000000E+00 -0.00000000000E+00 -0.45593999997E+02  0.45594000000E+02  0.51100000000E-03 0.  1.
    9900012    2    1    2    0    0 -0.13072674385E+02 -0.18909474145E+02  0.22096607629E+02  0.59301904335E+02  0.49999927611E+02 0.  0.
        -12    1    1    2    0    0  0.13072674385E+02  0.18909474145E+02 -0.22096607629E+02  0.31886095665E+02  0.00000000000E+00 0.  1.
         11    1    3    3    0    0 -0.24902648627E+00 -0.12607130215E+02  0.80074014299E+01  0.14937209390E+02  0.51100000000E-03 0. -1.
        -11    1    3    3    0    0  0.13734671723E+02 -0.71327834305E+01  0.45215840966E+01  0.16123353553E+02  0.51100000000E-03 0.  1.
        -12    1    3    3    0    0 -0.26558319622E+02  0.83043950087E+00  0.95676221028E+01  0.28241341392E+02  0.00000000000E+00 0.  1.
</event>
<event>
 7    1  0.1184848E-011  0.5930194E+02  0.7816164E-02  0.1266605E+00
        -11   -1    0    0    0    0  0.00000000000E+00  0.00000000000E+00  0.45593999997E+02  0.45594000000E+02  0.51100000000E-03 0.  1.
         11   -1    0    0    0    0 -0.00000000000E+00 -0.00000000000E+00 -0.45593999997E+02  0.45594000000E+02  0.51100000000E-03 0. -1.
    9900012    2    1    2    0    0 -0.81560252774E+01  0.18209187771E+02 -0.24872179422E+02  0.59301943850E+02  0.49999999676E+02 0.  0.
        -12    1    1    2    0    0  0.81560252774E+01 -0.18209187771E+02  0.24872179422E+02  0.31886056150E+02  0.00000000000E+00 0.  1.
         11    1    3    3    0    0 -0.41893105343E+01 -0.34720515007E+01 -0.19233860027E+02  0.19988667694E+02  0.51100000000E-03 0. -1.
        -11    1    3    3    0    0 -0.32976082181E+01 -0.11178469933E+01  0.10702705495E+02  0.11254852599E+02  0.51100000000E-03 0.  1.
         12    1    3    3    0    0 -0.66910652499E+00  0.22799086265E+02 -0.16341024890E+02  0.28058423557E+02  0.00000000000E+00 0. -1.
</event>
<event>
 7    1  0.1184848E-011  0.5930194E+02  0.7816164E-02  0.1266605E+00
        -11   -1    0    0    0    0  0.00000000000E+00  0.00000000000E+00  0.45593999997E+02  0.45594000000E+02  0.51100000000E-03 0.  1.
         11   -1    0    0    0    0 -0.00000000000E+00 -0.00000000000E+00 -0.45593999997E+02  0.45594000000E+02  0.51100000000E-03 0. -1.
    9900012    2    1    2    0    0  0.18037060782E+02  0.43952814482E+01 -0.25924249250E+02  0.59301940980E+02  0.49999994441E+02 0.  0.
        -12    1    1    2    0    0 -0.18037060782E+02 -0.43952814482E+01  0.25924249250E+02  0.31886059020E+02  0.00000000000E+00 0.  1.
         11    1    3    3    0    0 -0.57908054065E+01 -0.55972997403E+01 -0.59704048662E+01  0.10025414015E+02  0.51100000000E-03 0.  1.
        -11    1    3    3    0    0  0.24234208432E+02 -0.60358361580E+01 -0.17755331319E+01  0.25037585638E+02  0.51100000000E-03 0. -1.
         12    1    3    3    0    0 -0.40634224321E+00  0.16028417346E+02 -0.18178311252E+02  0.24238941327E+02  0.00000000000E+00 0. -1.
</event>
<event>
 7    1  0.1184848E-011  0.5930190E+02  0.7816164E-02  0.1266605E+00
        -11   -1    0    0    0    0  0.00000000000E+00  0.00000000000E+00  0.45593999997E+02  0.45594000000E+02  0.51100000000E-03 0.  1.
         11   -1    0    0    0    0 -0.00000000000E+00 -0.00000000000E+00 -0.45593999997E+02  0.45594000000E+02  0.51100000000E-03 0. -1.
    9900012    2    1    2    0    0 -0.14193320616E+02  0.43109685437E+01 -0.28225669050E+02  0.59301902823E+02  0.49999924852E+02 0.  0.
        -12    1    1    2    0    0  0.14193320616E+02 -0.43109685437E+01  0.28225669050E+02  0.31886097177E+02  0.00000000000E+00 0.  1.
         11    1    3    3    0    0 -0.96398731323E+01 -0.33117384009E+00 -0.89359693869E+00  0.96868646047E+01  0.51100000000E-03 0. -1.
        -11    1    3    3    0    0  0.89797855220E+01 -0.12920730350E+02 -0.18592025125E+01  0.15844193102E+02  0.51100000000E-03 0.  1.
        -12    1    3    3    0    0 -0.13533233006E+02  0.17562872734E+02 -0.25472869599E+02  0.33770845116E+02  0.00000000000E+00 0.  1.
</event>
<event>
 7    1  0.1184848E-011  0.5930195E+02  0.7816164E-02  0.1266605E+00
        -11   -1    0    0    0    0  0.00000000000E+00  0.00000000000E+00  0.45593999997E+02  0.45594000000E+02  0.51100000000E-03 0. -1.
         11   -1    0    0    0    0 -0.00000000000E+00 -0.00000000000E+00 -0.45593999997E+02  0.45594000000E+02  0.51100000000E-03 0.  1.
    9900012    2    1    2    0    0 -0.30864692587E+02  0.54885844402E+01 -0.58280694483E+01  0.59301949740E+02  0.50000010418E+02 0.  0.
        -12    1    1    2    0    0  0.30864692587E+02 -0.54885844402E+01  0.58280694483E+01  0.31886050260E+02  0.00000000000E+00 0.  1.
         11    1    3    3    0    0 -0.78771703280E+01  0.14710642756E+02  0.84105935985E+01  0.18686650518E+02  0.51100000000E-03 0. -1.
        -11    1    3    3    0    0 -0.94231242413E+01  0.61684098505E+01 -0.16498753279E+02  0.19976321248E+02  0.51100000000E-03 0.  1.
        -12    1    3    3    0    0 -0.13564398018E+02 -0.15390468166E+02  0.22600902327E+01  0.20638977974E+02  0.00000000000E+00 0.  1.
</event>
<event>
 7    1  0.1184848E-011  0.5930195E+02  0.7816164E-02  0.1266605E+00
        -11   -1    0    0    0    0  0.00000000000E+00  0.00000000000E+00  0.45593999997E+02  0.45594000000E+02  0.51100000000E-03 0. -1.
         11   -1    0    0    0    0 -0.00000000000E+00 -0.00000000000E+00 -0.45593999997E+02  0.45594000000E+02  0.51100000000E-03 0.  1.
    9900012    2    1    2    0    0 -0.11278791641E+02 -0.26563879688E+02 -0.13559849954E+02  0.59301947003E+02  0.50000005426E+02 0.  0.
        -12    1    1    2    0    0  0.11278791641E+02  0.26563879688E+02  0.13559849954E+02  0.31886052997E+02  0.00000000000E+00 0.  1.
         11    1    3    3    0    0 -0.19843785201E+02 -0.16228146423E+02  0.58368602001E+00  0.25641162943E+02  0.51100000000E-03 0. -1.
        -11    1    3    3    0    0 -0.87366970871E+01 -0.98690936196E+01 -0.71325556103E+01  0.14986735290E+02  0.51100000000E-03 0.  1.
        -12    1    3    3    0    0  0.17301690647E+02 -0.46663964510E+00 -0.70109803636E+01  0.18674048770E+02  0.00000000000E+00 0.  1.
</event>
<event>
 7    1  0.1184848E-011  0.5930179E+02  0.7816164E-02  0.1266605E+00
        -11   -1    0    0    0    0  0.00000000000E+00  0.00000000000E+00  0.45593999997E+02  0.45594000000E+02  0.51100000000E-03 0.  1.
         11   -1    0    0    0    0 -0.00000000000E+00 -0.00000000000E+00 -0.45593999997E+02  0.45594000000E+02  0.51100000000E-03 0. -1.
    9900012    2    1    2    0    0  0.31332999162E+02 -0.42288915711E+01 -0.41340225422E+01  0.59301788202E+02  0.49999715811E+02 0.  0.
        -12    1    1    2    0    0 -0.31332999162E+02  0.42288915711E+01  0.41340225422E+01  0.31886211798E+02  0.00000000000E+00 0.  1.
         11    1    3    3    0    0  0.23869871051E+02 -0.66446640151E+01  0.23767178609E+01  0.24891185025E+02  0.51100000000E-03 0. -1.
        -11    1    3    3    0    0  0.98391342986E+01 -0.79444984149E+01  0.90608581317E+01  0.15557080997E+02  0.51100000000E-03 0.  1.
        -12    1    3    3    0    0 -0.23760061876E+01  0.10360270859E+02 -0.15571598535E+02  0.18853522180E+02  0.00000000000E+00 0.  1.
</event>
<event>
 7    1  0.1184848E-011  0.5930196E+02  0.7816164E-02  0.1266605E+00
        -11   -1    0    0    0    0  0.00000000000E+00  0.00000000000E+00  0.45593999997E+02  0.45594000000E+02  0.51100000000E-03 0. -1.
         11   -1    0    0    0    0 -0.00000000000E+00 -0.00000000000E+00 -0.45593999997E+02  0.45594000000E+02  0.51100000000E-03 0.  1.
    9900012    2    1    2    0    0 -0.29201493821E+02 -0.12543616107E+02  0.25787159541E+01  0.59301963520E+02  0.50000035549E+02 0.  0.
        -12    1    1    2    0    0  0.29201493821E+02  0.12543616107E+02 -0.25787159541E+01  0.31886036480E+02  0.00000000000E+00 0.  1.
         11    1    3    3    0    0 -0.24482250300E+02 -0.20823163018E+02  0.56565497490E+01  0.32634050517E+02  0.51100000000E-03 0. -1.
        -11    1    3    3    0    0 -0.21808424504E+00 -0.55238328409E+01 -0.93422884473E+01  0.10855350924E+02  0.51100000000E-03 0.  1.
         12    1    3    3    0    0 -0.45011592766E+01  0.13803379752E+02  0.62644546525E+01  0.15812562079E+02  0.00000000000E+00 0. -1.
</event>
<event>
 7    1  0.1184848E-011  0.5930184E+02  0.7816164E-02  0.1266605E+00
        -11   -1    0    0    0    0  0.00000000000E+00  0.00000000000E+00  0.45593999997E+02  0.45594000000E+02  0.51100000000E-03 0. -1.
         11   -1    0    0    0    0 -0.00000000000E+00 -0.00000000000E+00 -0.45593999997E+02  0.45594000000E+02  0.51100000000E-03 0.  1.
    9900012    2    1    2    0    0 -0.20223163706E+02 -0.23847013086E+02 -0.62506474954E+01  0.59301843482E+02  0.49999816628E+02 0.  0.
        -12    1    1    2    0    0  0.20223163706E+02  0.23847013086E+02  0.62506474954E+01  0.31886156518E+02  0.00000000000E+00 0.  1.
         11    1    3    3    0    0  0.72458902038E+01 -0.13957456048E+01 -0.31139751294E+01  0.80092366681E+01  0.51100000000E-03 0. -1.
        -11    1    3    3    0    0  0.19710966917E+00  0.60796897569E+01  0.79715431452E+01  0.10027311710E+02  0.51100000000E-03 0.  1.
         12    1    3    3    0    0 -0.27666163579E+02 -0.28530957238E+02 -0.11108215511E+02  0.41265295103E+02  0.00000000000E+00 0. -1.
</event>
<event>
 7    1  0.1184848E-011  0.5930196E+02  0.7816164E-02  0.1266605E+00
        -11   -1    0    0    0    0  0.00000000000E+00  0.00000000000E+00  0.45593999997E+02  0.45594000000E+02  0.51100000000E-03 0. -1.
         11   -1    0    0    0    0 -0.00000000000E+00 -0.00000000000E+00 -0.45593999997E+02  0.45594000000E+02  0.51100000000E-03 0.  1.
    9900012    2    1    2    0    0 -0.99659872253E+01  0.29944708725E+02 -0.45511720737E+01  0.59301958395E+02  0.50000026202E+02 0.  0.
        -12    1    1    2    0    0  0.99659872253E+01 -0.29944708725E+02  0.45511720737E+01  0.31886041605E+02  0.00000000000E+00 0.  1.
         11    1    3    3    0    0 -0.36800385830E+01  0.89919385351E+01 -0.40291257533E+01  0.10518150845E+02  0.51100000000E-03 0. -1.
        -11    1    3    3    0    0 -0.12329314842E+02 -0.63873837319E+01 -0.12163821153E+02  0.18459935556E+02  0.51100000000E-03 0.  1.
         12    1    3    3    0    0  0.60433662001E+01  0.27340153922E+02  0.11641774833E+02  0.30323871995E+02  0.00000000000E+00 0. -1.
</event>
<event>
 7    1  0.1184848E-011  0.5930193E+02  0.7816164E-02  0.1266605E+00
        -11   -1    0    0    0    0  0.00000000000E+00  0.00000000000E+00  0.45593999997E+02  0.45594000000E+02  0.51100000000E-03 0.  1.
         11   -1    0    0    0    0 -0.00000000000E+00 -0.00000000000E+00 -0.45593999997E+02  0.45594000000E+02  0.51100000000E-03 0. -1.
    9900012    2    1    2    0    0 -0.46817955753E+01 -0.30490227782E+02 -0.80714406309E+01  0.59301931665E+02  0.49999977453E+02 0.  0.
        -12    1    1    2    0    0  0.46817955753E+01  0.30490227782E+02  0.80714406309E+01  0.31886068335E+02  0.00000000000E+00 0.  1.
         11    1    3    3    0    0  0.38796843119E+01 -0.17138584747E+02 -0.12422066719E+02  0.21519544124E+02  0.51100000000E-03 0. -1.
        -11    1    3    3    0    0  0.46724800977E+01  0.63114197844E+01 -0.78682111693E+01  0.11116421961E+02  0.51100000000E-03 0.  1.
         12    1    3    3    0    0 -0.13233959985E+02 -0.19663062820E+02  0.12218837257E+02  0.26665965579E+02  0.00000000000E+00 0. -1.
</event>
<event>
 7    1  0.1184848E-011  0.5930194E+02  0.7816164E-02  0.1266605E+00
        -11   -1    0    0    0    0  0.00000000000E+00  0.00000000000E+00  0.45593999997E+02  0.45594000000E+02  0.51100000000E-03 0.  1.
         11   -1    0    0    0    0 -0.00000000000E+00 -0.00000000000E+00 -0.45593999997E+02  0.45594000000E+02  0.51100000000E-03 0. -1.
    9900012    2    1    2    0    0  0.83548404940E+01 -0.26867549328E+02 -0.15001735080E+02  0.59301943142E+02  0.49999998384E+02 0.  0.
        -12    1    1    2    0    0 -0.83548404940E+01  0.26867549328E+02  0.15001735080E+02  0.31886056858E+02  0.00000000000E+00 0.  1.
         11    1    3    3    0    0 -0.96905577566E+00  0.28948235486E+01  0.29466023531E+01  0.42428219574E+01  0.51100000000E-03 0. -1.
        -11    1    3    3    0    0  0.20894101076E+02 -0.15990704557E+02  0.40743092036E+01  0.26624539203E+02  0.51100000000E-03 0.  1.
         12    1    3    3    0    0 -0.11570204806E+02 -0.13771668319E+02 -0.22022646637E+02  0.28434581981E+02  0.00000000000E+00 0. -1.
</event>
<event>
 7    1  0.1184848E-011  0.5930194E+02  0.7816164E-02  0.1266605E+00
        -11   -1    0    0    0    0  0.00000000000E+00  0.00000000000E+00  0.45593999997E+02  0.45594000000E+02  0.51100000000E-03 0.  1.
         11   -1    0    0    0    0 -0.00000000000E+00 -0.00000000000E+00 -0.45593999997E+02  0.45594000000E+02  0.51100000000E-03 0. -1.
    9900012    2    1    2    0    0  0.21632507860E+02 -0.11854836455E+02 -0.20204408064E+02  0.59301942719E+02  0.49999997613E+02 0.  0.
        -12    1    1    2    0    0 -0.21632507860E+02  0.11854836455E+02  0.20204408064E+02  0.31886057281E+02  0.00000000000E+00 0.  1.
         11    1    3    3    0    0  0.37356467262E+01 -0.61586581404E+01 -0.34219568730E+02  0.34969458258E+02  0.51100000000E-03 0. -1.
        -11    1    3    3    0    0  0.35241164035E+01 -0.45831277812E+00 -0.46501207784E-01  0.35540975861E+01  0.51100000000E-03 0.  1.
        -12    1    3    3    0    0  0.14372744731E+02 -0.52378655366E+01  0.14061661874E+02  0.20778386875E+02  0.00000000000E+00 0.  1.
</event>
<event>
 7    1  0.1184848E-011  0.5930199E+02  0.7816164E-02  0.1266605E+00
        -11   -1    0    0    0    0  0.00000000000E+00  0.00000000000E+00  0.45593999997E+02  0.45594000000E+02  0.51100000000E-03 0.  1.
         11   -1    0    0    0    0 -0.00000000000E+00 -0.00000000000E+00 -0.45593999997E+02  0.45594000000E+02  0.51100000000E-03 0. -1.
    9900012    2    1    2    0    0 -0.19490512340E+02 -0.25165935620E+02  0.18743633491E+01  0.59301990139E+02  0.50000084095E+02 0.  0.
        -12    1    1    2    0    0  0.19490512340E+02  0.25165935620E+02 -0.18743633491E+01  0.31886009861E+02  0.00000000000E+00 0.  1.
         11    1    3    3    0    0 -0.10540377701E+02 -0.23931401965E+02 -0.17560300203E+01  0.26208685655E+02  0.51100000000E-03 0. -1.
        -11    1    3    3    0    0 -0.55795735523E+01 -0.10423883776E+02  0.14339381941E+02  0.18585124931E+02  0.51100000000E-03 0.  1.
         12    1    3    3    0    0 -0.33705610866E+01  0.91893501208E+01 -0.10708988572E+02  0.14508179552E+02  0.00000000000E+00 0. -1.
</event>
<event>
 7    1  0.1184848E-011  0.5930180E+02  0.7816164E-02  0.1266605E+00
        -11   -1    0    0    0    0  0.00000000000E+00  0.00000000000E+00  0.45593999997E+02  0.45594000000E+02  0.51100000000E-03 0.  1.
         11   -1    0    0    0    0 -0.00000000000E+00 -0.00000000000E+00 -0.45593999997E+02  0.45594000000E+02  0.51100000000E-03 0. -1.
    9900012    2    1    2    0    0  0.25472947783E+02 -0.11261626265E+02 -0.15525292764E+02  0.59301795925E+02  0.49999729895E+02 0.  0.
        -12    1    1    2    0    0 -0.25472947783E+02  0.11261626265E+02  0.15525292764E+02  0.31886204075E+02  0.00000000000E+00 0.  1.
         11    1    3    3    0    0  0.67207304046E+01 -0.41094547110E+01 -0.74033763016E+01  0.10810449395E+02  0.51100000000E-03 0. -1.
        -11    1    3    3    0    0 -0.14214974184E+02 -0.16064619570E+01 -0.12325604638E+01  0.14358461499E+02  0.51100000000E-03 0.  1.
         12    1    3    3    0    0  0.32967191562E+02 -0.55457095970E+01 -0.68893559991E+01  0.34132885031E+02  0.00000000000E+00 0. -1.
</event>
<event>
 7    1  0.1184848E-011  0.5930194E+02  0.7816164E-02  0.1266605E+00
        -11   -1    0    0    0    0  0.00000000000E+00  0.00000000000E+00  0.45593999997E+02  0.45594000000E+02  0.51100000000E-03 0.  1.
         11   -1    0    0    0    0 -0.00000000000E+00 -0.00000000000E+00 -0.45593999997E+02  0.45594000000E+02  0.51100000000E-03 0. -1.
    9900012    2    1    2    0    0 -0.19561268702E+02 -0.17607653143E+02 -0.18001330525E+02  0.59301943751E+02  0.49999999496E+02 0.  0.
        -12    1    1    2    0    0  0.19561268702E+02  0.17607653143E+02  0.18001330525E+02  0.31886056249E+02  0.00000000000E+00 0.  1.
         11    1    3    3    0    0  0.40660780276E+01  0.24174024555E+01 -0.13333145667E+02  0.14147423751E+02  0.51100000000E-03 0. -1.
        -11    1    3    3    0    0  0.65013236399E+01 -0.91805518046E+01 -0.66575895246E+01  0.13071849106E+02  0.51100000000E-03 0.  1.
        -12    1    3    3    0    0 -0.30128670369E+02 -0.10844503794E+02  0.19894046663E+01  0.32082670894E+02  0.00000000000E+00 0.  1.
</event>
<event>
 7    1  0.1184848E-011  0.5930215E+02  0.7816164E-02  0.1266604E+00
        -11   -1    0    0    0    0  0.00000000000E+00  0.00000000000E+00  0.45593999997E+02  0.45594000000E+02  0.51100000000E-03 0.  1.
         11   -1    0    0    0    0 -0.00000000000E+00 -0.00000000000E+00 -0.45593999997E+02  0.45594000000E+02  0.51100000000E-03 0. -1.
    9900012    2    1    2    0    0 -0.15057309435E+01  0.12005450113E+02 -0.29501006137E+02  0.59302150142E+02  0.50000375901E+02 0.  0.
        -12    1    1    2    0    0  0.15057309435E+01 -0.12005450113E+02  0.29501006137E+02  0.31885849858E+02  0.00000000000E+00 0.  1.
         11    1    3    3    0    0  0.12490566966E+02  0.24228147887E+01 -0.27263636011E+02  0.30086378038E+02  0.51100000000E-03 0. -1.
        -11    1    3    3    0    0  0.38047511663E+01 -0.48293368111E+01 -0.13516814147E+01  0.62948922454E+01  0.51100000000E-03 0.  1.
        -12    1    3    3    0    0 -0.17801049075E+02  0.14411972135E+02 -0.88568871106E+00  0.22920879859E+02  0.00000000000E+00 0.  1.
</event>
<event>
 7    1  0.1184848E-011  0.5930194E+02  0.7816164E-02  0.1266605E+00
        -11   -1    0    0    0    0  0.00000000000E+00  0.00000000000E+00  0.45593999997E+02  0.45594000000E+02  0.51100000000E-03 0.  1.
         11   -1    0    0    0    0 -0.00000000000E+00 -0.00000000000E+00 -0.45593999997E+02  0.45594000000E+02  0.51100000000E-03 0. -1.
    9900012    2    1    2    0    0 -0.14822481638E+02 -0.85498062184E+01 -0.26905678365E+02  0.59301942286E+02  0.49999996823E+02 0.  0.
        -12    1    1    2    0    0  0.14822481638E+02  0.85498062184E+01  0.26905678365E+02  0.31886057714E+02  0.00000000000E+00 0.  1.
         11    1    3    3    0    0 -0.15413449674E+02 -0.68599017124E+01 -0.16537223685E+02  0.23624403693E+02  0.51100000000E-03 0. -1.
        -11    1    3    3    0    0 -0.45481170022E+01 -0.14560594442E+02  0.39428765521E+01  0.15755714980E+02  0.51100000000E-03 0.  1.
         12    1    3    3    0    0  0.51390850379E+01  0.12870689936E+02 -0.14311331231E+02  0.19921823613E+02  0.00000000000E+00 0. -1.
</event>
<event>
 7    1  0.1184848E-011  0.5930193E+02  0.7816164E-02  0.1266605E+00
        -11   -1    0    0    0    0  0.00000000000E+00  0.00000000000E+00  0.45593999997E+02  0.45594000000E+02  0.51100000000E-03 0. -1.
         11   -1    0    0    0    0 -0.00000000000E+00 -0.00000000000E+00 -0.45593999997E+02  0.45594000000E+02  0.51100000000E-03 0.  1.
    9900012    2    1    2    0    0 -0.21119864829E+02 -0.19911911363E+02  0.13198044582E+02  0.59301932740E+02  0.49999979413E+02 0.  0.
        -12    1    1    2    0    0  0.21119864829E+02  0.19911911363E+02 -0.13198044582E+02  0.31886067260E+02  0.00000000000E+00 0.  1.
         11    1    3    3    0    0 -0.19755533935E+02 -0.22794965263E+02 -0.49581600136E+00  0.30168483491E+02  0.51100000000E-03 0. -1.
        -11    1    3    3    0    0 -0.10626353432E+01 -0.20493961579E+01 -0.72530290899E+01  0.76115471308E+01  0.51100000000E-03 0.  1.
         12    1    3    3    0    0 -0.30169555136E+00  0.49324500573E+01  0.20946889673E+02  0.21521902118E+02  0.00000000000E+00 0. -1.
</event>
<event>
 7    1  0.1184848E-011  0.5930191E+02  0.7816164E-02  0.1266605E+00
        -11   -1    0    0    0    0  0.00000000000E+00  0.00000000000E+00  0.45593999997E+02  0.45594000000E+02  0.51100000000E-03 0. -1.
         11   -1    0    0    0    0 -0.00000000000E+00 -0.00000000000E+00 -0.45593999997E+02  0.45594000000E+02  0.51100000000E-03 0.  1.
    9900012    2    1    2    0    0  0.12797397838E+02 -0.28892899475E+02 -0.42602106850E+01  0.59301914844E+02  0.49999946776E+02 0.  0.
        -12    1    1    2    0    0 -0.12797397838E+02  0.28892899475E+02  0.42602106850E+01  0.31886085156E+02  0.00000000000E+00 0.  1.
         11    1    3    3    0    0  0.13349250265E+02 -0.33607185559E+01  0.12926804116E+01  0.13826349293E+02  0.51100000000E-03 0. -1.
        -11    1    3    3    0    0  0.69387175487E+01 -0.22319953461E+02  0.11888877515E+02  0.26223491998E+02  0.51100000000E-03 0.  1.
        -12    1    3    3    0    0 -0.74905699758E+01 -0.32122274578E+01 -0.17441768612E+02  0.19252073553E+02  0.00000000000E+00 0.  1.
</event>
<event>
 7    1  0.1184848E-011  0.5930186E+02  0.7816164E-02  0.1266605E+00
        -11   -1    0    0    0    0  0.00000000000E+00  0.00000000000E+00  0.45593999997E+02  0.45594000000E+02  0.51100000000E-03 0. -1.
         11   -1    0    0    0    0 -0.00000000000E+00 -0.00000000000E+00 -0.45593999997E+02  0.45594000000E+02  0.51100000000E-03 0.  1.
    9900012    2    1    2    0    0 -0.72525874534E+01  0.20439273826E+02  0.23374391992E+02  0.59301856610E+02  0.49999840570E+02 0.  0.
        -12    1    1    2    0    0  0.72525874534E+01 -0.20439273826E+02 -0.23374391992E+02  0.31886143390E+02  0.00000000000E+00 0.  1.
         11    1    3    3    0    0 -0.53687592761E+01  0.10565736340E+02  0.28327808029E+02  0.30707052424E+02  0.51100000000E-03 0. -1.
        -11    1    3    3    0    0  0.50200970768E+01  0.14538749786E+02  0.44685156671E+01  0.16016998862E+02  0.51100000000E-03 0.  1.
        -12    1    3    3    0    0 -0.69039252542E+01 -0.46652123001E+01 -0.94219317047E+01  0.12577805324E+02  0.00000000000E+00 0.  1.
</event>
<event>
 7    1  0.1184848E-011  0.5930192E+02  0.7816164E-02  0.1266605E+00
        -11   -1    0    0    0    0  0.00000000000E+00  0.00000000000E+00  0.45593999997E+02  0.45594000000E+02  0.51100000000E-03 0. -1.
         11   -1    0    0    0    0 -0.00000000000E+00 -0.00000000000E+00 -0.45593999997E+02  0.45594000000E+02  0.51100000000E-03 0.  1.
    9900012    2    1    2    0    0 -0.15830747854E+02  0.27601108636E+02 -0.20708516886E+01  0.59301918361E+02  0.49999953190E+02 0.  0.
        -12    1    1    2    0    0  0.15830747854E+02 -0.27601108636E+02  0.20708516886E+01  0.31886081639E+02  0.00000000000E+00 0.  1.
         11    1    3    3    0    0  0.84555242291E+01  0.66073797258E+01 -0.33379291431E+01  0.11238110520E+02  0.51100000000E-03 0. -1.
        -11    1    3    3    0    0  0.83448262356E+01  0.67992906644E+01 -0.51046067180E+01  0.11913164502E+02  0.51100000000E-03 0.  1.
         12    1    3    3    0    0 -0.32631098319E+02  0.14194438246E+02  0.63716841726E+01  0.36150643339E+02  0.00000000000E+00 0. -1.
</event>
<event>
 7    1  0.1184848E-011  0.5930195E+02  0.7816164E-02  0.1266605E+00
        -11   -1    0    0    0    0  0.00000000000E+00  0.00000000000E+00  0.45593999997E+02  0.45594000000E+02  0.51100000000E-03 0.  1.
         11   -1    0    0    0    0 -0.00000000000E+00 -0.00000000000E+00 -0.45593999997E+02  0.45594000000E+02  0.51100000000E-03 0. -1.
    9900012    2    1    2    0    0 -0.92798462770E+00  0.13163844828E+01 -0.31845349366E+02  0.59301948193E+02  0.50000007596E+02 0.  0.
        -12    1    1    2    0    0  0.92798462770E+00 -0.13163844828E+01  0.31845349366E+02  0.31886051807E+02  0.00000000000E+00 0.  1.
         11    1    3    3    0    0  0.10872491128E+02 -0.11890288162E+01 -0.22784233577E+02  0.25273427801E+02  0.51100000000E-03 0. -1.
        -11    1    3    3    0    0 -0.47843543119E+01  0.49480401810E+01 -0.19804617018E+02  0.20966544858E+02  0.51100000000E-03 0.  1.
        -12    1    3    3    0    0 -0.70161214434E+01 -0.24426268819E+01  0.10743501229E+02  0.13061975534E+02  0.00000000000E+00 0.  1.
</event>
<event>
 7    1  0.1184848E-011  0.5930178E+02  0.7816164E-02  0.1266605E+00
        -11   -1    0    0    0    0  0.00000000000E+00  0.00000000000E+00  0.45593999997E+02  0.45594000000E+02  0.51100000000E-03 0.  1.
         11   -1    0    0    0    0 -0.00000000000E+00 -0.00000000000E+00 -0.45593999997E+02  0.45594000000E+02  0.51100000000E-03 0. -1.
    9900012    2    1    2    0    0  0.15105750314E+02  0.48696144184E+01 -0.27655635440E+02  0.59301780269E+02  0.49999701342E+02 0.  0.
        -12    1    1    2    0    0 -0.15105750314E+02 -0.48696144184E+01  0.27655635440E+02  0.31886219731E+02  0.00000000000E+00 0.  1.
         11    1    3    3    0    0 -0.96715131231E+01 -0.40888444972E+01 -0.28323231816E+02  0.30206990518E+02  0.51100000000E-03 0. -1.
        -11    1    3    3    0    0  0.28378215204E+01  0.29655935365E+01 -0.41608198605E+01  0.58446897418E+01  0.51100000000E-03 0.  1.
        -12    1    3    3    0    0  0.21939441917E+02  0.59928653791E+01  0.48284162361E+01  0.23250100009E+02  0.00000000000E+00 0.  1.
</event>
<event>
 7    1  0.1184848E-011  0.5930193E+02  0.7816164E-02  0.1266605E+00
        -11   -1    0    0    0    0  0.00000000000E+00  0.00000000000E+00  0.45593999997E+02  0.45594000000E+02  0.51100000000E-03 0. -1.
         11   -1    0    0    0    0 -0.00000000000E+00 -0.00000000000E+00 -0.45593999997E+02  0.45594000000E+02  0.51100000000E-03 0.  1.
    9900012    2    1    2    0    0  0.23234067123E+02 -0.19588097487E+02  0.96543419515E+01  0.59301925347E+02  0.49999965932E+02 0.  0.
        -12    1    1    2    0    0 -0.23234067123E+02  0.19588097487E+02 -0.96543419515E+01  0.31886074653E+02  0.00000000000E+00 0.  1.
         11    1    3    3    0    0  0.23431215961E+02 -0.20694807242E+02  0.74328441940E+00  0.31270583624E+02  0.51100000000E-03 0. -1.
        -11    1    3    3    0    0  0.76657858069E+01 -0.68513928128E+01  0.12589940962E+02  0.16254613782E+02  0.51100000000E-03 0.  1.
         12    1    3    3    0    0 -0.78629346452E+01  0.79581025674E+01 -0.36788834304E+01  0.11776727941E+02  0.00000000000E+00 0. -1.
</event>
<event>
 7    1  0.1184848E-011  0.5930196E+02  0.7816164E-02  0.1266605E+00
        -11   -1    0    0    0    0  0.00000000000E+00  0.00000000000E+00  0.45593999997E+02  0.45594000000E+02  0.51100000000E-03 0. -1.
         11   -1    0    0    0    0 -0.00000000000E+00 -0.00000000000E+00 -0.45593999997E+02  0.45594000000E+02  0.51100000000E-03 0.  1.
    9900012    2    1    2    0    0  0.22258608089E+02 -0.21162616876E+02  0.85684202888E+01  0.59301955822E+02  0.50000021509E+02 0.  0.
        -12    1    1    2    0    0 -0.22258608089E+02  0.21162616876E+02 -0.85684202888E+01  0.31886044178E+02  0.00000000000E+00 0.  1.
         11    1    3    3    0    0  0.24910120436E+01 -0.10043982211E+02  0.72860937522E+01  0.12655982067E+02  0.51100000000E-03 0. -1.
        -11    1    3    3    0    0  0.22994712568E+02 -0.22707247771E+02 -0.55825808041E+01  0.32795443527E+02  0.51100000000E-03 0.  1.
        -12    1    3    3    0    0 -0.32271165229E+01  0.11588613106E+02  0.68649073408E+01  0.13850530227E+02  0.00000000000E+00 0.  1.
</event>
<event>
 7    1  0.1184848E-011  0.5930193E+02  0.7816164E-02  0.1266605E+00
        -11   -1    0    0    0    0  0.00000000000E+00  0.00000000000E+00  0.45593999997E+02  0.45594000000E+02  0.51100000000E-03 0.  1.
         11   -1    0    0    0    0 -0.00000000000E+00 -0.00000000000E+00 -0.45593999997E+02  0.45594000000E+02  0.51100000000E-03 0. -1.
    9900012    2    1    2    0    0 -0.19204218548E+02  0.14427710452E+01 -0.25413334124E+02  0.59301934868E+02  0.49999983294E+02 0.  0.
        -12    1    1    2    0    0  0.19204218548E+02 -0.14427710452E+01  0.25413334124E+02  0.31886065132E+02  0.00000000000E+00 0.  1.
         11    1    3    3    0    0 -0.17198484108E+02 -0.13752918809E+02 -0.15931279107E+02  0.27179703560E+02  0.51100000000E-03 0. -1.
        -11    1    3    3    0    0 -0.18680712051E+00 -0.54277991078E+01  0.45719548540E+01  0.70992021737E+01  0.51100000000E-03 0.  1.
         12    1    3    3    0    0 -0.18189273191E+01  0.20623488962E+02 -0.14054009871E+02  0.25023029134E+02  0.00000000000E+00 0. -1.
</event>
<event>
 7    1  0.1184848E-011  0.5930193E+02  0.7816164E-02  0.1266605E+00
        -11   -1    0    0    0    0  0.00000000000E+00  0.00000000000E+00  0.45593999997E+02  0.45594000000E+02  0.51100000000E-03 0.  1.
         11   -1    0    0    0    0 -0.00000000000E+00 -0.00000000000E+00 -0.45593999997E+02  0.45594000000E+02  0.51100000000E-03 0. -1.
    9900012    2    1    2    0    0 -0.16912856553E+02 -0.10069848061E+01 -0.27012271811E+02  0.59301928377E+02  0.49999971457E+02 0.  0.
        -12    1    1    2    0    0  0.16912856553E+02  0.10069848061E+01  0.27012271811E+02  0.31886071623E+02  0.00000000000E+00 0.  1.
         11    1    3    3    0    0  0.30737385837E+01  0.17740234855E+01  0.83382111611E+01  0.90620524075E+01  0.51100000000E-03 0. -1.
        -11    1    3    3    0    0 -0.28022402028E+00  0.85735152544E+01 -0.45900132056E+00  0.85903650558E+01  0.51100000000E-03 0.  1.
         12    1    3    3    0    0 -0.19706371116E+02 -0.11354523546E+02 -0.34891481651E+02  0.41649510914E+02  0.00000000000E+00 0. -1.
</event>
<event>
 7    1  0.1184848E-011  0.5930193E+02  0.7816164E-02  0.1266605E+00
        -11   -1    0    0    0    0  0.00000000000E+00  0.00000000000E+00  0.45593999997E+02  0.45594000000E+02  0.51100000000E-03 0. -1.
         11   -1    0    0    0    0 -0.00000000000E+00 -0.00000000000E+00 -0.45593999997E+02  0.45594000000E+02  0.51100000000E-03 0.  1.
    9900012    2    1    2    0    0  0.46677363681E+01 -0.26518912501E+02 -0.17078675047E+02  0.59301927423E+02  0.49999969717E+02 0.  0.
        -12    1    1    2    0    0 -0.46677363681E+01  0.26518912501E+02  0.17078675047E+02  0.31886072577E+02  0.00000000000E+00 0.  1.
         11    1    3    3    0    0 -0.99304566166E+01 -0.65528019274E+01 -0.38434625613E+00  0.11903818884E+02  0.51100000000E-03 0. -1.
        -11    1    3    3    0    0  0.12128781909E+01  0.98663746849E+01  0.13822338075E+01  0.10036283849E+02  0.51100000000E-03 0.  1.
         12    1    3    3    0    0  0.13385314794E+02 -0.29832485258E+02 -0.18076562599E+02  0.37361824690E+02  0.00000000000E+00 0. -1.
</event>
<event>
 7    1  0.1184848E-011  0.5930193E+02  0.7816164E-02  0.1266605E+00
        -11   -1    0    0    0    0  0.00000000000E+00  0.00000000000E+00  0.45593999997E+02  0.45594000000E+02  0.51100000000E-03 0.  1.
         11   -1    0    0    0    0 -0.00000000000E+00 -0.00000000000E+00 -0.45593999997E+02  0.45594000000E+02  0.51100000000E-03 0. -1.
    9900012    2    1    2    0    0 -0.16399605439E+02 -0.12513165213E+02 -0.24314500193E+02  0.59301932794E+02  0.49999979513E+02 0.  0.
        -12    1    1    2    0    0  0.16399605439E+02  0.12513165213E+02  0.24314500193E+02  0.31886067206E+02  0.00000000000E+00 0.  1.
         11    1    3    3    0    0 -0.16383413089E+02 -0.75167493616E+00 -0.91990061526E+01  0.18804333387E+02  0.51100000000E-03 0.  1.
        -11    1    3    3    0    0  0.33117702311E+01  0.11696721216E+02 -0.11109512838E+02  0.16468223493E+02  0.51100000000E-03 0. -1.
         12    1    3    3    0    0 -0.33279625811E+01 -0.23458211494E+02 -0.40059812025E+01  0.24029375914E+02  0.00000000000E+00 0. -1.
</event>
<event>
 7    1  0.1541748E-011  0.5930194E+02  0.7816164E-02  0.1266605E+00
        -11   -1    0    0    0    0  0.00000000000E+00  0.00000000000E+00  0.45593999997E+02  0.45594000000E+02  0.51100000000E-03 0. -1.
         11   -1    0    0    0    0 -0.00000000000E+00 -0.00000000000E+00 -0.45593999997E+02  0.45594000000E+02  0.51100000000E-03 0.  1.
    9900012    2    1    2    0    0 -0.17158260474E+02  0.85401178991E+01  0.25482961111E+02  0.59301939986E+02  0.49999992628E+02 0.  0.
        -12    1    1    2    0    0  0.17158260474E+02 -0.85401178991E+01 -0.25482961111E+02  0.31886060014E+02  0.00000000000E+00 0.  1.
         11    1    3    3    0    0  0.18915495718E+01  0.36919472548E+01  0.27810537732E+02  0.28118222624E+02  0.51100000000E-03 0. -1.
        -11    1    3    3    0    0 -0.11869560867E+02 -0.42561285567E+01  0.85902230543E+01  0.15257556746E+02  0.51100000000E-03 0.  1.
        -12    1    3    3    0    0 -0.71802491791E+01  0.91042992010E+01 -0.10917799675E+02  0.15926160616E+02  0.00000000000E+00 0.  1.
</event>
<event>
 7    1  0.1184848E-011  0.5930192E+02  0.7816164E-02  0.1266605E+00
        -11   -1    0    0    0    0  0.00000000000E+00  0.00000000000E+00  0.45593999997E+02  0.45594000000E+02  0.51100000000E-03 0.  1.
         11   -1    0    0    0    0 -0.00000000000E+00 -0.00000000000E+00 -0.45593999997E+02  0.45594000000E+02  0.51100000000E-03 0. -1.
    9900012    2    1    2    0    0  0.13925689889E+02 -0.11275077548E+01 -0.28662270719E+02  0.59301923487E+02  0.49999962539E+02 0.  0.
        -12    1    1    2    0    0 -0.13925689889E+02  0.11275077548E+01  0.28662270719E+02  0.31886076513E+02  0.00000000000E+00 0.  1.
         11    1    3    3    0    0  0.17639678709E+02 -0.17024926204E+01 -0.17744521634E+02  0.25078373040E+02  0.51100000000E-03 0. -1.
        -11    1    3    3    0    0  0.56468064303E+01 -0.11579007344E+02  0.33095190789E+01  0.13300855263E+02  0.51100000000E-03 0.  1.
         12    1    3    3    0    0 -0.93607952496E+01  0.12153992210E+02 -0.14227268164E+02  0.20922695184E+02  0.00000000000E+00 0. -1.
</event>
<event>
 7    1  0.1184848E-011  0.5930194E+02  0.7816164E-02  0.1266605E+00
        -11   -1    0    0    0    0  0.00000000000E+00  0.00000000000E+00  0.45593999997E+02  0.45594000000E+02  0.51100000000E-03 0. -1.
         11   -1    0    0    0    0 -0.00000000000E+00 -0.00000000000E+00 -0.45593999997E+02  0.45594000000E+02  0.51100000000E-03 0.  1.
    9900012    2    1    2    0    0 -0.16153610867E+02 -0.26407588677E+02 -0.76433633502E+01  0.59301938985E+02  0.49999990802E+02 0.  0.
        -12    1    1    2    0    0  0.16153610867E+02  0.26407588677E+02  0.76433633502E+01  0.31886061015E+02  0.00000000000E+00 0.  1.
         11    1    3    3    0    0  0.18419369574E+01 -0.12944859372E+02 -0.49616189552E+01  0.13984984049E+02  0.51100000000E-03 0.  1.
        -11    1    3    3    0    0  0.20971339626E+01  0.36023521812E+00 -0.16935580741E+02  0.17068732688E+02  0.51100000000E-03 0. -1.
         12    1    3    3    0    0 -0.20092681787E+02 -0.13822964523E+02  0.14253836346E+02  0.28248222248E+02  0.00000000000E+00 0. -1.
</event>
<event>
 7    1  0.1184848E-011  0.5930190E+02  0.7816164E-02  0.1266605E+00
        -11   -1    0    0    0    0  0.00000000000E+00  0.00000000000E+00  0.45593999997E+02  0.45594000000E+02  0.51100000000E-03 0. -1.
         11   -1    0    0    0    0 -0.00000000000E+00 -0.00000000000E+00 -0.45593999997E+02  0.45594000000E+02  0.51100000000E-03 0.  1.
    9900012    2    1    2    0    0  0.13147701762E+02  0.24035459473E+01  0.28949689994E+02  0.59301895731E+02  0.49999911918E+02 0.  0.
        -12    1    1    2    0    0 -0.13147701762E+02 -0.24035459473E+01 -0.28949689994E+02  0.31886104269E+02  0.00000000000E+00 0.  1.
         11    1    3    3    0    0  0.22964199361E+00 -0.83859198813E+01  0.14376788743E+02  0.16645373007E+02  0.51100000000E-03 0. -1.
        -11    1    3    3    0    0 -0.57431465803E+01 -0.89672336741E+01 -0.19863286065E+01  0.10832382656E+02  0.51100000000E-03 0.  1.
         12    1    3    3    0    0  0.18661206349E+02  0.19756699503E+02  0.16559229857E+02  0.31824140068E+02  0.00000000000E+00 0. -1.
</event>
<event>
 7    1  0.1184848E-011  0.5930193E+02  0.7816164E-02  0.1266605E+00
        -11   -1    0    0    0    0  0.00000000000E+00  0.00000000000E+00  0.45593999997E+02  0.45594000000E+02  0.51100000000E-03 0. -1.
         11   -1    0    0    0    0 -0.00000000000E+00 -0.00000000000E+00 -0.45593999997E+02  0.45594000000E+02  0.51100000000E-03 0.  1.
    9900012    2    1    2    0    0  0.55049090378E+01 -0.74309551080E+00  0.31398490893E+02  0.59301930239E+02  0.49999974852E+02 0.  0.
        -12    1    1    2    0    0 -0.55049090378E+01  0.74309551080E+00 -0.31398490893E+02  0.31886069761E+02  0.00000000000E+00 0.  1.
         11    1    3    3    0    0 -0.28137163144E+01  0.11329975117E+02  0.21774695382E+02  0.24706733796E+02  0.51100000000E-03 0. -1.
        -11    1    3    3    0    0 -0.91912684097E+01 -0.71872510699E+01  0.11421844791E+02  0.16327722793E+02  0.51100000000E-03 0.  1.
        -12    1    3    3    0    0  0.17509893762E+02 -0.48858195581E+01 -0.17980492795E+01  0.18267473649E+02  0.00000000000E+00 0.  1.
</event>
<event>
 7    1  0.1184848E-011  0.5930194E+02  0.7816164E-02  0.1266605E+00
        -11   -1    0    0    0    0  0.00000000000E+00  0.00000000000E+00  0.45593999997E+02  0.45594000000E+02  0.51100000000E-03 0. -1.
         11   -1    0    0    0    0 -0.00000000000E+00 -0.00000000000E+00 -0.45593999997E+02  0.45594000000E+02  0.51100000000E-03 0.  1.
    9900012    2    1    2    0    0 -0.24972315324E+02 -0.12161918691E+02 -0.15658601185E+02  0.59301943643E+02  0.49999999299E+02 0.  0.
        -12    1    1    2    0    0  0.24972315324E+02  0.12161918691E+02  0.15658601185E+02  0.31886056357E+02  0.00000000000E+00 0.  1.
         11    1    3    3    0    0 -0.24429362688E+02 -0.14263019988E+01 -0.21758151590E+01  0.24567504362E+02  0.51100000000E-03 0. -1.
        -11    1    3    3    0    0 -0.59512452811E+01  0.49733308802E+01 -0.16142535373E+02  0.17909014182E+02  0.51100000000E-03 0.  1.
        -12    1    3    3    0    0  0.54082926447E+01 -0.15708947573E+02  0.26597493470E+01  0.16825425099E+02  0.00000000000E+00 0.  1.
</event>
<event>
 7    1  0.1184848E-011  0.5930195E+02  0.7816164E-02  0.1266605E+00
        -11   -1    0    0    0    0  0.00000000000E+00  0.00000000000E+00  0.45593999997E+02  0.45594000000E+02  0.51100000000E-03 0.  1.
         11   -1    0    0    0    0 -0.00000000000E+00 -0.00000000000E+00 -0.45593999997E+02  0.45594000000E+02  0.51100000000E-03 0. -1.
    9900012    2    1    2    0    0 -0.24315849346E+02 -0.15009085462E+02 -0.14148755606E+02  0.59301945666E+02  0.50000002987E+02 0.  0.
        -12    1    1    2    0    0  0.24315849346E+02  0.15009085462E+02  0.14148755606E+02  0.31886054334E+02  0.00000000000E+00 0.  1.
         11    1    3    3    0    0 -0.25659553578E+02 -0.64673846378E+01 -0.11409571637E+02  0.28816975536E+02  0.51100000000E-03 0. -1.
        -11    1    3    3    0    0 -0.90950152119E+01  0.40975171411E+01 -0.85039886856E+01  0.13108271139E+02  0.51100000000E-03 0.  1.
        -12    1    3    3    0    0  0.10438719444E+02 -0.12639217965E+02  0.57648047167E+01  0.17376698991E+02  0.00000000000E+00 0.  1.
</event>
<event>
 7    1  0.1184848E-011  0.5930193E+02  0.7816164E-02  0.1266605E+00
        -11   -1    0    0    0    0  0.00000000000E+00  0.00000000000E+00  0.45593999997E+02  0.45594000000E+02  0.51100000000E-03 0. -1.
         11   -1    0    0    0    0 -0.00000000000E+00 -0.00000000000E+00 -0.45593999997E+02  0.45594000000E+02  0.51100000000E-03 0.  1.
    9900012    2    1    2    0    0 -0.19996219733E+02 -0.23401939449E+02  0.83199738824E+01  0.59301928762E+02  0.49999972159E+02 0.  0.
        -12    1    1    2    0    0  0.19996219733E+02  0.23401939449E+02 -0.83199738824E+01  0.31886071238E+02  0.00000000000E+00 0.  1.
         11    1    3    3    0    0 -0.88861438377E+01  0.10352663745E+02  0.73579601821E+01  0.15500992782E+02  0.51100000000E-03 0. -1.
        -11    1    3    3    0    0  0.74069171415E+00  0.37244796462E+01  0.23547151389E+01  0.44682274446E+01  0.51100000000E-03 0.  1.
        -12    1    3    3    0    0 -0.11850767609E+02 -0.37479082840E+02 -0.13927014385E+01  0.39332708536E+02  0.00000000000E+00 0.  1.
</event>
<event>
 7    1  0.1184848E-011  0.5930194E+02  0.7816164E-02  0.1266605E+00
        -11   -1    0    0    0    0  0.00000000000E+00  0.00000000000E+00  0.45593999997E+02  0.45594000000E+02  0.51100000000E-03 0.  1.
         11   -1    0    0    0    0 -0.00000000000E+00 -0.00000000000E+00 -0.45593999997E+02  0.45594000000E+02  0.51100000000E-03 0. -1.
    9900012    2    1    2    0    0 -0.66023039490E+01  0.16968817780E+02 -0.26176121176E+02  0.59301944833E+02  0.50000001469E+02 0.  0.
        -12    1    1    2    0    0  0.66023039490E+01 -0.16968817780E+02  0.26176121176E+02  0.31886055167E+02  0.00000000000E+00 0.  1.
         11    1    3    3    0    0  0.59171775474E+01  0.50872025044E+01  0.19469949933E+01  0.80425996552E+01  0.51100000000E-03 0. -1.
        -11    1    3    3    0    0  0.10904913587E+02  0.23019633669E+01  0.26105730351E+01  0.11446888989E+02  0.51100000000E-03 0.  1.
         12    1    3    3    0    0 -0.23424395084E+02  0.95796519090E+01 -0.30733689204E+02  0.39812456189E+02  0.00000000000E+00 0. -1.
</event>
<event>
 7    1  0.1184848E-011  0.5930194E+02  0.7816164E-02  0.1266605E+00
        -11   -1    0    0    0    0  0.00000000000E+00  0.00000000000E+00  0.45593999997E+02  0.45594000000E+02  0.51100000000E-03 0.  1.
         11   -1    0    0    0    0 -0.00000000000E+00 -0.00000000000E+00 -0.45593999997E+02  0.45594000000E+02  0.51100000000E-03 0. -1.
    9900012    2    1    2    0    0 -0.19594366724E+02 -0.24989677825E+02 -0.28805869616E+01  0.59301937428E+02  0.49999987963E+02 0.  0.
        -12    1    1    2    0    0  0.19594366724E+02  0.24989677825E+02  0.28805869616E+01  0.31886062572E+02  0.00000000000E+00 0.  1.
         11    1    3    3    0    0 -0.10396491338E+02 -0.24800479164E+02 -0.91831690577E+01  0.28416217079E+02  0.51100000000E-03 0. -1.
        -11    1    3    3    0    0 -0.15981872409E+02 -0.95546057633E+01  0.30107391344E+01  0.18862006451E+02  0.51100000000E-03 0.  1.
        -12    1    3    3    0    0  0.67839970221E+01  0.93654071022E+01  0.32918429617E+01  0.12023713897E+02  0.00000000000E+00 0.  1.
</event>
<event>
 7    1  0.1184848E-011  0.5930198E+02  0.7816164E-02  0.1266605E+00
        -11   -1    0    0    0    0  0.00000000000E+00  0.00000000000E+00  0.45593999997E+02  0.45594000000E+02  0.51100000000E-03 0.  1.
         11   -1    0    0    0    0 -0.00000000000E+00 -0.00000000000E+00 -0.45593999997E+02  0.45594000000E+02  0.51100000000E-03 0. -1.
    9900012    2    1    2    0    0  0.26581622811E+02  0.95880294889E+01 -0.14771766806E+02  0.59301983076E+02  0.50000071214E+02 0.  0.
        -12    1    1    2    0    0 -0.26581622811E+02 -0.95880294889E+01  0.14771766806E+02  0.31886016924E+02  0.00000000000E+00 0.  1.
         11    1    3    3    0    0  0.21777230935E+02  0.82636270994E+00  0.20843209360E+01  0.21892351554E+02  0.51100000000E-03 0. -1.
        -11    1    3    3    0    0  0.96190403184E+01  0.84498184843E+01  0.59360145822E+01  0.14112463940E+02  0.51100000000E-03 0.  1.
         12    1    3    3    0    0 -0.48146484427E+01  0.31184829461E+00 -0.22792102325E+02  0.23297167582E+02  0.00000000000E+00 0. -1.
</event>
<event>
 7    1  0.1184848E-011  0.5930196E+02  0.7816164E-02  0.1266605E+00
        -11   -1    0    0    0    0  0.00000000000E+00  0.00000000000E+00  0.45593999997E+02  0.45594000000E+02  0.51100000000E-03 0.  1.
         11   -1    0    0    0    0 -0.00000000000E+00 -0.00000000000E+00 -0.45593999997E+02  0.45594000000E+02  0.51100000000E-03 0. -1.
    9900012    2    1    2    0    0  0.29260299987E+02 -0.82698216119E+01 -0.96002271938E+01  0.59301961253E+02  0.50000031414E+02 0.  0.
        -12    1    1    2    0    0 -0.29260299987E+02  0.82698216119E+01  0.96002271938E+01  0.31886038747E+02  0.00000000000E+00 0.  1.
         11    1    3    3    0    0  0.43671332636E+01  0.22358985566E+01 -0.87950422697E+01  0.10070941569E+02  0.51100000000E-03 0. -1.
        -11    1    3    3    0    0  0.35251065504E+01  0.14119286261E+02  0.63073998128E+01  0.15860766481E+02  0.51100000000E-03 0.  1.
        -12    1    3    3    0    0  0.21368060173E+02 -0.24625006429E+02 -0.71125847368E+01  0.33370253203E+02  0.00000000000E+00 0.  1.
</event>
<event>
 7    1  0.1184848E-011  0.5930191E+02  0.7816164E-02  0.1266605E+00
        -11   -1    0    0    0    0  0.00000000000E+00  0.00000000000E+00  0.45593999997E+02  0.45594000000E+02  0.51100000000E-03 0.  1.
         11   -1    0    0    0    0 -0.00000000000E+00 -0.00000000000E+00 -0.45593999997E+02  0.45594000000E+02  0.51100000000E-03 0. -1.
    9900012    2    1    2    0    0 -0.21477303702E+02  0.16773387322E+02 -0.16556016478E+02  0.59301909330E+02  0.49999936720E+02 0.  0.
        -12    1    1    2    0    0  0.21477303702E+02 -0.16773387322E+02  0.16556016478E+02  0.31886090670E+02  0.00000000000E+00 0.  1.
         11    1    3    3    0    0 -0.14715574340E+02  0.21058414442E+01 -0.22482755333E+02  0.26952865970E+02  0.51100000000E-03 0. -1.
        -11    1    3    3    0    0 -0.89445355256E+01 -0.60717219037E+01  0.60858639287E+00  0.10827783721E+02  0.51100000000E-03 0.  1.
         12    1    3    3    0    0  0.21828061632E+01  0.20739267782E+02  0.53181524628E+01  0.21521259640E+02  0.00000000000E+00 0. -1.
</event>
<event>
 7    1  0.1184848E-011  0.5930193E+02  0.7816164E-02  0.1266605E+00
        -11   -1    0    0    0    0  0.00000000000E+00  0.00000000000E+00  0.45593999997E+02  0.45594000000E+02  0.51100000000E-03 0. -1.
         11   -1    0    0    0    0 -0.00000000000E+00 -0.00000000000E+00 -0.45593999997E+02  0.45594000000E+02  0.51100000000E-03 0.  1.
    9900012    2    1    2    0    0  0.48818296902E+01  0.27151801050E+02  0.15989643657E+02  0.59301933048E+02  0.49999979976E+02 0.  0.
        -12    1    1    2    0    0 -0.48818296902E+01 -0.27151801050E+02 -0.15989643657E+02  0.31886066952E+02  0.00000000000E+00 0.  1.
         11    1    3    3    0    0 -0.11122733207E+02  0.23587202015E+02  0.11369387298E+02  0.28448800690E+02  0.51100000000E-03 0. -1.
        -11    1    3    3    0    0 -0.13221315150E+01  0.65320331373E-01  0.11727010121E+02  0.11801485717E+02  0.51100000000E-03 0.  1.
        -12    1    3    3    0    0  0.17326694413E+02  0.34992787041E+01 -0.71067537621E+01  0.19051646642E+02  0.00000000000E+00 0.  1.
</event>
<event>
 7    1  0.1184848E-011  0.5930195E+02  0.7816164E-02  0.1266605E+00
        -11   -1    0    0    0    0  0.00000000000E+00  0.00000000000E+00  0.45593999997E+02  0.45594000000E+02  0.51100000000E-03 0.  1.
         11   -1    0    0    0    0 -0.00000000000E+00 -0.00000000000E+00 -0.45593999997E+02  0.45594000000E+02  0.51100000000E-03 0. -1.
    9900012    2    1    2    0    0 -0.24336542929E+02 -0.59276720370E+01 -0.19731086491E+02  0.59301946754E+02  0.50000004971E+02 0.  0.
        -12    1    1    2    0    0  0.24336542929E+02  0.59276720370E+01  0.19731086491E+02  0.31886053246E+02  0.00000000000E+00 0.  1.
         11    1    3    3    0    0 -0.48266333284E+01  0.40880534022E+01 -0.14671742218E+01  0.64931633557E+01  0.51100000000E-03 0. -1.
        -11    1    3    3    0    0 -0.31586892071E+02 -0.49368927673E+01 -0.21524173491E+01  0.32042745850E+02  0.51100000000E-03 0.  1.
         12    1    3    3    0    0  0.12076982470E+02 -0.50788326720E+01 -0.16111494920E+02  0.20766037548E+02  0.00000000000E+00 0. -1.
</event>
<event>
 7    1  0.1184848E-011  0.5930196E+02  0.7816164E-02  0.1266605E+00
        -11   -1    0    0    0    0  0.00000000000E+00  0.00000000000E+00  0.45593999997E+02  0.45594000000E+02  0.51100000000E-03 0. -1.
         11   -1    0    0    0    0 -0.00000000000E+00 -0.00000000000E+00 -0.45593999997E+02  0.45594000000E+02  0.51100000000E-03 0.  1.
    9900012    2    1    2    0    0  0.36021071474E+01  0.31681748562E+02 -0.10657063708E+00  0.59301957204E+02  0.50000024031E+02 0.  0.
        -12    1    1    2    0    0 -0.36021071474E+01 -0.31681748562E+02  0.10657063708E+00  0.31886042796E+02  0.00000000000E+00 0.  1.
         11    1    3    3    0    0 -0.67504673367E+01  0.24210834521E+01  0.84253047835E+01  0.11064186156E+02  0.51100000000E-03 0. -1.
        -11    1    3    3    0    0 -0.52049998525E+01  0.23647124325E+02 -0.17069257574E+02  0.29624956822E+02  0.51100000000E-03 0.  1.
        -12    1    3    3    0    0  0.15557574337E+02  0.56135407852E+01  0.85373821536E+01  0.18612814226E+02  0.00000000000E+00 0.  1.
</event>
<event>
 7    1  0.1184848E-011  0.5930193E+02  0.7816164E-02  0.1266605E+00
        -11   -1    0    0    0    0  0.00000000000E+00  0.00000000000E+00  0.45593999997E+02  0.45594000000E+02  0.51100000000E-03 0. -1.
         11   -1    0    0    0    0 -0.00000000000E+00 -0.00000000000E+00 -0.45593999997E+02  0.45594000000E+02  0.51100000000E-03 0.  1.
    9900012    2    1    2    0    0  0.16457619425E+02  0.49291809353E+01  0.26862082384E+02  0.59301928874E+02  0.49999972364E+02 0.  0.
        -12    1    1    2    0    0 -0.16457619425E+02 -0.49291809353E+01 -0.26862082384E+02  0.31886071126E+02  0.00000000000E+00 0.  1.
         11    1    3    3    0    0 -0.60208124935E+01  0.45860982330E+00  0.56921679228E+00  0.60650238309E+01  0.51100000000E-03 0. -1.
        -11    1    3    3    0    0  0.26582156620E+02 -0.12100590917E+02  0.15995738696E+02  0.33300135252E+02  0.51100000000E-03 0.  1.
         12    1    3    3    0    0 -0.41037247014E+01  0.16571162029E+02  0.10297126896E+02  0.19936769792E+02  0.00000000000E+00 0. -1.
</event>
<event>
 7    1  0.1184848E-011  0.5930194E+02  0.7816164E-02  0.1266605E+00
        -11   -1    0    0    0    0  0.00000000000E+00  0.00000000000E+00  0.45593999997E+02  0.45594000000E+02  0.51100000000E-03 0.  1.
         11   -1    0    0    0    0 -0.00000000000E+00 -0.00000000000E+00 -0.45593999997E+02  0.45594000000E+02  0.51100000000E-03 0. -1.
    9900012    2    1    2    0    0  0.21920342060E+02  0.13996532660E+02  0.18447671549E+02  0.59301938655E+02  0.49999990201E+02 0.  0.
        -12    1    1    2    0    0 -0.21920342060E+02 -0.13996532660E+02 -0.18447671549E+02  0.31886061345E+02  0.00000000000E+00 0.  1.
         11    1    3    3    0    0  0.80161758611E+01  0.13724925931E+02 -0.85553864318E+01  0.18050687092E+02  0.51100000000E-03 0. -1.
        -11    1    3    3    0    0 -0.39069718112E+01  0.13134310348E+01 -0.38310669894E+01  0.56273088022E+01  0.51100000000E-03 0.  1.
         12    1    3    3    0    0  0.17811138010E+02 -0.10418243056E+01  0.30834124970E+02  0.35623942760E+02  0.00000000000E+00 0. -1.
</event>
<event>
 7    1  0.1268754E-011  0.5930196E+02  0.7816164E-02  0.1266605E+00
        -11   -1    0    0    0    0  0.00000000000E+00  0.00000000000E+00  0.45593999997E+02  0.45594000000E+02  0.51100000000E-03 0.  1.
         11   -1    0    0    0    0 -0.00000000000E+00 -0.00000000000E+00 -0.45593999997E+02  0.45594000000E+02  0.51100000000E-03 0. -1.
    9900012    2    1    2    0    0 -0.16959448447E+02 -0.10960082633E+02 -0.24677382834E+02  0.59301960320E+02  0.50000029713E+02 0.  0.
        -12    1    1    2    0    0  0.16959448447E+02  0.10960082633E+02  0.24677382834E+02  0.31886039680E+02  0.00000000000E+00 0.  1.
         11    1    3    3    0    0 -0.20642578990E+02 -0.13295763723E+02 -0.23136260685E+01  0.24662649212E+02  0.51100000000E-03 0. -1.
        -11    1    3    3    0    0  0.90837784979E+00  0.45995194965E+01  0.51089861318E+01  0.69341523976E+01  0.51100000000E-03 0.  1.
         12    1    3    3    0    0  0.27747526930E+01 -0.22638384064E+01 -0.27472742897E+02  0.27705158710E+02  0.00000000000E+00 0. -1.
</event>
<event>
 7    1  0.1184848E-011  0.5930200E+02  0.7816164E-02  0.1266605E+00
        -11   -1    0    0    0    0  0.00000000000E+00  0.00000000000E+00  0.45593999997E+02  0.45594000000E+02  0.51100000000E-03 0.  1.
         11   -1    0    0    0    0 -0.00000000000E+00 -0.00000000000E+00 -0.45593999997E+02  0.45594000000E+02  0.51100000000E-03 0. -1.
    9900012    2    1    2    0    0  0.22445086774E+02 -0.49501229025E+01 -0.22100479492E+02  0.59302002590E+02  0.50000106803E+02 0.  0.
        -12    1    1    2    0    0 -0.22445086774E+02  0.49501229025E+01  0.22100479492E+02  0.31885997410E+02  0.00000000000E+00 0.  1.
         11    1    3    3    0    0  0.11267629898E+02 -0.12595980831E+02  0.88697544490E+01  0.19086402512E+02  0.51100000000E-03 0.  1.
        -11    1    3    3    0    0  0.15487164930E+02  0.44971867922E+01 -0.10942480345E+02  0.19488838933E+02  0.51100000000E-03 0. -1.
        -12    1    3    3    0    0 -0.43097080534E+01  0.31486711366E+01 -0.20027753596E+02  0.20726761144E+02  0.00000000000E+00 0.  1.
</event>
<event>
 7    1  0.1184848E-011  0.5930196E+02  0.7816164E-02  0.1266605E+00
        -11   -1    0    0    0    0  0.00000000000E+00  0.00000000000E+00  0.45593999997E+02  0.45594000000E+02  0.51100000000E-03 0. -1.
         11   -1    0    0    0    0 -0.00000000000E+00 -0.00000000000E+00 -0.45593999997E+02  0.45594000000E+02  0.51100000000E-03 0.  1.
    9900012    2    1    2    0    0 -0.18375638675E+02 -0.24874496815E+02  0.77662450059E+01  0.59301964655E+02  0.50000037620E+02 0.  0.
        -12    1    1    2    0    0  0.18375638675E+02  0.24874496815E+02 -0.77662450059E+01  0.31886035345E+02  0.00000000000E+00 0.  1.
         11    1    3    3    0    0 -0.75772987281E+00 -0.82492869385E+01 -0.29565527000E+01  0.87957997751E+01  0.51100000000E-03 0. -1.
        -11    1    3    3    0    0 -0.84830479872E+01  0.43553368816E+01 -0.13922811591E+02  0.16875299860E+02  0.51100000000E-03 0.  1.
         12    1    3    3    0    0 -0.91348608150E+01 -0.20980546758E+02  0.24645609297E+02  0.33630865020E+02  0.00000000000E+00 0. -1.
</event>
<event>
 7    1  0.1184848E-011  0.5930196E+02  0.7816164E-02  0.1266605E+00
        -11   -1    0    0    0    0  0.00000000000E+00  0.00000000000E+00  0.45593999997E+02  0.45594000000E+02  0.51100000000E-03 0.  1.
         11   -1    0    0    0    0 -0.00000000000E+00 -0.00000000000E+00 -0.45593999997E+02  0.45594000000E+02  0.51100000000E-03 0. -1.
    9900012    2    1    2    0    0 -0.29172320443E+02  0.97173862977E+01  0.84420130715E+01  0.59301961344E+02  0.50000031581E+02 0.  0.
        -12    1    1    2    0    0  0.29172320443E+02 -0.97173862977E+01 -0.84420130715E+01  0.31886038656E+02  0.00000000000E+00 0.  1.
         11    1    3    3    0    0 -0.50397242518E+01  0.79202172375E+01 -0.93499615614E+01  0.13249545014E+02  0.51100000000E-03 0. -1.
        -11    1    3    3    0    0  0.27218175240E+01 -0.83364311297E+01  0.14788213734E+02  0.17192895053E+02  0.51100000000E-03 0.  1.
         12    1    3    3    0    0 -0.26854413715E+02  0.10133600190E+02  0.30037608990E+01  0.28859521277E+02  0.00000000000E+00 0. -1.
</event>
<event>
 7    1  0.1184848E-011  0.5930192E+02  0.7816164E-02  0.1266605E+00
        -11   -1    0    0    0    0  0.00000000000E+00  0.00000000000E+00  0.45593999997E+02  0.45594000000E+02  0.51100000000E-03 0.  1.
         11   -1    0    0    0    0 -0.00000000000E+00 -0.00000000000E+00 -0.45593999997E+02  0.45594000000E+02  0.51100000000E-03 0. -1.
    9900012    2    1    2    0    0 -0.11261568370E+02  0.18729458169E+01 -0.29772321776E+02  0.59301921657E+02  0.49999959201E+02 0.  0.
        -12    1    1    2    0    0  0.11261568370E+02 -0.18729458169E+01  0.29772321776E+02  0.31886078343E+02  0.00000000000E+00 0.  1.
         11    1    3    3    0    0  0.10566996205E+02 -0.80514515756E+01 -0.59640634690E+01  0.14562188524E+02  0.51100000000E-03 0. -1.
        -11    1    3    3    0    0  0.22028092567E+01  0.65922844254E+01 -0.18695284648E+02  0.19945532104E+02  0.51100000000E-03 0.  1.
        -12    1    3    3    0    0 -0.24031373832E+02  0.33321129671E+01 -0.51129736589E+01  0.24794201030E+02  0.00000000000E+00 0.  1.
</event>
<event>
 7    1  0.1184848E-011  0.5930194E+02  0.7816164E-02  0.1266605E+00
        -11   -1    0    0    0    0  0.00000000000E+00  0.00000000000E+00  0.45593999997E+02  0.45594000000E+02  0.51100000000E-03 0. -1.
         11   -1    0    0    0    0 -0.00000000000E+00 -0.00000000000E+00 -0.45593999997E+02  0.45594000000E+02  0.51100000000E-03 0.  1.
    9900012    2    1    2    0    0 -0.31686176118E+02  0.11738467839E+01 -0.33658534840E+01  0.59301942813E+02  0.49999997785E+02 0.  0.
        -12    1    1    2    0    0  0.31686176118E+02 -0.11738467839E+01  0.33658534840E+01  0.31886057187E+02  0.00000000000E+00 0.  1.
         11    1    3    3    0    0  0.99891316083E+01  0.60145849044E+01 -0.11524202883E+02  0.16394060943E+02  0.51100000000E-03 0.  1.
        -11    1    3    3    0    0 -0.70630800901E+01 -0.56046437676E+00 -0.22666374714E-01  0.70853182499E+01  0.51100000000E-03 0. -1.
        -12    1    3    3    0    0 -0.34612227636E+02 -0.42802737438E+01  0.81810157736E+01  0.35822563620E+02  0.00000000000E+00 0.  1.
</event>
<event>
 7    1  0.1184848E-011  0.5930192E+02  0.7816164E-02  0.1266605E+00
        -11   -1    0    0    0    0  0.00000000000E+00  0.00000000000E+00  0.45593999997E+02  0.45594000000E+02  0.51100000000E-03 0.  1.
         11   -1    0    0    0    0 -0.00000000000E+00 -0.00000000000E+00 -0.45593999997E+02  0.45594000000E+02  0.51100000000E-03 0. -1.
    9900012    2    1    2    0    0  0.12254364187E+02  0.29395025549E+02  0.15764615982E+01  0.59301918399E+02  0.49999953260E+02 0.  0.
        -12    1    1    2    0    0 -0.12254364187E+02 -0.29395025549E+02 -0.15764615982E+01  0.31886081601E+02  0.00000000000E+00 0.  1.
         11    1    3    3    0    0 -0.83859798307E+01  0.28698879872E+01 -0.60010194843E+01  0.10703884804E+02  0.51100000000E-03 0.  1.
        -11    1    3    3    0    0  0.14609689591E+01  0.24628821326E+02 -0.55377194609E+01  0.25285956721E+02  0.51100000000E-03 0. -1.
        -12    1    3    3    0    0  0.19179375059E+02  0.18963162362E+01  0.13115200543E+02  0.23312076875E+02  0.00000000000E+00 0.  1.
</event>
<event>
 7    1  0.1184848E-011  0.5930216E+02  0.7816164E-02  0.1266604E+00
        -11   -1    0    0    0    0  0.00000000000E+00  0.00000000000E+00  0.45593999997E+02  0.45594000000E+02  0.51100000000E-03 0.  1.
         11   -1    0    0    0    0 -0.00000000000E+00 -0.00000000000E+00 -0.45593999997E+02  0.45594000000E+02  0.51100000000E-03 0. -1.
    9900012    2    1    2    0    0  0.15826670275E+02 -0.21760416052E+02 -0.17108694217E+02  0.59302162759E+02  0.50000398912E+02 0.  0.
        -12    1    1    2    0    0 -0.15826670275E+02  0.21760416052E+02  0.17108694217E+02  0.31885837241E+02  0.00000000000E+00 0.  1.
         11    1    3    3    0    0 -0.69296706462E+00 -0.17844104609E+02  0.12241043499E+02  0.21650298355E+02  0.51100000000E-03 0. -1.
        -11    1    3    3    0    0  0.13454177714E+02  0.47211289564E+01 -0.19968503074E+02  0.24536606771E+02  0.51100000000E-03 0.  1.
         12    1    3    3    0    0  0.30654596260E+01 -0.86374403998E+01 -0.93812346419E+01  0.13115257633E+02  0.00000000000E+00 0. -1.
</event>
<event>
 7    1  0.1184848E-011  0.5930194E+02  0.7816164E-02  0.1266605E+00
        -11   -1    0    0    0    0  0.00000000000E+00  0.00000000000E+00  0.45593999997E+02  0.45594000000E+02  0.51100000000E-03 0.  1.
         11   -1    0    0    0    0 -0.00000000000E+00 -0.00000000000E+00 -0.45593999997E+02  0.45594000000E+02  0.51100000000E-03 0. -1.
    9900012    2    1    2    0    0 -0.17468446828E+02 -0.21276610014E+01 -0.26590362122E+02  0.59301938253E+02  0.49999989469E+02 0.  0.
        -12    1    1    2    0    0  0.17468446828E+02  0.21276610014E+01  0.26590362122E+02  0.31886061747E+02  0.00000000000E+00 0.  1.
         11    1    3    3    0    0 -0.85642821664E+01 -0.13966599451E+02 -0.22305118612E+02  0.27675461077E+02  0.51100000000E-03 0. -1.
        -11    1    3    3    0    0  0.90916480740E+01  0.86785347399E+00  0.25276845395E+01  0.94763085505E+01  0.51100000000E-03 0.  1.
        -12    1    3    3    0    0 -0.17995812736E+02  0.10971084975E+02 -0.68129280495E+01  0.22150168626E+02  0.00000000000E+00 0.  1.
</event>
<event>
 7    1  0.1184848E-011  0.5930195E+02  0.7816164E-02  0.1266605E+00
        -11   -1    0    0    0    0  0.00000000000E+00  0.00000000000E+00  0.45593999997E+02  0.45594000000E+02  0.51100000000E-03 0.  1.
         11   -1    0    0    0    0 -0.00000000000E+00 -0.00000000000E+00 -0.45593999997E+02  0.45594000000E+02  0.51100000000E-03 0. -1.
    9900012    2    1    2    0    0  0.57153340536E+01 -0.16982037002E+02 -0.26375474162E+02  0.59301948797E+02  0.50000008698E+02 0.  0.
        -12    1    1    2    0    0 -0.57153340536E+01  0.16982037002E+02  0.26375474162E+02  0.31886051203E+02  0.00000000000E+00 0.  1.
         11    1    3    3    0    0 -0.64424864457E+01 -0.11177012434E+02  0.11081735021E+01  0.12948331450E+02  0.51100000000E-03 0. -1.
        -11    1    3    3    0    0  0.19835236855E+02 -0.15200201723E+02 -0.20722279807E+02  0.32463758781E+02  0.51100000000E-03 0.  1.
         12    1    3    3    0    0 -0.76774163558E+01  0.93951771560E+01 -0.67613678571E+01  0.13889858566E+02  0.00000000000E+00 0. -1.
</event>
<event>
 7    1  0.1184848E-011  0.5930194E+02  0.7816164E-02  0.1266605E+00
        -11   -1    0    0    0    0  0.00000000000E+00  0.00000000000E+00  0.45593999997E+02  0.45594000000E+02  0.51100000000E-03 0.  1.
         11   -1    0    0    0    0 -0.00000000000E+00 -0.00000000000E+00 -0.45593999997E+02  0.45594000000E+02  0.51100000000E-03 0. -1.
    9900012    2    1    2    0    0 -0.18240974879E+02 -0.26776551744E+01  0.26015725595E+02  0.59301937527E+02  0.49999988145E+02 0.  0.
        -12    1    1    2    0    0  0.18240974879E+02  0.26776551744E+01 -0.26015725595E+02  0.31886062473E+02  0.00000000000E+00 0.  1.
         11    1    3    3    0    0 -0.94876052495E+01  0.79661489823E+01  0.13311364783E+02  0.18184240859E+02  0.51100000000E-03 0. -1.
        -11    1    3    3    0    0 -0.81216582361E+01 -0.17750006612E+02  0.21992627148E+02  0.29405776922E+02  0.51100000000E-03 0.  1.
         12    1    3    3    0    0 -0.63171139344E+00  0.71062024556E+01 -0.92882663356E+01  0.11711919746E+02  0.00000000000E+00 0. -1.
</event>
<event>
 7    1  0.1184848E-011  0.5930196E+02  0.7816164E-02  0.1266605E+00
        -11   -1    0    0    0    0  0.00000000000E+00  0.00000000000E+00  0.45593999997E+02  0.45594000000E+02  0.51100000000E-03 0.  1.
         11   -1    0    0    0    0 -0.00000000000E+00 -0.00000000000E+00 -0.45593999997E+02  0.45594000000E+02  0.51100000000E-03 0. -1.
    9900012    2    1    2    0    0 -0.27232163716E+02 -0.16098254138E+02  0.39968910042E+01  0.59301958153E+02  0.50000025762E+02 0.  0.
        -12    1    1    2    0    0  0.27232163716E+02  0.16098254138E+02 -0.39968910042E+01  0.31886041847E+02  0.00000000000E+00 0.  1.
         11    1    3    3    0    0 -0.26089493009E+01 -0.85399528695E+01  0.28349386483E+00  0.89340797232E+01  0.51100000000E-03 0. -1.
        -11    1    3    3    0    0 -0.15920501631E+01  0.13899647446E+02  0.11305009670E+02  0.17987163944E+02  0.51100000000E-03 0.  1.
         12    1    3    3    0    0 -0.23031164252E+02 -0.21457948715E+02 -0.75916125304E+01  0.32380714486E+02  0.00000000000E+00 0. -1.
</event>
<event>
 7    1  0.1184848E-011  0.5930190E+02  0.7816164E-02  0.1266605E+00
        -11   -1    0    0    0    0  0.00000000000E+00  0.00000000000E+00  0.45593999997E+02  0.45594000000E+02  0.51100000000E-03 0.  1.
         11   -1    0    0    0    0 -0.00000000000E+00 -0.00000000000E+00 -0.45593999997E+02  0.45594000000E+02  0.51100000000E-03 0. -1.
    9900012    2    1    2    0    0  0.16740033920E+02  0.28649552485E+01 -0.26986790793E+02  0.59301896734E+02  0.49999913747E+02 0.  0.
        -12    1    1    2    0    0 -0.16740033920E+02 -0.28649552485E+01  0.26986790793E+02  0.31886103266E+02  0.00000000000E+00 0.  1.
         11    1    3    3    0    0  0.15293672641E+01  0.25150673562E+01  0.16598398534E+01  0.33792893683E+01  0.51100000000E-03 0. -1.
        -11    1    3    3    0    0 -0.13703233110E+02 -0.61334329689E+01 -0.20090133611E+02  0.25080093030E+02  0.51100000000E-03 0.  1.
         12    1    3    3    0    0  0.28913899765E+02  0.64833208613E+01 -0.85564970358E+01  0.30842514335E+02  0.00000000000E+00 0. -1.
</event>
<event>
 7    1  0.1184848E-011  0.5930193E+02  0.7816164E-02  0.1266605E+00
        -11   -1    0    0    0    0  0.00000000000E+00  0.00000000000E+00  0.45593999997E+02  0.45594000000E+02  0.51100000000E-03 0. -1.
         11   -1    0    0    0    0 -0.00000000000E+00 -0.00000000000E+00 -0.45593999997E+02  0.45594000000E+02  0.51100000000E-03 0.  1.
    9900012    2    1    2    0    0  0.24014902944E+02 -0.13857660494E-01  0.20976309546E+02  0.59301932234E+02  0.49999978490E+02 0.  0.
        -12    1    1    2    0    0 -0.24014902944E+02  0.13857660494E-01 -0.20976309546E+02  0.31886067766E+02  0.00000000000E+00 0.  1.
         11    1    3    3    0    0 -0.10883190352E+02  0.74634593988E+01  0.70671792755E+01  0.14969705462E+02  0.51100000000E-03 0. -1.
        -11    1    3    3    0    0  0.85202228688E+01 -0.98467798307E+01 -0.23839323665E+01  0.13237688792E+02  0.51100000000E-03 0.  1.
        -12    1    3    3    0    0  0.26377870427E+02  0.23694627713E+01  0.16293062637E+02  0.31094537980E+02  0.00000000000E+00 0.  1.
</event>
<event>
 7    1  0.1184848E-011  0.5930193E+02  0.7816164E-02  0.1266605E+00
        -11   -1    0    0    0    0  0.00000000000E+00  0.00000000000E+00  0.45593999997E+02  0.45594000000E+02  0.51100000000E-03 0. -1.
         11   -1    0    0    0    0 -0.00000000000E+00 -0.00000000000E+00 -0.45593999997E+02  0.45594000000E+02  0.51100000000E-03 0.  1.
    9900012    2    1    2    0    0  0.19332005259E+02 -0.17819314442E+02  0.18040711097E+02  0.59301926999E+02  0.49999968944E+02 0.  0.
        -12    1    1    2    0    0 -0.19332005259E+02  0.17819314442E+02 -0.18040711097E+02  0.31886073001E+02  0.00000000000E+00 0.  1.
         11    1    3    3    0    0  0.41833149099E+01 -0.34589037464E+01  0.13158994362E+02  0.14234580136E+02  0.51100000000E-03 0. -1.
        -11    1    3    3    0    0  0.17364902387E+02 -0.25726202602E+02 -0.28107092395E+01  0.31165324031E+02  0.51100000000E-03 0.  1.
        -12    1    3    3    0    0 -0.22162120381E+01  0.11365791907E+02  0.76924259747E+01  0.13902022833E+02  0.00000000000E+00 0.  1.
</event>
<event>
 7    1  0.1184848E-011  0.5930193E+02  0.7816164E-02  0.1266605E+00
        -11   -1    0    0    0    0  0.00000000000E+00  0.00000000000E+00  0.45593999997E+02  0.45594000000E+02  0.51100000000E-03 0.  1.
         11   -1    0    0    0    0 -0.00000000000E+00 -0.00000000000E+00 -0.45593999997E+02  0.45594000000E+02  0.51100000000E-03 0. -1.
    9900012    2    1    2    0    0 -0.29337923019E+02  0.80418657549E+01 -0.95569993923E+01  0.59301928288E+02  0.49999971294E+02 0.  0.
        -12    1    1    2    0    0  0.29337923019E+02 -0.80418657549E+01  0.95569993923E+01  0.31886071712E+02  0.00000000000E+00 0.  1.
         11    1    3    3    0    0 -0.25215928131E+01 -0.87773931580E+01 -0.31717013353E+01  0.96675100510E+01  0.51100000000E-03 0. -1.
        -11    1    3    3    0    0 -0.15655288762E+00  0.54389553688E+01  0.13451005468E+02  0.14509868803E+02  0.51100000000E-03 0.  1.
         12    1    3    3    0    0 -0.26659777318E+02  0.11380303544E+02 -0.19836303525E+02  0.35124549434E+02  0.00000000000E+00 0. -1.
</event>
<event>
 7    1  0.1184848E-011  0.5930191E+02  0.7816164E-02  0.1266605E+00
        -11   -1    0    0    0    0  0.00000000000E+00  0.00000000000E+00  0.45593999997E+02  0.45594000000E+02  0.51100000000E-03 0.  1.
         11   -1    0    0    0    0 -0.00000000000E+00 -0.00000000000E+00 -0.45593999997E+02  0.45594000000E+02  0.51100000000E-03 0. -1.
    9900012    2    1    2    0    0 -0.16255010595E+02 -0.22035683172E+02 -0.16337867491E+02  0.59301911866E+02  0.49999941346E+02 0.  0.
        -12    1    1    2    0    0  0.16255010595E+02  0.22035683172E+02  0.16337867491E+02  0.31886088134E+02  0.00000000000E+00 0.  1.
         11    1    3    3    0    0 -0.80112090965E+01 -0.23648169450E+02 -0.10036908792E+02  0.26910126865E+02  0.51100000000E-03 0. -1.
        -11    1    3    3    0    0 -0.88527044525E+01 -0.61149580680E+01  0.97800885227E+01  0.14540055711E+02  0.51100000000E-03 0.  1.
        -12    1    3    3    0    0  0.60890295359E+00  0.77274443462E+01 -0.16081047222E+02  0.17851729291E+02  0.00000000000E+00 0.  1.
</event>
<event>
 7    1  0.1184848E-011  0.5930195E+02  0.7816164E-02  0.1266605E+00
        -11   -1    0    0    0    0  0.00000000000E+00  0.00000000000E+00  0.45593999997E+02  0.45594000000E+02  0.51100000000E-03 0. -1.
         11   -1    0    0    0    0 -0.00000000000E+00 -0.00000000000E+00 -0.45593999997E+02  0.45594000000E+02  0.51100000000E-03 0.  1.
    9900012    2    1    2    0    0 -0.40295850394E+01  0.25072380354E+02  0.19283632753E+02  0.59301948123E+02  0.50000007468E+02 0.  0.
        -12    1    1    2    0    0  0.40295850394E+01 -0.25072380354E+02 -0.19283632753E+02  0.31886051877E+02  0.00000000000E+00 0.  1.
         11    1    3    3    0    0  0.63630004345E+01  0.10533166609E+02  0.33576328469E+01  0.12755746624E+02  0.51100000000E-03 0. -1.
        -11    1    3    3    0    0  0.11738264848E+02 -0.25652287813E+01 -0.34729796632E+01  0.12507151888E+02  0.51100000000E-03 0.  1.
        -12    1    3    3    0    0 -0.22130850322E+02  0.17104442526E+02  0.19398979569E+02  0.34039049611E+02  0.00000000000E+00 0.  1.
</event>
<event>
 7    1  0.1184848E-011  0.5930198E+02  0.7816164E-02  0.1266605E+00
        -11   -1    0    0    0    0  0.00000000000E+00  0.00000000000E+00  0.45593999997E+02  0.45594000000E+02  0.51100000000E-03 0. -1.
         11   -1    0    0    0    0 -0.00000000000E+00 -0.00000000000E+00 -0.45593999997E+02  0.45594000000E+02  0.51100000000E-03 0.  1.
    9900012    2    1    2    0    0 -0.90162446612E+01  0.11806151716E+01  0.30561935190E+02  0.59301977944E+02  0.50000061855E+02 0.  0.
        -12    1    1    2    0    0  0.90162446612E+01 -0.11806151716E+01 -0.30561935190E+02  0.31886022056E+02  0.00000000000E+00 0.  1.
         11    1    3    3    0    0  0.89646090725E+01  0.89108844909E+01  0.37106303192E+01  0.13173338827E+02  0.51100000000E-03 0. -1.
        -11    1    3    3    0    0 -0.15368462020E+02  0.10169506651E+02  0.82792740568E+01  0.20202843106E+02  0.51100000000E-03 0.  1.
         12    1    3    3    0    0 -0.26123917139E+01 -0.17899775970E+02  0.18572030814E+02  0.25925796011E+02  0.00000000000E+00 0. -1.
</event>
<event>
 7    1  0.1184848E-011  0.5930170E+02  0.7816164E-02  0.1266606E+00
        -11   -1    0    0    0    0  0.00000000000E+00  0.00000000000E+00  0.45593999997E+02  0.45594000000E+02  0.51100000000E-03 0.  1.
         11   -1    0    0    0    0 -0.00000000000E+00 -0.00000000000E+00 -0.45593999997E+02  0.45594000000E+02  0.51100000000E-03 0. -1.
    9900012    2    1    2    0    0  0.24180306273E+02  0.14037372001E+02 -0.15329744441E+02  0.59301700610E+02  0.49999556063E+02 0.  0.
        -12    1    1    2    0    0 -0.24180306273E+02 -0.14037372001E+02  0.15329744441E+02  0.31886299390E+02  0.00000000000E+00 0.  1.
         11    1    3    3    0    0 -0.69104049532E+01  0.23741231403E+01 -0.86759438165E+01  0.11342934306E+02  0.51100000000E-03 0. -1.
        -11    1    3    3    0    0  0.12073712832E+01 -0.10163457771E+02  0.58548096442E+00  0.10251653891E+02  0.51100000000E-03 0.  1.
         12    1    3    3    0    0  0.29883339943E+02  0.21826706633E+02 -0.72392815888E+01  0.37707112413E+02  0.00000000000E+00 0. -1.
</event>
<event>
 7    1  0.1184848E-011  0.5930198E+02  0.7816164E-02  0.1266605E+00
        -11   -1    0    0    0    0  0.00000000000E+00  0.00000000000E+00  0.45593999997E+02  0.45594000000E+02  0.51100000000E-03 0.  1.
         11   -1    0    0    0    0 -0.00000000000E+00 -0.00000000000E+00 -0.45593999997E+02  0.45594000000E+02  0.51100000000E-03 0. -1.
    9900012    2    1    2    0    0  0.24846090161E+02 -0.86904679583E+00 -0.19965844594E+02  0.59301978157E+02  0.50000062244E+02 0.  0.
        -12    1    1    2    0    0 -0.24846090161E+02  0.86904679583E+00  0.19965844594E+02  0.31886021843E+02  0.00000000000E+00 0.  1.
         11    1    3    3    0    0  0.11614595115E+02 -0.20386625138E+02 -0.88822006919E+01  0.25087981058E+02  0.51100000000E-03 0.  1.
        -11    1    3    3    0    0  0.48869084690E+01 -0.30104622244E+01  0.28852891589E+01  0.64241459339E+01  0.51100000000E-03 0. -1.
        -12    1    3    3    0    0  0.83445865771E+01  0.22528040567E+02 -0.13968933061E+02  0.27789851165E+02  0.00000000000E+00 0.  1.
</event>
<event>
 7    1  0.1184848E-011  0.5930195E+02  0.7816164E-02  0.1266605E+00
        -11   -1    0    0    0    0  0.00000000000E+00  0.00000000000E+00  0.45593999997E+02  0.45594000000E+02  0.51100000000E-03 0. -1.
         11   -1    0    0    0    0 -0.00000000000E+00 -0.00000000000E+00 -0.45593999997E+02  0.45594000000E+02  0.51100000000E-03 0.  1.
    9900012    2    1    2    0    0 -0.93795709213E+01  0.19498949300E+02  0.23420824619E+02  0.59301946617E+02  0.50000004722E+02 0.  0.
        -12    1    1    2    0    0  0.93795709213E+01 -0.19498949300E+02 -0.23420824619E+02  0.31886053383E+02  0.00000000000E+00 0.  1.
         11    1    3    3    0    0 -0.20142848314E+02  0.17584710766E+02  0.11972036009E+02  0.29296519203E+02  0.51100000000E-03 0. -1.
        -11    1    3    3    0    0  0.10169685770E+01  0.12349580804E+02  0.94579082267E+01  0.15588405929E+02  0.51100000000E-03 0.  1.
        -12    1    3    3    0    0  0.97463088158E+01 -0.10435342269E+02  0.19908803832E+01  0.14417021485E+02  0.00000000000E+00 0.  1.
</event>
<event>
 7    1  0.1184848E-011  0.5930196E+02  0.7816164E-02  0.1266605E+00
        -11   -1    0    0    0    0  0.00000000000E+00  0.00000000000E+00  0.45593999997E+02  0.45594000000E+02  0.51100000000E-03 0.  1.
         11   -1    0    0    0    0 -0.00000000000E+00 -0.00000000000E+00 -0.45593999997E+02  0.45594000000E+02  0.51100000000E-03 0. -1.
    9900012    2    1    2    0    0 -0.25895519244E+02  0.16746310928E+02  0.81057369975E+01  0.59301955734E+02  0.50000021350E+02 0.  0.
        -12    1    1    2    0    0  0.25895519244E+02 -0.16746310928E+02 -0.81057369975E+01  0.31886044266E+02  0.00000000000E+00 0.  1.
         11    1    3    3    0    0  0.52519943982E+01 -0.73799601044E+01  0.44139225140E+00  0.90687421224E+01  0.51100000000E-03 0.  1.
        -11    1    3    3    0    0 -0.14636451337E+02  0.21462883277E+02  0.17031954982E+02  0.31063943038E+02  0.51100000000E-03 0. -1.
         12    1    3    3    0    0 -0.16511062305E+02  0.26633877558E+01 -0.93676102362E+01  0.19169270574E+02  0.00000000000E+00 0. -1.
</event>
<event>
 7    1  0.1184848E-011  0.5930195E+02  0.7816164E-02  0.1266605E+00
        -11   -1    0    0    0    0  0.00000000000E+00  0.00000000000E+00  0.45593999997E+02  0.45594000000E+02  0.51100000000E-03 0.  1.
         11   -1    0    0    0    0 -0.00000000000E+00 -0.00000000000E+00 -0.45593999997E+02  0.45594000000E+02  0.51100000000E-03 0. -1.
    9900012    2    1    2    0    0  0.27047115407E+02 -0.14354598555E+02 -0.88949091650E+01  0.59301947241E+02  0.50000005860E+02 0.  0.
        -12    1    1    2    0    0 -0.27047115407E+02  0.14354598555E+02  0.88949091650E+01  0.31886052759E+02  0.00000000000E+00 0.  1.
         11    1    3    3    0    0  0.23287623342E+02 -0.71019534953E+01  0.62285415613E+01  0.25130576487E+02  0.51100000000E-03 0. -1.
        -11    1    3    3    0    0  0.23705207215E+01 -0.69962915375E+01  0.80668614419E+01  0.10938085644E+02  0.51100000000E-03 0.  1.
        -12    1    3    3    0    0  0.13889713437E+01 -0.25635352196E+00 -0.23190312168E+02  0.23233285110E+02  0.00000000000E+00 0.  1.
</event>
<event>
 7    1  0.1184848E-011  0.5930195E+02  0.7816164E-02  0.1266605E+00
        -11   -1    0    0    0    0  0.00000000000E+00  0.00000000000E+00  0.45593999997E+02  0.45594000000E+02  0.51100000000E-03 0. -1.
         11   -1    0    0    0    0 -0.00000000000E+00 -0.00000000000E+00 -0.45593999997E+02  0.45594000000E+02  0.51100000000E-03 0.  1.
    9900012    2    1    2    0    0  0.21367751185E+02  0.23331088920E+01 -0.23551991031E+02  0.59301945535E+02  0.50000002749E+02 0.  0.
        -12    1    1    2    0    0 -0.21367751185E+02 -0.23331088920E+01  0.23551991031E+02  0.31886054465E+02  0.00000000000E+00 0.  1.
         11    1    3    3    0    0  0.97026416085E+01  0.14309130191E+02 -0.24327750695E+01  0.17458833174E+02  0.51100000000E-03 0. -1.
        -11    1    3    3    0    0 -0.22945528749E+01  0.91905359360E+01 -0.11068012756E+02  0.14568178689E+02  0.51100000000E-03 0.  1.
        -12    1    3    3    0    0  0.13959662451E+02 -0.21166557235E+02 -0.10051203206E+02  0.27274933672E+02  0.00000000000E+00 0.  1.
</event>
<event>
 7    1  0.1184848E-011  0.5930194E+02  0.7816164E-02  0.1266605E+00
        -11   -1    0    0    0    0  0.00000000000E+00  0.00000000000E+00  0.45593999997E+02  0.45594000000E+02  0.51100000000E-03 0. -1.
         11   -1    0    0    0    0 -0.00000000000E+00 -0.00000000000E+00 -0.45593999997E+02  0.45594000000E+02  0.51100000000E-03 0.  1.
    9900012    2    1    2    0    0  0.21597702099E+02  0.19517731478E+02  0.13012245272E+02  0.59301935567E+02  0.49999984570E+02 0.  0.
        -12    1    1    2    0    0 -0.21597702099E+02 -0.19517731478E+02 -0.13012245272E+02  0.31886064433E+02  0.00000000000E+00 0.  1.
         11    1    3    3    0    0  0.13153911297E+02 -0.14653102982E+01  0.64976414711E+01  0.14744214514E+02  0.51100000000E-03 0. -1.
        -11    1    3    3    0    0  0.94224942583E+01  0.13865271774E+02  0.21898661060E+02  0.27578624257E+02  0.51100000000E-03 0.  1.
        -12    1    3    3    0    0 -0.97870345590E+00  0.71177700020E+01 -0.15384057260E+02  0.16979096796E+02  0.00000000000E+00 0.  1.
</event>
<event>
 7    1  0.1184848E-011  0.5930173E+02  0.7816164E-02  0.1266606E+00
        -11   -1    0    0    0    0  0.00000000000E+00  0.00000000000E+00  0.45593999997E+02  0.45594000000E+02  0.51100000000E-03 0.  1.
         11   -1    0    0    0    0 -0.00000000000E+00 -0.00000000000E+00 -0.45593999997E+02  0.45594000000E+02  0.51100000000E-03 0. -1.
    9900012    2    1    2    0    0 -0.16870271352E+01 -0.25671624420E+02 -0.18837620584E+02  0.59301728499E+02  0.49999606927E+02 0.  0.
        -12    1    1    2    0    0  0.16870271352E+01  0.25671624420E+02  0.18837620584E+02  0.31886271501E+02  0.00000000000E+00 0.  1.
         11    1    3    3    0    0  0.44629553795E+01 -0.11472499549E+02 -0.47135898224E+01  0.13181583588E+02  0.51100000000E-03 0. -1.
        -11    1    3    3    0    0  0.28539717198E+00 -0.93895705114E+01  0.14006423954E+02  0.16864916193E+02  0.51100000000E-03 0.  1.
         12    1    3    3    0    0 -0.64353796867E+01 -0.48095543605E+01 -0.28130454716E+02  0.29255228719E+02  0.00000000000E+00 0. -1.
</event>
<event>
 7    1  0.1184848E-011  0.5930195E+02  0.7816164E-02  0.1266605E+00
        -11   -1    0    0    0    0  0.00000000000E+00  0.00000000000E+00  0.45593999997E+02  0.45594000000E+02  0.51100000000E-03 0.  1.
         11   -1    0    0    0    0 -0.00000000000E+00 -0.00000000000E+00 -0.45593999997E+02  0.45594000000E+02  0.51100000000E-03 0. -1.
    9900012    2    1    2    0    0  0.13807448751E+01 -0.17693526787E+01 -0.31806968637E+02  0.59301947889E+02  0.50000007043E+02 0.  0.
        -12    1    1    2    0    0 -0.13807448751E+01  0.17693526787E+01  0.31806968637E+02  0.31886052111E+02  0.00000000000E+00 0.  1.
         11    1    3    3    0    0  0.11267819317E+02  0.36584779944E+01  0.18175616800E+01  0.11985480554E+02  0.51100000000E-03 0. -1.
        -11    1    3    3    0    0 -0.19396235597E+01 -0.14296622469E+02 -0.33890642554E+01  0.14820300617E+02  0.51100000000E-03 0.  1.
         12    1    3    3    0    0 -0.79474508819E+01  0.88687917960E+01 -0.30235466062E+02  0.32496166719E+02  0.00000000000E+00 0. -1.
</event>
<event>
 7    1  0.1184848E-011  0.5930194E+02  0.7816164E-02  0.1266605E+00
        -11   -1    0    0    0    0  0.00000000000E+00  0.00000000000E+00  0.45593999997E+02  0.45594000000E+02  0.51100000000E-03 0.  1.
         11   -1    0    0    0    0 -0.00000000000E+00 -0.00000000000E+00 -0.45593999997E+02  0.45594000000E+02  0.51100000000E-03 0. -1.
    9900012    2    1    2    0    0  0.16089298833E+02 -0.97070912952E+01 -0.25760969396E+02  0.59301941877E+02  0.49999996078E+02 0.  0.
        -12    1    1    2    0    0 -0.16089298833E+02  0.97070912952E+01  0.25760969396E+02  0.31886058123E+02  0.00000000000E+00 0.  1.
         11    1    3    3    0    0  0.12001010975E+02 -0.13116131322E+01  0.10289615501E+01  0.12116243459E+02  0.51100000000E-03 0. -1.
        -11    1    3    3    0    0  0.45463929303E+00 -0.23873937537E+01  0.97136034860E+01  0.10013013471E+02  0.51100000000E-03 0.  1.
         12    1    3    3    0    0  0.36336485652E+01 -0.60080844092E+01 -0.36503534432E+02  0.37172684948E+02  0.00000000000E+00 0. -1.
</event>
<event>
 7    1  0.1184848E-011  0.5930195E+02  0.7816164E-02  0.1266605E+00
        -11   -1    0    0    0    0  0.00000000000E+00  0.00000000000E+00  0.45593999997E+02  0.45594000000E+02  0.51100000000E-03 0.  1.
         11   -1    0    0    0    0 -0.00000000000E+00 -0.00000000000E+00 -0.45593999997E+02  0.45594000000E+02  0.51100000000E-03 0. -1.
    9900012    2    1    2    0    0 -0.23755040618E+02 -0.73068463841E+01 -0.19975694393E+02  0.59301947793E+02  0.50000006867E+02 0.  0.
        -12    1    1    2    0    0  0.23755040618E+02  0.73068463841E+01  0.19975694393E+02  0.31886052207E+02  0.00000000000E+00 0.  1.
         11    1    3    3    0    0 -0.82917866494E+01 -0.98431255799E+01 -0.85461978308E+01  0.15449218254E+02  0.51100000000E-03 0. -1.
        -11    1    3    3    0    0 -0.23843657278E+02 -0.36755518685E+01 -0.19209960977E+02  0.30839135444E+02  0.51100000000E-03 0.  1.
        -12    1    3    3    0    0  0.83804033087E+01  0.62118310643E+01  0.77804644147E+01  0.13013594096E+02  0.00000000000E+00 0.  1.
</event>
<event>
 7    1  0.1184848E-011  0.5930196E+02  0.7816164E-02  0.1266605E+00
        -11   -1    0    0    0    0  0.00000000000E+00  0.00000000000E+00  0.45593999997E+02  0.45594000000E+02  0.51100000000E-03 0.  1.
         11   -1    0    0    0    0 -0.00000000000E+00 -0.00000000000E+00 -0.45593999997E+02  0.45594000000E+02  0.51100000000E-03 0. -1.
    9900012    2    1    2    0    0  0.13807611484E+02 -0.11049537308E+02 -0.26532572212E+02  0.59301956066E+02  0.50000021954E+02 0.  0.
        -12    1    1    2    0    0 -0.13807611484E+02  0.11049537308E+02  0.26532572212E+02  0.31886043934E+02  0.00000000000E+00 0.  1.
         11    1    3    3    0    0  0.29929202618E+01  0.46367836927E+01  0.84157221408E+00  0.55826139719E+01  0.51100000000E-03 0. -1.
        -11    1    3    3    0    0 -0.95949367970E+01 -0.10128748272E+02  0.51918658668E+01  0.14886565256E+02  0.51100000000E-03 0.  1.
         12    1    3    3    0    0  0.20409628019E+02 -0.55575727289E+01 -0.32566010293E+02  0.38832776837E+02  0.00000000000E+00 0. -1.
</event>
<event>
 7    1  0.1184848E-011  0.5930192E+02  0.7816164E-02  0.1266605E+00
        -11   -1    0    0    0    0  0.00000000000E+00  0.00000000000E+00  0.45593999997E+02  0.45594000000E+02  0.51100000000E-03 0.  1.
         11   -1    0    0    0    0 -0.00000000000E+00 -0.00000000000E+00 -0.45593999997E+02  0.45594000000E+02  0.51100000000E-03 0. -1.
    9900012    2    1    2    0    0 -0.10691597379E+02 -0.12265283763E+02 -0.27422155977E+02  0.59301920299E+02  0.49999956724E+02 0.  0.
        -12    1    1    2    0    0  0.10691597379E+02  0.12265283763E+02  0.27422155977E+02  0.31886079701E+02  0.00000000000E+00 0.  1.
         11    1    3    3    0    0 -0.82915302876E+01 -0.47967600892E+01 -0.71624135010E+01  0.11960708561E+02  0.51100000000E-03 0. -1.
        -11    1    3    3    0    0 -0.64413353273E+01  0.21022038207E+01 -0.31391659817E+02  0.32114581860E+02  0.51100000000E-03 0.  1.
        -12    1    3    3    0    0  0.40412682362E+01 -0.95707274944E+01  0.11131917342E+02  0.15226629878E+02  0.00000000000E+00 0.  1.
</event>
<event>
 7    1  0.1184848E-011  0.5930196E+02  0.7816164E-02  0.1266605E+00
        -11   -1    0    0    0    0  0.00000000000E+00  0.00000000000E+00  0.45593999997E+02  0.45594000000E+02  0.51100000000E-03 0.  1.
         11   -1    0    0    0    0 -0.00000000000E+00 -0.00000000000E+00 -0.45593999997E+02  0.45594000000E+02  0.51100000000E-03 0. -1.
    9900012    2    1    2    0    0  0.15491205707E+02  0.20080690016E+02  0.19326360427E+02  0.59301956452E+02  0.50000022660E+02 0.  0.
        -12    1    1    2    0    0 -0.15491205707E+02 -0.20080690016E+02 -0.19326360427E+02  0.31886043548E+02  0.00000000000E+00 0.  1.
         11    1    3    3    0    0  0.20941623386E+01 -0.90685833239E+00 -0.11546234692E+02  0.11769598284E+02  0.51100000000E-03 0. -1.
        -11    1    3    3    0    0 -0.25716601110E+01  0.19011265762E+02  0.11571925532E+02  0.22404265718E+02  0.51100000000E-03 0.  1.
        -12    1    3    3    0    0  0.15968703479E+02  0.19762825866E+01  0.19300669587E+02  0.25128092450E+02  0.00000000000E+00 0.  1.
</event>
<event>
 7    1  0.1184848E-011  0.5930195E+02  0.7816164E-02  0.1266605E+00
        -11   -1    0    0    0    0  0.00000000000E+00  0.00000000000E+00  0.45593999997E+02  0.45594000000E+02  0.51100000000E-03 0.  1.
         11   -1    0    0    0    0 -0.00000000000E+00 -0.00000000000E+00 -0.45593999997E+02  0.45594000000E+02  0.51100000000E-03 0. -1.
    9900012    2    1    2    0    0 -0.16341463430E+02 -0.13801345973E+02 -0.23647401013E+02  0.59301950505E+02  0.50000011813E+02 0.  0.
        -12    1    1    2    0    0  0.16341463430E+02  0.13801345973E+02  0.23647401013E+02  0.31886049495E+02  0.00000000000E+00 0.  1.
         11    1    3    3    0    0 -0.17608355395E+02 -0.19152838312E+02 -0.41631277000E+01  0.26347998551E+02  0.51100000000E-03 0. -1.
        -11    1    3    3    0    0  0.10023537629E+02 -0.64135145819E+01 -0.82584456755E+01  0.14484695410E+02  0.51100000000E-03 0.  1.
         12    1    3    3    0    0 -0.87566456637E+01  0.11765006920E+02 -0.11225827638E+02  0.18469256544E+02  0.00000000000E+00 0. -1.
</event>
<event>
 7    1  0.1184848E-011  0.5930195E+02  0.7816164E-02  0.1266605E+00
        -11   -1    0    0    0    0  0.00000000000E+00  0.00000000000E+00  0.45593999997E+02  0.45594000000E+02  0.51100000000E-03 0. -1.
         11   -1    0    0    0    0 -0.00000000000E+00 -0.00000000000E+00 -0.45593999997E+02  0.45594000000E+02  0.51100000000E-03 0.  1.
    9900012    2    1    2    0    0 -0.11986433354E+02  0.27619004827E+02  0.10499327470E+02  0.59301954627E+02  0.50000019331E+02 0.  0.
        -12    1    1    2    0    0  0.11986433354E+02 -0.27619004827E+02 -0.10499327470E+02  0.31886045373E+02  0.00000000000E+00 0.  1.
         11    1    3    3    0    0 -0.33858075304E+01 -0.12930036696E+01  0.42086586559E+00  0.36486544726E+01  0.51100000000E-03 0. -1.
        -11    1    3    3    0    0 -0.22524452851E+02  0.24667254459E+02 -0.60281606676E+01  0.33943528692E+02  0.51100000000E-03 0.  1.
         12    1    3    3    0    0  0.13923827027E+02  0.42447540374E+01  0.16106622272E+02  0.21709771462E+02  0.00000000000E+00 0. -1.
</event>
<event>
 7    1  0.1184848E-011  0.5930194E+02  0.7816164E-02  0.1266605E+00
        -11   -1    0    0    0    0  0.00000000000E+00  0.00000000000E+00  0.45593999997E+02  0.45594000000E+02  0.51100000000E-03 0.  1.
         11   -1    0    0    0    0 -0.00000000000E+00 -0.00000000000E+00 -0.45593999997E+02  0.45594000000E+02  0.51100000000E-03 0. -1.
    9900012    2    1    2    0    0  0.38897283676E+01  0.23864419071E+01 -0.31557815164E+02  0.59301940512E+02  0.49999993588E+02 0.  0.
        -12    1    1    2    0    0 -0.38897283676E+01 -0.23864419071E+01  0.31557815164E+02  0.31886059488E+02  0.00000000000E+00 0.  1.
         11    1    3    3    0    0  0.18006135454E+02 -0.46000595995E+01 -0.20944708708E+02  0.28001112218E+02  0.51100000000E-03 0. -1.
        -11    1    3    3    0    0  0.73224530667E+00 -0.44312113551E+00 -0.14272948128E+02  0.14298586925E+02  0.51100000000E-03 0.  1.
        -12    1    3    3    0    0 -0.14848652393E+02  0.74296226422E+01  0.36598416720E+01  0.17002241369E+02  0.00000000000E+00 0.  1.
</event>
<event>
 7    1  0.1184848E-011  0.5930194E+02  0.7816164E-02  0.1266605E+00
        -11   -1    0    0    0    0  0.00000000000E+00  0.00000000000E+00  0.45593999997E+02  0.45594000000E+02  0.51100000000E-03 0.  1.
         11   -1    0    0    0    0 -0.00000000000E+00 -0.00000000000E+00 -0.45593999997E+02  0.45594000000E+02  0.51100000000E-03 0. -1.
    9900012    2    1    2    0    0  0.19317897229E+02  0.23306912179E+02  0.10016357167E+02  0.59301941611E+02  0.49999995593E+02 0.  0.
        -12    1    1    2    0    0 -0.19317897229E+02 -0.23306912179E+02 -0.10016357167E+02  0.31886058389E+02  0.00000000000E+00 0.  1.
         11    1    3    3    0    0  0.30359339572E+02  0.19490878486E+02 -0.16166491537E+01  0.36113673285E+02  0.51100000000E-03 0. -1.
        -11    1    3    3    0    0 -0.33001637843E+01  0.97490264348E+01  0.55501860963E+01  0.11693552215E+02  0.51100000000E-03 0.  1.
        -12    1    3    3    0    0 -0.77412785591E+01 -0.59329927413E+01  0.60828202248E+01  0.11494716112E+02  0.00000000000E+00 0.  1.
</event>
<event>
 7    1  0.1184848E-011  0.5930198E+02  0.7816164E-02  0.1266605E+00
        -11   -1    0    0    0    0  0.00000000000E+00  0.00000000000E+00  0.45593999997E+02  0.45594000000E+02  0.51100000000E-03 0.  1.
         11   -1    0    0    0    0 -0.00000000000E+00 -0.00000000000E+00 -0.45593999997E+02  0.45594000000E+02  0.51100000000E-03 0. -1.
    9900012    2    1    2    0    0 -0.27265674256E+02 -0.66632423335E+01 -0.15129533384E+02  0.59301975296E+02  0.50000057025E+02 0.  0.
        -12    1    1    2    0    0  0.27265674256E+02  0.66632423335E+01  0.15129533384E+02  0.31886024704E+02  0.00000000000E+00 0.  1.
         11    1    3    3    0    0 -0.71434783436E+01 -0.63006536449E+01  0.81241442208E+00  0.95596828741E+01  0.51100000000E-03 0. -1.
        -11    1    3    3    0    0  0.54769396358E+00 -0.17525891217E+02  0.16757199228E+01  0.17614337034E+02  0.51100000000E-03 0.  1.
         12    1    3    3    0    0 -0.20669889876E+02  0.17163302528E+02 -0.17617667729E+02  0.32127955387E+02  0.00000000000E+00 0. -1.
</event>
<event>
 7    1  0.1184848E-011  0.5930188E+02  0.7816164E-02  0.1266605E+00
        -11   -1    0    0    0    0  0.00000000000E+00  0.00000000000E+00  0.45593999997E+02  0.45594000000E+02  0.51100000000E-03 0. -1.
         11   -1    0    0    0    0 -0.00000000000E+00 -0.00000000000E+00 -0.45593999997E+02  0.45594000000E+02  0.51100000000E-03 0.  1.
    9900012    2    1    2    0    0  0.13689881661E+02 -0.68348587390E+01  0.27974931162E+02  0.59301875629E+02  0.49999875257E+02 0.  0.
        -12    1    1    2    0    0 -0.13689881661E+02  0.68348587390E+01 -0.27974931162E+02  0.31886124371E+02  0.00000000000E+00 0.  1.
         11    1    3    3    0    0  0.14173871457E+02 -0.19778606808E+02  0.44196082361E+01  0.24731050454E+02  0.51100000000E-03 0. -1.
        -11    1    3    3    0    0 -0.19583720108E+01 -0.59648082212E+01  0.69145781879E+01  0.93394619666E+01  0.51100000000E-03 0.  1.
         12    1    3    3    0    0  0.14743822145E+01  0.18908556290E+02  0.16640744738E+02  0.25231363208E+02  0.00000000000E+00 0. -1.
</event>
<event>
 7    1  0.1184848E-011  0.5930195E+02  0.7816164E-02  0.1266605E+00
        -11   -1    0    0    0    0  0.00000000000E+00  0.00000000000E+00  0.45593999997E+02  0.45594000000E+02  0.51100000000E-03 0.  1.
         11   -1    0    0    0    0 -0.00000000000E+00 -0.00000000000E+00 -0.45593999997E+02  0.45594000000E+02  0.51100000000E-03 0. -1.
    9900012    2    1    2    0    0 -0.24619997784E+02 -0.12565524930E+02 -0.15896027403E+02  0.59301946703E+02  0.50000004880E+02 0.  0.
        -12    1    1    2    0    0  0.24619997784E+02  0.12565524930E+02  0.15896027403E+02  0.31886053297E+02  0.00000000000E+00 0.  1.
         11    1    3    3    0    0 -0.19643863600E+02 -0.12494136861E+02 -0.78912637809E+01  0.24581636995E+02  0.51100000000E-03 0. -1.
        -11    1    3    3    0    0 -0.15294602895E+02  0.73388805252E+01 -0.12684531578E+02  0.21182100621E+02  0.51100000000E-03 0.  1.
        -12    1    3    3    0    0  0.10318468711E+02 -0.74102685943E+01  0.46797679565E+01  0.13538209088E+02  0.00000000000E+00 0.  1.
</event>
<event>
 7    1  0.1184848E-011  0.5930197E+02  0.7816164E-02  0.1266605E+00
        -11   -1    0    0    0    0  0.00000000000E+00  0.00000000000E+00  0.45593999997E+02  0.45594000000E+02  0.51100000000E-03 0.  1.
         11   -1    0    0    0    0 -0.00000000000E+00 -0.00000000000E+00 -0.45593999997E+02  0.45594000000E+02  0.51100000000E-03 0. -1.
    9900012    2    1    2    0    0  0.39243756942E+01  0.39764732949E+01 -0.31392771957E+02  0.59301965509E+02  0.50000039176E+02 0.  0.
        -12    1    1    2    0    0 -0.39243756942E+01 -0.39764732949E+01  0.31392771957E+02  0.31886034491E+02  0.00000000000E+00 0.  1.
         11    1    3    3    0    0  0.12167214823E+02 -0.11743875305E+02 -0.14982060770E+02  0.22592517985E+02  0.51100000000E-03 0. -1.
        -11    1    3    3    0    0 -0.13555425403E+01  0.75182094746E+01 -0.22931330375E+02  0.24170371994E+02  0.51100000000E-03 0.  1.
        -12    1    3    3    0    0 -0.68872965885E+01  0.82021391258E+01  0.65206191881E+01  0.12539075529E+02  0.00000000000E+00 0.  1.
</event>
<event>
 7    1  0.1184848E-011  0.5930191E+02  0.7816164E-02  0.1266605E+00
        -11   -1    0    0    0    0  0.00000000000E+00  0.00000000000E+00  0.45593999997E+02  0.45594000000E+02  0.51100000000E-03 0.  1.
         11   -1    0    0    0    0 -0.00000000000E+00 -0.00000000000E+00 -0.45593999997E+02  0.45594000000E+02  0.51100000000E-03 0. -1.
    9900012    2    1    2    0    0  0.30135972786E+02 -0.10332599667E+02 -0.13354440285E+01  0.59301907697E+02  0.49999933741E+02 0.  0.
        -12    1    1    2    0    0 -0.30135972786E+02  0.10332599667E+02  0.13354440285E+01  0.31886092303E+02  0.00000000000E+00 0.  1.
         11    1    3    3    0    0  0.82027634036E+01 -0.10886011030E+02 -0.32849296111E+01  0.14020746286E+02  0.51100000000E-03 0. -1.
        -11    1    3    3    0    0  0.14302746645E+02  0.16197915071E+02 -0.10358277796E+02  0.23963199565E+02  0.51100000000E-03 0.  1.
         12    1    3    3    0    0  0.76304627372E+01 -0.15644503709E+02  0.12307763378E+02  0.21317961846E+02  0.00000000000E+00 0. -1.
</event>
<event>
 7    1  0.1184848E-011  0.5930199E+02  0.7816164E-02  0.1266605E+00
        -11   -1    0    0    0    0  0.00000000000E+00  0.00000000000E+00  0.45593999997E+02  0.45594000000E+02  0.51100000000E-03 0. -1.
         11   -1    0    0    0    0 -0.00000000000E+00 -0.00000000000E+00 -0.45593999997E+02  0.45594000000E+02  0.51100000000E-03 0.  1.
    9900012    2    1    2    0    0  0.23745750591E+02 -0.45987323921E+01  0.20777604634E+02  0.59301986372E+02  0.50000077226E+02 0.  0.
        -12    1    1    2    0    0 -0.23745750591E+02  0.45987323921E+01 -0.20777604634E+02  0.31886013628E+02  0.00000000000E+00 0.  1.
         11    1    3    3    0    0  0.13533485117E+02 -0.10045213885E+01 -0.58159138218E+01  0.14764455171E+02  0.51100000000E-03 0. -1.
        -11    1    3    3    0    0  0.10361722532E+02  0.13714668300E+02  0.19041696308E+02  0.25652360884E+02  0.51100000000E-03 0.  1.
         12    1    3    3    0    0 -0.14945705835E+00 -0.17308879303E+02  0.75518221482E+01  0.18885170317E+02  0.00000000000E+00 0. -1.
</event>
<event>
 7    1  0.1184848E-011  0.5930207E+02  0.7816164E-02  0.1266604E+00
        -11   -1    0    0    0    0  0.00000000000E+00  0.00000000000E+00  0.45593999997E+02  0.45594000000E+02  0.51100000000E-03 0. -1.
         11   -1    0    0    0    0 -0.00000000000E+00 -0.00000000000E+00 -0.45593999997E+02  0.45594000000E+02  0.51100000000E-03 0.  1.
    9900012    2    1    2    0    0 -0.30503690329E+02  0.26153063154E+01 -0.89105382521E+01  0.59302068263E+02  0.50000226575E+02 0.  0.
        -12    1    1    2    0    0  0.30503690329E+02 -0.26153063154E+01  0.89105382521E+01  0.31885931737E+02  0.00000000000E+00 0.  1.
         11    1    3    3    0    0 -0.14423541095E+02 -0.12577598711E+02 -0.51338376341E+01  0.19813904617E+02  0.51100000000E-03 0. -1.
        -11    1    3    3    0    0  0.36688827234E+01 -0.77734997869E+01 -0.32617405907E+01  0.91938539970E+01  0.51100000000E-03 0.  1.
        -12    1    3    3    0    0 -0.19749031957E+02  0.22966404813E+02 -0.51496002726E+00  0.30294309649E+02  0.00000000000E+00 0.  1.
</event>
<event>
 7    1  0.1184848E-011  0.5930188E+02  0.7816164E-02  0.1266605E+00
        -11   -1    0    0    0    0  0.00000000000E+00  0.00000000000E+00  0.45593999997E+02  0.45594000000E+02  0.51100000000E-03 0.  1.
         11   -1    0    0    0    0 -0.00000000000E+00 -0.00000000000E+00 -0.45593999997E+02  0.45594000000E+02  0.51100000000E-03 0. -1.
    9900012    2    1    2    0    0 -0.74521342450E+01 -0.30667550602E+02 -0.45488160702E+01  0.59301879314E+02  0.49999881978E+02 0.  0.
        -12    1    1    2    0    0  0.74521342450E+01  0.30667550602E+02  0.45488160702E+01  0.31886120686E+02  0.00000000000E+00 0.  1.
         11    1    3    3    0    0 -0.20421309866E+02 -0.72695907928E+01 -0.66953186867E+01  0.22687091914E+02  0.51100000000E-03 0. -1.
        -11    1    3    3    0    0 -0.26299832622E+01  0.13617373658E+01 -0.56070404051E+01  0.63411389338E+01  0.51100000000E-03 0.  1.
        -12    1    3    3    0    0  0.15599158884E+02 -0.24759697175E+02  0.77535430215E+01  0.30273648466E+02  0.00000000000E+00 0.  1.
</event>
<event>
 7    1  0.1184848E-011  0.5930198E+02  0.7816164E-02  0.1266605E+00
        -11   -1    0    0    0    0  0.00000000000E+00  0.00000000000E+00  0.45593999997E+02  0.45594000000E+02  0.51100000000E-03 0.  1.
         11   -1    0    0    0    0 -0.00000000000E+00 -0.00000000000E+00 -0.45593999997E+02  0.45594000000E+02  0.51100000000E-03 0. -1.
    9900012    2    1    2    0    0  0.39079071995E+01 -0.23916563642E+02 -0.20723039807E+02  0.59301982156E+02  0.50000069536E+02 0.  0.
        -12    1    1    2    0    0 -0.39079071995E+01  0.23916563642E+02  0.20723039807E+02  0.31886017844E+02  0.00000000000E+00 0.  1.
         11    1    3    3    0    0  0.90256374626E+00 -0.15502151593E+02 -0.36685735598E+01  0.15955869062E+02  0.51100000000E-03 0. -1.
        -11    1    3    3    0    0  0.19130747861E+01 -0.14089417638E+02 -0.27754759467E+02  0.31184903685E+02  0.51100000000E-03 0.  1.
        -12    1    3    3    0    0  0.10922686671E+01  0.56750055888E+01  0.10700293220E+02  0.12161209408E+02  0.00000000000E+00 0.  1.
</event>
<event>
 7    1  0.1184848E-011  0.5930193E+02  0.7816164E-02  0.1266605E+00
        -11   -1    0    0    0    0  0.00000000000E+00  0.00000000000E+00  0.45593999997E+02  0.45594000000E+02  0.51100000000E-03 0.  1.
         11   -1    0    0    0    0 -0.00000000000E+00 -0.00000000000E+00 -0.45593999997E+02  0.45594000000E+02  0.51100000000E-03 0. -1.
    9900012    2    1    2    0    0  0.24021372050E+02 -0.76357865150E+01 -0.19529210230E+02  0.59301927757E+02  0.49999970326E+02 0.  0.
        -12    1    1    2    0    0 -0.24021372050E+02  0.76357865150E+01  0.19529210230E+02  0.31886072243E+02  0.00000000000E+00 0.  1.
         11    1    3    3    0    0 -0.10596884981E+02 -0.41844145900E+00  0.87520572643E+01  0.13750184405E+02  0.51100000000E-03 0.  1.
        -11    1    3    3    0    0  0.17187121543E+02 -0.38476056985E+01 -0.10937894930E+02  0.20732553203E+02  0.51100000000E-03 0. -1.
        -12    1    3    3    0    0  0.17431135488E+02 -0.33697393575E+01 -0.17343372564E+02  0.24819190149E+02  0.00000000000E+00 0.  1.
</event>
<event>
 7    1  0.1184848E-011  0.5930226E+02  0.7816164E-02  0.1266604E+00
        -11   -1    0    0    0    0  0.00000000000E+00  0.00000000000E+00  0.45593999997E+02  0.45594000000E+02  0.51100000000E-03 0.  1.
         11   -1    0    0    0    0 -0.00000000000E+00 -0.00000000000E+00 -0.45593999997E+02  0.45594000000E+02  0.51100000000E-03 0. -1.
    9900012    2    1    2    0    0  0.17415774665E+02 -0.68992614149E+01 -0.25802931991E+02  0.59302261580E+02  0.50000579136E+02 0.  0.
        -12    1    1    2    0    0 -0.17415774665E+02  0.68992614149E+01  0.25802931991E+02  0.31885738420E+02  0.00000000000E+00 0.  1.
         11    1    3    3    0    0  0.12671846122E+01 -0.53755056280E+00 -0.11575429614E+02  0.11656984536E+02  0.51100000000E-03 0. -1.
        -11    1    3    3    0    0 -0.12485971235E+02 -0.86693565698E+01  0.80613553890E+00  0.15221927466E+02  0.51100000000E-03 0.  1.
         12    1    3    3    0    0  0.28634561288E+02  0.23076457177E+01 -0.15033637916E+02  0.32423349578E+02  0.00000000000E+00 0. -1.
</event>
<event>
 7    1  0.1184848E-011  0.5930188E+02  0.7816164E-02  0.1266605E+00
        -11   -1    0    0    0    0  0.00000000000E+00  0.00000000000E+00  0.45593999997E+02  0.45594000000E+02  0.51100000000E-03 0.  1.
         11   -1    0    0    0    0 -0.00000000000E+00 -0.00000000000E+00 -0.45593999997E+02  0.45594000000E+02  0.51100000000E-03 0. -1.
    9900012    2    1    2    0    0 -0.26553982051E+02  0.27719985516E+01 -0.17433485762E+02  0.59301884455E+02  0.49999891353E+02 0.  0.
        -12    1    1    2    0    0  0.26553982051E+02 -0.27719985516E+01  0.17433485762E+02  0.31886115545E+02  0.00000000000E+00 0.  1.
         11    1    3    3    0    0  0.39965308238E+01 -0.12378070136E+01 -0.31136339696E+01  0.52152796269E+01  0.51100000000E-03 0. -1.
        -11    1    3    3    0    0  0.41406993123E+01 -0.12049133177E+02 -0.87477527050E+01  0.15454778509E+02  0.51100000000E-03 0.  1.
         12    1    3    3    0    0 -0.34691212187E+02  0.16058938742E+02 -0.55720990877E+01  0.38631826319E+02  0.00000000000E+00 0. -1.
</event>
<event>
 7    1  0.1184848E-011  0.5930197E+02  0.7816164E-02  0.1266605E+00
        -11   -1    0    0    0    0  0.00000000000E+00  0.00000000000E+00  0.45593999997E+02  0.45594000000E+02  0.51100000000E-03 0. -1.
         11   -1    0    0    0    0 -0.00000000000E+00 -0.00000000000E+00 -0.45593999997E+02  0.45594000000E+02  0.51100000000E-03 0.  1.
    9900012    2    1    2    0    0 -0.20301236767E+02  0.13922967540E+02  0.20266461744E+02  0.59301973107E+02  0.50000053034E+02 0.  0.
        -12    1    1    2    0    0  0.20301236767E+02 -0.13922967540E+02 -0.20266461744E+02  0.31886026893E+02  0.00000000000E+00 0.  1.
         11    1    3    3    0    0  0.58118629097E+01 -0.97992456974E+01  0.36263538320E+01  0.11956312521E+02  0.51100000000E-03 0. -1.
        -11    1    3    3    0    0 -0.20579606893E+01 -0.38888708498E+01  0.88832873348E+01  0.99131888320E+01  0.51100000000E-03 0.  1.
        -12    1    3    3    0    0 -0.24055138987E+02  0.27611084087E+02  0.77568205776E+01  0.37432471754E+02  0.00000000000E+00 0.  1.
</event>
<event>
 7    1  0.1184848E-011  0.5930196E+02  0.7816164E-02  0.1266605E+00
        -11   -1    0    0    0    0  0.00000000000E+00  0.00000000000E+00  0.45593999997E+02  0.45594000000E+02  0.51100000000E-03 0. -1.
         11   -1    0    0    0    0 -0.00000000000E+00 -0.00000000000E+00 -0.45593999997E+02  0.45594000000E+02  0.51100000000E-03 0.  1.
    9900012    2    1    2    0    0  0.21715788957E+02  0.22572363375E+02  0.59693037268E+01  0.59301958143E+02  0.50000025742E+02 0.  0.
        -12    1    1    2    0    0 -0.21715788957E+02 -0.22572363375E+02 -0.59693037268E+01  0.31886041857E+02  0.00000000000E+00 0.  1.
         11    1    3    3    0    0  0.15217526101E+02  0.20331644081E+02 -0.14033731091E+01  0.25434588812E+02  0.51100000000E-03 0. -1.
        -11    1    3    3    0    0  0.11532776781E+02  0.14662398473E+02  0.83304161603E+01  0.20430044124E+02  0.51100000000E-03 0.  1.
        -12    1    3    3    0    0 -0.50345139254E+01 -0.12421679179E+02 -0.95773932446E+00  0.13437325206E+02  0.00000000000E+00 0.  1.
</event>
<event>
 7    1  0.1184848E-011  0.5930194E+02  0.7816164E-02  0.1266605E+00
        -11   -1    0    0    0    0  0.00000000000E+00  0.00000000000E+00  0.45593999997E+02  0.45594000000E+02  0.51100000000E-03 0.  1.
         11   -1    0    0    0    0 -0.00000000000E+00 -0.00000000000E+00 -0.45593999997E+02  0.45594000000E+02  0.51100000000E-03 0. -1.
    9900012    2    1    2    0    0  0.26696708172E+02 -0.14127652915E+02 -0.10218417952E+02  0.59301939260E+02  0.49999991304E+02 0.  0.
        -12    1    1    2    0    0 -0.26696708172E+02  0.14127652915E+02  0.10218417952E+02  0.31886060740E+02  0.00000000000E+00 0.  1.
         11    1    3    3    0    0  0.23570752026E+02  0.64573407198E-01  0.42187504466E+01  0.23945404076E+02  0.51100000000E-03 0. -1.
        -11    1    3    3    0    0  0.14332768222E+02 -0.14929157934E+02 -0.11787932259E+02  0.23817290961E+02  0.51100000000E-03 0.  1.
        -12    1    3    3    0    0 -0.11206812076E+02  0.73693161170E+00 -0.26492361390E+01  0.11539244222E+02  0.00000000000E+00 0.  1.
</event>
<event>
 7    1  0.1184848E-011  0.5930195E+02  0.7816164E-02  0.1266605E+00
        -11   -1    0    0    0    0  0.00000000000E+00  0.00000000000E+00  0.45593999997E+02  0.45594000000E+02  0.51100000000E-03 0. -1.
         11   -1    0    0    0    0 -0.00000000000E+00 -0.00000000000E+00 -0.45593999997E+02  0.45594000000E+02  0.51100000000E-03 0.  1.
    9900012    2    1    2    0    0  0.15227150167E+02 -0.19374999600E+02  0.20235205918E+02  0.59301948657E+02  0.50000008443E+02 0.  0.
        -12    1    1    2    0    0 -0.15227150167E+02  0.19374999600E+02 -0.20235205918E+02  0.31886051343E+02  0.00000000000E+00 0.  1.
         11    1    3    3    0    0 -0.46920166269E+01 -0.51082829356E+01  0.11156205999E+02  0.13136609423E+02  0.51100000000E-03 0. -1.
        -11    1    3    3    0    0  0.14781254386E+01 -0.22305913536E+02 -0.32212899122E+01  0.22585733161E+02  0.51100000000E-03 0.  1.
         12    1    3    3    0    0  0.18441041356E+02  0.80391968720E+01  0.12300289831E+02  0.23579606073E+02  0.00000000000E+00 0. -1.
</event>
<event>
 7    1  0.1184848E-011  0.5930183E+02  0.7816164E-02  0.1266605E+00
        -11   -1    0    0    0    0  0.00000000000E+00  0.00000000000E+00  0.45593999997E+02  0.45594000000E+02  0.51100000000E-03 0. -1.
         11   -1    0    0    0    0 -0.00000000000E+00 -0.00000000000E+00 -0.45593999997E+02  0.45594000000E+02  0.51100000000E-03 0.  1.
    9900012    2    1    2    0    0  0.15404473154E+02 -0.38379969104E+01  0.27653204221E+02  0.59301831884E+02  0.49999795476E+02 0.  0.
        -12    1    1    2    0    0 -0.15404473154E+02  0.38379969104E+01 -0.27653204221E+02  0.31886168116E+02  0.00000000000E+00 0.  1.
         11    1    3    3    0    0  0.17265739987E+02  0.14634370616E+02  0.16025814755E+02  0.27732603907E+02  0.51100000000E-03 0. -1.
        -11    1    3    3    0    0  0.69870796338E+01 -0.10929189932E+02  0.14637977204E+02  0.19558549314E+02  0.51100000000E-03 0.  1.
        -12    1    3    3    0    0 -0.88483464663E+01 -0.75431775952E+01 -0.30105877379E+01  0.12010678663E+02  0.00000000000E+00 0.  1.
</event>
<event>
 7    1  0.1184848E-011  0.5930195E+02  0.7816164E-02  0.1266605E+00
        -11   -1    0    0    0    0  0.00000000000E+00  0.00000000000E+00  0.45593999997E+02  0.45594000000E+02  0.51100000000E-03 0.  1.
         11   -1    0    0    0    0 -0.00000000000E+00 -0.00000000000E+00 -0.45593999997E+02  0.45594000000E+02  0.51100000000E-03 0. -1.
    9900012    2    1    2    0    0 -0.12372837536E+02 -0.28296301826E+01 -0.29251094052E+02  0.59301946326E+02  0.50000004192E+02 0.  0.
        -12    1    1    2    0    0  0.12372837536E+02  0.28296301826E+01  0.29251094052E+02  0.31886053674E+02  0.00000000000E+00 0.  1.
         11    1    3    3    0    0 -0.42013130217E+01  0.56785684991E+01  0.30345651546E+01  0.76880268759E+01  0.51100000000E-03 0. -1.
        -11    1    3    3    0    0  0.13517409556E+02  0.20549181350E+01 -0.36121537532E+01  0.14141806980E+02  0.51100000000E-03 0.  1.
         12    1    3    3    0    0 -0.21688934071E+02 -0.10563116817E+02 -0.28673505453E+02  0.37472112470E+02  0.00000000000E+00 0. -1.
</event>
<event>
 7    1  0.1184848E-011  0.5930195E+02  0.7816164E-02  0.1266605E+00
        -11   -1    0    0    0    0  0.00000000000E+00  0.00000000000E+00  0.45593999997E+02  0.45594000000E+02  0.51100000000E-03 0.  1.
         11   -1    0    0    0    0 -0.00000000000E+00 -0.00000000000E+00 -0.45593999997E+02  0.45594000000E+02  0.51100000000E-03 0. -1.
    9900012    2    1    2    0    0 -0.92394557833E+01 -0.30391109205E+02  0.27808314706E+01  0.59301951553E+02  0.50000013725E+02 0.  0.
        -12    1    1    2    0    0  0.92394557833E+01  0.30391109205E+02 -0.27808314706E+01  0.31886048447E+02  0.00000000000E+00 0.  1.
         11    1    3    3    0    0  0.26283676771E+01  0.55399653328E+00 -0.11201312666E+02  0.11518881652E+02  0.51100000000E-03 0. -1.
        -11    1    3    3    0    0  0.36580712518E+01  0.51151340189E+01  0.65696283149E+00  0.63227906606E+01  0.51100000000E-03 0.  1.
        -12    1    3    3    0    0 -0.15525894712E+02 -0.36060239757E+02  0.13325181305E+02  0.41460279241E+02  0.00000000000E+00 0.  1.
</event>
<event>
 7    1  0.1184848E-011  0.5930195E+02  0.7816164E-02  0.1266605E+00
        -11   -1    0    0    0    0  0.00000000000E+00  0.00000000000E+00  0.45593999997E+02  0.45594000000E+02  0.51100000000E-03 0. -1.
         11   -1    0    0    0    0 -0.00000000000E+00 -0.00000000000E+00 -0.45593999997E+02  0.45594000000E+02  0.51100000000E-03 0.  1.
    9900012    2    1    2    0    0  0.68288252542E+01  0.96158546487E+01  0.29624695195E+02  0.59301951634E+02  0.50000013872E+02 0.  0.
        -12    1    1    2    0    0 -0.68288252542E+01 -0.96158546487E+01 -0.29624695195E+02  0.31886048366E+02  0.00000000000E+00 0.  1.
         11    1    3    3    0    0  0.18375973288E+02  0.89182281359E+01  0.16735239959E+02  0.26406049385E+02  0.51100000000E-03 0. -1.
        -11    1    3    3    0    0  0.10571189202E+01  0.94924397201E+01 -0.37350309626E+01  0.10255455563E+02  0.51100000000E-03 0.  1.
         12    1    3    3    0    0 -0.12604266954E+02 -0.87948132074E+01  0.16624486198E+02  0.22640446686E+02  0.00000000000E+00 0. -1.
</event>
<event>
 7    1  0.1184848E-011  0.5930196E+02  0.7816164E-02  0.1266605E+00
        -11   -1    0    0    0    0  0.00000000000E+00  0.00000000000E+00  0.45593999997E+02  0.45594000000E+02  0.51100000000E-03 0.  1.
         11   -1    0    0    0    0 -0.00000000000E+00 -0.00000000000E+00 -0.45593999997E+02  0.45594000000E+02  0.51100000000E-03 0. -1.
    9900012    2    1    2    0    0 -0.59508041904E+01  0.73091759727E+01 -0.30461178687E+02  0.59301960251E+02  0.50000029587E+02 0.  0.
        -12    1    1    2    0    0  0.59508041904E+01 -0.73091759727E+01  0.30461178687E+02  0.31886039749E+02  0.00000000000E+00 0.  1.
         11    1    3    3    0    0 -0.13704583508E+01  0.17580228903E+02 -0.13083314751E+02  0.21957133910E+02  0.51100000000E-03 0. -1.
        -11    1    3    3    0    0 -0.85431766497E+01  0.80367334986E+01  0.93833784470E-01  0.11729610293E+02  0.51100000000E-03 0.  1.
         12    1    3    3    0    0  0.39628308101E+01 -0.18307786429E+02 -0.17471697720E+02  0.25615216048E+02  0.00000000000E+00 0. -1.
</event>
<event>
 7    1  0.1184848E-011  0.5930194E+02  0.7816164E-02  0.1266605E+00
        -11   -1    0    0    0    0  0.00000000000E+00  0.00000000000E+00  0.45593999997E+02  0.45594000000E+02  0.51100000000E-03 0. -1.
         11   -1    0    0    0    0 -0.00000000000E+00 -0.00000000000E+00 -0.45593999997E+02  0.45594000000E+02  0.51100000000E-03 0.  1.
    9900012    2    1    2    0    0 -0.12782984268E+02  0.29051773452E+02  0.30513324129E+01  0.59301939456E+02  0.49999991662E+02 0.  0.
        -12    1    1    2    0    0  0.12782984268E+02 -0.29051773452E+02 -0.30513324129E+01  0.31886060544E+02  0.00000000000E+00 0.  1.
         11    1    3    3    0    0 -0.42839888418E+01  0.12289461160E+02 -0.56120085881E+01  0.14173145616E+02  0.51100000000E-03 0. -1.
        -11    1    3    3    0    0 -0.87666596368E+01  0.43251381814E+00 -0.14402493246E+02  0.16866333370E+02  0.51100000000E-03 0.  1.
         12    1    3    3    0    0  0.26766421072E+00  0.16329798474E+02  0.23065834247E+02  0.28262460470E+02  0.00000000000E+00 0. -1.
</event>
<event>
 7    1  0.1184848E-011  0.5930195E+02  0.7816164E-02  0.1266605E+00
        -11   -1    0    0    0    0  0.00000000000E+00  0.00000000000E+00  0.45593999997E+02  0.45594000000E+02  0.51100000000E-03 0.  1.
         11   -1    0    0    0    0 -0.00000000000E+00 -0.00000000000E+00 -0.45593999997E+02  0.45594000000E+02  0.51100000000E-03 0. -1.
    9900012    2    1    2    0    0 -0.60989675029E+01  0.12644102781E+02 -0.28629522363E+02  0.59301948340E+02  0.50000007864E+02 0.  0.
        -12    1    1    2    0    0  0.60989675029E+01 -0.12644102781E+02  0.28629522363E+02  0.31886051660E+02  0.00000000000E+00 0.  1.
         11    1    3    3    0    0 -0.20094235948E+02  0.15146932948E+02 -0.78129519530E+01  0.26348626427E+02  0.51100000000E-03 0.  1.
        -11    1    3    3    0    0  0.71402602642E+01  0.86733554289E+01 -0.14657814948E+02  0.18467862636E+02  0.51100000000E-03 0. -1.
        -12    1    3    3    0    0  0.68550081814E+01 -0.11176185595E+02 -0.61587554622E+01  0.14485459277E+02  0.00000000000E+00 0.  1.
</event>
<event>
 7    1  0.1184848E-011  0.5930197E+02  0.7816164E-02  0.1266605E+00
        -11   -1    0    0    0    0  0.00000000000E+00  0.00000000000E+00  0.45593999997E+02  0.45594000000E+02  0.51100000000E-03 0. -1.
         11   -1    0    0    0    0 -0.00000000000E+00 -0.00000000000E+00 -0.45593999997E+02  0.45594000000E+02  0.51100000000E-03 0.  1.
    9900012    2    1    2    0    0  0.93070082405E+01  0.29536732604E+02  0.75947398761E+01  0.59301967806E+02  0.50000043366E+02 0.  0.
        -12    1    1    2    0    0 -0.93070082405E+01 -0.29536732604E+02 -0.75947398761E+01  0.31886032194E+02  0.00000000000E+00 0.  1.
         11    1    3    3    0    0 -0.30128121374E+01  0.26148473412E+02  0.23099426216E+01  0.26422632987E+02  0.51100000000E-03 0. -1.
        -11    1    3    3    0    0 -0.33872317540E+01  0.72270970713E+01 -0.84793739097E+01  0.11644915337E+02  0.51100000000E-03 0.  1.
         12    1    3    3    0    0  0.15707052132E+02 -0.38388378800E+01  0.13764171164E+02  0.21234419483E+02  0.00000000000E+00 0. -1.
</event>
<event>
 7    1  0.1184848E-011  0.5930196E+02  0.7816164E-02  0.1266605E+00
        -11   -1    0    0    0    0  0.00000000000E+00  0.00000000000E+00  0.45593999997E+02  0.45594000000E+02  0.51100000000E-03 0. -1.
         11   -1    0    0    0    0 -0.00000000000E+00 -0.00000000000E+00 -0.45593999997E+02  0.45594000000E+02  0.51100000000E-03 0.  1.
    9900012    2    1    2    0    0  0.32734775337E+01 -0.30186639198E+02 -0.97350248279E+01  0.59301959957E+02  0.50000029051E+02 0.  0.
        -12    1    1    2    0    0 -0.32734775337E+01  0.30186639198E+02  0.97350248279E+01  0.31886040043E+02  0.00000000000E+00 0.  1.
         11    1    3    3    0    0  0.76573122187E+01 -0.22077431950E+02 -0.13367005417E+01  0.23405858252E+02  0.51100000000E-03 0. -1.
        -11    1    3    3    0    0 -0.14725032363E+01  0.11437920725E+02  0.44088789091E+01  0.12346356134E+02  0.51100000000E-03 0.  1.
         12    1    3    3    0    0 -0.29113314487E+01 -0.19547127973E+02 -0.12807203195E+02  0.23549745571E+02  0.00000000000E+00 0. -1.
</event>
<event>
 7    1  0.1184848E-011  0.5930195E+02  0.7816164E-02  0.1266605E+00
        -11   -1    0    0    0    0  0.00000000000E+00  0.00000000000E+00  0.45593999997E+02  0.45594000000E+02  0.51100000000E-03 0.  1.
         11   -1    0    0    0    0 -0.00000000000E+00 -0.00000000000E+00 -0.45593999997E+02  0.45594000000E+02  0.51100000000E-03 0. -1.
    9900012    2    1    2    0    0  0.44874928623E+01 -0.21312440237E+02 -0.23288681704E+02  0.59301946677E+02  0.50000004831E+02 0.  0.
        -12    1    1    2    0    0 -0.44874928623E+01  0.21312440237E+02  0.23288681704E+02  0.31886053323E+02  0.00000000000E+00 0.  1.
         11    1    3    3    0    0 -0.59396821080E+01  0.88739519364E+00 -0.16390542003E+02  0.17456149667E+02  0.51100000000E-03 0. -1.
        -11    1    3    3    0    0 -0.88283790724E+01  0.31677469792E+01 -0.24009578824E+01  0.96819159769E+01  0.51100000000E-03 0.  1.
        -12    1    3    3    0    0  0.19255554043E+02 -0.25367582410E+02 -0.44971818184E+01  0.32163881033E+02  0.00000000000E+00 0.  1.
</event>
<event>
 7    1  0.1184848E-011  0.5930198E+02  0.7816164E-02  0.1266605E+00
        -11   -1    0    0    0    0  0.00000000000E+00  0.00000000000E+00  0.45593999997E+02  0.45594000000E+02  0.51100000000E-03 0. -1.
         11   -1    0    0    0    0 -0.00000000000E+00 -0.00000000000E+00 -0.45593999997E+02  0.45594000000E+02  0.51100000000E-03 0.  1.
    9900012    2    1    2    0    0 -0.20378783399E+02 -0.10395314479E+02  0.22211732070E+02  0.59301977709E+02  0.50000061427E+02 0.  0.
        -12    1    1    2    0    0  0.20378783399E+02  0.10395314479E+02 -0.22211732070E+02  0.31886022291E+02  0.00000000000E+00 0.  1.
         11    1    3    3    0    0 -0.78325842114E+01 -0.26324043038E+01  0.69237173571E+01  0.10780389146E+02  0.51100000000E-03 0. -1.
        -11    1    3    3    0    0 -0.26223454070E+02  0.47121093299E+01  0.42830637707E+01  0.26985517472E+02  0.51100000000E-03 0.  1.
        -12    1    3    3    0    0  0.13677254882E+02 -0.12475019505E+02  0.11004950943E+02  0.21536071091E+02  0.00000000000E+00 0.  1.
</event>
<event>
 7    1  0.1184848E-011  0.5930195E+02  0.7816164E-02  0.1266605E+00
        -11   -1    0    0    0    0  0.00000000000E+00  0.00000000000E+00  0.45593999997E+02  0.45594000000E+02  0.51100000000E-03 0.  1.
         11   -1    0    0    0    0 -0.00000000000E+00 -0.00000000000E+00 -0.45593999997E+02  0.45594000000E+02  0.51100000000E-03 0. -1.
    9900012    2    1    2    0    0 -0.57872860237E+00  0.30989604594E+02 -0.74853056519E+01  0.59301947871E+02  0.50000007009E+02 0.  0.
        -12    1    1    2    0    0  0.57872860237E+00 -0.30989604594E+02  0.74853056519E+01  0.31886052129E+02  0.00000000000E+00 0.  1.
         11    1    3    3    0    0 -0.65334296419E+01  0.17659434650E+02 -0.16110549815E+02  0.24780862588E+02  0.51100000000E-03 0. -1.
        -11    1    3    3    0    0  0.86714716637E+01 -0.73147444962E+01  0.76352064130E+01  0.13674658500E+02  0.51100000000E-03 0.  1.
         12    1    3    3    0    0 -0.27167706242E+01  0.20644914440E+02  0.99003774969E+00  0.20846426783E+02  0.00000000000E+00 0. -1.
</event>
<event>
 7    1  0.1184848E-011  0.5930197E+02  0.7816164E-02  0.1266605E+00
        -11   -1    0    0    0    0  0.00000000000E+00  0.00000000000E+00  0.45593999997E+02  0.45594000000E+02  0.51100000000E-03 0.  1.
         11   -1    0    0    0    0 -0.00000000000E+00 -0.00000000000E+00 -0.45593999997E+02  0.45594000000E+02  0.51100000000E-03 0. -1.
    9900012    2    1    2    0    0  0.11700081590E+02  0.29188716867E+02 -0.52769151873E+01  0.59301969588E+02  0.50000046616E+02 0.  0.
        -12    1    1    2    0    0 -0.11700081590E+02 -0.29188716867E+02  0.52769151873E+01  0.31886030412E+02  0.00000000000E+00 0.  1.
         11    1    3    3    0    0  0.45807754072E+01 -0.67992151261E+01  0.13171740227E+02  0.15514753318E+02  0.51100000000E-03 0. -1.
        -11    1    3    3    0    0  0.28395495647E+00 -0.96334155200E+00 -0.29890497230E+01  0.31532643198E+01  0.51100000000E-03 0.  1.
         12    1    3    3    0    0  0.68353512261E+01  0.36951273545E+02 -0.15459605691E+02  0.40633951950E+02  0.00000000000E+00 0. -1.
</event>
<event>
 7    1  0.1184848E-011  0.5930196E+02  0.7816164E-02  0.1266605E+00
        -11   -1    0    0    0    0  0.00000000000E+00  0.00000000000E+00  0.45593999997E+02  0.45594000000E+02  0.51100000000E-03 0.  1.
         11   -1    0    0    0    0 -0.00000000000E+00 -0.00000000000E+00 -0.45593999997E+02  0.45594000000E+02  0.51100000000E-03 0. -1.
    9900012    2    1    2    0    0 -0.20851851906E+02 -0.23232316773E+02  0.64945522548E+01  0.59301961057E+02  0.50000031056E+02 0.  0.
        -12    1    1    2    0    0  0.20851851906E+02  0.23232316773E+02 -0.64945522548E+01  0.31886038943E+02  0.00000000000E+00 0.  1.
         11    1    3    3    0    0 -0.12247603048E+02 -0.76017454423E+01  0.67075212322E+01  0.15899092916E+02  0.51100000000E-03 0. -1.
        -11    1    3    3    0    0 -0.26668869918E+00  0.70507314943E+01  0.13778086454E+02  0.15479651290E+02  0.51100000000E-03 0.  1.
         12    1    3    3    0    0 -0.83375601580E+01 -0.22681302825E+02 -0.13991055431E+02  0.27923216851E+02  0.00000000000E+00 0. -1.
</event>
<event>
 7    1  0.1184848E-011  0.5930195E+02  0.7816164E-02  0.1266605E+00
        -11   -1    0    0    0    0  0.00000000000E+00  0.00000000000E+00  0.45593999997E+02  0.45594000000E+02  0.51100000000E-03 0.  1.
         11   -1    0    0    0    0 -0.00000000000E+00 -0.00000000000E+00 -0.45593999997E+02  0.45594000000E+02  0.51100000000E-03 0. -1.
    9900012    2    1    2    0    0 -0.11160946448E+02 -0.23468237674E+01 -0.29776602748E+02  0.59301946958E+02  0.50000005344E+02 0.  0.
        -12    1    1    2    0    0  0.11160946448E+02  0.23468237674E+01  0.29776602748E+02  0.31886053042E+02  0.00000000000E+00 0.  1.
         11    1    3    3    0    0 -0.66391226686E+00 -0.53362431458E+01 -0.21289456055E+02  0.21958078463E+02  0.51100000000E-03 0. -1.
        -11    1    3    3    0    0  0.17906046193E+01  0.10457029859E+02 -0.17434317598E+02  0.20408605262E+02  0.51100000000E-03 0.  1.
        -12    1    3    3    0    0 -0.12287638800E+02 -0.74676104808E+01  0.89471709047E+01  0.16935263233E+02  0.00000000000E+00 0.  1.
</event>
<event>
 7    1  0.1184848E-011  0.5930193E+02  0.7816164E-02  0.1266605E+00
        -11   -1    0    0    0    0  0.00000000000E+00  0.00000000000E+00  0.45593999997E+02  0.45594000000E+02  0.51100000000E-03 0. -1.
         11   -1    0    0    0    0 -0.00000000000E+00 -0.00000000000E+00 -0.45593999997E+02  0.45594000000E+02  0.51100000000E-03 0.  1.
    9900012    2    1    2    0    0 -0.30262261563E+02  0.10023540485E+02  0.66749943943E+00  0.59301931031E+02  0.49999976298E+02 0.  0.
        -12    1    1    2    0    0  0.30262261563E+02 -0.10023540485E+02 -0.66749943943E+00  0.31886068969E+02  0.00000000000E+00 0.  1.
         11    1    3    3    0    0 -0.13806806411E+02 -0.50693210581E+01  0.33255109121E+01  0.15079288523E+02  0.51100000000E-03 0. -1.
        -11    1    3    3    0    0  0.23121767773E+01 -0.99669626204E+01  0.58405039810E+01  0.11781255975E+02  0.51100000000E-03 0.  1.
         12    1    3    3    0    0 -0.18767631930E+02  0.25059824163E+02 -0.84985154537E+01  0.32441386534E+02  0.00000000000E+00 0. -1.
</event>
<event>
 7    1  0.1184848E-011  0.5930225E+02  0.7816164E-02  0.1266604E+00
        -11   -1    0    0    0    0  0.00000000000E+00  0.00000000000E+00  0.45593999997E+02  0.45594000000E+02  0.51100000000E-03 0.  1.
         11   -1    0    0    0    0 -0.00000000000E+00 -0.00000000000E+00 -0.45593999997E+02  0.45594000000E+02  0.51100000000E-03 0. -1.
    9900012    2    1    2    0    0  0.29717819790E+02 -0.72349166589E+01  0.90115478387E+01  0.59302253551E+02  0.50000564493E+02 0.  0.
        -12    1    1    2    0    0 -0.29717819790E+02  0.72349166589E+01 -0.90115478387E+01  0.31885746449E+02  0.00000000000E+00 0.  1.
         11    1    3    3    0    0  0.12677132184E+02  0.87957691157E-01  0.19157935751E+02  0.22972677672E+02  0.51100000000E-03 0. -1.
        -11    1    3    3    0    0  0.45579847721E+01 -0.17651916781E+02 -0.82709000246E+01  0.20019320136E+02  0.51100000000E-03 0.  1.
         12    1    3    3    0    0  0.12482702835E+02  0.10329042431E+02 -0.18754878873E+01  0.16310255743E+02  0.00000000000E+00 0. -1.
</event>
<event>
 7    1  0.1184848E-011  0.5930195E+02  0.7816164E-02  0.1266605E+00
        -11   -1    0    0    0    0  0.00000000000E+00  0.00000000000E+00  0.45593999997E+02  0.45594000000E+02  0.51100000000E-03 0. -1.
         11   -1    0    0    0    0 -0.00000000000E+00 -0.00000000000E+00 -0.45593999997E+02  0.45594000000E+02  0.51100000000E-03 0.  1.
    9900012    2    1    2    0    0  0.37868335670E+01  0.31054592604E+02  0.61638093170E+01  0.59301947005E+02  0.50000005430E+02 0.  0.
        -12    1    1    2    0    0 -0.37868335670E+01 -0.31054592604E+02 -0.61638093170E+01  0.31886052995E+02  0.00000000000E+00 0.  1.
         11    1    3    3    0    0  0.98683764615E+01 -0.29901380250E+01 -0.12899687075E+01  0.10391814034E+02  0.51100000000E-03 0. -1.
        -11    1    3    3    0    0  0.74015322042E+00  0.23450717495E+02 -0.11516513262E+02  0.26136450712E+02  0.51100000000E-03 0.  1.
         12    1    3    3    0    0 -0.68216961150E+01  0.10594013134E+02  0.18970291286E+02  0.22773682260E+02  0.00000000000E+00 0. -1.
</event>
<event>
 7    1  0.1184848E-011  0.5930193E+02  0.7816164E-02  0.1266605E+00
        -11   -1    0    0    0    0  0.00000000000E+00  0.00000000000E+00  0.45593999997E+02  0.45594000000E+02  0.51100000000E-03 0. -1.
         11   -1    0    0    0    0 -0.00000000000E+00 -0.00000000000E+00 -0.45593999997E+02  0.45594000000E+02  0.51100000000E-03 0.  1.
    9900012    2    1    2    0    0  0.71901474805E+01 -0.22983090146E+02  0.20899784927E+02  0.59301926811E+02  0.49999968601E+02 0.  0.
        -12    1    1    2    0    0 -0.71901474805E+01  0.22983090146E+02 -0.20899784927E+02  0.31886073189E+02  0.00000000000E+00 0.  1.
         11    1    3    3    0    0  0.67791886898E+00 -0.12816531228E+02 -0.27076071164E+01  0.13116942604E+02  0.51100000000E-03 0. -1.
        -11    1    3    3    0    0 -0.99757516252E+01 -0.10344666829E+02 -0.31900801997E+01  0.14720881911E+02  0.51100000000E-03 0.  1.
         12    1    3    3    0    0  0.16487980237E+02  0.17810791107E+00  0.26797472243E+02  0.31464102296E+02  0.00000000000E+00 0. -1.
</event>
<event>
 7    1  0.1184848E-011  0.5930195E+02  0.7816164E-02  0.1266605E+00
        -11   -1    0    0    0    0  0.00000000000E+00  0.00000000000E+00  0.45593999997E+02  0.45594000000E+02  0.51100000000E-03 0. -1.
         11   -1    0    0    0    0 -0.00000000000E+00 -0.00000000000E+00 -0.45593999997E+02  0.45594000000E+02  0.51100000000E-03 0.  1.
    9900012    2    1    2    0    0  0.13598961799E+02  0.27391619121E+02  0.90270510872E+01  0.59301949579E+02  0.50000010125E+02 0.  0.
        -12    1    1    2    0    0 -0.13598961799E+02 -0.27391619121E+02 -0.90270510872E+01  0.31886050421E+02  0.00000000000E+00 0.  1.
         11    1    3    3    0    0  0.25332031521E+02  0.16523298214E+02 -0.16531563552E+01  0.30289670369E+02  0.51100000000E-03 0. -1.
        -11    1    3    3    0    0 -0.15388212305E+01 -0.51393004357E+01  0.83037881328E+01  0.98860142304E+01  0.51100000000E-03 0.  1.
        -12    1    3    3    0    0 -0.10194248491E+02  0.16007621343E+02  0.23764193095E+01  0.19126264980E+02  0.00000000000E+00 0.  1.
</event>
<event>
 7    1  0.1184848E-011  0.5930195E+02  0.7816164E-02  0.1266605E+00
        -11   -1    0    0    0    0  0.00000000000E+00  0.00000000000E+00  0.45593999997E+02  0.45594000000E+02  0.51100000000E-03 0.  1.
         11   -1    0    0    0    0 -0.00000000000E+00 -0.00000000000E+00 -0.45593999997E+02  0.45594000000E+02  0.51100000000E-03 0. -1.
    9900012    2    1    2    0    0  0.20431964543E+02  0.99518932818E+01 -0.22365479171E+02  0.59301952682E+02  0.50000015784E+02 0.  0.
        -12    1    1    2    0    0 -0.20431964543E+02 -0.99518932818E+01  0.22365479171E+02  0.31886047318E+02  0.00000000000E+00 0.  1.
         11    1    3    3    0    0 -0.52867252786E+01 -0.34381866173E+01 -0.13045216740E+02  0.14489591831E+02  0.51100000000E-03 0. -1.
        -11    1    3    3    0    0  0.36144865417E+01  0.15782002461E+02 -0.14775976500E+02  0.21919525461E+02  0.51100000000E-03 0.  1.
        -12    1    3    3    0    0  0.22104203280E+02 -0.23919225618E+01  0.54557140692E+01  0.22892835390E+02  0.00000000000E+00 0.  1.
</event>
<event>
 7    1  0.1358540E-011  0.5930194E+02  0.7816164E-02  0.1266605E+00
        -11   -1    0    0    0    0  0.00000000000E+00  0.00000000000E+00  0.45593999997E+02  0.45594000000E+02  0.51100000000E-03 0. -1.
         11   -1    0    0    0    0 -0.00000000000E+00 -0.00000000000E+00 -0.45593999997E+02  0.45594000000E+02  0.51100000000E-03 0.  1.
    9900012    2    1    2    0    0 -0.17480518709E+02  0.15112905920E+02  0.21971630793E+02  0.59301936910E+02  0.49999987019E+02 0.  0.
        -12    1    1    2    0    0  0.17480518709E+02 -0.15112905920E+02 -0.21971630793E+02  0.31886063090E+02  0.00000000000E+00 0.  1.
         11    1    3    3    0    0  0.57824743187E+01 -0.80579796033E+00  0.46995004792E+00  0.58572325298E+01  0.51100000000E-03 0. -1.
        -11    1    3    3    0    0 -0.95920351258E+01 -0.52520278213E+01 -0.87972584227E+01  0.14035052195E+02  0.51100000000E-03 0.  1.
         12    1    3    3    0    0 -0.13670957902E+02  0.21170731702E+02  0.30298939167E+02  0.39409652186E+02  0.00000000000E+00 0. -1.
</event>
<event>
 7    1  0.1184848E-011  0.5930193E+02  0.7816164E-02  0.1266605E+00
        -11   -1    0    0    0    0  0.00000000000E+00  0.00000000000E+00  0.45593999997E+02  0.45594000000E+02  0.51100000000E-03 0.  1.
         11   -1    0    0    0    0 -0.00000000000E+00 -0.00000000000E+00 -0.45593999997E+02  0.45594000000E+02  0.51100000000E-03 0. -1.
    9900012    2    1    2    0    0  0.22236774378E+02  0.12269091385E+02 -0.19279959025E+02  0.59301928462E+02  0.49999971612E+02 0.  0.
        -12    1    1    2    0    0 -0.22236774378E+02 -0.12269091385E+02  0.19279959025E+02  0.31886071538E+02  0.00000000000E+00 0.  1.
         11    1    3    3    0    0  0.63352174680E+01 -0.57044621981E+01  0.12462604122E+01  0.86156273487E+01  0.51100000000E-03 0. -1.
        -11    1    3    3    0    0 -0.66219213359E+01 -0.90243740005E+00  0.75221505021E+01  0.10062156025E+02  0.51100000000E-03 0.  1.
         12    1    3    3    0    0  0.22523478246E+02  0.18875990984E+02 -0.28048369939E+02  0.40624145088E+02  0.00000000000E+00 0. -1.
</event>
<event>
 7    1  0.1184848E-011  0.5930194E+02  0.7816164E-02  0.1266605E+00
        -11   -1    0    0    0    0  0.00000000000E+00  0.00000000000E+00  0.45593999997E+02  0.45594000000E+02  0.51100000000E-03 0.  1.
         11   -1    0    0    0    0 -0.00000000000E+00 -0.00000000000E+00 -0.45593999997E+02  0.45594000000E+02  0.51100000000E-03 0. -1.
    9900012    2    1    2    0    0  0.22788418249E+01  0.13001369635E+02 -0.29025712296E+02  0.59301941813E+02  0.49999995960E+02 0.  0.
        -12    1    1    2    0    0 -0.22788418249E+01 -0.13001369635E+02  0.29025712296E+02  0.31886058187E+02  0.00000000000E+00 0.  1.
         11    1    3    3    0    0  0.31370989037E+01  0.55731924967E+01 -0.18259297742E+02  0.19346933050E+02  0.51100000000E-03 0. -1.
        -11    1    3    3    0    0  0.15963953162E+02 -0.58952350932E+01 -0.47068735004E+01  0.17656620735E+02  0.51100000000E-03 0.  1.
         12    1    3    3    0    0 -0.16822210241E+02  0.13323412231E+02 -0.60595410532E+01  0.22298388028E+02  0.00000000000E+00 0. -1.
</event>
<event>
 7    1  0.1184848E-011  0.5930196E+02  0.7816164E-02  0.1266605E+00
        -11   -1    0    0    0    0  0.00000000000E+00  0.00000000000E+00  0.45593999997E+02  0.45594000000E+02  0.51100000000E-03 0.  1.
         11   -1    0    0    0    0 -0.00000000000E+00 -0.00000000000E+00 -0.45593999997E+02  0.45594000000E+02  0.51100000000E-03 0. -1.
    9900012    2    1    2    0    0 -0.14087480209E+02 -0.67440947291E+01 -0.27798918651E+02  0.59301956180E+02  0.50000022162E+02 0.  0.
        -12    1    1    2    0    0  0.14087480209E+02  0.67440947291E+01  0.27798918651E+02  0.31886043820E+02  0.00000000000E+00 0.  1.
         11    1    3    3    0    0 -0.89622178679E+01  0.37753365933E+01 -0.23702051780E+02  0.25619558434E+02  0.51100000000E-03 0. -1.
        -11    1    3    3    0    0  0.70190758800E+01  0.81091873101E+01 -0.39939759690E+01  0.11444570300E+02  0.51100000000E-03 0.  1.
         12    1    3    3    0    0 -0.12144338222E+02 -0.18628618633E+02 -0.10289090190E+00  0.22237827446E+02  0.00000000000E+00 0. -1.
</event>
<event>
 7    1  0.1184848E-011  0.5930190E+02  0.7816164E-02  0.1266605E+00
        -11   -1    0    0    0    0  0.00000000000E+00  0.00000000000E+00  0.45593999997E+02  0.45594000000E+02  0.51100000000E-03 0.  1.
         11   -1    0    0    0    0 -0.00000000000E+00 -0.00000000000E+00 -0.45593999997E+02  0.45594000000E+02  0.51100000000E-03 0. -1.
    9900012    2    1    2    0    0 -0.78360203293E+00 -0.72755038820E+01 -0.31035078273E+02  0.59301904718E+02  0.49999928309E+02 0.  0.
        -12    1    1    2    0    0  0.78360203293E+00  0.72755038820E+01  0.31035078273E+02  0.31886095282E+02  0.00000000000E+00 0.  1.
         11    1    3    3    0    0 -0.19924027476E+02 -0.12990739451E+02 -0.20632156968E+02  0.31486696933E+02  0.51100000000E-03 0.  1.
        -11    1    3    3    0    0  0.31652644491E+01 -0.53160270185E+01 -0.10862749378E+01  0.62816427625E+01  0.51100000000E-03 0. -1.
        -12    1    3    3    0    0  0.15975160994E+02  0.11031262588E+02 -0.93166463671E+01  0.21533565023E+02  0.00000000000E+00 0.  1.
</event>
<event>
 7    1  0.1206250E-011  0.5930194E+02  0.7816164E-02  0.1266605E+00
        -11   -1    0    0    0    0  0.00000000000E+00  0.00000000000E+00  0.45593999997E+02  0.45594000000E+02  0.51100000000E-03 0.  1.
         11   -1    0    0    0    0 -0.00000000000E+00 -0.00000000000E+00 -0.45593999997E+02  0.45594000000E+02  0.51100000000E-03 0. -1.
    9900012    2    1    2    0    0 -0.23871203826E+02 -0.73320981193E+01 -0.19827426958E+02  0.59301938865E+02  0.49999990584E+02 0.  0.
        -12    1    1    2    0    0  0.23871203826E+02  0.73320981193E+01  0.19827426958E+02  0.31886061135E+02  0.00000000000E+00 0.  1.
         11    1    3    3    0    0 -0.98013108049E+01  0.18841412424E+01  0.48749357595E+01  0.11107685656E+02  0.51100000000E-03 0. -1.
        -11    1    3    3    0    0 -0.10397173163E+02 -0.10466588742E+02  0.69478368674E+01  0.16307149570E+02  0.51100000000E-03 0.  1.
         12    1    3    3    0    0 -0.36727198576E+01  0.12503493807E+01 -0.31650199585E+02  0.31887103639E+02  0.00000000000E+00 0. -1.
</event>
<event>
 7    1  0.1184848E-011  0.5930199E+02  0.7816164E-02  0.1266605E+00
        -11   -1    0    0    0    0  0.00000000000E+00  0.00000000000E+00  0.45593999997E+02  0.45594000000E+02  0.51100000000E-03 0.  1.
         11   -1    0    0    0    0 -0.00000000000E+00 -0.00000000000E+00 -0.45593999997E+02  0.45594000000E+02  0.51100000000E-03 0. -1.
    9900012    2    1    2    0    0  0.19515768484E+02 -0.22846606670E+02 -0.10671699505E+02  0.59301986982E+02  0.50000078339E+02 0.  0.
        -12    1    1    2    0    0 -0.19515768484E+02  0.22846606670E+02  0.10671699505E+02  0.31886013018E+02  0.00000000000E+00 0.  1.
         11    1    3    3    0    0  0.66681588705E+01 -0.24270617008E+02 -0.13146636701E+02  0.28396500655E+02  0.51100000000E-03 0. -1.
        -11    1    3    3    0    0  0.66710654948E+01 -0.58080126081E+01 -0.11185653898E+02  0.14260258717E+02  0.51100000000E-03 0.  1.
        -12    1    3    3    0    0  0.61765441187E+01  0.72320229461E+01  0.13660591094E+02  0.16645227610E+02  0.00000000000E+00 0.  1.
</event>
<event>
 7    1  0.1184848E-011  0.5930197E+02  0.7816164E-02  0.1266605E+00
        -11   -1    0    0    0    0  0.00000000000E+00  0.00000000000E+00  0.45593999997E+02  0.45594000000E+02  0.51100000000E-03 0.  1.
         11   -1    0    0    0    0 -0.00000000000E+00 -0.00000000000E+00 -0.45593999997E+02  0.45594000000E+02  0.51100000000E-03 0. -1.
    9900012    2    1    2    0    0  0.16695500324E+02  0.87998551325E+01 -0.25701012221E+02  0.59301965273E+02  0.50000038746E+02 0.  0.
        -12    1    1    2    0    0 -0.16695500324E+02 -0.87998551325E+01  0.25701012221E+02  0.31886034727E+02  0.00000000000E+00 0.  1.
         11    1    3    3    0    0 -0.26531965180E+01  0.15559909821E+01 -0.15504175548E+02  0.15806328460E+02  0.51100000000E-03 0. -1.
        -11    1    3    3    0    0  0.12851596458E+01  0.16920029984E+02 -0.14773564074E+02  0.22498827651E+02  0.51100000000E-03 0.  1.
         12    1    3    3    0    0  0.18063537196E+02 -0.96761658340E+01  0.45767274003E+01  0.20996809162E+02  0.00000000000E+00 0. -1.
</event>
<event>
 7    1  0.1184848E-011  0.5930194E+02  0.7816164E-02  0.1266605E+00
        -11   -1    0    0    0    0  0.00000000000E+00  0.00000000000E+00  0.45593999997E+02  0.45594000000E+02  0.51100000000E-03 0.  1.
         11   -1    0    0    0    0 -0.00000000000E+00 -0.00000000000E+00 -0.45593999997E+02  0.45594000000E+02  0.51100000000E-03 0. -1.
    9900012    2    1    2    0    0 -0.26322088446E+02  0.11431259863E+02 -0.13899457582E+02  0.59301937790E+02  0.49999988623E+02 0.  0.
        -12    1    1    2    0    0  0.26322088446E+02 -0.11431259863E+02  0.13899457582E+02  0.31886062210E+02  0.00000000000E+00 0.  1.
         11    1    3    3    0    0 -0.38874542232E+01  0.26635697070E+01 -0.29623242702E+02  0.29995723235E+02  0.51100000000E-03 0. -1.
        -11    1    3    3    0    0 -0.14553677447E+01  0.23935997274E+01  0.16299509671E+01  0.32410114693E+01  0.51100000000E-03 0.  1.
        -12    1    3    3    0    0 -0.20979266478E+02  0.63740904284E+01  0.14093834153E+02  0.26065203085E+02  0.00000000000E+00 0.  1.
</event>
<event>
 7    1  0.1184848E-011  0.5930194E+02  0.7816164E-02  0.1266605E+00
        -11   -1    0    0    0    0  0.00000000000E+00  0.00000000000E+00  0.45593999997E+02  0.45594000000E+02  0.51100000000E-03 0.  1.
         11   -1    0    0    0    0 -0.00000000000E+00 -0.00000000000E+00 -0.45593999997E+02  0.45594000000E+02  0.51100000000E-03 0. -1.
    9900012    2    1    2    0    0  0.24983221751E+02 -0.18306610700E+02  0.75781023829E+01  0.59301937212E+02  0.49999987570E+02 0.  0.
        -12    1    1    2    0    0 -0.24983221751E+02  0.18306610700E+02 -0.75781023829E+01  0.31886062788E+02  0.00000000000E+00 0.  1.
         11    1    3    3    0    0  0.10954888607E+02 -0.20744012222E+02 -0.14896323437E+02  0.27788920088E+02  0.51100000000E-03 0. -1.
        -11    1    3    3    0    0  0.72292826900E+01 -0.61073294127E+01  0.44941200907E+01  0.10476598514E+02  0.51100000000E-03 0.  1.
        -12    1    3    3    0    0  0.67990504546E+01  0.85447309351E+01  0.17980305729E+02  0.21036418610E+02  0.00000000000E+00 0.  1.
</event>
<event>
 7    1  0.1184848E-011  0.5930199E+02  0.7816164E-02  0.1266605E+00
        -11   -1    0    0    0    0  0.00000000000E+00  0.00000000000E+00  0.45593999997E+02  0.45594000000E+02  0.51100000000E-03 0.  1.
         11   -1    0    0    0    0 -0.00000000000E+00 -0.00000000000E+00 -0.45593999997E+02  0.45594000000E+02  0.51100000000E-03 0. -1.
    9900012    2    1    2    0    0  0.28308397411E+02 -0.14477575591E+02 -0.23983298583E+01  0.59301991389E+02  0.50000086376E+02 0.  0.
        -12    1    1    2    0    0 -0.28308397411E+02  0.14477575591E+02  0.23983298583E+01  0.31886008611E+02  0.00000000000E+00 0.  1.
         11    1    3    3    0    0  0.85357851246E+00 -0.35374612406E+01 -0.59252241901E+01  0.69534531184E+01  0.51100000000E-03 0. -1.
        -11    1    3    3    0    0 -0.10260349501E+02  0.47405878018E+01 -0.44132081535E+00  0.11311176284E+02  0.51100000000E-03 0.  1.
        -12    1    3    3    0    0  0.37715168400E+02 -0.15680702153E+02  0.39682151471E+01  0.41037361988E+02  0.00000000000E+00 0.  1.
</event>
<event>
 7    1  0.1278233E-011  0.5930192E+02  0.7816164E-02  0.1266605E+00
        -11   -1    0    0    0    0  0.00000000000E+00  0.00000000000E+00  0.45593999997E+02  0.45594000000E+02  0.51100000000E-03 0. -1.
         11   -1    0    0    0    0 -0.00000000000E+00 -0.00000000000E+00 -0.45593999997E+02  0.45594000000E+02  0.51100000000E-03 0.  1.
    9900012    2    1    2    0    0 -0.18463285692E+02  0.13207873711E+02  0.22391544511E+02  0.59301919775E+02  0.49999955769E+02 0.  0.
        -12    1    1    2    0    0  0.18463285692E+02 -0.13207873711E+02 -0.22391544511E+02  0.31886080225E+02  0.00000000000E+00 0.  1.
         11    1    3    3    0    0 -0.78032488135E+01 -0.12026024497E+01 -0.51117220520E+01  0.94056710178E+01  0.51100000000E-03 0. -1.
        -11    1    3    3    0    0  0.83725673206E+01 -0.29042727969E+01 -0.35689789232E+01  0.95536534809E+01  0.51100000000E-03 0.  1.
         12    1    3    3    0    0 -0.19032604199E+02  0.17314748958E+02  0.31072245486E+02  0.40342595276E+02  0.00000000000E+00 0. -1.
</event>
<event>
 7    1  0.1184848E-011  0.5930195E+02  0.7816164E-02  0.1266605E+00
        -11   -1    0    0    0    0  0.00000000000E+00  0.00000000000E+00  0.45593999997E+02  0.45594000000E+02  0.51100000000E-03 0. -1.
         11   -1    0    0    0    0 -0.00000000000E+00 -0.00000000000E+00 -0.45593999997E+02  0.45594000000E+02  0.51100000000E-03 0.  1.
    9900012    2    1    2    0    0  0.87914907226E+01  0.28219864745E+02  0.11961157200E+02  0.59301947298E+02  0.50000005965E+02 0.  0.
        -12    1    1    2    0    0 -0.87914907226E+01 -0.28219864745E+02 -0.11961157200E+02  0.31886052702E+02  0.00000000000E+00 0.  1.
         11    1    3    3    0    0  0.13300130976E+02  0.23804920580E+02  0.19682407467E+02  0.33629821464E+02  0.51100000000E-03 0. -1.
        -11    1    3    3    0    0  0.43056317203E+01  0.52141091934E+01  0.62010225721E+01  0.91748613282E+01  0.51100000000E-03 0.  1.
        -12    1    3    3    0    0 -0.88142719735E+01 -0.79916502852E+00 -0.13922272839E+02  0.16497264506E+02  0.00000000000E+00 0.  1.
</event>
<event>
 7    1  0.1184848E-011  0.5930201E+02  0.7816164E-02  0.1266605E+00
        -11   -1    0    0    0    0  0.00000000000E+00  0.00000000000E+00  0.45593999997E+02  0.45594000000E+02  0.51100000000E-03 0.  1.
         11   -1    0    0    0    0 -0.00000000000E+00 -0.00000000000E+00 -0.45593999997E+02  0.45594000000E+02  0.51100000000E-03 0. -1.
    9900012    2    1    2    0    0  0.18670935840E+02 -0.21129402765E+02 -0.14888276921E+02  0.59302010976E+02  0.50000122097E+02 0.  0.
        -12    1    1    2    0    0 -0.18670935840E+02  0.21129402765E+02  0.14888276921E+02  0.31885989024E+02  0.00000000000E+00 0.  1.
         11    1    3    3    0    0  0.13546630708E+02 -0.69284713787E+01 -0.64473155829E+01  0.16525217024E+02  0.51100000000E-03 0. -1.
        -11    1    3    3    0    0  0.27438664288E+01 -0.13868316668E+02  0.14183068986E+02  0.20025445221E+02  0.51100000000E-03 0.  1.
        -12    1    3    3    0    0  0.23804387031E+01 -0.33261471892E+00 -0.22624030325E+02  0.22751348731E+02  0.00000000000E+00 0.  1.
</event>
<event>
 7    1  0.1184848E-011  0.5930179E+02  0.7816164E-02  0.1266605E+00
        -11   -1    0    0    0    0  0.00000000000E+00  0.00000000000E+00  0.45593999997E+02  0.45594000000E+02  0.51100000000E-03 0. -1.
         11   -1    0    0    0    0 -0.00000000000E+00 -0.00000000000E+00 -0.45593999997E+02  0.45594000000E+02  0.51100000000E-03 0.  1.
    9900012    2    1    2    0    0  0.92892311530E+01 -0.29197620310E+02  0.88283210896E+01  0.59301794511E+02  0.49999727317E+02 0.  0.
        -12    1    1    2    0    0 -0.92892311530E+01  0.29197620310E+02 -0.88283210896E+01  0.31886205489E+02  0.00000000000E+00 0.  1.
         11    1    3    3    0    0  0.62954948837E+01 -0.13886339220E+00 -0.89690586457E+01  0.10958857245E+02  0.51100000000E-03 0. -1.
        -11    1    3    3    0    0 -0.82122984379E+01 -0.19494577599E+02 -0.44912984660E+01  0.21625266786E+02  0.51100000000E-03 0.  1.
         12    1    3    3    0    0  0.11206034707E+02 -0.95641793193E+01  0.22288678201E+02  0.26717670480E+02  0.00000000000E+00 0. -1.
</event>
<event>
 7    1  0.1184848E-011  0.5930194E+02  0.7816164E-02  0.1266605E+00
        -11   -1    0    0    0    0  0.00000000000E+00  0.00000000000E+00  0.45593999997E+02  0.45594000000E+02  0.51100000000E-03 0.  1.
         11   -1    0    0    0    0 -0.00000000000E+00 -0.00000000000E+00 -0.45593999997E+02  0.45594000000E+02  0.51100000000E-03 0. -1.
    9900012    2    1    2    0    0  0.72317580284E+01  0.26125832397E+02 -0.16788778236E+02  0.59301944783E+02  0.50000001378E+02 0.  0.
        -12    1    1    2    0    0 -0.72317580284E+01 -0.26125832397E+02  0.16788778236E+02  0.31886055217E+02  0.00000000000E+00 0.  1.
         11    1    3    3    0    0  0.10015434521E+02  0.81778999814E+01 -0.56014033503E+01  0.14091227644E+02  0.51100000000E-03 0. -1.
        -11    1    3    3    0    0  0.42986361822E-01 -0.32590008461E+01  0.12718418591E+02  0.13129398541E+02  0.51100000000E-03 0.  1.
         12    1    3    3    0    0 -0.28266628545E+01  0.21206933262E+02 -0.23905793477E+02  0.32081318598E+02  0.00000000000E+00 0. -1.
</event>
<event>
 7    1  0.1184848E-011  0.5930196E+02  0.7816164E-02  0.1266605E+00
        -11   -1    0    0    0    0  0.00000000000E+00  0.00000000000E+00  0.45593999997E+02  0.45594000000E+02  0.51100000000E-03 0.  1.
         11   -1    0    0    0    0 -0.00000000000E+00 -0.00000000000E+00 -0.45593999997E+02  0.45594000000E+02  0.51100000000E-03 0. -1.
    9900012    2    1    2    0    0  0.56179187405E+01 -0.29904102698E+02 -0.95343272079E+01  0.59301956588E+02  0.50000022907E+02 0.  0.
        -12    1    1    2    0    0 -0.56179187405E+01  0.29904102698E+02  0.95343272079E+01  0.31886043412E+02  0.00000000000E+00 0.  1.
         11    1    3    3    0    0  0.84830896476E+01 -0.10158940655E+02 -0.85587122533E+01  0.15761295661E+02  0.51100000000E-03 0. -1.
        -11    1    3    3    0    0  0.14675971166E+02 -0.15625760515E+02  0.86451959310E+01  0.23114669244E+02  0.51100000000E-03 0.  1.
        -12    1    3    3    0    0 -0.17541142073E+02 -0.41194015283E+01 -0.96208108856E+01  0.20425991684E+02  0.00000000000E+00 0.  1.
</event>
<event>
 7    1  0.1278709E-011  0.5930194E+02  0.7816164E-02  0.1266605E+00
        -11   -1    0    0    0    0  0.00000000000E+00  0.00000000000E+00  0.45593999997E+02  0.45594000000E+02  0.51100000000E-03 0.  1.
         11   -1    0    0    0    0 -0.00000000000E+00 -0.00000000000E+00 -0.45593999997E+02  0.45594000000E+02  0.51100000000E-03 0. -1.
    9900012    2    1    2    0    0 -0.25749604195E+02 -0.18300825241E+02 -0.43310731869E+01  0.59301944809E+02  0.50000001425E+02 0.  0.
        -12    1    1    2    0    0  0.25749604195E+02  0.18300825241E+02  0.43310731869E+01  0.31886055191E+02  0.00000000000E+00 0.  1.
         11    1    3    3    0    0 -0.20385163547E+02 -0.38488245678E+01  0.13048649341E+02  0.24507867987E+02  0.51100000000E-03 0. -1.
        -11    1    3    3    0    0  0.69469852109E+01 -0.16698462284E+01  0.30184792461E+01  0.77563011266E+01  0.51100000000E-03 0.  1.
         12    1    3    3    0    0 -0.12311425858E+02 -0.12782154445E+02 -0.20398201774E+02  0.27037775695E+02  0.00000000000E+00 0. -1.
</event>
<event>
 7    1  0.1184848E-011  0.5930195E+02  0.7816164E-02  0.1266605E+00
        -11   -1    0    0    0    0  0.00000000000E+00  0.00000000000E+00  0.45593999997E+02  0.45594000000E+02  0.51100000000E-03 0. -1.
         11   -1    0    0    0    0 -0.00000000000E+00 -0.00000000000E+00 -0.45593999997E+02  0.45594000000E+02  0.51100000000E-03 0.  1.
    9900012    2    1    2    0    0  0.24595796649E+02 -0.18700903389E+02  0.78767475100E+01  0.59301950516E+02  0.50000011833E+02 0.  0.
        -12    1    1    2    0    0 -0.24595796649E+02  0.18700903389E+02 -0.78767475100E+01  0.31886049484E+02  0.00000000000E+00 0.  1.
         11    1    3    3    0    0 -0.58180810102E+01 -0.23632606259E+02  0.31099411615E+01  0.24536134160E+02  0.51100000000E-03 0. -1.
        -11    1    3    3    0    0  0.16130196262E+01 -0.66311016970E+00  0.51362322796E+01  0.54242446205E+01  0.51100000000E-03 0.  1.
        -12    1    3    3    0    0  0.28800858033E+02  0.55948130395E+01 -0.36942593108E+00  0.29341571735E+02  0.00000000000E+00 0.  1.
</event>
<event>
 7    1  0.1184848E-011  0.5930206E+02  0.7816164E-02  0.1266604E+00
        -11   -1    0    0    0    0  0.00000000000E+00  0.00000000000E+00  0.45593999997E+02  0.45594000000E+02  0.51100000000E-03 0.  1.
         11   -1    0    0    0    0 -0.00000000000E+00 -0.00000000000E+00 -0.45593999997E+02  0.45594000000E+02  0.51100000000E-03 0. -1.
    9900012    2    1    2    0    0  0.28966950795E+02 -0.77035888231E+01 -0.10875823121E+02  0.59302061913E+02  0.50000214994E+02 0.  0.
        -12    1    1    2    0    0 -0.28966950795E+02  0.77035888231E+01  0.10875823121E+02  0.31885938087E+02  0.00000000000E+00 0.  1.
         11    1    3    3    0    0 -0.21474178095E+01  0.64814028197E+01  0.19014939787E+01  0.70877122806E+01  0.51100000000E-03 0. -1.
        -11    1    3    3    0    0 -0.56012282183E+01 -0.65809855970E+01  0.57618692646E+01  0.10386638853E+02  0.51100000000E-03 0.  1.
         12    1    3    3    0    0  0.36715596823E+02 -0.76040060458E+01 -0.18539186364E+02  0.41827710779E+02  0.00000000000E+00 0. -1.
</event>
<event>
 7    1  0.1184848E-011  0.5930211E+02  0.7816164E-02  0.1266604E+00
        -11   -1    0    0    0    0  0.00000000000E+00  0.00000000000E+00  0.45593999997E+02  0.45594000000E+02  0.51100000000E-03 0.  1.
         11   -1    0    0    0    0 -0.00000000000E+00 -0.00000000000E+00 -0.45593999997E+02  0.45594000000E+02  0.51100000000E-03 0. -1.
    9900012    2    1    2    0    0  0.10729074327E+02 -0.21737190593E+01 -0.29947821419E+02  0.59302108164E+02  0.50000299344E+02 0.  0.
        -12    1    1    2    0    0 -0.10729074327E+02  0.21737190593E+01  0.29947821419E+02  0.31885891836E+02  0.00000000000E+00 0.  1.
         11    1    3    3    0    0 -0.49031008264E+01 -0.71902982983E+01 -0.95269552993E+01  0.12903629911E+02  0.51100000000E-03 0. -1.
        -11    1    3    3    0    0  0.36173284709E+01 -0.16001848624E+02 -0.32684823401E+01  0.16728036397E+02  0.51100000000E-03 0.  1.
        -12    1    3    3    0    0  0.12014846683E+02  0.21018427863E+02 -0.17152383779E+02  0.29670441856E+02  0.00000000000E+00 0.  1.
</event>
<event>
 7    1  0.1184848E-011  0.5930194E+02  0.7816164E-02  0.1266605E+00
        -11   -1    0    0    0    0  0.00000000000E+00  0.00000000000E+00  0.45593999997E+02  0.45594000000E+02  0.51100000000E-03 0.  1.
         11   -1    0    0    0    0 -0.00000000000E+00 -0.00000000000E+00 -0.45593999997E+02  0.45594000000E+02  0.51100000000E-03 0. -1.
    9900012    2    1    2    0    0  0.49452392864E+00  0.25538176824E+02 -0.19086065960E+02  0.59301938104E+02  0.49999989196E+02 0.  0.
        -12    1    1    2    0    0 -0.49452392864E+00 -0.25538176824E+02  0.19086065960E+02  0.31886061896E+02  0.00000000000E+00 0.  1.
         11    1    3    3    0    0 -0.12025455788E+02  0.16804721048E+02 -0.13334799534E+02  0.24593233120E+02  0.51100000000E-03 0. -1.
        -11    1    3    3    0    0  0.10711380712E+01  0.17104158740E+02 -0.10077450584E+02  0.19881010877E+02  0.51100000000E-03 0.  1.
        -12    1    3    3    0    0  0.11448841646E+02 -0.83707029645E+01  0.43261841571E+01  0.14827694106E+02  0.00000000000E+00 0.  1.
</event>
<event>
 7    1  0.1184848E-011  0.5930200E+02  0.7816164E-02  0.1266605E+00
        -11   -1    0    0    0    0  0.00000000000E+00  0.00000000000E+00  0.45593999997E+02  0.45594000000E+02  0.51100000000E-03 0.  1.
         11   -1    0    0    0    0 -0.00000000000E+00 -0.00000000000E+00 -0.45593999997E+02  0.45594000000E+02  0.51100000000E-03 0. -1.
    9900012    2    1    2    0    0 -0.34989465227E+01  0.28108529375E+02 -0.14641900026E+02  0.59301995441E+02  0.50000093765E+02 0.  0.
        -12    1    1    2    0    0  0.34989465227E+01 -0.28108529375E+02  0.14641900026E+02  0.31886004559E+02  0.00000000000E+00 0.  1.
         11    1    3    3    0    0 -0.80546720346E+01 -0.42066534268E+01  0.22129994981E+01  0.93525954514E+01  0.51100000000E-03 0. -1.
        -11    1    3    3    0    0 -0.12539510012E+02  0.30160984047E+01 -0.67379188406E+01  0.14551141244E+02  0.51100000000E-03 0.  1.
         12    1    3    3    0    0  0.17095235524E+02  0.29299084397E+02 -0.10116980683E+02  0.35398258746E+02  0.00000000000E+00 0. -1.
</event>
<event>
 7    1  0.1184848E-011  0.5930195E+02  0.7816164E-02  0.1266605E+00
        -11   -1    0    0    0    0  0.00000000000E+00  0.00000000000E+00  0.45593999997E+02  0.45594000000E+02  0.51100000000E-03 0.  1.
         11   -1    0    0    0    0 -0.00000000000E+00 -0.00000000000E+00 -0.45593999997E+02  0.45594000000E+02  0.51100000000E-03 0. -1.
    9900012    2    1    2    0    0 -0.22309804151E+02  0.19608900202E+02 -0.11596718971E+02  0.59301949456E+02  0.50000009900E+02 0.  0.
        -12    1    1    2    0    0  0.22309804151E+02 -0.19608900202E+02  0.11596718971E+02  0.31886050544E+02  0.00000000000E+00 0.  1.
         11    1    3    3    0    0 -0.40784828477E+01  0.31304156648E+01  0.13649063451E+02  0.14585282236E+02  0.51100000000E-03 0. -1.
        -11    1    3    3    0    0  0.45102633935E+01 -0.37049875720E+01 -0.12183412635E+01  0.59626977521E+01  0.51100000000E-03 0.  1.
         12    1    3    3    0    0 -0.22741584697E+02  0.20183472109E+02 -0.24027441158E+02  0.38753969468E+02  0.00000000000E+00 0. -1.
</event>
<event>
 7    1  0.1184848E-011  0.5930205E+02  0.7816164E-02  0.1266604E+00
        -11   -1    0    0    0    0  0.00000000000E+00  0.00000000000E+00  0.45593999997E+02  0.45594000000E+02  0.51100000000E-03 0.  1.
         11   -1    0    0    0    0 -0.00000000000E+00 -0.00000000000E+00 -0.45593999997E+02  0.45594000000E+02  0.51100000000E-03 0. -1.
    9900012    2    1    2    0    0  0.18916025184E+02  0.21162455848E+02  0.14527489457E+02  0.59302054880E+02  0.50000202168E+02 0.  0.
        -12    1    1    2    0    0 -0.18916025184E+02 -0.21162455848E+02 -0.14527489457E+02  0.31885945120E+02  0.00000000000E+00 0.  1.
         11    1    3    3    0    0  0.14326082482E+02  0.11741116926E+02 -0.65494024934E+01  0.19646504504E+02  0.51100000000E-03 0. -1.
        -11    1    3    3    0    0  0.14794811224E+01 -0.77674111703E+01 -0.41820793048E+01  0.89449051562E+01  0.51100000000E-03 0.  1.
        -12    1    3    3    0    0  0.31104615799E+01  0.17188750092E+02  0.25258971255E+02  0.30710645220E+02  0.00000000000E+00 0.  1.
</event>
<event>
 7    1  0.1184848E-011  0.5930218E+02  0.7816164E-02  0.1266604E+00
        -11   -1    0    0    0    0  0.00000000000E+00  0.00000000000E+00  0.45593999997E+02  0.45594000000E+02  0.51100000000E-03 0. -1.
         11   -1    0    0    0    0 -0.00000000000E+00 -0.00000000000E+00 -0.45593999997E+02  0.45594000000E+02  0.51100000000E-03 0.  1.
    9900012    2    1    2    0    0 -0.60660316587E+01 -0.21712678470E+01  0.31228103755E+02  0.59302178570E+02  0.50000427746E+02 0.  0.
        -12    1    1    2    0    0  0.60660316587E+01  0.21712678470E+01 -0.31228103755E+02  0.31885821430E+02  0.00000000000E+00 0.  1.
         11    1    3    3    0    0  0.73418620654E+01 -0.54355165524E+01 -0.54000278403E+00  0.91509224697E+01  0.51100000000E-03 0. -1.
        -11    1    3    3    0    0 -0.74254709266E+01 -0.16531117516E+02  0.14454182202E+02  0.23180570489E+02  0.51100000000E-03 0.  1.
        -12    1    3    3    0    0 -0.59824227975E+01  0.19795366221E+02  0.17313924337E+02  0.26970685611E+02  0.00000000000E+00 0.  1.
</event>
<event>
 7    1  0.1184848E-011  0.5930194E+02  0.7816164E-02  0.1266605E+00
        -11   -1    0    0    0    0  0.00000000000E+00  0.00000000000E+00  0.45593999997E+02  0.45594000000E+02  0.51100000000E-03 0. -1.
         11   -1    0    0    0    0 -0.00000000000E+00 -0.00000000000E+00 -0.45593999997E+02  0.45594000000E+02  0.51100000000E-03 0.  1.
    9900012    2    1    2    0    0  0.11581916511E+02 -0.20559274903E+02  0.21445190448E+02  0.59301940852E+02  0.49999994209E+02 0.  0.
        -12    1    1    2    0    0 -0.11581916511E+02  0.20559274903E+02 -0.21445190448E+02  0.31886059148E+02  0.00000000000E+00 0.  1.
         11    1    3    3    0    0  0.21245241691E+02 -0.65473067634E+01  0.53895610766E+01  0.22875202496E+02  0.51100000000E-03 0. -1.
        -11    1    3    3    0    0 -0.79269860559E+01 -0.20558363385E+01 -0.67539764922E+01  0.10615072760E+02  0.51100000000E-03 0.  1.
         12    1    3    3    0    0 -0.17363391240E+01 -0.11956131801E+02  0.22809605864E+02  0.25811665596E+02  0.00000000000E+00 0. -1.
</event>
<event>
 7    1  0.1184848E-011  0.5930194E+02  0.7816164E-02  0.1266605E+00
        -11   -1    0    0    0    0  0.00000000000E+00  0.00000000000E+00  0.45593999997E+02  0.45594000000E+02  0.51100000000E-03 0.  1.
         11   -1    0    0    0    0 -0.00000000000E+00 -0.00000000000E+00 -0.45593999997E+02  0.45594000000E+02  0.51100000000E-03 0. -1.
    9900012    2    1    2    0    0  0.12239931590E+02 -0.25775504522E+02 -0.14231239614E+02  0.59301941296E+02  0.49999995018E+02 0.  0.
        -12    1    1    2    0    0 -0.12239931590E+02  0.25775504522E+02  0.14231239614E+02  0.31886058704E+02  0.00000000000E+00 0.  1.
         11    1    3    3    0    0  0.10272574701E+02  0.54435849821E+01 -0.86824974644E+01  0.14510140279E+02  0.51100000000E-03 0. -1.
        -11    1    3    3    0    0 -0.53576829147E+01  0.44459448381E+01 -0.46481603656E+01  0.83711759486E+01  0.51100000000E-03 0.  1.
        -12    1    3    3    0    0  0.73250398041E+01 -0.35665034343E+02 -0.90058178419E+00  0.36420625068E+02  0.00000000000E+00 0.  1.
</event>
<event>
 7    1  0.1184848E-011  0.5930198E+02  0.7816164E-02  0.1266605E+00
        -11   -1    0    0    0    0  0.00000000000E+00  0.00000000000E+00  0.45593999997E+02  0.45594000000E+02  0.51100000000E-03 0.  1.
         11   -1    0    0    0    0 -0.00000000000E+00 -0.00000000000E+00 -0.45593999997E+02  0.45594000000E+02  0.51100000000E-03 0. -1.
    9900012    2    1    2    0    0  0.64500239705E+01  0.11764754896E+02 -0.28925876099E+02  0.59301975239E+02  0.50000056922E+02 0.  0.
        -12    1    1    2    0    0 -0.64500239705E+01 -0.11764754896E+02  0.28925876099E+02  0.31886024761E+02  0.00000000000E+00 0.  1.
         11    1    3    3    0    0  0.66006786583E+01  0.85553368532E+01 -0.29813158192E+02  0.31710994135E+02  0.51100000000E-03 0. -1.
        -11    1    3    3    0    0  0.17374478852E+01  0.54909627850E+01 -0.12562104846E+02  0.13819402154E+02  0.51100000000E-03 0.  1.
        -12    1    3    3    0    0 -0.18881025730E+01 -0.22815447422E+01  0.13449386939E+02  0.13771578950E+02  0.00000000000E+00 0.  1.
</event>
<event>
 7    1  0.1184848E-011  0.5930197E+02  0.7816164E-02  0.1266605E+00
        -11   -1    0    0    0    0  0.00000000000E+00  0.00000000000E+00  0.45593999997E+02  0.45594000000E+02  0.51100000000E-03 0.  1.
         11   -1    0    0    0    0 -0.00000000000E+00 -0.00000000000E+00 -0.45593999997E+02  0.45594000000E+02  0.51100000000E-03 0. -1.
    9900012    2    1    2    0    0 -0.18270465638E+02  0.16151666398E+01 -0.26082564514E+02  0.59301970934E+02  0.50000049071E+02 0.  0.
        -12    1    1    2    0    0  0.18270465638E+02 -0.16151666398E+01  0.26082564514E+02  0.31886029066E+02  0.00000000000E+00 0.  1.
         11    1    3    3    0    0 -0.94528553717E+01 -0.65564293985E+01  0.89749528764E-01  0.11504403347E+02  0.51100000000E-03 0. -1.
        -11    1    3    3    0    0 -0.21912490744E+02  0.13632732743E+02 -0.16925573449E+02  0.30862334479E+02  0.51100000000E-03 0.  1.
        -12    1    3    3    0    0  0.13094880477E+02 -0.54611367047E+01 -0.92467405939E+01  0.16935233108E+02  0.00000000000E+00 0.  1.
</event>
<event>
 7    1  0.1184848E-011  0.5930195E+02  0.7816164E-02  0.1266605E+00
        -11   -1    0    0    0    0  0.00000000000E+00  0.00000000000E+00  0.45593999997E+02  0.45594000000E+02  0.51100000000E-03 0. -1.
         11   -1    0    0    0    0 -0.00000000000E+00 -0.00000000000E+00 -0.45593999997E+02  0.45594000000E+02  0.51100000000E-03 0.  1.
    9900012    2    1    2    0    0 -0.10109230116E+02  0.35753633504E+01  0.30028996149E+02  0.59301947150E+02  0.50000005695E+02 0.  0.
        -12    1    1    2    0    0  0.10109230116E+02 -0.35753633504E+01 -0.30028996149E+02  0.31886052850E+02  0.00000000000E+00 0.  1.
         11    1    3    3    0    0 -0.41126125685E+01  0.12568359602E+02  0.20843283152E+02  0.24684401917E+02  0.51100000000E-03 0. -1.
        -11    1    3    3    0    0 -0.12464933590E+01  0.11163010345E+02 -0.14708215544E+01  0.11328277096E+02  0.51100000000E-03 0.  1.
        -12    1    3    3    0    0 -0.47501241883E+01 -0.20156006596E+02  0.10656534552E+02  0.23289268137E+02  0.00000000000E+00 0.  1.
</event>
<event>
 7    1  0.1184848E-011  0.5930195E+02  0.7816164E-02  0.1266605E+00
        -11   -1    0    0    0    0  0.00000000000E+00  0.00000000000E+00  0.45593999997E+02  0.45594000000E+02  0.51100000000E-03 0. -1.
         11   -1    0    0    0    0 -0.00000000000E+00 -0.00000000000E+00 -0.45593999997E+02  0.45594000000E+02  0.51100000000E-03 0.  1.
    9900012    2    1    2    0    0  0.14056096418E+02 -0.19347328486E+02  0.21090931792E+02  0.59301947094E+02  0.50000005592E+02 0.  0.
        -12    1    1    2    0    0 -0.14056096418E+02  0.19347328486E+02 -0.21090931792E+02  0.31886052906E+02  0.00000000000E+00 0.  1.
         11    1    3    3    0    0  0.50721005669E+01 -0.90577743863E+01 -0.70132558535E+01  0.12528177797E+02  0.51100000000E-03 0. -1.
        -11    1    3    3    0    0  0.12413601058E+02 -0.19393079051E+02  0.78892587016E+01  0.24339872831E+02  0.51100000000E-03 0.  1.
         12    1    3    3    0    0 -0.34296052074E+01  0.91035249513E+01  0.20214928944E+02  0.22433896466E+02  0.00000000000E+00 0. -1.
</event>
<event>
 7    1  0.1184848E-011  0.5930197E+02  0.7816164E-02  0.1266605E+00
        -11   -1    0    0    0    0  0.00000000000E+00  0.00000000000E+00  0.45593999997E+02  0.45594000000E+02  0.51100000000E-03 0.  1.
         11   -1    0    0    0    0 -0.00000000000E+00 -0.00000000000E+00 -0.45593999997E+02  0.45594000000E+02  0.51100000000E-03 0. -1.
    9900012    2    1    2    0    0 -0.40793777683E+01  0.24158451439E+02 -0.20407031128E+02  0.59301968288E+02  0.50000044244E+02 0.  0.
        -12    1    1    2    0    0  0.40793777683E+01 -0.24158451439E+02  0.20407031128E+02  0.31886031712E+02  0.00000000000E+00 0.  1.
         11    1    3    3    0    0  0.43880274995E+01  0.17643790765E+01  0.35326526939E+01  0.59031732296E+01  0.51100000000E-03 0. -1.
        -11    1    3    3    0    0 -0.15486796502E+02 -0.19996424874E+01  0.35168243770E+01  0.16006482747E+02  0.51100000000E-03 0.  1.
         12    1    3    3    0    0  0.70193912345E+01  0.24393714850E+02 -0.27456508199E+02  0.37392312311E+02  0.00000000000E+00 0. -1.
</event>
<event>
 7    1  0.1184848E-011  0.5930187E+02  0.7816164E-02  0.1266605E+00
        -11   -1    0    0    0    0  0.00000000000E+00  0.00000000000E+00  0.45593999997E+02  0.45594000000E+02  0.51100000000E-03 0.  1.
         11   -1    0    0    0    0 -0.00000000000E+00 -0.00000000000E+00 -0.45593999997E+02  0.45594000000E+02  0.51100000000E-03 0. -1.
    9900012    2    1    2    0    0  0.31167919170E+02 -0.64899461645E+01  0.17795322866E+01  0.59301869445E+02  0.49999863978E+02 0.  0.
        -12    1    1    2    0    0 -0.31167919170E+02  0.64899461645E+01 -0.17795322866E+01  0.31886130555E+02  0.00000000000E+00 0.  1.
         11    1    3    3    0    0  0.11173413651E+02  0.12965170318E+02  0.39929365022E+01  0.17575106149E+02  0.51100000000E-03 0. -1.
        -11    1    3    3    0    0 -0.42959302607E+01 -0.10511715636E+01  0.83697186456E+01  0.94663704200E+01  0.51100000000E-03 0.  1.
         12    1    3    3    0    0  0.24290435780E+02 -0.18403944919E+02 -0.10583122861E+02  0.32260392875E+02  0.00000000000E+00 0. -1.
</event>
<event>
 7    1  0.1184848E-011  0.5930194E+02  0.7816164E-02  0.1266605E+00
        -11   -1    0    0    0    0  0.00000000000E+00  0.00000000000E+00  0.45593999997E+02  0.45594000000E+02  0.51100000000E-03 0.  1.
         11   -1    0    0    0    0 -0.00000000000E+00 -0.00000000000E+00 -0.45593999997E+02  0.45594000000E+02  0.51100000000E-03 0. -1.
    9900012    2    1    2    0    0  0.10720962768E+02 -0.19414525196E+02 -0.22909780976E+02  0.59301938850E+02  0.49999990558E+02 0.  0.
        -12    1    1    2    0    0 -0.10720962768E+02  0.19414525196E+02  0.22909780976E+02  0.31886061150E+02  0.00000000000E+00 0.  1.
         11    1    3    3    0    0  0.53649176097E+00  0.61607599739E+01 -0.68418078941E+01  0.92224249732E+01  0.51100000000E-03 0. -1.
        -11    1    3    3    0    0 -0.31880842677E+01  0.71905824124E+01  0.45848204674E+01  0.91043360937E+01  0.51100000000E-03 0.  1.
         12    1    3    3    0    0  0.13372555275E+02 -0.32765867582E+02 -0.20652793550E+02  0.40975177783E+02  0.00000000000E+00 0. -1.
</event>
<event>
 7    1  0.1184848E-011  0.5930192E+02  0.7816164E-02  0.1266605E+00
        -11   -1    0    0    0    0  0.00000000000E+00  0.00000000000E+00  0.45593999997E+02  0.45594000000E+02  0.51100000000E-03 0. -1.
         11   -1    0    0    0    0 -0.00000000000E+00 -0.00000000000E+00 -0.45593999997E+02  0.45594000000E+02  0.51100000000E-03 0.  1.
    9900012    2    1    2    0    0 -0.12743413454E+02  0.24965487568E+02  0.15200397272E+02  0.59301917877E+02  0.49999952307E+02 0.  0.
        -12    1    1    2    0    0  0.12743413454E+02 -0.24965487568E+02 -0.15200397272E+02  0.31886082123E+02  0.00000000000E+00 0.  1.
         11    1    3    3    0    0 -0.90946146784E+00  0.60118200391E+01  0.19151545437E+02  0.20093551036E+02  0.51100000000E-03 0. -1.
        -11    1    3    3    0    0  0.10511931924E+02  0.11135496187E+02 -0.91973664496E+00  0.15340987708E+02  0.51100000000E-03 0.  1.
        -12    1    3    3    0    0 -0.22345883910E+02  0.78181713418E+01 -0.30314115205E+01  0.23867379132E+02  0.00000000000E+00 0.  1.
</event>
<event>
 7    1  0.1184848E-011  0.5930192E+02  0.7816164E-02  0.1266605E+00
        -11   -1    0    0    0    0  0.00000000000E+00  0.00000000000E+00  0.45593999997E+02  0.45594000000E+02  0.51100000000E-03 0.  1.
         11   -1    0    0    0    0 -0.00000000000E+00 -0.00000000000E+00 -0.45593999997E+02  0.45594000000E+02  0.51100000000E-03 0. -1.
    9900012    2    1    2    0    0  0.24657392461E+02 -0.18710703400E+02 -0.76579807324E+01  0.59301920066E+02  0.49999956299E+02 0.  0.
        -12    1    1    2    0    0 -0.24657392461E+02  0.18710703400E+02  0.76579807324E+01  0.31886079934E+02  0.00000000000E+00 0.  1.
         11    1    3    3    0    0  0.11049425592E+02 -0.10120480222E+02 -0.92107199658E+01  0.17588385042E+02  0.51100000000E-03 0. -1.
        -11    1    3    3    0    0  0.21683548703E+02  0.56451631772E+01 -0.66965460114E+01  0.23385634060E+02  0.51100000000E-03 0.  1.
        -12    1    3    3    0    0 -0.80755818348E+01 -0.14235386355E+02  0.82492852448E+01  0.18327900963E+02  0.00000000000E+00 0.  1.
</event>
<event>
 7    1  0.1184848E-011  0.5930195E+02  0.7816164E-02  0.1266605E+00
        -11   -1    0    0    0    0  0.00000000000E+00  0.00000000000E+00  0.45593999997E+02  0.45594000000E+02  0.51100000000E-03 0.  1.
         11   -1    0    0    0    0 -0.00000000000E+00 -0.00000000000E+00 -0.45593999997E+02  0.45594000000E+02  0.51100000000E-03 0. -1.
    9900012    2    1    2    0    0 -0.18644607079E+02  0.13817520463E+02 -0.21867216600E+02  0.59301946518E+02  0.50000004541E+02 0.  0.
        -12    1    1    2    0    0  0.18644607079E+02 -0.13817520463E+02  0.21867216600E+02  0.31886053482E+02  0.00000000000E+00 0.  1.
         11    1    3    3    0    0  0.96788421612E+00  0.17397617795E+02 -0.15446671919E+02  0.23285479992E+02  0.51100000000E-03 0.  1.
        -11    1    3    3    0    0 -0.26525258322E+02 -0.53769534494E+00 -0.69658729541E+00  0.26539850781E+02  0.51100000000E-03 0. -1.
         12    1    3    3    0    0  0.69127670274E+01 -0.30424019876E+01 -0.57239573852E+01  0.94766157449E+01  0.00000000000E+00 0. -1.
</event>
<event>
 7    1  0.1184848E-011  0.5930197E+02  0.7816164E-02  0.1266605E+00
        -11   -1    0    0    0    0  0.00000000000E+00  0.00000000000E+00  0.45593999997E+02  0.45594000000E+02  0.51100000000E-03 0.  1.
         11   -1    0    0    0    0 -0.00000000000E+00 -0.00000000000E+00 -0.45593999997E+02  0.45594000000E+02  0.51100000000E-03 0. -1.
    9900012    2    1    2    0    0 -0.17268993185E+02  0.13719626780E+02 -0.23027652791E+02  0.59301967357E+02  0.50000042548E+02 0.  0.
        -12    1    1    2    0    0  0.17268993185E+02 -0.13719626780E+02  0.23027652791E+02  0.31886032643E+02  0.00000000000E+00 0.  1.
         11    1    3    3    0    0  0.27908498848E+01 -0.56648443643E+01 -0.83958772584E+01  0.10505715585E+02  0.51100000000E-03 0. -1.
        -11    1    3    3    0    0  0.84007556159E+01  0.10790916096E+02 -0.13239142257E+02  0.19033955266E+02  0.51100000000E-03 0.  1.
         12    1    3    3    0    0 -0.28460598686E+02  0.85935550481E+01 -0.13926332763E+01  0.29762296507E+02  0.00000000000E+00 0. -1.
</event>
<event>
 7    1  0.1184848E-011  0.5930196E+02  0.7816164E-02  0.1266605E+00
        -11   -1    0    0    0    0  0.00000000000E+00  0.00000000000E+00  0.45593999997E+02  0.45594000000E+02  0.51100000000E-03 0. -1.
         11   -1    0    0    0    0 -0.00000000000E+00 -0.00000000000E+00 -0.45593999997E+02  0.45594000000E+02  0.51100000000E-03 0.  1.
    9900012    2    1    2    0    0  0.10849988439E+02  0.63595469517E+00  0.29976540358E+02  0.59301958237E+02  0.50000025914E+02 0.  0.
        -12    1    1    2    0    0 -0.10849988439E+02 -0.63595469517E+00 -0.29976540358E+02  0.31886041763E+02  0.00000000000E+00 0.  1.
         11    1    3    3    0    0 -0.55728155910E+01 -0.61254509359E+01  0.19953691934E+02  0.21603871061E+02  0.51100000000E-03 0. -1.
        -11    1    3    3    0    0  0.70113513111E+01  0.18919684841E+02  0.95311825187E+01  0.22314949297E+02  0.51100000000E-03 0.  1.
         12    1    3    3    0    0  0.94114527193E+01 -0.12158279209E+02  0.49166590551E+00  0.15383137878E+02  0.00000000000E+00 0. -1.
</event>
<event>
 7    1  0.1184848E-011  0.5930191E+02  0.7816164E-02  0.1266605E+00
        -11   -1    0    0    0    0  0.00000000000E+00  0.00000000000E+00  0.45593999997E+02  0.45594000000E+02  0.51100000000E-03 0.  1.
         11   -1    0    0    0    0 -0.00000000000E+00 -0.00000000000E+00 -0.45593999997E+02  0.45594000000E+02  0.51100000000E-03 0. -1.
    9900012    2    1    2    0    0  0.81150974582E+01 -0.24640953142E+01 -0.30737537513E+02  0.59301909226E+02  0.49999936530E+02 0.  0.
        -12    1    1    2    0    0 -0.81150974582E+01  0.24640953142E+01  0.30737537513E+02  0.31886090774E+02  0.00000000000E+00 0.  1.
         11    1    3    3    0    0 -0.20327572678E+01 -0.71074496379E+01 -0.19577656673E+02  0.20926838833E+02  0.51100000000E-03 0. -1.
        -11    1    3    3    0    0  0.22236298812E+02  0.25051701914E+01 -0.93163724040E+00  0.22396357086E+02  0.51100000000E-03 0.  1.
         12    1    3    3    0    0 -0.12088444086E+02  0.21381841324E+01 -0.10228243600E+02  0.15978713306E+02  0.00000000000E+00 0. -1.
</event>
<event>
 7    1  0.1184848E-011  0.5930193E+02  0.7816164E-02  0.1266605E+00
        -11   -1    0    0    0    0  0.00000000000E+00  0.00000000000E+00  0.45593999997E+02  0.45594000000E+02  0.51100000000E-03 0. -1.
         11   -1    0    0    0    0 -0.00000000000E+00 -0.00000000000E+00 -0.45593999997E+02  0.45594000000E+02  0.51100000000E-03 0.  1.
    9900012    2    1    2    0    0 -0.64734959935E+01  0.17661246770E+02  0.25746758392E+02  0.59301931638E+02  0.49999977405E+02 0.  0.
        -12    1    1    2    0    0  0.64734959935E+01 -0.17661246770E+02 -0.25746758392E+02  0.31886068362E+02  0.00000000000E+00 0.  1.
         11    1    3    3    0    0 -0.17952231230E+02  0.86144900405E+01  0.14062943991E+02  0.24377416572E+02  0.51100000000E-03 0. -1.
        -11    1    3    3    0    0  0.79187245111E+00 -0.10098324806E+02  0.74984252026E+01  0.12602761866E+02  0.51100000000E-03 0.  1.
        -12    1    3    3    0    0  0.10686862785E+02  0.19145081536E+02  0.41853891986E+01  0.22321753200E+02  0.00000000000E+00 0.  1.
</event>
<event>
 7    1  0.1184848E-011  0.5930196E+02  0.7816164E-02  0.1266605E+00
        -11   -1    0    0    0    0  0.00000000000E+00  0.00000000000E+00  0.45593999997E+02  0.45594000000E+02  0.51100000000E-03 0.  1.
         11   -1    0    0    0    0 -0.00000000000E+00 -0.00000000000E+00 -0.45593999997E+02  0.45594000000E+02  0.51100000000E-03 0. -1.
    9900012    2    1    2    0    0  0.19217551664E+02 -0.23284578401E+02  0.10258336421E+02  0.59301963097E+02  0.50000034777E+02 0.  0.
        -12    1    1    2    0    0 -0.19217551664E+02  0.23284578401E+02 -0.10258336421E+02  0.31886036903E+02  0.00000000000E+00 0.  1.
         11    1    3    3    0    0  0.76160721613E+01 -0.12957532887E+02  0.24527344487E+01  0.15228858139E+02  0.51100000000E-03 0. -1.
        -11    1    3    3    0    0  0.19892494177E+02  0.44257822233E+01  0.15381149255E+02  0.25531913864E+02  0.51100000000E-03 0.  1.
         12    1    3    3    0    0 -0.82910146741E+01 -0.14752827736E+02 -0.75755472824E+01  0.18541191094E+02  0.00000000000E+00 0. -1.
</event>
<event>
 7    1  0.1184848E-011  0.5930192E+02  0.7816164E-02  0.1266605E+00
        -11   -1    0    0    0    0  0.00000000000E+00  0.00000000000E+00  0.45593999997E+02  0.45594000000E+02  0.51100000000E-03 0.  1.
         11   -1    0    0    0    0 -0.00000000000E+00 -0.00000000000E+00 -0.45593999997E+02  0.45594000000E+02  0.51100000000E-03 0. -1.
    9900012    2    1    2    0    0  0.13589145246E+02  0.34224085560E+01 -0.28641657976E+02  0.59301916508E+02  0.49999949811E+02 0.  0.
        -12    1    1    2    0    0 -0.13589145246E+02 -0.34224085560E+01  0.28641657976E+02  0.31886083492E+02  0.00000000000E+00 0.  1.
         11    1    3    3    0    0  0.13797403015E+02  0.19552989148E+02 -0.30126827587E+02  0.38474841849E+02  0.51100000000E-03 0. -1.
        -11    1    3    3    0    0  0.63651184924E+01 -0.73943784463E+01  0.16371423771E+01  0.98930178133E+01  0.51100000000E-03 0.  1.
        -12    1    3    3    0    0 -0.65733762614E+01 -0.87362021452E+01 -0.15197276569E+00  0.10934056846E+02  0.00000000000E+00 0.  1.
</event>
<event>
 7    1  0.1184848E-011  0.5930196E+02  0.7816164E-02  0.1266605E+00
        -11   -1    0    0    0    0  0.00000000000E+00  0.00000000000E+00  0.45593999997E+02  0.45594000000E+02  0.51100000000E-03 0.  1.
         11   -1    0    0    0    0 -0.00000000000E+00 -0.00000000000E+00 -0.45593999997E+02  0.45594000000E+02  0.51100000000E-03 0. -1.
    9900012    2    1    2    0    0  0.27144392972E+02  0.16663963927E+02  0.14879624443E+01  0.59301956096E+02  0.50000022010E+02 0.  0.
        -12    1    1    2    0    0 -0.27144392972E+02 -0.16663963927E+02 -0.14879624443E+01  0.31886043904E+02  0.00000000000E+00 0.  1.
         11    1    3    3    0    0  0.18532792597E+02  0.66995803609E+01 -0.19023216175E+02  0.27390354732E+02  0.51100000000E-03 0. -1.
        -11    1    3    3    0    0  0.37548661992E-01  0.43296409987E+01 -0.36495279927E+01  0.56627074718E+01  0.51100000000E-03 0.  1.
        -12    1    3    3    0    0  0.85740517130E+01  0.56347425678E+01  0.24160706612E+02  0.26248893892E+02  0.00000000000E+00 0.  1.
</event>
<event>
 7    1  0.1184848E-011  0.5930194E+02  0.7816164E-02  0.1266605E+00
        -11   -1    0    0    0    0  0.00000000000E+00  0.00000000000E+00  0.45593999997E+02  0.45594000000E+02  0.51100000000E-03 0.  1.
         11   -1    0    0    0    0 -0.00000000000E+00 -0.00000000000E+00 -0.45593999997E+02  0.45594000000E+02  0.51100000000E-03 0. -1.
    9900012    2    1    2    0    0  0.16158565700E+02 -0.19520820290E+02 -0.19353533408E+02  0.59301938380E+02  0.49999989700E+02 0.  0.
        -12    1    1    2    0    0 -0.16158565700E+02  0.19520820290E+02  0.19353533408E+02  0.31886061620E+02  0.00000000000E+00 0.  1.
         11    1    3    3    0    0 -0.11436484319E+02 -0.21874705760E+02 -0.89170140645E+01  0.26245172237E+02  0.51100000000E-03 0.  1.
        -11    1    3    3    0    0  0.53035689657E+01 -0.54166607498E+01 -0.40797721760E+01  0.86088674471E+01  0.51100000000E-03 0. -1.
         12    1    3    3    0    0  0.22291481053E+02  0.77705462193E+01 -0.63567471673E+01  0.24447898696E+02  0.00000000000E+00 0. -1.
</event>
<event>
 7    1  0.1184848E-011  0.5930195E+02  0.7816164E-02  0.1266605E+00
        -11   -1    0    0    0    0  0.00000000000E+00  0.00000000000E+00  0.45593999997E+02  0.45594000000E+02  0.51100000000E-03 0.  1.
         11   -1    0    0    0    0 -0.00000000000E+00 -0.00000000000E+00 -0.45593999997E+02  0.45594000000E+02  0.51100000000E-03 0. -1.
    9900012    2    1    2    0    0  0.14950915265E+02  0.25861793661E+02  0.11151602316E+02  0.59301945480E+02  0.50000002649E+02 0.  0.
        -12    1    1    2    0    0 -0.14950915265E+02 -0.25861793661E+02 -0.11151602316E+02  0.31886054520E+02  0.00000000000E+00 0.  1.
         11    1    3    3    0    0 -0.37975308427E+01 -0.80067120208E+01  0.11830805593E+02  0.14781631815E+02  0.51100000000E-03 0.  1.
        -11    1    3    3    0    0 -0.40334071539E+01  0.38132892533E+01 -0.37235107585E+01  0.66838672061E+01  0.51100000000E-03 0. -1.
         12    1    3    3    0    0  0.22781853262E+02  0.30055216429E+02  0.30443074813E+01  0.37836446459E+02  0.00000000000E+00 0. -1.
</event>
<event>
 7    1  0.1184848E-011  0.5930196E+02  0.7816164E-02  0.1266605E+00
        -11   -1    0    0    0    0  0.00000000000E+00  0.00000000000E+00  0.45593999997E+02  0.45594000000E+02  0.51100000000E-03 0.  1.
         11   -1    0    0    0    0 -0.00000000000E+00 -0.00000000000E+00 -0.45593999997E+02  0.45594000000E+02  0.51100000000E-03 0. -1.
    9900012    2    1    2    0    0  0.21625240780E+02 -0.23233476649E+02 -0.30453730459E+01  0.59301956455E+02  0.50000022664E+02 0.  0.
        -12    1    1    2    0    0 -0.21625240780E+02  0.23233476649E+02  0.30453730459E+01  0.31886043545E+02  0.00000000000E+00 0.  1.
         11    1    3    3    0    0 -0.65659483994E+01  0.80053360126E+01 -0.35429303173E+01  0.10943008661E+02  0.51100000000E-03 0. -1.
        -11    1    3    3    0    0 -0.40263956231E+01 -0.95139246487E+00 -0.78747323664E-02  0.41372782852E+01  0.51100000000E-03 0.  1.
        -12    1    3    3    0    0  0.32217584802E+02 -0.30287420196E+02  0.50543200382E+00  0.44221669509E+02  0.00000000000E+00 0.  1.
</event>
<event>
 7    1  0.1184848E-011  0.5930197E+02  0.7816164E-02  0.1266605E+00
        -11   -1    0    0    0    0  0.00000000000E+00  0.00000000000E+00  0.45593999997E+02  0.45594000000E+02  0.51100000000E-03 0.  1.
         11   -1    0    0    0    0 -0.00000000000E+00 -0.00000000000E+00 -0.45593999997E+02  0.45594000000E+02  0.51100000000E-03 0. -1.
    9900012    2    1    2    0    0 -0.69484557781E+01 -0.18052216946E+02 -0.25348674584E+02  0.59301970496E+02  0.50000048272E+02 0.  0.
        -12    1    1    2    0    0  0.69484557781E+01  0.18052216946E+02  0.25348674584E+02  0.31886029504E+02  0.00000000000E+00 0.  1.
         11    1    3    3    0    0 -0.10206408533E+01  0.10459947836E+02 -0.79210095305E+01  0.13160342272E+02  0.51100000000E-03 0. -1.
        -11    1    3    3    0    0  0.99308518105E+00 -0.42682075450E+01  0.87567417216E+01  0.97920549255E+01  0.51100000000E-03 0.  1.
        -12    1    3    3    0    0 -0.69209001058E+01 -0.24243957237E+02 -0.26184406775E+02  0.36349573298E+02  0.00000000000E+00 0.  1.
</event>
<event>
 7    1  0.1184848E-011  0.5930195E+02  0.7816164E-02  0.1266605E+00
        -11   -1    0    0    0    0  0.00000000000E+00  0.00000000000E+00  0.45593999997E+02  0.45594000000E+02  0.51100000000E-03 0. -1.
         11   -1    0    0    0    0 -0.00000000000E+00 -0.00000000000E+00 -0.45593999997E+02  0.45594000000E+02  0.51100000000E-03 0.  1.
    9900012    2    1    2    0    0 -0.10549065485E+01 -0.38496235156E-04  0.31868597588E+02  0.59301947562E+02  0.50000006446E+02 0.  0.
        -12    1    1    2    0    0  0.10549065485E+01  0.38496235157E-04 -0.31868597588E+02  0.31886052438E+02  0.00000000000E+00 0.  1.
         11    1    3    3    0    0 -0.54988161848E+01 -0.56551493136E-01  0.23167207184E+02  0.23810914860E+02  0.51100000000E-03 0. -1.
        -11    1    3    3    0    0  0.26007226259E+01 -0.16934370401E+02  0.25214955161E+01  0.17317465142E+02  0.51100000000E-03 0.  1.
         12    1    3    3    0    0  0.18431870103E+01  0.16990883398E+02  0.61798948878E+01  0.18173567559E+02  0.00000000000E+00 0. -1.
</event>
<event>
 7    1  0.1184848E-011  0.5930200E+02  0.7816164E-02  0.1266605E+00
        -11   -1    0    0    0    0  0.00000000000E+00  0.00000000000E+00  0.45593999997E+02  0.45594000000E+02  0.51100000000E-03 0.  1.
         11   -1    0    0    0    0 -0.00000000000E+00 -0.00000000000E+00 -0.45593999997E+02  0.45594000000E+02  0.51100000000E-03 0. -1.
    9900012    2    1    2    0    0 -0.34663893534E+01  0.69072921983E+01 -0.30935265412E+02  0.59301997008E+02  0.50000096623E+02 0.  0.
        -12    1    1    2    0    0  0.34663893534E+01 -0.69072921983E+01  0.30935265412E+02  0.31886002992E+02  0.00000000000E+00 0.  1.
         11    1    3    3    0    0  0.57201922153E+01 -0.65335679628E+01  0.11637972736E+01  0.87614230385E+01  0.51100000000E-03 0. -1.
        -11    1    3    3    0    0  0.13306093077E+02  0.28134814442E+01 -0.73925808638E+01  0.15479600864E+02  0.51100000000E-03 0.  1.
        -12    1    3    3    0    0 -0.22492674646E+02  0.10627378717E+02 -0.24706481822E+02  0.35060973106E+02  0.00000000000E+00 0.  1.
</event>
<event>
 7    1  0.1184848E-011  0.5930193E+02  0.7816164E-02  0.1266605E+00
        -11   -1    0    0    0    0  0.00000000000E+00  0.00000000000E+00  0.45593999997E+02  0.45594000000E+02  0.51100000000E-03 0. -1.
         11   -1    0    0    0    0 -0.00000000000E+00 -0.00000000000E+00 -0.45593999997E+02  0.45594000000E+02  0.51100000000E-03 0.  1.
    9900012    2    1    2    0    0 -0.13293116484E+02  0.36612405163E+01  0.28750818960E+02  0.59301933782E+02  0.49999981314E+02 0.  0.
        -12    1    1    2    0    0  0.13293116484E+02 -0.36612405163E+01 -0.28750818960E+02  0.31886066218E+02  0.00000000000E+00 0.  1.
         11    1    3    3    0    0 -0.11650703945E+02 -0.80646914897E+01  0.13182681409E+02  0.19353584697E+02  0.51100000000E-03 0. -1.
        -11    1    3    3    0    0 -0.81962096712E+00 -0.90014239771E+01  0.16896500651E+02  0.19162180113E+02  0.51100000000E-03 0.  1.
        -12    1    3    3    0    0 -0.82279157237E+00  0.20727355983E+02 -0.13283630998E+01  0.20786168972E+02  0.00000000000E+00 0.  1.
</event>
<event>
 7    1  0.1184848E-011  0.5930194E+02  0.7816164E-02  0.1266605E+00
        -11   -1    0    0    0    0  0.00000000000E+00  0.00000000000E+00  0.45593999997E+02  0.45594000000E+02  0.51100000000E-03 0.  1.
         11   -1    0    0    0    0 -0.00000000000E+00 -0.00000000000E+00 -0.45593999997E+02  0.45594000000E+02  0.51100000000E-03 0. -1.
    9900012    2    1    2    0    0 -0.87313106409E+01 -0.15287105177E+02 -0.26585510765E+02  0.59301941089E+02  0.49999994641E+02 0.  0.
        -12    1    1    2    0    0  0.87313106409E+01  0.15287105177E+02  0.26585510765E+02  0.31886058911E+02  0.00000000000E+00 0.  1.
         11    1    3    3    0    0 -0.21288106911E+02 -0.11806748965E+02 -0.24376035863E+02  0.34449585508E+02  0.51100000000E-03 0. -1.
        -11    1    3    3    0    0 -0.47504575228E+00 -0.70332525616E+01 -0.75482899696E+01  0.10328068154E+02  0.51100000000E-03 0.  1.
        -12    1    3    3    0    0  0.13031842022E+02  0.35528963494E+01  0.53388150675E+01  0.14524287428E+02  0.00000000000E+00 0.  1.
</event>
<event>
 7    1  0.1184848E-011  0.5930195E+02  0.7816164E-02  0.1266605E+00
        -11   -1    0    0    0    0  0.00000000000E+00  0.00000000000E+00  0.45593999997E+02  0.45594000000E+02  0.51100000000E-03 0. -1.
         11   -1    0    0    0    0 -0.00000000000E+00 -0.00000000000E+00 -0.45593999997E+02  0.45594000000E+02  0.51100000000E-03 0.  1.
    9900012    2    1    2    0    0 -0.17077254830E+02  0.31470062240E+01  0.26742924709E+02  0.59301948148E+02  0.50000007514E+02 0.  0.
        -12    1    1    2    0    0  0.17077254830E+02 -0.31470062240E+01 -0.26742924709E+02  0.31886051852E+02  0.00000000000E+00 0.  1.
         11    1    3    3    0    0 -0.92522181337E+01  0.87373223853E+01  0.13544930780E+02  0.18585195532E+02  0.51100000000E-03 0. -1.
        -11    1    3    3    0    0  0.14891949839E+02  0.29207792369E+00  0.69287364191E+01  0.16427503406E+02  0.51100000000E-03 0.  1.
         12    1    3    3    0    0 -0.22716986536E+02 -0.58823940849E+01  0.62692575099E+01  0.24289249210E+02  0.00000000000E+00 0. -1.
</event>
<event>
 7    1  0.1184848E-011  0.5930194E+02  0.7816164E-02  0.1266605E+00
        -11   -1    0    0    0    0  0.00000000000E+00  0.00000000000E+00  0.45593999997E+02  0.45594000000E+02  0.51100000000E-03 0. -1.
         11   -1    0    0    0    0 -0.00000000000E+00 -0.00000000000E+00 -0.45593999997E+02  0.45594000000E+02  0.51100000000E-03 0.  1.
    9900012    2    1    2    0    0 -0.19470185526E+02 -0.21609504029E+02  0.13063769720E+02  0.59301939282E+02  0.49999991346E+02 0.  0.
        -12    1    1    2    0    0  0.19470185526E+02  0.21609504029E+02 -0.13063769720E+02  0.31886060718E+02  0.00000000000E+00 0.  1.
         11    1    3    3    0    0  0.99682796548E+01 -0.30768678641E+00  0.36087845774E+01  0.10605875580E+02  0.51100000000E-03 0. -1.
        -11    1    3    3    0    0 -0.25556941591E+02  0.56181307763E+00  0.51928485026E+01  0.26085217524E+02  0.51100000000E-03 0.  1.
         12    1    3    3    0    0 -0.38815235892E+01 -0.21863630321E+02  0.42621366396E+01  0.22610846178E+02  0.00000000000E+00 0. -1.
</event>
<event>
 7    1  0.1184848E-011  0.5930194E+02  0.7816164E-02  0.1266605E+00
        -11   -1    0    0    0    0  0.00000000000E+00  0.00000000000E+00  0.45593999997E+02  0.45594000000E+02  0.51100000000E-03 0.  1.
         11   -1    0    0    0    0 -0.00000000000E+00 -0.00000000000E+00 -0.45593999997E+02  0.45594000000E+02  0.51100000000E-03 0. -1.
    9900012    2    1    2    0    0 -0.18587777495E+02 -0.17662085785E+02 -0.18954310697E+02  0.59301942852E+02  0.49999997855E+02 0.  0.
        -12    1    1    2    0    0  0.18587777495E+02  0.17662085785E+02  0.18954310697E+02  0.31886057148E+02  0.00000000000E+00 0.  1.
         11    1    3    3    0    0 -0.29441811910E+01  0.34161888775E+00  0.72429266962E+01  0.78259116873E+01  0.51100000000E-03 0. -1.
        -11    1    3    3    0    0  0.68314400822E+01 -0.15124530253E+02  0.31697972055E+00  0.16598809156E+02  0.51100000000E-03 0.  1.
         12    1    3    3    0    0 -0.22475036386E+02 -0.28791744195E+01 -0.26514217113E+02  0.34877222009E+02  0.00000000000E+00 0. -1.
</event>
<event>
 7    1  0.1184848E-011  0.5930182E+02  0.7816164E-02  0.1266605E+00
        -11   -1    0    0    0    0  0.00000000000E+00  0.00000000000E+00  0.45593999997E+02  0.45594000000E+02  0.51100000000E-03 0. -1.
         11   -1    0    0    0    0 -0.00000000000E+00 -0.00000000000E+00 -0.45593999997E+02  0.45594000000E+02  0.51100000000E-03 0.  1.
    9900012    2    1    2    0    0 -0.30707441729E+02 -0.13641778075E+01 -0.84805919472E+01  0.59301821201E+02  0.49999775993E+02 0.  0.
        -12    1    1    2    0    0  0.30707441729E+02  0.13641778075E+01  0.84805919472E+01  0.31886178799E+02  0.00000000000E+00 0.  1.
         11    1    3    3    0    0 -0.14274243742E+02 -0.13725178799E+01  0.15605254135E+02  0.21193437583E+02  0.51100000000E-03 0. -1.
        -11    1    3    3    0    0 -0.65017696049E+01 -0.61803452953E+01  0.22857657265E+01  0.92571270480E+01  0.51100000000E-03 0.  1.
        -12    1    3    3    0    0 -0.99314283819E+01  0.61886853678E+01 -0.26371611808E+02  0.28851256570E+02  0.00000000000E+00 0.  1.
</event>
<event>
 7    1  0.1184848E-011  0.5930198E+02  0.7816164E-02  0.1266605E+00
        -11   -1    0    0    0    0  0.00000000000E+00  0.00000000000E+00  0.45593999997E+02  0.45594000000E+02  0.51100000000E-03 0.  1.
         11   -1    0    0    0    0 -0.00000000000E+00 -0.00000000000E+00 -0.45593999997E+02  0.45594000000E+02  0.51100000000E-03 0. -1.
    9900012    2    1    2    0    0 -0.11280080134E+02 -0.25710127217E+02 -0.15115147534E+02  0.59301975878E+02  0.50000058087E+02 0.  0.
        -12    1    1    2    0    0  0.11280080134E+02  0.25710127217E+02  0.15115147534E+02  0.31886024122E+02  0.00000000000E+00 0.  1.
         11    1    3    3    0    0  0.40023778559E+01  0.37672096733E+01 -0.11536860266E+02  0.12779281759E+02  0.51100000000E-03 0. -1.
        -11    1    3    3    0    0 -0.89438731458E+01 -0.49793542259E+01  0.12792630725E+02  0.16384084854E+02  0.51100000000E-03 0.  1.
        -12    1    3    3    0    0 -0.63385848445E+01 -0.24497982665E+02 -0.16370917993E+02  0.30138609264E+02  0.00000000000E+00 0.  1.
</event>
<event>
 7    1  0.1184848E-011  0.5930192E+02  0.7816164E-02  0.1266605E+00
        -11   -1    0    0    0    0  0.00000000000E+00  0.00000000000E+00  0.45593999997E+02  0.45594000000E+02  0.51100000000E-03 0. -1.
         11   -1    0    0    0    0 -0.00000000000E+00 -0.00000000000E+00 -0.45593999997E+02  0.45594000000E+02  0.51100000000E-03 0.  1.
    9900012    2    1    2    0    0  0.17323001727E+02 -0.95484512736E+01  0.25009251171E+02  0.59301922243E+02  0.49999960271E+02 0.  0.
        -12    1    1    2    0    0 -0.17323001727E+02  0.95484512736E+01 -0.25009251171E+02  0.31886077757E+02  0.00000000000E+00 0.  1.
         11    1    3    3    0    0 -0.43438082268E+01 -0.97166510720E+01  0.24061293086E+01  0.10911985909E+02  0.51100000000E-03 0. -1.
        -11    1    3    3    0    0  0.94678723770E+01 -0.52615329992E+01 -0.89993316875E+01  0.14082340286E+02  0.51100000000E-03 0.  1.
        -12    1    3    3    0    0  0.12198937577E+02  0.54297327976E+01  0.31602453550E+02  0.34307596049E+02  0.00000000000E+00 0.  1.
</event>
<event>
 7    1  0.1184848E-011  0.5930194E+02  0.7816164E-02  0.1266605E+00
        -11   -1    0    0    0    0  0.00000000000E+00  0.00000000000E+00  0.45593999997E+02  0.45594000000E+02  0.51100000000E-03 0.  1.
         11   -1    0    0    0    0 -0.00000000000E+00 -0.00000000000E+00 -0.45593999997E+02  0.45594000000E+02  0.51100000000E-03 0. -1.
    9900012    2    1    2    0    0 -0.12867365705E+02 -0.12648839363E+01 -0.29147076112E+02  0.59301936000E+02  0.49999985360E+02 0.  0.
        -12    1    1    2    0    0  0.12867365705E+02  0.12648839363E+01  0.29147076112E+02  0.31886064000E+02  0.00000000000E+00 0.  1.
         11    1    3    3    0    0 -0.16435988557E+02 -0.95958294131E+01 -0.22528497910E+02  0.29491606947E+02  0.51100000000E-03 0. -1.
        -11    1    3    3    0    0 -0.10624997885E+02  0.56900406073E+01  0.30525359621E+01  0.12433226380E+02  0.51100000000E-03 0.  1.
        -12    1    3    3    0    0  0.14193620737E+02  0.26409048695E+01 -0.96711141638E+01  0.17377102673E+02  0.00000000000E+00 0.  1.
</event>
<event>
 7    1  0.1184848E-011  0.5930195E+02  0.7816164E-02  0.1266605E+00
        -11   -1    0    0    0    0  0.00000000000E+00  0.00000000000E+00  0.45593999997E+02  0.45594000000E+02  0.51100000000E-03 0. -1.
         11   -1    0    0    0    0 -0.00000000000E+00 -0.00000000000E+00 -0.45593999997E+02  0.45594000000E+02  0.51100000000E-03 0.  1.
    9900012    2    1    2    0    0  0.32156420604E+01 -0.13439608200E+02  0.28735986533E+02  0.59301947493E+02  0.50000006320E+02 0.  0.
        -12    1    1    2    0    0 -0.32156420604E+01  0.13439608200E+02 -0.28735986533E+02  0.31886052507E+02  0.00000000000E+00 0.  1.
         11    1    3    3    0    0  0.83504964830E+01  0.67254837753E+01  0.14200398857E+02  0.17793657620E+02  0.51100000000E-03 0. -1.
        -11    1    3    3    0    0 -0.47217450427E+01  0.84145081114E+01  0.49024355071E+00  0.96612194885E+01  0.51100000000E-03 0.  1.
        -12    1    3    3    0    0 -0.41310937982E+00 -0.28579600087E+02  0.14045344125E+02  0.31847070385E+02  0.00000000000E+00 0.  1.
</event>
<event>
 7    1  0.1184848E-011  0.5930195E+02  0.7816164E-02  0.1266605E+00
        -11   -1    0    0    0    0  0.00000000000E+00  0.00000000000E+00  0.45593999997E+02  0.45594000000E+02  0.51100000000E-03 0. -1.
         11   -1    0    0    0    0 -0.00000000000E+00 -0.00000000000E+00 -0.45593999997E+02  0.45594000000E+02  0.51100000000E-03 0.  1.
    9900012    2    1    2    0    0 -0.13613830789E+02  0.27720203821E+02  0.79356331963E+01  0.59301947205E+02  0.50000005795E+02 0.  0.
        -12    1    1    2    0    0  0.13613830789E+02 -0.27720203821E+02 -0.79356331963E+01  0.31886052795E+02  0.00000000000E+00 0.  1.
         11    1    3    3    0    0 -0.49698461766E+01 -0.85572653705E+00  0.18449796336E+01  0.53698779348E+01  0.51100000000E-03 0. -1.
        -11    1    3    3    0    0  0.13007199446E+02 -0.29295203752E+01 -0.48203193164E+01  0.14177616360E+02  0.51100000000E-03 0.  1.
         12    1    3    3    0    0 -0.21651184059E+02  0.31505450733E+02  0.10910972879E+02  0.39754452911E+02  0.00000000000E+00 0. -1.
</event>
<event>
 7    1  0.1184848E-011  0.5930194E+02  0.7816164E-02  0.1266605E+00
        -11   -1    0    0    0    0  0.00000000000E+00  0.00000000000E+00  0.45593999997E+02  0.45594000000E+02  0.51100000000E-03 0. -1.
         11   -1    0    0    0    0 -0.00000000000E+00 -0.00000000000E+00 -0.45593999997E+02  0.45594000000E+02  0.51100000000E-03 0.  1.
    9900012    2    1    2    0    0  0.20437582833E+01  0.31574083789E+02 -0.39523260633E+01  0.59301943543E+02  0.49999999116E+02 0.  0.
        -12    1    1    2    0    0 -0.20437582833E+01 -0.31574083789E+02  0.39523260633E+01  0.31886056457E+02  0.00000000000E+00 0.  1.
         11    1    3    3    0    0 -0.19697422772E+02  0.24733464995E+02 -0.10294217710E+02  0.33252122835E+02  0.51100000000E-03 0. -1.
        -11    1    3    3    0    0  0.86557793150E+01 -0.18949354906E+00  0.70698269536E+01  0.11177695504E+02  0.51100000000E-03 0.  1.
        -12    1    3    3    0    0  0.13085401741E+02  0.70301123435E+01 -0.72793530694E+00  0.14872125204E+02  0.00000000000E+00 0.  1.
</event>
<event>
 7    1  0.1184848E-011  0.5930195E+02  0.7816164E-02  0.1266605E+00
        -11   -1    0    0    0    0  0.00000000000E+00  0.00000000000E+00  0.45593999997E+02  0.45594000000E+02  0.51100000000E-03 0. -1.
         11   -1    0    0    0    0 -0.00000000000E+00 -0.00000000000E+00 -0.45593999997E+02  0.45594000000E+02  0.51100000000E-03 0.  1.
    9900012    2    1    2    0    0 -0.13629736736E+02  0.28811586132E+02  0.91807274529E+00  0.59301951696E+02  0.50000013984E+02 0.  0.
        -12    1    1    2    0    0  0.13629736736E+02 -0.28811586132E+02 -0.91807274529E+00  0.31886048304E+02  0.00000000000E+00 0.  1.
         11    1    3    3    0    0 -0.10422715166E+02 -0.26240109156E+01  0.10174292932E+02  0.14799819649E+02  0.51100000000E-03 0. -1.
        -11    1    3    3    0    0 -0.12534085610E+02  0.56848078085E+01 -0.10147904536E+02  0.17099716624E+02  0.51100000000E-03 0.  1.
         12    1    3    3    0    0  0.93270640398E+01  0.25750789239E+02  0.89168434919E+00  0.27402415423E+02  0.00000000000E+00 0. -1.
</event>
<event>
 7    1  0.1184848E-011  0.5930194E+02  0.7816164E-02  0.1266605E+00
        -11   -1    0    0    0    0  0.00000000000E+00  0.00000000000E+00  0.45593999997E+02  0.45594000000E+02  0.51100000000E-03 0. -1.
         11   -1    0    0    0    0 -0.00000000000E+00 -0.00000000000E+00 -0.45593999997E+02  0.45594000000E+02  0.51100000000E-03 0.  1.
    9900012    2    1    2    0    0  0.11491637438E+02 -0.27995933763E+02 -0.10044449188E+02  0.59301937249E+02  0.49999987637E+02 0.  0.
        -12    1    1    2    0    0 -0.11491637438E+02  0.27995933763E+02  0.10044449188E+02  0.31886062751E+02  0.00000000000E+00 0.  1.
         11    1    3    3    0    0  0.67615033697E+01 -0.23832902099E+02  0.30924916272E+01  0.24965749638E+02  0.51100000000E-03 0. -1.
        -11    1    3    3    0    0 -0.39460345266E+01 -0.16264482995E+02 -0.56096041170E+01  0.17651409411E+02  0.51100000000E-03 0.  1.
         12    1    3    3    0    0  0.86761685952E+01  0.12101451331E+02 -0.75273366978E+01  0.16684778199E+02  0.00000000000E+00 0. -1.
</event>
<event>
 7    1  0.1184848E-011  0.5930189E+02  0.7816164E-02  0.1266605E+00
        -11   -1    0    0    0    0  0.00000000000E+00  0.00000000000E+00  0.45593999997E+02  0.45594000000E+02  0.51100000000E-03 0.  1.
         11   -1    0    0    0    0 -0.00000000000E+00 -0.00000000000E+00 -0.45593999997E+02  0.45594000000E+02  0.51100000000E-03 0. -1.
    9900012    2    1    2    0    0 -0.84724688903E+01  0.19499190209E+02 -0.23763895408E+02  0.59301892165E+02  0.49999905415E+02 0.  0.
        -12    1    1    2    0    0  0.84724688903E+01 -0.19499190209E+02  0.23763895408E+02  0.31886107835E+02  0.00000000000E+00 0.  1.
         11    1    3    3    0    0 -0.10661214791E+02  0.28859865746E+02 -0.73221801381E+01  0.31625427648E+02  0.51100000000E-03 0. -1.
        -11    1    3    3    0    0  0.10462634987E+02 -0.36417400366E+01 -0.42359897510E+01  0.11860548504E+02  0.51100000000E-03 0.  1.
        -12    1    3    3    0    0 -0.82738890872E+01 -0.57189355006E+01 -0.12205725519E+02  0.15815916013E+02  0.00000000000E+00 0.  1.
</event>
<event>
 7    1  0.1184848E-011  0.5930191E+02  0.7816164E-02  0.1266605E+00
        -11   -1    0    0    0    0  0.00000000000E+00  0.00000000000E+00  0.45593999997E+02  0.45594000000E+02  0.51100000000E-03 0. -1.
         11   -1    0    0    0    0 -0.00000000000E+00 -0.00000000000E+00 -0.45593999997E+02  0.45594000000E+02  0.51100000000E-03 0.  1.
    9900012    2    1    2    0    0 -0.53137584183E+01 -0.24448030928E+02  0.19768163025E+02  0.59301913471E+02  0.49999944271E+02 0.  0.
        -12    1    1    2    0    0  0.53137584183E+01  0.24448030928E+02 -0.19768163025E+02  0.31886086529E+02  0.00000000000E+00 0.  1.
         11    1    3    3    0    0  0.11707263154E+01 -0.18900162694E+02  0.23296745891E+02  0.30022077199E+02  0.51100000000E-03 0. -1.
        -11    1    3    3    0    0 -0.11184267342E+02 -0.10865155920E+02  0.65837366226E+01  0.16925868879E+02  0.51100000000E-03 0.  1.
        -12    1    3    3    0    0  0.46997826082E+01  0.53172876861E+01 -0.10112319489E+02  0.12353967393E+02  0.00000000000E+00 0.  1.
</event>
<event>
 7    1  0.1184848E-011  0.5930198E+02  0.7816164E-02  0.1266605E+00
        -11   -1    0    0    0    0  0.00000000000E+00  0.00000000000E+00  0.45593999997E+02  0.45594000000E+02  0.51100000000E-03 0.  1.
         11   -1    0    0    0    0 -0.00000000000E+00 -0.00000000000E+00 -0.45593999997E+02  0.45594000000E+02  0.51100000000E-03 0. -1.
    9900012    2    1    2    0    0 -0.24475034979E+02  0.27298371688E+01 -0.20254353998E+02  0.59301981057E+02  0.50000067532E+02 0.  0.
        -12    1    1    2    0    0  0.24475034979E+02 -0.27298371688E+01  0.20254353998E+02  0.31886018943E+02  0.00000000000E+00 0.  1.
         11    1    3    3    0    0 -0.27684904275E+02  0.19886702080E+01 -0.91830392957E+01  0.29235884540E+02  0.51100000000E-03 0. -1.
        -11    1    3    3    0    0 -0.11847693600E+02  0.28099950823E+01 -0.19258473565E+01  0.12327725026E+02  0.51100000000E-03 0.  1.
         12    1    3    3    0    0  0.15057562896E+02 -0.20688281215E+01 -0.91454673455E+01  0.17738371490E+02  0.00000000000E+00 0. -1.
</event>
<event>
 7    1  0.1184848E-011  0.5930197E+02  0.7816164E-02  0.1266605E+00
        -11   -1    0    0    0    0  0.00000000000E+00  0.00000000000E+00  0.45593999997E+02  0.45594000000E+02  0.51100000000E-03 0.  1.
         11   -1    0    0    0    0 -0.00000000000E+00 -0.00000000000E+00 -0.45593999997E+02  0.45594000000E+02  0.51100000000E-03 0. -1.
    9900012    2    1    2    0    0 -0.17516232896E+02  0.19572903835E+02 -0.18077664026E+02  0.59301969892E+02  0.50000047171E+02 0.  0.
        -12    1    1    2    0    0  0.17516232896E+02 -0.19572903835E+02  0.18077664026E+02  0.31886030108E+02  0.00000000000E+00 0.  1.
         11    1    3    3    0    0 -0.63568218113E+01 -0.40785091515E+01  0.12252863065E+01  0.76514539294E+01  0.51100000000E-03 0. -1.
        -11    1    3    3    0    0  0.85491985237E+01 -0.72774335452E+01 -0.48777748639E+01  0.12241018025E+02  0.51100000000E-03 0.  1.
         12    1    3    3    0    0 -0.19708609608E+02  0.30928846531E+02 -0.14425175468E+02  0.39409497938E+02  0.00000000000E+00 0. -1.
</event>
<event>
 7    1  0.1184848E-011  0.5930195E+02  0.7816164E-02  0.1266605E+00
        -11   -1    0    0    0    0  0.00000000000E+00  0.00000000000E+00  0.45593999997E+02  0.45594000000E+02  0.51100000000E-03 0. -1.
         11   -1    0    0    0    0 -0.00000000000E+00 -0.00000000000E+00 -0.45593999997E+02  0.45594000000E+02  0.51100000000E-03 0.  1.
    9900012    2    1    2    0    0 -0.27216899134E+02  0.13718457937E+02  0.93682689881E+01  0.59301950535E+02  0.50000011868E+02 0.  0.
        -12    1    1    2    0    0  0.27216899134E+02 -0.13718457937E+02 -0.93682689881E+01  0.31886049465E+02  0.00000000000E+00 0.  1.
         11    1    3    3    0    0 -0.91407079593E+01  0.13910345047E+02  0.22263443169E+01  0.16793059596E+02  0.51100000000E-03 0. -1.
        -11    1    3    3    0    0 -0.21634532879E+02  0.15316807715E+01 -0.10734982911E+02  0.24199977628E+02  0.51100000000E-03 0.  1.
         12    1    3    3    0    0  0.35583417039E+01 -0.17235678817E+01  0.17876907582E+02  0.18308913311E+02  0.00000000000E+00 0. -1.
</event>
<event>
 7    1  0.1184848E-011  0.5930207E+02  0.7816164E-02  0.1266604E+00
        -11   -1    0    0    0    0  0.00000000000E+00  0.00000000000E+00  0.45593999997E+02  0.45594000000E+02  0.51100000000E-03 0.  1.
         11   -1    0    0    0    0 -0.00000000000E+00 -0.00000000000E+00 -0.45593999997E+02  0.45594000000E+02  0.51100000000E-03 0. -1.
    9900012    2    1    2    0    0 -0.23407631928E+02  0.82238972335E+01 -0.20029049269E+02  0.59302069987E+02  0.50000229718E+02 0.  0.
        -12    1    1    2    0    0  0.23407631928E+02 -0.82238972335E+01  0.20029049269E+02  0.31885930013E+02  0.00000000000E+00 0.  1.
         11    1    3    3    0    0 -0.61792869800E+01  0.57329213639E+01 -0.11430912486E+02  0.14202666491E+02  0.51100000000E-03 0. -1.
        -11    1    3    3    0    0 -0.15584215737E+02  0.19574905629E+02  0.17093583695E+01  0.25079206862E+02  0.51100000000E-03 0.  1.
        -12    1    3    3    0    0 -0.16441292105E+01 -0.17083929760E+02 -0.10307495153E+02  0.20020196633E+02  0.00000000000E+00 0.  1.
</event>
<event>
 7    1  0.1184848E-011  0.5930191E+02  0.7816164E-02  0.1266605E+00
        -11   -1    0    0    0    0  0.00000000000E+00  0.00000000000E+00  0.45593999997E+02  0.45594000000E+02  0.51100000000E-03 0.  1.
         11   -1    0    0    0    0 -0.00000000000E+00 -0.00000000000E+00 -0.45593999997E+02  0.45594000000E+02  0.51100000000E-03 0. -1.
    9900012    2    1    2    0    0  0.25152985024E+02 -0.71370692955E+01 -0.18251359695E+02  0.59301912996E+02  0.49999943405E+02 0.  0.
        -12    1    1    2    0    0 -0.25152985024E+02  0.71370692955E+01  0.18251359695E+02  0.31886087004E+02  0.00000000000E+00 0.  1.
         11    1    3    3    0    0  0.16310027926E+02  0.46952379984E+01 -0.22193189791E+02  0.27939218746E+02  0.51100000000E-03 0. -1.
        -11    1    3    3    0    0  0.17594625124E+02 -0.27389500065E+01  0.55229638233E+01  0.18643385155E+02  0.51100000000E-03 0.  1.
         12    1    3    3    0    0 -0.87516680253E+01 -0.90933572874E+01 -0.15811337273E+01  0.12719309095E+02  0.00000000000E+00 0. -1.
</event>
<event>
 7    1  0.1184848E-011  0.5930195E+02  0.7816164E-02  0.1266605E+00
        -11   -1    0    0    0    0  0.00000000000E+00  0.00000000000E+00  0.45593999997E+02  0.45594000000E+02  0.51100000000E-03 0.  1.
         11   -1    0    0    0    0 -0.00000000000E+00 -0.00000000000E+00 -0.45593999997E+02  0.45594000000E+02  0.51100000000E-03 0. -1.
    9900012    2    1    2    0    0  0.94725565396E+01 -0.44775339767E+01 -0.30115488375E+02  0.59301948536E+02  0.50000008221E+02 0.  0.
        -12    1    1    2    0    0 -0.94725565396E+01  0.44775339767E+01  0.30115488375E+02  0.31886051464E+02  0.00000000000E+00 0.  1.
         11    1    3    3    0    0  0.70836040465E+01  0.13272605490E+01 -0.16056532933E+02  0.17599753320E+02  0.51100000000E-03 0. -1.
        -11    1    3    3    0    0  0.19813021401E+02  0.15727227487E+01 -0.10393466084E+02  0.22428852208E+02  0.51100000000E-03 0.  1.
         12    1    3    3    0    0 -0.17424068908E+02 -0.73775172743E+01 -0.36654893588E+01  0.19273343007E+02  0.00000000000E+00 0. -1.
</event>
<event>
 7    1  0.1184848E-011  0.5930193E+02  0.7816164E-02  0.1266605E+00
        -11   -1    0    0    0    0  0.00000000000E+00  0.00000000000E+00  0.45593999997E+02  0.45594000000E+02  0.51100000000E-03 0.  1.
         11   -1    0    0    0    0 -0.00000000000E+00 -0.00000000000E+00 -0.45593999997E+02  0.45594000000E+02  0.51100000000E-03 0. -1.
    9900012    2    1    2    0    0  0.99941348343E+01  0.26020460218E+02 -0.15484658368E+02  0.59301925832E+02  0.49999966816E+02 0.  0.
        -12    1    1    2    0    0 -0.99941348343E+01 -0.26020460218E+02  0.15484658368E+02  0.31886074168E+02  0.00000000000E+00 0.  1.
         11    1    3    3    0    0  0.16314539093E+01  0.14872378386E+02 -0.26413258318E+01  0.15192955050E+02  0.51100000000E-03 0.  1.
        -11    1    3    3    0    0  0.15930536537E+02  0.20192362262E+02 -0.17839802568E+02  0.31301310580E+02  0.51100000000E-03 0. -1.
         12    1    3    3    0    0 -0.75678556125E+01 -0.90442804307E+01  0.49964700320E+01  0.12807660202E+02  0.00000000000E+00 0. -1.
</event>
<event>
 7    1  0.1184848E-011  0.5930194E+02  0.7816164E-02  0.1266605E+00
        -11   -1    0    0    0    0  0.00000000000E+00  0.00000000000E+00  0.45593999997E+02  0.45594000000E+02  0.51100000000E-03 0.  1.
         11   -1    0    0    0    0 -0.00000000000E+00 -0.00000000000E+00 -0.45593999997E+02  0.45594000000E+02  0.51100000000E-03 0. -1.
    9900012    2    1    2    0    0 -0.28805414665E+02 -0.13210592201E+02 -0.35283776156E+01  0.59301935506E+02  0.49999984458E+02 0.  0.
        -12    1    1    2    0    0  0.28805414665E+02  0.13210592201E+02  0.35283776156E+01  0.31886064494E+02  0.00000000000E+00 0.  1.
         11    1    3    3    0    0  0.67891118297E+01 -0.11032934357E+02 -0.12975660282E+02  0.18335360372E+02  0.51100000000E-03 0. -1.
        -11    1    3    3    0    0 -0.24755900446E+01 -0.12034363679E+01  0.72564236333E+01  0.77609593071E+01  0.51100000000E-03 0.  1.
        -12    1    3    3    0    0 -0.33118936450E+02 -0.97422147583E+00  0.21908590334E+01  0.33205615826E+02  0.00000000000E+00 0.  1.
</event>
<event>
 7    1  0.1184848E-011  0.5930214E+02  0.7816164E-02  0.1266604E+00
        -11   -1    0    0    0    0  0.00000000000E+00  0.00000000000E+00  0.45593999997E+02  0.45594000000E+02  0.51100000000E-03 0.  1.
         11   -1    0    0    0    0 -0.00000000000E+00 -0.00000000000E+00 -0.45593999997E+02  0.45594000000E+02  0.51100000000E-03 0. -1.
    9900012    2    1    2    0    0 -0.11010732241E+02  0.99482956580E+01 -0.28222386856E+02  0.59302142151E+02  0.50000361327E+02 0.  0.
        -12    1    1    2    0    0  0.11010732241E+02 -0.99482956580E+01  0.28222386856E+02  0.31885857849E+02  0.00000000000E+00 0.  1.
         11    1    3    3    0    0 -0.16027579384E+01  0.65827148055E+01 -0.73516281826E+00  0.68147950703E+01  0.51100000000E-03 0. -1.
        -11    1    3    3    0    0  0.42307017028E+00  0.18946060113E+02 -0.28285701628E+02  0.34047218668E+02  0.51100000000E-03 0.  1.
        -12    1    3    3    0    0 -0.98310444724E+01 -0.15580479260E+02  0.79847759096E+00  0.18440128412E+02  0.00000000000E+00 0.  1.
</event>
<event>
 7    1  0.1184848E-011  0.5930206E+02  0.7816164E-02  0.1266604E+00
        -11   -1    0    0    0    0  0.00000000000E+00  0.00000000000E+00  0.45593999997E+02  0.45594000000E+02  0.51100000000E-03 0.  1.
         11   -1    0    0    0    0 -0.00000000000E+00 -0.00000000000E+00 -0.45593999997E+02  0.45594000000E+02  0.51100000000E-03 0. -1.
    9900012    2    1    2    0    0  0.33232532935E+00 -0.78224974946E+01 -0.30909730223E+02  0.59302057492E+02  0.50000206931E+02 0.  0.
        -12    1    1    2    0    0 -0.33232532935E+00  0.78224974946E+01  0.30909730223E+02  0.31885942508E+02  0.00000000000E+00 0.  1.
         11    1    3    3    0    0 -0.70163692105E+01  0.63361825728E+01  0.36378978075E+01  0.10129706176E+02  0.51100000000E-03 0. -1.
        -11    1    3    3    0    0  0.50854175192E+01 -0.13683638495E+02 -0.50856856198E-01  0.14598151270E+02  0.51100000000E-03 0.  1.
         12    1    3    3    0    0  0.22632770206E+01 -0.47504157200E+00 -0.34496771174E+02  0.34574200046E+02  0.00000000000E+00 0. -1.
</event>
<event>
 7    1  0.1184848E-011  0.5930195E+02  0.7816164E-02  0.1266605E+00
        -11   -1    0    0    0    0  0.00000000000E+00  0.00000000000E+00  0.45593999997E+02  0.45594000000E+02  0.51100000000E-03 0.  1.
         11   -1    0    0    0    0 -0.00000000000E+00 -0.00000000000E+00 -0.45593999997E+02  0.45594000000E+02  0.51100000000E-03 0. -1.
    9900012    2    1    2    0    0  0.23249462687E+02 -0.16042491111E+02 -0.14792601203E+02  0.59301951536E+02  0.50000013694E+02 0.  0.
        -12    1    1    2    0    0 -0.23249462687E+02  0.16042491111E+02  0.14792601203E+02  0.31886048464E+02  0.00000000000E+00 0.  1.
         11    1    3    3    0    0  0.31357235756E+01 -0.96513418463E+01 -0.18922095115E+02  0.21471535706E+02  0.51100000000E-03 0. -1.
        -11    1    3    3    0    0  0.11949311442E+02  0.87909062894E+01 -0.79027736618E+01  0.16808328565E+02  0.51100000000E-03 0.  1.
         12    1    3    3    0    0  0.81644276696E+01 -0.15182055554E+02  0.12032267574E+02  0.21022087265E+02  0.00000000000E+00 0. -1.
</event>
<event>
 7    1  0.1184848E-011  0.5930192E+02  0.7816164E-02  0.1266605E+00
        -11   -1    0    0    0    0  0.00000000000E+00  0.00000000000E+00  0.45593999997E+02  0.45594000000E+02  0.51100000000E-03 0.  1.
         11   -1    0    0    0    0 -0.00000000000E+00 -0.00000000000E+00 -0.45593999997E+02  0.45594000000E+02  0.51100000000E-03 0. -1.
    9900012    2    1    2    0    0 -0.17662007034E+02 -0.42725819223E+01 -0.26201543028E+02  0.59301916738E+02  0.49999950230E+02 0.  0.
        -12    1    1    2    0    0  0.17662007034E+02  0.42725819223E+01  0.26201543028E+02  0.31886083262E+02  0.00000000000E+00 0.  1.
         11    1    3    3    0    0  0.67845815252E+01 -0.15442050233E+01 -0.18411524408E+02  0.19682462928E+02  0.51100000000E-03 0.  1.
        -11    1    3    3    0    0 -0.55952922495E+01 -0.66382231759E+01 -0.16379239546E+02  0.18537874491E+02  0.51100000000E-03 0. -1.
        -12    1    3    3    0    0 -0.18851296309E+02  0.39098462770E+01  0.85892209259E+01  0.21081579319E+02  0.00000000000E+00 0.  1.
</event>
<event>
 7    1  0.1184848E-011  0.5930195E+02  0.7816164E-02  0.1266605E+00
        -11   -1    0    0    0    0  0.00000000000E+00  0.00000000000E+00  0.45593999997E+02  0.45594000000E+02  0.51100000000E-03 0. -1.
         11   -1    0    0    0    0 -0.00000000000E+00 -0.00000000000E+00 -0.45593999997E+02  0.45594000000E+02  0.51100000000E-03 0.  1.
    9900012    2    1    2    0    0 -0.22341219084E+02  0.13265208222E+02 -0.18483085805E+02  0.59301948501E+02  0.50000008158E+02 0.  0.
        -12    1    1    2    0    0  0.22341219084E+02 -0.13265208222E+02  0.18483085805E+02  0.31886051499E+02  0.00000000000E+00 0.  1.
         11    1    3    3    0    0  0.10608089364E+02  0.26441810724E+01 -0.13120749928E+02  0.17078563536E+02  0.51100000000E-03 0. -1.
        -11    1    3    3    0    0 -0.20320295661E+02  0.69590543093E+01 -0.14759710256E+02  0.26061310399E+02  0.51100000000E-03 0.  1.
         12    1    3    3    0    0 -0.12629012787E+02  0.36619728407E+01  0.93973743786E+01  0.16162074566E+02  0.00000000000E+00 0. -1.
</event>
<event>
 7    1  0.1184848E-011  0.5930195E+02  0.7816164E-02  0.1266605E+00
        -11   -1    0    0    0    0  0.00000000000E+00  0.00000000000E+00  0.45593999997E+02  0.45594000000E+02  0.51100000000E-03 0. -1.
         11   -1    0    0    0    0 -0.00000000000E+00 -0.00000000000E+00 -0.45593999997E+02  0.45594000000E+02  0.51100000000E-03 0.  1.
    9900012    2    1    2    0    0 -0.13107870601E+02 -0.46262026169E+00  0.29063550211E+02  0.59301949131E+02  0.50000009306E+02 0.  0.
        -12    1    1    2    0    0  0.13107870601E+02  0.46262026169E+00 -0.29063550211E+02  0.31886050869E+02  0.00000000000E+00 0.  1.
         11    1    3    3    0    0  0.30558764536E+01  0.39295132714E+01  0.92333902268E+01  0.10489754563E+02  0.51100000000E-03 0. -1.
        -11    1    3    3    0    0 -0.12076706774E+02 -0.52254042209E+00  0.32647535634E+02  0.34813524358E+02  0.51100000000E-03 0.  1.
        -12    1    3    3    0    0 -0.40870402803E+01 -0.38695931110E+01 -0.12817375650E+02  0.13998670210E+02  0.00000000000E+00 0.  1.
</event>
<event>
 7    1  0.1184848E-011  0.5930189E+02  0.7816164E-02  0.1266605E+00
        -11   -1    0    0    0    0  0.00000000000E+00  0.00000000000E+00  0.45593999997E+02  0.45594000000E+02  0.51100000000E-03 0. -1.
         11   -1    0    0    0    0 -0.00000000000E+00 -0.00000000000E+00 -0.45593999997E+02  0.45594000000E+02  0.51100000000E-03 0.  1.
    9900012    2    1    2    0    0  0.47619873054E+01 -0.29998135466E+02  0.97035653639E+01  0.59301892754E+02  0.49999906489E+02 0.  0.
        -12    1    1    2    0    0 -0.47619873054E+01  0.29998135466E+02 -0.97035653639E+01  0.31886107246E+02  0.00000000000E+00 0.  1.
         11    1    3    3    0    0  0.10370846532E+01 -0.31727668079E+02  0.18566997811E+02  0.36775723981E+02  0.51100000000E-03 0. -1.
        -11    1    3    3    0    0 -0.59888509196E+01 -0.58435563717E+01 -0.41274712827E+01  0.93300324682E+01  0.51100000000E-03 0.  1.
        -12    1    3    3    0    0  0.97137535719E+01  0.75730889852E+01 -0.47359611648E+01  0.13196136305E+02  0.00000000000E+00 0.  1.
</event>
<event>
 7    1  0.1184848E-011  0.5930193E+02  0.7816164E-02  0.1266605E+00
        -11   -1    0    0    0    0  0.00000000000E+00  0.00000000000E+00  0.45593999997E+02  0.45594000000E+02  0.51100000000E-03 0. -1.
         11   -1    0    0    0    0 -0.00000000000E+00 -0.00000000000E+00 -0.45593999997E+02  0.45594000000E+02  0.51100000000E-03 0.  1.
    9900012    2    1    2    0    0  0.35390559047E+01 -0.13683245498E+02  0.28582603058E+02  0.59301932170E+02  0.49999978375E+02 0.  0.
        -12    1    1    2    0    0 -0.35390559047E+01  0.13683245498E+02 -0.28582603058E+02  0.31886067830E+02  0.00000000000E+00 0.  1.
         11    1    3    3    0    0  0.49377162500E+01  0.92448492776E+01  0.62692606042E+01  0.12212776454E+02  0.51100000000E-03 0. -1.
        -11    1    3    3    0    0 -0.16125865846E+02 -0.25545046537E+01  0.89343256223E+01  0.18611588269E+02  0.51100000000E-03 0.  1.
         12    1    3    3    0    0  0.14727205501E+02 -0.20373590122E+02  0.13379016831E+02  0.28477567447E+02  0.00000000000E+00 0. -1.
</event>
<event>
 7    1  0.1184848E-011  0.5930197E+02  0.7816164E-02  0.1266605E+00
        -11   -1    0    0    0    0  0.00000000000E+00  0.00000000000E+00  0.45593999997E+02  0.45594000000E+02  0.51100000000E-03 0.  1.
         11   -1    0    0    0    0 -0.00000000000E+00 -0.00000000000E+00 -0.45593999997E+02  0.45594000000E+02  0.51100000000E-03 0. -1.
    9900012    2    1    2    0    0 -0.17817919059E+01  0.23899725262E+02  0.21032058136E+02  0.59301966702E+02  0.50000041353E+02 0.  0.
        -12    1    1    2    0    0  0.17817919059E+01 -0.23899725262E+02 -0.21032058136E+02  0.31886033298E+02  0.00000000000E+00 0.  1.
         11    1    3    3    0    0 -0.38602786878E+01  0.31355213506E+01 -0.11107876084E+02  0.12170380316E+02  0.51100000000E-03 0. -1.
        -11    1    3    3    0    0  0.37329925576E+01 -0.53784506709E+01  0.13114699643E+01  0.66770441651E+01  0.51100000000E-03 0.  1.
        -12    1    3    3    0    0 -0.16545057757E+01  0.26142654582E+02  0.30828464256E+02  0.40454542221E+02  0.00000000000E+00 0.  1.
</event>
<event>
 7    1  0.1184848E-011  0.5930205E+02  0.7816164E-02  0.1266604E+00
        -11   -1    0    0    0    0  0.00000000000E+00  0.00000000000E+00  0.45593999997E+02  0.45594000000E+02  0.51100000000E-03 0.  1.
         11   -1    0    0    0    0 -0.00000000000E+00 -0.00000000000E+00 -0.45593999997E+02  0.45594000000E+02  0.51100000000E-03 0. -1.
    9900012    2    1    2    0    0  0.17969208544E+02 -0.18453997371E+02 -0.18795506724E+02  0.59302054073E+02  0.50000200696E+02 0.  0.
        -12    1    1    2    0    0 -0.17969208544E+02  0.18453997371E+02  0.18795506724E+02  0.31885945927E+02  0.00000000000E+00 0.  1.
         11    1    3    3    0    0  0.25771803428E+02 -0.70657405414E+01 -0.86219900009E+01  0.28079338546E+02  0.51100000000E-03 0. -1.
        -11    1    3    3    0    0 -0.17602001453E+01 -0.15936673641E+01  0.87544153840E+01  0.90707149220E+01  0.51100000000E-03 0.  1.
        -12    1    3    3    0    0 -0.60423947385E+01 -0.97945894655E+01 -0.18927932107E+02  0.22152000605E+02  0.00000000000E+00 0.  1.
</event>
<event>
 7    1  0.1184848E-011  0.5930195E+02  0.7816164E-02  0.1266605E+00
        -11   -1    0    0    0    0  0.00000000000E+00  0.00000000000E+00  0.45593999997E+02  0.45594000000E+02  0.51100000000E-03 0.  1.
         11   -1    0    0    0    0 -0.00000000000E+00 -0.00000000000E+00 -0.45593999997E+02  0.45594000000E+02  0.51100000000E-03 0. -1.
    9900012    2    1    2    0    0 -0.27890644241E+02 -0.26458496113E+01 -0.15226027763E+02  0.59301945403E+02  0.50000002508E+02 0.  0.
        -12    1    1    2    0    0  0.27890644241E+02  0.26458496113E+01  0.15226027763E+02  0.31886054597E+02  0.00000000000E+00 0.  1.
         11    1    3    3    0    0  0.34482783518E+01  0.19269859312E+01  0.12248444449E+02  0.12869665499E+02  0.51100000000E-03 0. -1.
        -11    1    3    3    0    0 -0.44927032430E+01 -0.38172558207E+00  0.31434226242E+01  0.54964718598E+01  0.51100000000E-03 0.  1.
         12    1    3    3    0    0 -0.26846219349E+02 -0.41911099604E+01 -0.30617894836E+02  0.40935808044E+02  0.00000000000E+00 0. -1.
</event>
<event>
 7    1  0.1184848E-011  0.5930195E+02  0.7816164E-02  0.1266605E+00
        -11   -1    0    0    0    0  0.00000000000E+00  0.00000000000E+00  0.45593999997E+02  0.45594000000E+02  0.51100000000E-03 0.  1.
         11   -1    0    0    0    0 -0.00000000000E+00 -0.00000000000E+00 -0.45593999997E+02  0.45594000000E+02  0.51100000000E-03 0. -1.
    9900012    2    1    2    0    0  0.24606366088E+01  0.24088525399E+02 -0.20746291227E+02  0.59301946809E+02  0.50000005072E+02 0.  0.
        -12    1    1    2    0    0 -0.24606366088E+01 -0.24088525399E+02  0.20746291227E+02  0.31886053191E+02  0.00000000000E+00 0.  1.
         11    1    3    3    0    0  0.50071599859E+01  0.12457076384E+02 -0.11115480695E+02  0.17429983204E+02  0.51100000000E-03 0. -1.
        -11    1    3    3    0    0 -0.19333287645E+02  0.84568966858E+01 -0.12532502882E+02  0.24542997809E+02  0.51100000000E-03 0.  1.
        -12    1    3    3    0    0  0.16786764267E+02  0.31745523292E+01  0.29016923490E+01  0.17328965796E+02  0.00000000000E+00 0.  1.
</event>
<event>
 7    1  0.1184848E-011  0.5930194E+02  0.7816164E-02  0.1266605E+00
        -11   -1    0    0    0    0  0.00000000000E+00  0.00000000000E+00  0.45593999997E+02  0.45594000000E+02  0.51100000000E-03 0. -1.
         11   -1    0    0    0    0 -0.00000000000E+00 -0.00000000000E+00 -0.45593999997E+02  0.45594000000E+02  0.51100000000E-03 0.  1.
    9900012    2    1    2    0    0  0.10004519939E+02 -0.25731772733E+02 -0.15953245467E+02  0.59301943673E+02  0.49999999353E+02 0.  0.
        -12    1    1    2    0    0 -0.10004519939E+02  0.25731772733E+02  0.15953245467E+02  0.31886056327E+02  0.00000000000E+00 0.  1.
         11    1    3    3    0    0 -0.18092806056E+01  0.98042936760E+00 -0.93146838707E+01  0.95392910600E+01  0.51100000000E-03 0.  1.
        -11    1    3    3    0    0  0.11974393110E+02 -0.73585732671E+00 -0.17819562093E+02  0.21481721761E+02  0.51100000000E-03 0. -1.
         12    1    3    3    0    0 -0.16059256494E+00 -0.25976344773E+02  0.11181000497E+02  0.28280930852E+02  0.00000000000E+00 0. -1.
</event>
<event>
 7    1  0.1184848E-011  0.5930195E+02  0.7816164E-02  0.1266605E+00
        -11   -1    0    0    0    0  0.00000000000E+00  0.00000000000E+00  0.45593999997E+02  0.45594000000E+02  0.51100000000E-03 0. -1.
         11   -1    0    0    0    0 -0.00000000000E+00 -0.00000000000E+00 -0.45593999997E+02  0.45594000000E+02  0.51100000000E-03 0.  1.
    9900012    2    1    2    0    0  0.87256278458E+01  0.13083773858E+02  0.27738033661E+02  0.59301949272E+02  0.50000009564E+02 0.  0.
        -12    1    1    2    0    0 -0.87256278458E+01 -0.13083773858E+02 -0.27738033661E+02  0.31886050728E+02  0.00000000000E+00 0.  1.
         11    1    3    3    0    0  0.51409651877E+01 -0.74402572502E+01  0.12491867279E+02  0.15421857845E+02  0.51100000000E-03 0. -1.
        -11    1    3    3    0    0  0.60332933180E+01  0.22778080808E+01 -0.10444009914E+02  0.12274623467E+02  0.51100000000E-03 0.  1.
         12    1    3    3    0    0 -0.24486306598E+01  0.18246223027E+02  0.25690176296E+02  0.31605467960E+02  0.00000000000E+00 0. -1.
</event>
<event>
 7    1  0.1184848E-011  0.5930194E+02  0.7816164E-02  0.1266605E+00
        -11   -1    0    0    0    0  0.00000000000E+00  0.00000000000E+00  0.45593999997E+02  0.45594000000E+02  0.51100000000E-03 0. -1.
         11   -1    0    0    0    0 -0.00000000000E+00 -0.00000000000E+00 -0.45593999997E+02  0.45594000000E+02  0.51100000000E-03 0.  1.
    9900012    2    1    2    0    0  0.28481463695E+02 -0.13357659971E+02 -0.52057751553E+01  0.59301938013E+02  0.49999989030E+02 0.  0.
        -12    1    1    2    0    0 -0.28481463695E+02  0.13357659971E+02  0.52057751553E+01  0.31886061987E+02  0.00000000000E+00 0.  1.
         11    1    3    3    0    0  0.25247665667E+02  0.86828894701E+01 -0.31980436692E+01  0.26889861932E+02  0.51100000000E-03 0. -1.
        -11    1    3    3    0    0  0.62697778549E+01 -0.57264278419E+01  0.90976665249E+01  0.12444662576E+02  0.51100000000E-03 0.  1.
        -12    1    3    3    0    0 -0.30359798270E+01 -0.16314121599E+02 -0.11105398011E+02  0.19967413504E+02  0.00000000000E+00 0.  1.
</event>
<event>
 7    1  0.1184848E-011  0.5930191E+02  0.7816164E-02  0.1266605E+00
        -11   -1    0    0    0    0  0.00000000000E+00  0.00000000000E+00  0.45593999997E+02  0.45594000000E+02  0.51100000000E-03 0. -1.
         11   -1    0    0    0    0 -0.00000000000E+00 -0.00000000000E+00 -0.45593999997E+02  0.45594000000E+02  0.51100000000E-03 0.  1.
    9900012    2    1    2    0    0 -0.31639854960E+02  0.22713600411E+00  0.39485139110E+01  0.59301909385E+02  0.49999936819E+02 0.  0.
        -12    1    1    2    0    0  0.31639854960E+02 -0.22713600411E+00 -0.39485139110E+01  0.31886090615E+02  0.00000000000E+00 0.  1.
         11    1    3    3    0    0 -0.93380945786E+01 -0.14618991641E+02  0.25946213467E+01  0.17539868504E+02  0.51100000000E-03 0. -1.
        -11    1    3    3    0    0 -0.15966416895E+02  0.39696958725E+01 -0.14214032718E+02  0.21742209643E+02  0.51100000000E-03 0.  1.
         12    1    3    3    0    0 -0.63353434860E+01  0.10876431772E+02  0.15567925282E+02  0.20019831238E+02  0.00000000000E+00 0. -1.
</event>
<event>
 7    1  0.1184848E-011  0.5930194E+02  0.7816164E-02  0.1266605E+00
        -11   -1    0    0    0    0  0.00000000000E+00  0.00000000000E+00  0.45593999997E+02  0.45594000000E+02  0.51100000000E-03 0. -1.
         11   -1    0    0    0    0 -0.00000000000E+00 -0.00000000000E+00 -0.45593999997E+02  0.45594000000E+02  0.51100000000E-03 0.  1.
    9900012    2    1    2    0    0  0.18513016135E+02  0.23061434548E+02  0.11923051454E+02  0.59301942141E+02  0.49999996558E+02 0.  0.
        -12    1    1    2    0    0 -0.18513016135E+02 -0.23061434548E+02 -0.11923051454E+02  0.31886057859E+02  0.00000000000E+00 0.  1.
         11    1    3    3    0    0 -0.11099904157E+01  0.14370446055E+02  0.16782765247E+01  0.14510630962E+02  0.51100000000E-03 0. -1.
        -11    1    3    3    0    0 -0.11164498833E+02  0.51461120901E+01  0.49678041955E+00  0.12303466783E+02  0.51100000000E-03 0.  1.
        -12    1    3    3    0    0  0.30787505384E+02  0.35448764027E+01  0.97479945095E+01  0.32487844395E+02  0.00000000000E+00 0.  1.
</event>
<event>
 7    1  0.1184848E-011  0.5930170E+02  0.7816164E-02  0.1266606E+00
        -11   -1    0    0    0    0  0.00000000000E+00  0.00000000000E+00  0.45593999997E+02  0.45594000000E+02  0.51100000000E-03 0. -1.
         11   -1    0    0    0    0 -0.00000000000E+00 -0.00000000000E+00 -0.45593999997E+02  0.45594000000E+02  0.51100000000E-03 0.  1.
    9900012    2    1    2    0    0 -0.10467731681E+02  0.29006144880E+02 -0.81121125370E+01  0.59301698597E+02  0.49999552391E+02 0.  0.
        -12    1    1    2    0    0  0.10467731681E+02 -0.29006144880E+02  0.81121125370E+01  0.31886301403E+02  0.00000000000E+00 0.  1.
         11    1    3    3    0    0 -0.10725898080E+02  0.25637391579E+02 -0.14855872679E+02  0.31512183198E+02  0.51100000000E-03 0.  1.
        -11    1    3    3    0    0  0.67481381717E+01 -0.98271879342E+01  0.86471850297E+00  0.11952352481E+02  0.51100000000E-03 0. -1.
         12    1    3    3    0    0 -0.64899717722E+01  0.13195941236E+02  0.58790416385E+01  0.15837162918E+02  0.00000000000E+00 0. -1.
</event>
<event>
 7    1  0.1184848E-011  0.5930194E+02  0.7816164E-02  0.1266605E+00
        -11   -1    0    0    0    0  0.00000000000E+00  0.00000000000E+00  0.45593999997E+02  0.45594000000E+02  0.51100000000E-03 0. -1.
         11   -1    0    0    0    0 -0.00000000000E+00 -0.00000000000E+00 -0.45593999997E+02  0.45594000000E+02  0.51100000000E-03 0.  1.
    9900012    2    1    2    0    0 -0.22930066419E+02  0.20023545824E+02  0.94863290799E+01  0.59301940778E+02  0.49999994073E+02 0.  0.
        -12    1    1    2    0    0  0.22930066419E+02 -0.20023545824E+02 -0.94863290799E+01  0.31886059222E+02  0.00000000000E+00 0.  1.
         11    1    3    3    0    0 -0.77300320956E+01  0.78214614265E+01  0.16947912041E+02  0.20202979431E+02  0.51100000000E-03 0. -1.
        -11    1    3    3    0    0 -0.12337410000E+02 -0.98200938183E+01 -0.32110320453E+00  0.15771779723E+02  0.51100000000E-03 0.  1.
        -12    1    3    3    0    0 -0.28626243235E+01  0.22022178215E+02 -0.71404797570E+01  0.23327181624E+02  0.00000000000E+00 0.  1.
</event>
<event>
 7    1  0.1184848E-011  0.5930196E+02  0.7816164E-02  0.1266605E+00
        -11   -1    0    0    0    0  0.00000000000E+00  0.00000000000E+00  0.45593999997E+02  0.45594000000E+02  0.51100000000E-03 0. -1.
         11   -1    0    0    0    0 -0.00000000000E+00 -0.00000000000E+00 -0.45593999997E+02  0.45594000000E+02  0.51100000000E-03 0.  1.
    9900012    2    1    2    0    0  0.24418830940E+01 -0.10780428952E+02  0.29908849504E+02  0.59301957284E+02  0.50000024176E+02 0.  0.
        -12    1    1    2    0    0 -0.24418830940E+01  0.10780428952E+02 -0.29908849504E+02  0.31886042716E+02  0.00000000000E+00 0.  1.
         11    1    3    3    0    0 -0.10132597189E+02 -0.10045516042E+02  0.43947068093E+00  0.14274979968E+02  0.51100000000E-03 0.  1.
        -11    1    3    3    0    0  0.12759153597E+02 -0.14080341599E+02  0.23979657074E+02  0.30595358695E+02  0.51100000000E-03 0. -1.
         12    1    3    3    0    0 -0.18467331355E+00  0.13345428689E+02  0.54897217495E+01  0.14431618621E+02  0.00000000000E+00 0. -1.
</event>
<event>
 7    1  0.1184848E-011  0.5930197E+02  0.7816164E-02  0.1266605E+00
        -11   -1    0    0    0    0  0.00000000000E+00  0.00000000000E+00  0.45593999997E+02  0.45594000000E+02  0.51100000000E-03 0.  1.
         11   -1    0    0    0    0 -0.00000000000E+00 -0.00000000000E+00 -0.45593999997E+02  0.45594000000E+02  0.51100000000E-03 0. -1.
    9900012    2    1    2    0    0  0.20555746742E+02 -0.20591512450E+02 -0.13044919499E+02  0.59301968045E+02  0.50000043802E+02 0.  0.
        -12    1    1    2    0    0 -0.20555746742E+02  0.20591512450E+02  0.13044919499E+02  0.31886031955E+02  0.00000000000E+00 0.  1.
         11    1    3    3    0    0  0.18711832570E+01 -0.67483065807E+01  0.48526235421E+01  0.85199133793E+01  0.51100000000E-03 0. -1.
        -11    1    3    3    0    0  0.90313677806E+01 -0.11965936021E+02  0.12067173511E+02  0.19244892976E+02  0.51100000000E-03 0.  1.
         12    1    3    3    0    0  0.96531957041E+01 -0.18772698482E+01 -0.29964716553E+02  0.31537161690E+02  0.00000000000E+00 0. -1.
</event>
<event>
 7    1  0.1184848E-011  0.5930195E+02  0.7816164E-02  0.1266605E+00
        -11   -1    0    0    0    0  0.00000000000E+00  0.00000000000E+00  0.45593999997E+02  0.45594000000E+02  0.51100000000E-03 0. -1.
         11   -1    0    0    0    0 -0.00000000000E+00 -0.00000000000E+00 -0.45593999997E+02  0.45594000000E+02  0.51100000000E-03 0.  1.
    9900012    2    1    2    0    0  0.25413651200E+02 -0.77613189553E+01  0.17624649659E+02  0.59301952662E+02  0.50000015747E+02 0.  0.
        -12    1    1    2    0    0 -0.25413651200E+02  0.77613189553E+01 -0.17624649659E+02  0.31886047338E+02  0.00000000000E+00 0.  1.
         11    1    3    3    0    0  0.21019529717E+02 -0.91518400017E+01  0.12856168641E+02  0.26284175417E+02  0.51100000000E-03 0. -1.
        -11    1    3    3    0    0 -0.28521230455E+00  0.12185777133E+02  0.13632173976E+02  0.18286899080E+02  0.51100000000E-03 0.  1.
         12    1    3    3    0    0  0.46793337876E+01 -0.10795256087E+02 -0.88636929583E+01  0.14730878166E+02  0.00000000000E+00 0. -1.
</event>
<event>
 7    1  0.1184848E-011  0.5930197E+02  0.7816164E-02  0.1266605E+00
        -11   -1    0    0    0    0  0.00000000000E+00  0.00000000000E+00  0.45593999997E+02  0.45594000000E+02  0.51100000000E-03 0. -1.
         11   -1    0    0    0    0 -0.00000000000E+00 -0.00000000000E+00 -0.45593999997E+02  0.45594000000E+02  0.51100000000E-03 0.  1.
    9900012    2    1    2    0    0 -0.52374671322E+00  0.31000239969E+01  0.31730654821E+02  0.59301969912E+02  0.50000047206E+02 0.  0.
        -12    1    1    2    0    0  0.52374671322E+00 -0.31000239969E+01 -0.31730654821E+02  0.31886030088E+02  0.00000000000E+00 0.  1.
         11    1    3    3    0    0 -0.65225462637E+01  0.82237547203E+01  0.28373520208E+02  0.30252775092E+02  0.51100000000E-03 0. -1.
        -11    1    3    3    0    0  0.73099522130E+01 -0.11841203493E+02  0.11754555478E+02  0.18215901742E+02  0.51100000000E-03 0.  1.
        -12    1    3    3    0    0 -0.13111526626E+01  0.67174727699E+01 -0.83974208654E+01  0.10833293078E+02  0.00000000000E+00 0.  1.
</event>
<event>
 7    1  0.1184848E-011  0.5930201E+02  0.7816164E-02  0.1266605E+00
        -11   -1    0    0    0    0  0.00000000000E+00  0.00000000000E+00  0.45593999997E+02  0.45594000000E+02  0.51100000000E-03 0.  1.
         11   -1    0    0    0    0 -0.00000000000E+00 -0.00000000000E+00 -0.45593999997E+02  0.45594000000E+02  0.51100000000E-03 0. -1.
    9900012    2    1    2    0    0  0.13607106155E+02 -0.77891218913E+01 -0.27764955025E+02  0.59302008008E+02  0.50000116685E+02 0.  0.
        -12    1    1    2    0    0 -0.13607106155E+02  0.77891218913E+01  0.27764955025E+02  0.31885991992E+02  0.00000000000E+00 0.  1.
         11    1    3    3    0    0  0.15680043289E+02  0.25599767367E+01 -0.89124128235E+01  0.18216704999E+02  0.51100000000E-03 0. -1.
        -11    1    3    3    0    0  0.76588991491E+01 -0.37479181169E+01  0.80490969771E+01  0.11725766022E+02  0.51100000000E-03 0.  1.
        -12    1    3    3    0    0 -0.97318362831E+01 -0.66011805111E+01 -0.26901639179E+02  0.29359536987E+02  0.00000000000E+00 0.  1.
</event>
<event>
 7    1  0.1184848E-011  0.5930195E+02  0.7816164E-02  0.1266605E+00
        -11   -1    0    0    0    0  0.00000000000E+00  0.00000000000E+00  0.45593999997E+02  0.45594000000E+02  0.51100000000E-03 0. -1.
         11   -1    0    0    0    0 -0.00000000000E+00 -0.00000000000E+00 -0.45593999997E+02  0.45594000000E+02  0.51100000000E-03 0.  1.
    9900012    2    1    2    0    0  0.13981079867E+02 -0.27391337910E+02  0.84240240027E+01  0.59301950273E+02  0.50000011391E+02 0.  0.
        -12    1    1    2    0    0 -0.13981079867E+02  0.27391337910E+02 -0.84240240027E+01  0.31886049727E+02  0.00000000000E+00 0.  1.
         11    1    3    3    0    0  0.36063937899E+01 -0.10323653163E+02  0.13171585171E+02  0.17119420171E+02  0.51100000000E-03 0. -1.
        -11    1    3    3    0    0  0.68330144432E+01 -0.24491320753E+01 -0.19687113635E+02  0.20982630384E+02  0.51100000000E-03 0.  1.
         12    1    3    3    0    0  0.35416716343E+01 -0.14618552672E+02  0.14939552466E+02  0.21199899719E+02  0.00000000000E+00 0. -1.
</event>
<event>
 7    1  0.1184848E-011  0.5930195E+02  0.7816164E-02  0.1266605E+00
        -11   -1    0    0    0    0  0.00000000000E+00  0.00000000000E+00  0.45593999997E+02  0.45594000000E+02  0.51100000000E-03 0.  1.
         11   -1    0    0    0    0 -0.00000000000E+00 -0.00000000000E+00 -0.45593999997E+02  0.45594000000E+02  0.51100000000E-03 0. -1.
    9900012    2    1    2    0    0 -0.26827166745E+02 -0.31147863628E+01 -0.16950562073E+02  0.59301947810E+02  0.50000006899E+02 0.  0.
        -12    1    1    2    0    0  0.26827166745E+02  0.31147863628E+01  0.16950562073E+02  0.31886052190E+02  0.00000000000E+00 0.  1.
         11    1    3    3    0    0 -0.13353889687E+02 -0.27681701434E+01 -0.34105242245E+02  0.36730868280E+02  0.51100000000E-03 0. -1.
        -11    1    3    3    0    0 -0.11202710713E+01  0.13469297973E+01  0.61199153587E+00  0.18557373341E+01  0.51100000000E-03 0.  1.
         12    1    3    3    0    0 -0.12353005987E+02 -0.16935460168E+01  0.16542688636E+02  0.20715342197E+02  0.00000000000E+00 0. -1.
</event>
<event>
 7    1  0.1184848E-011  0.5930195E+02  0.7816164E-02  0.1266605E+00
        -11   -1    0    0    0    0  0.00000000000E+00  0.00000000000E+00  0.45593999997E+02  0.45594000000E+02  0.51100000000E-03 0.  1.
         11   -1    0    0    0    0 -0.00000000000E+00 -0.00000000000E+00 -0.45593999997E+02  0.45594000000E+02  0.51100000000E-03 0. -1.
    9900012    2    1    2    0    0 -0.14583062963E+02  0.25464211155E+01 -0.28241286515E+02  0.59301948976E+02  0.50000009025E+02 0.  0.
        -12    1    1    2    0    0  0.14583062963E+02 -0.25464211155E+01  0.28241286515E+02  0.31886051024E+02  0.00000000000E+00 0.  1.
         11    1    3    3    0    0 -0.10965042695E+02  0.22355852271E+02 -0.18089196993E+02  0.30777188634E+02  0.51100000000E-03 0. -1.
        -11    1    3    3    0    0  0.29102200343E+01 -0.61374033508E+01  0.39239599145E+01  0.78443968673E+01  0.51100000000E-03 0.  1.
        -12    1    3    3    0    0 -0.65282403028E+01 -0.13672027805E+02 -0.14076049436E+02  0.20680363475E+02  0.00000000000E+00 0.  1.
</event>
<event>
 7    1  0.1184848E-011  0.5930185E+02  0.7816164E-02  0.1266605E+00
        -11   -1    0    0    0    0  0.00000000000E+00  0.00000000000E+00  0.45593999997E+02  0.45594000000E+02  0.51100000000E-03 0.  1.
         11   -1    0    0    0    0 -0.00000000000E+00 -0.00000000000E+00 -0.45593999997E+02  0.45594000000E+02  0.51100000000E-03 0. -1.
    9900012    2    1    2    0    0 -0.16820818419E+02 -0.23146501389E+02 -0.14072164750E+02  0.59301854425E+02  0.49999836586E+02 0.  0.
        -12    1    1    2    0    0  0.16820818419E+02  0.23146501389E+02  0.14072164750E+02  0.31886145575E+02  0.00000000000E+00 0.  1.
         11    1    3    3    0    0 -0.17032322638E+02 -0.15489471886E+02 -0.17895230784E+02  0.29159270204E+02  0.51100000000E-03 0. -1.
        -11    1    3    3    0    0 -0.92779775877E+01 -0.28502284009E+01  0.12910515341E+02  0.16151968198E+02  0.51100000000E-03 0.  1.
         12    1    3    3    0    0  0.94894818070E+01 -0.48068011029E+01 -0.90874493064E+01  0.13990616023E+02  0.00000000000E+00 0. -1.
</event>
<event>
 7    1  0.1184848E-011  0.5930188E+02  0.7816164E-02  0.1266605E+00
        -11   -1    0    0    0    0  0.00000000000E+00  0.00000000000E+00  0.45593999997E+02  0.45594000000E+02  0.51100000000E-03 0. -1.
         11   -1    0    0    0    0 -0.00000000000E+00 -0.00000000000E+00 -0.45593999997E+02  0.45594000000E+02  0.51100000000E-03 0.  1.
    9900012    2    1    2    0    0 -0.69684157580E+01  0.21840833659E+02  0.22161765609E+02  0.59301879384E+02  0.49999882104E+02 0.  0.
        -12    1    1    2    0    0  0.69684157580E+01 -0.21840833659E+02 -0.22161765609E+02  0.31886120616E+02  0.00000000000E+00 0.  1.
         11    1    3    3    0    0  0.50947353106E+01  0.68005652562E+01 -0.17378239146E-01  0.84973123959E+01  0.51100000000E-03 0. -1.
        -11    1    3    3    0    0  0.54547507282E+01  0.24315205761E+02  0.17463698517E+02  0.30429661563E+02  0.51100000000E-03 0.  1.
         12    1    3    3    0    0 -0.17517901797E+02 -0.92749373589E+01  0.47154453309E+01  0.20374905424E+02  0.00000000000E+00 0. -1.
</event>
<event>
 7    1  0.1663931E-011  0.5930195E+02  0.7816164E-02  0.1266605E+00
        -11   -1    0    0    0    0  0.00000000000E+00  0.00000000000E+00  0.45593999997E+02  0.45594000000E+02  0.51100000000E-03 0. -1.
         11   -1    0    0    0    0 -0.00000000000E+00 -0.00000000000E+00 -0.45593999997E+02  0.45594000000E+02  0.51100000000E-03 0.  1.
    9900012    2    1    2    0    0 -0.93451358993E+01 -0.20806034844E+02  0.22282221590E+02  0.59301952112E+02  0.50000014744E+02 0.  0.
        -12    1    1    2    0    0  0.93451358993E+01  0.20806034844E+02 -0.22282221590E+02  0.31886047888E+02  0.00000000000E+00 0.  1.
         11    1    3    3    0    0  0.33160284287E+01  0.16279520412E+01 -0.48378263555E+01  0.60869398301E+01  0.51100000000E-03 0. -1.
        -11    1    3    3    0    0 -0.96993261585E+01 -0.21191535937E+01 -0.78550997735E+01  0.12659791965E+02  0.51100000000E-03 0.  1.
         12    1    3    3    0    0 -0.29618381695E+01 -0.20314833291E+02  0.34975147719E+02  0.40555220317E+02  0.00000000000E+00 0. -1.
</event>
<event>
 7    1  0.1184848E-011  0.5930201E+02  0.7816164E-02  0.1266605E+00
        -11   -1    0    0    0    0  0.00000000000E+00  0.00000000000E+00  0.45593999997E+02  0.45594000000E+02  0.51100000000E-03 0. -1.
         11   -1    0    0    0    0 -0.00000000000E+00 -0.00000000000E+00 -0.45593999997E+02  0.45594000000E+02  0.51100000000E-03 0.  1.
    9900012    2    1    2    0    0 -0.16961925864E+02  0.22979705075E+02 -0.14175424756E+02  0.59302008697E+02  0.50000117941E+02 0.  0.
        -12    1    1    2    0    0  0.16961925864E+02 -0.22979705075E+02  0.14175424756E+02  0.31885991303E+02  0.00000000000E+00 0.  1.
         11    1    3    3    0    0 -0.10449214341E+02  0.54984049121E+00  0.27073887689E+01  0.10808254212E+02  0.51100000000E-03 0. -1.
        -11    1    3    3    0    0 -0.23560678692E+01  0.25714162048E+02  0.47210038333E+01  0.26249896439E+02  0.51100000000E-03 0.  1.
         12    1    3    3    0    0 -0.41566436542E+01 -0.32842974640E+01 -0.21603817358E+02  0.22243858045E+02  0.00000000000E+00 0. -1.
</event>
<event>
 7    1  0.1184848E-011  0.5930193E+02  0.7816164E-02  0.1266605E+00
        -11   -1    0    0    0    0  0.00000000000E+00  0.00000000000E+00  0.45593999997E+02  0.45594000000E+02  0.51100000000E-03 0.  1.
         11   -1    0    0    0    0 -0.00000000000E+00 -0.00000000000E+00 -0.45593999997E+02  0.45594000000E+02  0.51100000000E-03 0. -1.
    9900012    2    1    2    0    0 -0.18643451986E+02 -0.10339736926E+01 -0.25847133662E+02  0.59301925891E+02  0.49999966923E+02 0.  0.
        -12    1    1    2    0    0  0.18643451986E+02  0.10339736926E+01  0.25847133662E+02  0.31886074109E+02  0.00000000000E+00 0.  1.
         11    1    3    3    0    0  0.32904539346E+01  0.54699263132E+01  0.51793845947E+01  0.82202923311E+01  0.51100000000E-03 0. -1.
        -11    1    3    3    0    0 -0.17605235061E+02 -0.14290322144E+02 -0.45241155942E+01  0.23121964249E+02  0.51100000000E-03 0.  1.
         12    1    3    3    0    0 -0.43286708591E+01  0.77864221387E+01 -0.26502402662E+02  0.27959669311E+02  0.00000000000E+00 0. -1.
</event>
<event>
 7    1  0.1184848E-011  0.5930194E+02  0.7816164E-02  0.1266605E+00
        -11   -1    0    0    0    0  0.00000000000E+00  0.00000000000E+00  0.45593999997E+02  0.45594000000E+02  0.51100000000E-03 0. -1.
         11   -1    0    0    0    0 -0.00000000000E+00 -0.00000000000E+00 -0.45593999997E+02  0.45594000000E+02  0.51100000000E-03 0.  1.
    9900012    2    1    2    0    0  0.29290361015E+02  0.11281178701E+01  0.12550811425E+02  0.59301940887E+02  0.49999994273E+02 0.  0.
        -12    1    1    2    0    0 -0.29290361015E+02 -0.11281178701E+01 -0.12550811425E+02  0.31886059113E+02  0.00000000000E+00 0.  1.
         11    1    3    3    0    0 -0.36410863895E+01  0.54550809412E+01  0.16464993107E+02  0.17723188665E+02  0.51100000000E-03 0. -1.
        -11    1    3    3    0    0  0.52616224539E+01  0.22984487599E+01 -0.10866055983E+02  0.12289780732E+02  0.51100000000E-03 0.  1.
         12    1    3    3    0    0  0.27669824950E+02 -0.66254118310E+01  0.69518743013E+01  0.29288971491E+02  0.00000000000E+00 0. -1.
</event>
<event>
 7    1  0.1184848E-011  0.5930197E+02  0.7816164E-02  0.1266605E+00
        -11   -1    0    0    0    0  0.00000000000E+00  0.00000000000E+00  0.45593999997E+02  0.45594000000E+02  0.51100000000E-03 0.  1.
         11   -1    0    0    0    0 -0.00000000000E+00 -0.00000000000E+00 -0.45593999997E+02  0.45594000000E+02  0.51100000000E-03 0. -1.
    9900012    2    1    2    0    0  0.18044469106E+01 -0.21964393525E+02 -0.23044044723E+02  0.59301974710E+02  0.50000055958E+02 0.  0.
        -12    1    1    2    0    0 -0.18044469106E+01  0.21964393525E+02  0.23044044723E+02  0.31886025290E+02  0.00000000000E+00 0.  1.
         11    1    3    3    0    0 -0.59414162599E+01 -0.73366409502E+01 -0.10948564858E+02  0.14456756217E+02  0.51100000000E-03 0. -1.
        -11    1    3    3    0    0 -0.25142002898E+01  0.10691421987E+02 -0.13604467893E+02  0.17484543291E+02  0.51100000000E-03 0.  1.
         12    1    3    3    0    0  0.10260063460E+02 -0.25319174561E+02  0.15089880276E+01  0.27360675203E+02  0.00000000000E+00 0. -1.
</event>
<event>
 7    1  0.1184848E-011  0.5930195E+02  0.7816164E-02  0.1266605E+00
        -11   -1    0    0    0    0  0.00000000000E+00  0.00000000000E+00  0.45593999997E+02  0.45594000000E+02  0.51100000000E-03 0.  1.
         11   -1    0    0    0    0 -0.00000000000E+00 -0.00000000000E+00 -0.45593999997E+02  0.45594000000E+02  0.51100000000E-03 0. -1.
    9900012    2    1    2    0    0 -0.26567039183E+02 -0.25964425652E+01 -0.17440494683E+02  0.59301953839E+02  0.50000017894E+02 0.  0.
        -12    1    1    2    0    0  0.26567039183E+02  0.25964425652E+01  0.17440494683E+02  0.31886046161E+02  0.00000000000E+00 0.  1.
         11    1    3    3    0    0  0.17227953958E+01  0.43677093448E+01  0.31901857382E+01  0.56764596538E+01  0.51100000000E-03 0. -1.
        -11    1    3    3    0    0 -0.38403553594E+02 -0.80171788959E+01 -0.17727254025E+02  0.43050709885E+02  0.51100000000E-03 0.  1.
         12    1    3    3    0    0  0.10113719015E+02  0.10530269859E+01 -0.29034263970E+01  0.10574784300E+02  0.00000000000E+00 0. -1.
</event>
<event>
 7    1  0.1184848E-011  0.5930194E+02  0.7816164E-02  0.1266605E+00
        -11   -1    0    0    0    0  0.00000000000E+00  0.00000000000E+00  0.45593999997E+02  0.45594000000E+02  0.51100000000E-03 0. -1.
         11   -1    0    0    0    0 -0.00000000000E+00 -0.00000000000E+00 -0.45593999997E+02  0.45594000000E+02  0.51100000000E-03 0.  1.
    9900012    2    1    2    0    0  0.21590179409E+02  0.23330450658E+02 -0.25050413521E+01  0.59301937104E+02  0.49999987373E+02 0.  0.
        -12    1    1    2    0    0 -0.21590179409E+02 -0.23330450658E+02  0.25050413521E+01  0.31886062896E+02  0.00000000000E+00 0.  1.
         11    1    3    3    0    0  0.94408259518E+01  0.85362117273E+01  0.29131679313E+01  0.13056900588E+02  0.51100000000E-03 0. -1.
        -11    1    3    3    0    0  0.48929145728E+01 -0.96922853773E+01  0.11339252371E+02  0.15699033520E+02  0.51100000000E-03 0.  1.
         12    1    3    3    0    0  0.72564388845E+01  0.24486524308E+02 -0.16757461654E+02  0.30546002997E+02  0.00000000000E+00 0. -1.
</event>
<event>
 7    1  0.1184848E-011  0.5930196E+02  0.7816164E-02  0.1266605E+00
        -11   -1    0    0    0    0  0.00000000000E+00  0.00000000000E+00  0.45593999997E+02  0.45594000000E+02  0.51100000000E-03 0.  1.
         11   -1    0    0    0    0 -0.00000000000E+00 -0.00000000000E+00 -0.45593999997E+02  0.45594000000E+02  0.51100000000E-03 0. -1.
    9900012    2    1    2    0    0  0.50869905890E+00 -0.31167043030E+02 -0.67139030877E+01  0.59301955394E+02  0.50000020729E+02 0.  0.
        -12    1    1    2    0    0 -0.50869905890E+00  0.31167043030E+02  0.67139030877E+01  0.31886044606E+02  0.00000000000E+00 0.  1.
         11    1    3    3    0    0 -0.65878516334E+01 -0.37162906277E+00 -0.14732029164E+02  0.16142198761E+02  0.51100000000E-03 0. -1.
        -11    1    3    3    0    0 -0.60433774703E+01  0.30981776272E+00 -0.40720346941E+01  0.72938237644E+01  0.51100000000E-03 0.  1.
        -12    1    3    3    0    0  0.13139928163E+02 -0.31105231730E+02  0.12090160770E+02  0.35865932868E+02  0.00000000000E+00 0.  1.
</event>
<event>
 7    1  0.1184848E-011  0.5930194E+02  0.7816164E-02  0.1266605E+00
        -11   -1    0    0    0    0  0.00000000000E+00  0.00000000000E+00  0.45593999997E+02  0.45594000000E+02  0.51100000000E-03 0.  1.
         11   -1    0    0    0    0 -0.00000000000E+00 -0.00000000000E+00 -0.45593999997E+02  0.45594000000E+02  0.51100000000E-03 0. -1.
    9900012    2    1    2    0    0  0.12243785610E+02 -0.24193629267E+02 -0.16777326949E+02  0.59301942189E+02  0.49999996647E+02 0.  0.
        -12    1    1    2    0    0 -0.12243785610E+02  0.24193629267E+02  0.16777326949E+02  0.31886057811E+02  0.00000000000E+00 0.  1.
         11    1    3    3    0    0  0.25974892912E+01 -0.50004605212E+01 -0.29985647335E+02  0.30510499871E+02  0.51100000000E-03 0. -1.
        -11    1    3    3    0    0 -0.95097856397E+00 -0.78902878210E+01 -0.69026798358E+00  0.79773098397E+01  0.51100000000E-03 0.  1.
        -12    1    3    3    0    0  0.10597274883E+02 -0.11302880925E+02  0.13898588370E+02  0.20814132478E+02  0.00000000000E+00 0.  1.
</event>
<event>
 7    1  0.1184848E-011  0.5930196E+02  0.7816164E-02  0.1266605E+00
        -11   -1    0    0    0    0  0.00000000000E+00  0.00000000000E+00  0.45593999997E+02  0.45594000000E+02  0.51100000000E-03 0.  1.
         11   -1    0    0    0    0 -0.00000000000E+00 -0.00000000000E+00 -0.45593999997E+02  0.45594000000E+02  0.51100000000E-03 0. -1.
    9900012    2    1    2    0    0  0.22125228185E+02  0.65581110756E+01 -0.22004202143E+02  0.59301961439E+02  0.50000031755E+02 0.  0.
        -12    1    1    2    0    0 -0.22125228185E+02 -0.65581110756E+01  0.22004202143E+02  0.31886038561E+02  0.00000000000E+00 0.  1.
         11    1    3    3    0    0 -0.18515475469E+01  0.13053884931E+02 -0.57398677480E+01  0.14379785191E+02  0.51100000000E-03 0. -1.
        -11    1    3    3    0    0  0.19186018289E+01 -0.27375566281E+01  0.99265862918E+01  0.10474367042E+02  0.51100000000E-03 0.  1.
         12    1    3    3    0    0  0.22058173903E+02 -0.37582172272E+01 -0.26190920687E+02  0.34447809206E+02  0.00000000000E+00 0. -1.
</event>
<event>
 7    1  0.1184848E-011  0.5930195E+02  0.7816164E-02  0.1266605E+00
        -11   -1    0    0    0    0  0.00000000000E+00  0.00000000000E+00  0.45593999997E+02  0.45594000000E+02  0.51100000000E-03 0.  1.
         11   -1    0    0    0    0 -0.00000000000E+00 -0.00000000000E+00 -0.45593999997E+02  0.45594000000E+02  0.51100000000E-03 0. -1.
    9900012    2    1    2    0    0  0.22640927533E+01 -0.31791964387E+02  0.92992573935E+00  0.59301954816E+02  0.50000019676E+02 0.  0.
        -12    1    1    2    0    0 -0.22640927533E+01  0.31791964387E+02 -0.92992573935E+00  0.31886045184E+02  0.00000000000E+00 0.  1.
         11    1    3    3    0    0  0.14848035790E+02 -0.18685022496E+02  0.91228942513E+01  0.25550370493E+02  0.51100000000E-03 0. -1.
        -11    1    3    3    0    0  0.13553406259E+00  0.79799411043E+01 -0.70441734321E+00  0.80121179200E+01  0.51100000000E-03 0.  1.
        -12    1    3    3    0    0 -0.12719477100E+02 -0.21086882995E+02 -0.74885511688E+01  0.25739466404E+02  0.00000000000E+00 0.  1.
</event>
<event>
 7    1  0.1184848E-011  0.5930192E+02  0.7816164E-02  0.1266605E+00
        -11   -1    0    0    0    0  0.00000000000E+00  0.00000000000E+00  0.45593999997E+02  0.45594000000E+02  0.51100000000E-03 0. -1.
         11   -1    0    0    0    0 -0.00000000000E+00 -0.00000000000E+00 -0.45593999997E+02  0.45594000000E+02  0.51100000000E-03 0.  1.
    9900012    2    1    2    0    0  0.68920391913E+01  0.25729964205E+02  0.17526862108E+02  0.59301919063E+02  0.49999954470E+02 0.  0.
        -12    1    1    2    0    0 -0.68920391913E+01 -0.25729964205E+02 -0.17526862108E+02  0.31886080937E+02  0.00000000000E+00 0.  1.
         11    1    3    3    0    0  0.11701574618E+00  0.59397018976E+01  0.87419751678E+01  0.10569573379E+02  0.51100000000E-03 0. -1.
        -11    1    3    3    0    0 -0.17753444435E+02  0.25129643927E+01  0.34431513764E+01  0.18258013885E+02  0.51100000000E-03 0.  1.
        -12    1    3    3    0    0  0.24528467880E+02  0.17277297914E+02  0.53417355637E+01  0.30474331799E+02  0.00000000000E+00 0.  1.
</event>
<event>
 7    1  0.1184848E-011  0.5930194E+02  0.7816164E-02  0.1266605E+00
        -11   -1    0    0    0    0  0.00000000000E+00  0.00000000000E+00  0.45593999997E+02  0.45594000000E+02  0.51100000000E-03 0.  1.
         11   -1    0    0    0    0 -0.00000000000E+00 -0.00000000000E+00 -0.45593999997E+02  0.45594000000E+02  0.51100000000E-03 0. -1.
    9900012    2    1    2    0    0  0.17237304132E+02  0.26558051818E+02 -0.37770047733E+01  0.59301944503E+02  0.50000000867E+02 0.  0.
        -12    1    1    2    0    0 -0.17237304132E+02 -0.26558051818E+02  0.37770047733E+01  0.31886055497E+02  0.00000000000E+00 0.  1.
         11    1    3    3    0    0  0.62665544322E+01  0.17168878576E+02 -0.17193455883E+02  0.25092927718E+02  0.51100000000E-03 0. -1.
        -11    1    3    3    0    0 -0.71751722804E+01 -0.88110718952E+00 -0.28430683667E+01  0.77680425547E+01  0.51100000000E-03 0.  1.
         12    1    3    3    0    0  0.18145921980E+02  0.10270280431E+02  0.16259519477E+02  0.26440974230E+02  0.00000000000E+00 0. -1.
</event>
<event>
 7    1  0.1184848E-011  0.5930192E+02  0.7816164E-02  0.1266605E+00
        -11   -1    0    0    0    0  0.00000000000E+00  0.00000000000E+00  0.45593999997E+02  0.45594000000E+02  0.51100000000E-03 0.  1.
         11   -1    0    0    0    0 -0.00000000000E+00 -0.00000000000E+00 -0.45593999997E+02  0.45594000000E+02  0.51100000000E-03 0. -1.
    9900012    2    1    2    0    0  0.15433424482E+02 -0.19291422955E+02 -0.20158690926E+02  0.59301915093E+02  0.49999947231E+02 0.  0.
        -12    1    1    2    0    0 -0.15433424482E+02  0.19291422955E+02  0.20158690926E+02  0.31886084907E+02  0.00000000000E+00 0.  1.
         11    1    3    3    0    0  0.30481569133E+01 -0.32552174156E+02 -0.75678701196E+01  0.33559022055E+02  0.51100000000E-03 0. -1.
        -11    1    3    3    0    0  0.30465542785E+01  0.68276328421E+01  0.15308552427E+01  0.76316172095E+01  0.51100000000E-03 0.  1.
        -12    1    3    3    0    0  0.93387132900E+01  0.64331183594E+01 -0.14121676049E+02  0.18111275829E+02  0.00000000000E+00 0.  1.
</event>
<event>
 7    1  0.1184848E-011  0.5930200E+02  0.7816164E-02  0.1266605E+00
        -11   -1    0    0    0    0  0.00000000000E+00  0.00000000000E+00  0.45593999997E+02  0.45594000000E+02  0.51100000000E-03 0. -1.
         11   -1    0    0    0    0 -0.00000000000E+00 -0.00000000000E+00 -0.45593999997E+02  0.45594000000E+02  0.51100000000E-03 0.  1.
    9900012    2    1    2    0    0  0.90227854037E+01 -0.25946493790E+02  0.16189066514E+02  0.59301998824E+02  0.50000099934E+02 0.  0.
        -12    1    1    2    0    0 -0.90227854037E+01  0.25946493790E+02 -0.16189066514E+02  0.31886001176E+02  0.00000000000E+00 0.  1.
         11    1    3    3    0    0  0.13016549772E+02 -0.78772885492E+01  0.99277811483E+01  0.18167087869E+02  0.51100000000E-03 0. -1.
        -11    1    3    3    0    0  0.13354032185E+02 -0.17822871679E+02 -0.10781710213E+01  0.22296802091E+02  0.51100000000E-03 0.  1.
         12    1    3    3    0    0 -0.17347796553E+02 -0.24633356132E+00  0.73394563872E+01  0.18838108863E+02  0.00000000000E+00 0. -1.
</event>
<event>
 7    1  0.1184848E-011  0.5930195E+02  0.7816164E-02  0.1266605E+00
        -11   -1    0    0    0    0  0.00000000000E+00  0.00000000000E+00  0.45593999997E+02  0.45594000000E+02  0.51100000000E-03 0.  1.
         11   -1    0    0    0    0 -0.00000000000E+00 -0.00000000000E+00 -0.45593999997E+02  0.45594000000E+02  0.51100000000E-03 0. -1.
    9900012    2    1    2    0    0  0.28081861653E+02  0.12819310273E+02 -0.79871597461E+01  0.59301946770E+02  0.50000005002E+02 0.  0.
        -12    1    1    2    0    0 -0.28081861653E+02 -0.12819310273E+02  0.79871597461E+01  0.31886053230E+02  0.00000000000E+00 0.  1.
         11    1    3    3    0    0  0.13717977516E+02  0.36129743928E+01  0.50799035808E+01  0.15067910000E+02  0.51100000000E-03 0. -1.
        -11    1    3    3    0    0  0.14732268526E+02  0.23621934933E+02 -0.86670737240E+01  0.29157395513E+02  0.51100000000E-03 0.  1.
        -12    1    3    3    0    0 -0.36838439000E+00 -0.14415599053E+02 -0.43999896028E+01  0.15076641258E+02  0.00000000000E+00 0.  1.
</event>
<event>
 7    1  0.1184848E-011  0.5930197E+02  0.7816164E-02  0.1266605E+00
        -11   -1    0    0    0    0  0.00000000000E+00  0.00000000000E+00  0.45593999997E+02  0.45594000000E+02  0.51100000000E-03 0.  1.
         11   -1    0    0    0    0 -0.00000000000E+00 -0.00000000000E+00 -0.45593999997E+02  0.45594000000E+02  0.51100000000E-03 0. -1.
    9900012    2    1    2    0    0 -0.31687528478E+02  0.34324921291E+00  0.35357983437E+01  0.59301966208E+02  0.50000040451E+02 0.  0.
        -12    1    1    2    0    0  0.31687528478E+02 -0.34324921291E+00 -0.35357983437E+01  0.31886033792E+02  0.00000000000E+00 0.  1.
         11    1    3    3    0    0  0.55854542459E+01  0.24313040523E+01  0.83132990237E+00  0.61481418490E+01  0.51100000000E-03 0. -1.
        -11    1    3    3    0    0 -0.13801899779E+02 -0.22976028782E+01 -0.17344643479E+02  0.22284704938E+02  0.51100000000E-03 0.  1.
        -12    1    3    3    0    0 -0.23471082945E+02  0.20954803880E+00  0.20049111921E+02  0.30869119420E+02  0.00000000000E+00 0.  1.
</event>
<event>
 7    1  0.1184848E-011  0.5930194E+02  0.7816164E-02  0.1266605E+00
        -11   -1    0    0    0    0  0.00000000000E+00  0.00000000000E+00  0.45593999997E+02  0.45594000000E+02  0.51100000000E-03 0.  1.
         11   -1    0    0    0    0 -0.00000000000E+00 -0.00000000000E+00 -0.45593999997E+02  0.45594000000E+02  0.51100000000E-03 0. -1.
    9900012    2    1    2    0    0 -0.12076251715E+02  0.26628013929E+02 -0.12721393860E+02  0.59301939676E+02  0.49999992063E+02 0.  0.
        -12    1    1    2    0    0  0.12076251715E+02 -0.26628013929E+02  0.12721393860E+02  0.31886060324E+02  0.00000000000E+00 0.  1.
         11    1    3    3    0    0  0.83081830977E+01  0.22046954500E+00 -0.67177585128E+01  0.10686570680E+02  0.51100000000E-03 0. -1.
        -11    1    3    3    0    0 -0.63616193888E+01  0.25229507049E+02  0.94800185142E+01  0.27692399291E+02  0.51100000000E-03 0.  1.
         12    1    3    3    0    0 -0.14022815424E+02  0.11780373349E+01 -0.15483653861E+02  0.20922969705E+02  0.00000000000E+00 0. -1.
</event>
<event>
 7    1  0.1184848E-011  0.5930194E+02  0.7816164E-02  0.1266605E+00
        -11   -1    0    0    0    0  0.00000000000E+00  0.00000000000E+00  0.45593999997E+02  0.45594000000E+02  0.51100000000E-03 0. -1.
         11   -1    0    0    0    0 -0.00000000000E+00 -0.00000000000E+00 -0.45593999997E+02  0.45594000000E+02  0.51100000000E-03 0.  1.
    9900012    2    1    2    0    0  0.71380968722E+01 -0.24401262670E+02  0.19244397620E+02  0.59301938992E+02  0.49999990816E+02 0.  0.
        -12    1    1    2    0    0 -0.71380968722E+01  0.24401262670E+02 -0.19244397620E+02  0.31886061008E+02  0.00000000000E+00 0.  1.
         11    1    3    3    0    0 -0.10221483701E+02 -0.18579734150E+02  0.50551255327E+01  0.21799989554E+02  0.51100000000E-03 0. -1.
        -11    1    3    3    0    0  0.16639595715E+02 -0.12227631087E+02  0.20055690697E+02  0.28785792280E+02  0.51100000000E-03 0.  1.
        -12    1    3    3    0    0  0.71998485763E+00  0.64061025669E+01 -0.58664186104E+01  0.87161571581E+01  0.00000000000E+00 0.  1.
</event>
<event>
 7    1  0.1184848E-011  0.5930195E+02  0.7816164E-02  0.1266605E+00
        -11   -1    0    0    0    0  0.00000000000E+00  0.00000000000E+00  0.45593999997E+02  0.45594000000E+02  0.51100000000E-03 0.  1.
         11   -1    0    0    0    0 -0.00000000000E+00 -0.00000000000E+00 -0.45593999997E+02  0.45594000000E+02  0.51100000000E-03 0. -1.
    9900012    2    1    2    0    0 -0.44155893494E+01  0.31505890073E+02 -0.21450825377E+01  0.59301954185E+02  0.50000018525E+02 0.  0.
        -12    1    1    2    0    0  0.44155893494E+01 -0.31505890073E+02  0.21450825377E+01  0.31886045815E+02  0.00000000000E+00 0.  1.
         11    1    3    3    0    0 -0.12318252397E+02  0.41112299209E+02 -0.45196928873E+01  0.43155394940E+02  0.51100000000E-03 0. -1.
        -11    1    3    3    0    0  0.17212967652E+01  0.49522293498E+00 -0.27180931356E+01  0.32551710960E+01  0.51100000000E-03 0.  1.
        -12    1    3    3    0    0  0.61813662821E+01 -0.10101632071E+02  0.50927034852E+01  0.12891388149E+02  0.00000000000E+00 0.  1.
</event>
<event>
 7    1  0.1184848E-011  0.5930192E+02  0.7816164E-02  0.1266605E+00
        -11   -1    0    0    0    0  0.00000000000E+00  0.00000000000E+00  0.45593999997E+02  0.45594000000E+02  0.51100000000E-03 0.  1.
         11   -1    0    0    0    0 -0.00000000000E+00 -0.00000000000E+00 -0.45593999997E+02  0.45594000000E+02  0.51100000000E-03 0. -1.
    9900012    2    1    2    0    0 -0.12603502200E+02  0.13792884642E+02 -0.25838538958E+02  0.59301921064E+02  0.49999958119E+02 0.  0.
        -12    1    1    2    0    0  0.12603502200E+02 -0.13792884642E+02  0.25838538958E+02  0.31886078936E+02  0.00000000000E+00 0.  1.
         11    1    3    3    0    0  0.12287979273E+02  0.73578333299E+01 -0.15065871350E+02  0.20787318868E+02  0.51100000000E-03 0. -1.
        -11    1    3    3    0    0  0.47105327137E+01  0.29029764445E+01 -0.62735364741E+01  0.83650254534E+01  0.51100000000E-03 0.  1.
        -12    1    3    3    0    0 -0.29602014187E+02  0.35320748676E+01 -0.44991311341E+01  0.30149576743E+02  0.00000000000E+00 0.  1.
</event>
<event>
 7    1  0.1184848E-011  0.5930193E+02  0.7816164E-02  0.1266605E+00
        -11   -1    0    0    0    0  0.00000000000E+00  0.00000000000E+00  0.45593999997E+02  0.45594000000E+02  0.51100000000E-03 0.  1.
         11   -1    0    0    0    0 -0.00000000000E+00 -0.00000000000E+00 -0.45593999997E+02  0.45594000000E+02  0.51100000000E-03 0. -1.
    9900012    2    1    2    0    0 -0.31675017299E+01 -0.31534066515E+02 -0.35058889555E+01  0.59301926621E+02  0.49999968254E+02 0.  0.
        -12    1    1    2    0    0  0.31675017299E+01  0.31534066515E+02  0.35058889555E+01  0.31886073379E+02  0.00000000000E+00 0.  1.
         11    1    3    3    0    0  0.74271664439E+00  0.13188880798E+01 -0.19203765413E+02  0.19263325260E+02  0.51100000000E-03 0. -1.
        -11    1    3    3    0    0 -0.11660706526E+01  0.15005677557E+01  0.24878179036E+01  0.31306009869E+01  0.51100000000E-03 0.  1.
         12    1    3    3    0    0 -0.27441477216E+01 -0.34353522350E+02  0.13210058554E+02  0.36908000374E+02  0.00000000000E+00 0. -1.
</event>
<event>
 7    1  0.1184848E-011  0.5930196E+02  0.7816164E-02  0.1266605E+00
        -11   -1    0    0    0    0  0.00000000000E+00  0.00000000000E+00  0.45593999997E+02  0.45594000000E+02  0.51100000000E-03 0.  1.
         11   -1    0    0    0    0 -0.00000000000E+00 -0.00000000000E+00 -0.45593999997E+02  0.45594000000E+02  0.51100000000E-03 0. -1.
    9900012    2    1    2    0    0  0.52844038706E+01 -0.18947713875E+02 -0.25095397318E+02  0.59301956785E+02  0.50000023266E+02 0.  0.
        -12    1    1    2    0    0 -0.52844038706E+01  0.18947713875E+02  0.25095397318E+02  0.31886043215E+02  0.00000000000E+00 0.  1.
         11    1    3    3    0    0 -0.99062282930E+00 -0.14295228169E+02  0.89229725483E+00  0.14357265640E+02  0.51100000000E-03 0. -1.
        -11    1    3    3    0    0  0.21212608879E+02 -0.13055658727E+01 -0.16802466834E+02  0.27092474410E+02  0.51100000000E-03 0.  1.
         12    1    3    3    0    0 -0.14937582179E+02 -0.33469198330E+01 -0.91852277395E+01  0.17852216735E+02  0.00000000000E+00 0. -1.
</event>
<event>
 7    1  0.1184848E-011  0.5930192E+02  0.7816164E-02  0.1266605E+00
        -11   -1    0    0    0    0  0.00000000000E+00  0.00000000000E+00  0.45593999997E+02  0.45594000000E+02  0.51100000000E-03 0.  1.
         11   -1    0    0    0    0 -0.00000000000E+00 -0.00000000000E+00 -0.45593999997E+02  0.45594000000E+02  0.51100000000E-03 0. -1.
    9900012    2    1    2    0    0 -0.20542861328E+02 -0.23414314811E+02  0.68178110752E+01  0.59301924082E+02  0.49999963624E+02 0.  0.
        -12    1    1    2    0    0  0.20542861328E+02  0.23414314811E+02 -0.68178110752E+01  0.31886075918E+02  0.00000000000E+00 0.  1.
         11    1    3    3    0    0  0.11432256802E+01  0.78064219206E+01 -0.61616364592E+01  0.10010641951E+02  0.51100000000E-03 0. -1.
        -11    1    3    3    0    0 -0.98934065080E+01  0.23489645258E+01  0.88339632257E+01  0.13469819346E+02  0.51100000000E-03 0.  1.
         12    1    3    3    0    0 -0.11792680500E+02 -0.33569701258E+02  0.41454843087E+01  0.35821462785E+02  0.00000000000E+00 0. -1.
</event>
<event>
 7    1  0.1184848E-011  0.5930194E+02  0.7816164E-02  0.1266605E+00
        -11   -1    0    0    0    0  0.00000000000E+00  0.00000000000E+00  0.45593999997E+02  0.45594000000E+02  0.51100000000E-03 0.  1.
         11   -1    0    0    0    0 -0.00000000000E+00 -0.00000000000E+00 -0.45593999997E+02  0.45594000000E+02  0.51100000000E-03 0. -1.
    9900012    2    1    2    0    0 -0.78004454678E+01 -0.28755797152E+02 -0.11356844562E+02  0.59301941326E+02  0.49999995073E+02 0.  0.
        -12    1    1    2    0    0  0.78004454678E+01  0.28755797152E+02  0.11356844562E+02  0.31886058674E+02  0.00000000000E+00 0.  1.
         11    1    3    3    0    0  0.10065089728E+02 -0.16820016320E+02  0.82855791524E+01  0.21280737825E+02  0.51100000000E-03 0.  1.
        -11    1    3    3    0    0 -0.97919029442E+00 -0.15286687381E+02 -0.85716765049E+01  0.17553212329E+02  0.51100000000E-03 0. -1.
        -12    1    3    3    0    0 -0.16886344901E+02  0.33509065489E+01 -0.11070747210E+02  0.20467991172E+02  0.00000000000E+00 0.  1.
</event>
<event>
 7    1  0.1184848E-011  0.5930195E+02  0.7816164E-02  0.1266605E+00
        -11   -1    0    0    0    0  0.00000000000E+00  0.00000000000E+00  0.45593999997E+02  0.45594000000E+02  0.51100000000E-03 0. -1.
         11   -1    0    0    0    0 -0.00000000000E+00 -0.00000000000E+00 -0.45593999997E+02  0.45594000000E+02  0.51100000000E-03 0.  1.
    9900012    2    1    2    0    0 -0.17609156283E+02 -0.10454329991E+02  0.24440640996E+02  0.59301947676E+02  0.50000006653E+02 0.  0.
        -12    1    1    2    0    0  0.17609156283E+02  0.10454329991E+02 -0.24440640996E+02  0.31886052324E+02  0.00000000000E+00 0.  1.
         11    1    3    3    0    0  0.25925027590E+01 -0.24372963623E+01  0.24428330739E+02  0.24686126206E+02  0.51100000000E-03 0. -1.
        -11    1    3    3    0    0 -0.12487731852E+02 -0.98063506684E+01  0.12239913157E+02  0.20048028197E+02  0.51100000000E-03 0.  1.
        -12    1    3    3    0    0 -0.77139271895E+01  0.17893170401E+01 -0.12227602900E+02  0.14567793273E+02  0.00000000000E+00 0.  1.
</event>
<event>
 7    1  0.1184848E-011  0.5930191E+02  0.7816164E-02  0.1266605E+00
        -11   -1    0    0    0    0  0.00000000000E+00  0.00000000000E+00  0.45593999997E+02  0.45594000000E+02  0.51100000000E-03 0. -1.
         11   -1    0    0    0    0 -0.00000000000E+00 -0.00000000000E+00 -0.45593999997E+02  0.45594000000E+02  0.51100000000E-03 0.  1.
    9900012    2    1    2    0    0 -0.15469577911E+02  0.15501357891E+02  0.23175907201E+02  0.59301911939E+02  0.49999941479E+02 0.  0.
        -12    1    1    2    0    0  0.15469577911E+02 -0.15501357891E+02 -0.23175907201E+02  0.31886088061E+02  0.00000000000E+00 0.  1.
         11    1    3    3    0    0 -0.17981344041E+02 -0.78194372794E+01  0.71856386902E+00  0.19621128082E+02  0.51100000000E-03 0. -1.
        -11    1    3    3    0    0 -0.17875642991E+01  0.61834609311E+00  0.15407635848E+02  0.15523304439E+02  0.51100000000E-03 0.  1.
        -12    1    3    3    0    0  0.42993304292E+01  0.22702449078E+02  0.70497074832E+01  0.24157479419E+02  0.00000000000E+00 0.  1.
</event>
<event>
 7    1  0.1184848E-011  0.5930195E+02  0.7816164E-02  0.1266605E+00
        -11   -1    0    0    0    0  0.00000000000E+00  0.00000000000E+00  0.45593999997E+02  0.45594000000E+02  0.51100000000E-03 0.  1.
         11   -1    0    0    0    0 -0.00000000000E+00 -0.00000000000E+00 -0.45593999997E+02  0.45594000000E+02  0.51100000000E-03 0. -1.
    9900012    2    1    2    0    0  0.19356144961E+02 -0.94310982431E+01 -0.23518379504E+02  0.59301950757E+02  0.50000012273E+02 0.  0.
        -12    1    1    2    0    0 -0.19356144961E+02  0.94310982431E+01  0.23518379504E+02  0.31886049243E+02  0.00000000000E+00 0.  1.
         11    1    3    3    0    0  0.26183754753E+01 -0.11453531768E+02 -0.31004949713E+01  0.12151228309E+02  0.51100000000E-03 0. -1.
        -11    1    3    3    0    0 -0.10245388741E+02 -0.54112641622E+01  0.13893953951E+01  0.11669626820E+02  0.51100000000E-03 0.  1.
        -12    1    3    3    0    0  0.26983158227E+02  0.74336976867E+01 -0.21807279927E+02  0.35481095629E+02  0.00000000000E+00 0.  1.
</event>
<event>
 7    1  0.1184848E-011  0.5930194E+02  0.7816164E-02  0.1266605E+00
        -11   -1    0    0    0    0  0.00000000000E+00  0.00000000000E+00  0.45593999997E+02  0.45594000000E+02  0.51100000000E-03 0.  1.
         11   -1    0    0    0    0 -0.00000000000E+00 -0.00000000000E+00 -0.45593999997E+02  0.45594000000E+02  0.51100000000E-03 0. -1.
    9900012    2    1    2    0    0  0.29702265602E+02 -0.87910402865E+01 -0.75639695706E+01  0.59301943378E+02  0.49999998816E+02 0.  0.
        -12    1    1    2    0    0 -0.29702265602E+02  0.87910402865E+01  0.75639695706E+01  0.31886056622E+02  0.00000000000E+00 0.  1.
         11    1    3    3    0    0  0.49648908521E+01 -0.89840631698E+01 -0.17508377953E+02  0.20295487947E+02  0.51100000000E-03 0. -1.
        -11    1    3    3    0    0 -0.23563310907E+01  0.88646552872E+01  0.12334836936E+01  0.92550468315E+01  0.51100000000E-03 0.  1.
        -12    1    3    3    0    0  0.27093705841E+02 -0.86716324039E+01  0.87109246889E+01  0.29751408600E+02  0.00000000000E+00 0.  1.
</event>
<event>
 7    1  0.1184848E-011  0.5930194E+02  0.7816164E-02  0.1266605E+00
        -11   -1    0    0    0    0  0.00000000000E+00  0.00000000000E+00  0.45593999997E+02  0.45594000000E+02  0.51100000000E-03 0. -1.
         11   -1    0    0    0    0 -0.00000000000E+00 -0.00000000000E+00 -0.45593999997E+02  0.45594000000E+02  0.51100000000E-03 0.  1.
    9900012    2    1    2    0    0 -0.15893359168E+01  0.23654301195E+02  0.21322969368E+02  0.59301937585E+02  0.49999988249E+02 0.  0.
        -12    1    1    2    0    0  0.15893359168E+01 -0.23654301195E+02 -0.21322969368E+02  0.31886062415E+02  0.00000000000E+00 0.  1.
         11    1    3    3    0    0  0.42155779727E+01 -0.85911315631E+01  0.92038905507E+01  0.13277433514E+02  0.51100000000E-03 0. -1.
        -11    1    3    3    0    0 -0.44823986138E+01 -0.49154983177E+01 -0.70771171015E+00  0.66899086070E+01  0.51100000000E-03 0.  1.
        -12    1    3    3    0    0 -0.13225152756E+01  0.37160931076E+02  0.12826790527E+02  0.39334595464E+02  0.00000000000E+00 0.  1.
</event>
<event>
 7    1  0.1184848E-011  0.5930186E+02  0.7816164E-02  0.1266605E+00
        -11   -1    0    0    0    0  0.00000000000E+00  0.00000000000E+00  0.45593999997E+02  0.45594000000E+02  0.51100000000E-03 0.  1.
         11   -1    0    0    0    0 -0.00000000000E+00 -0.00000000000E+00 -0.45593999997E+02  0.45594000000E+02  0.51100000000E-03 0. -1.
    9900012    2    1    2    0    0  0.50304135270E+01  0.30760436253E+02 -0.67243335589E+01  0.59301856292E+02  0.49999839991E+02 0.  0.
        -12    1    1    2    0    0 -0.50304135270E+01 -0.30760436253E+02  0.67243335589E+01  0.31886143708E+02  0.00000000000E+00 0.  1.
         11    1    3    3    0    0  0.23779519604E+01  0.33578230888E+02 -0.52369452475E+01  0.34067254672E+02  0.51100000000E-03 0. -1.
        -11    1    3    3    0    0 -0.70640695098E+01  0.56000484436E+01  0.55426800732E+01  0.10582198414E+02  0.51100000000E-03 0.  1.
        -12    1    3    3    0    0  0.97165310764E+01 -0.84178430781E+01 -0.70300683846E+01  0.14652403207E+02  0.00000000000E+00 0.  1.
</event>
<event>
 7    1  0.1184848E-011  0.5930207E+02  0.7816164E-02  0.1266604E+00
        -11   -1    0    0    0    0  0.00000000000E+00  0.00000000000E+00  0.45593999997E+02  0.45594000000E+02  0.51100000000E-03 0.  1.
         11   -1    0    0    0    0 -0.00000000000E+00 -0.00000000000E+00 -0.45593999997E+02  0.45594000000E+02  0.51100000000E-03 0. -1.
    9900012    2    1    2    0    0 -0.29277242458E+02  0.89393043794E+01 -0.89243860975E+01  0.59302066488E+02  0.50000223338E+02 0.  0.
        -12    1    1    2    0    0  0.29277242458E+02 -0.89393043794E+01  0.89243860975E+01  0.31885933512E+02  0.00000000000E+00 0.  1.
         11    1    3    3    0    0  0.55188758876E+01 -0.10944812282E+01 -0.50584968062E+01  0.75659943445E+01  0.51100000000E-03 0. -1.
        -11    1    3    3    0    0  0.44951834891E+01  0.10477120573E+02  0.31340025408E+01  0.11823650125E+02  0.51100000000E-03 0.  1.
        -12    1    3    3    0    0 -0.39291301834E+02 -0.44333496501E+00 -0.69998918321E+01  0.39912422019E+02  0.00000000000E+00 0.  1.
</event>
<event>
 7    1  0.1184848E-011  0.5930205E+02  0.7816164E-02  0.1266604E+00
        -11   -1    0    0    0    0  0.00000000000E+00  0.00000000000E+00  0.45593999997E+02  0.45594000000E+02  0.51100000000E-03 0. -1.
         11   -1    0    0    0    0 -0.00000000000E+00 -0.00000000000E+00 -0.45593999997E+02  0.45594000000E+02  0.51100000000E-03 0.  1.
    9900012    2    1    2    0    0 -0.28348768304E+02 -0.43657304708E+01 -0.13928447834E+02  0.59302048141E+02  0.50000189877E+02 0.  0.
        -12    1    1    2    0    0  0.28348768304E+02  0.43657304708E+01  0.13928447834E+02  0.31885951859E+02  0.00000000000E+00 0.  1.
         11    1    3    3    0    0 -0.24691438976E+02  0.95323071753E+00  0.28189466836E+01  0.24870107925E+02  0.51100000000E-03 0. -1.
        -11    1    3    3    0    0 -0.12009955026E+02  0.78920867881E+01 -0.93057809727E+01  0.17120794764E+02  0.51100000000E-03 0.  1.
         12    1    3    3    0    0  0.83526256981E+01 -0.13211047976E+02 -0.74416135452E+01  0.17311145452E+02  0.00000000000E+00 0. -1.
</event>
<event>
 7    1  0.1184848E-011  0.5930190E+02  0.7816164E-02  0.1266605E+00
        -11   -1    0    0    0    0  0.00000000000E+00  0.00000000000E+00  0.45593999997E+02  0.45594000000E+02  0.51100000000E-03 0. -1.
         11   -1    0    0    0    0 -0.00000000000E+00 -0.00000000000E+00 -0.45593999997E+02  0.45594000000E+02  0.51100000000E-03 0.  1.
    9900012    2    1    2    0    0 -0.29910325428E+02  0.78723389911E+01  0.77538552671E+01  0.59301897073E+02  0.49999914365E+02 0.  0.
        -12    1    1    2    0    0  0.29910325428E+02 -0.78723389911E+01 -0.77538552671E+01  0.31886102927E+02  0.00000000000E+00 0.  1.
         11    1    3    3    0    0 -0.84921347452E+01 -0.37345319085E+01  0.41015718195E+01  0.10143272290E+02  0.51100000000E-03 0. -1.
        -11    1    3    3    0    0  0.72585173907E+01  0.11575762926E+02  0.13136792941E+02  0.18954147068E+02  0.51100000000E-03 0.  1.
         12    1    3    3    0    0 -0.28676708074E+02  0.31107973527E-01 -0.94845094939E+01  0.30204477714E+02  0.00000000000E+00 0. -1.
</event>
<event>
 7    1  0.1184848E-011  0.5930193E+02  0.7816164E-02  0.1266605E+00
        -11   -1    0    0    0    0  0.00000000000E+00  0.00000000000E+00  0.45593999997E+02  0.45594000000E+02  0.51100000000E-03 0. -1.
         11   -1    0    0    0    0 -0.00000000000E+00 -0.00000000000E+00 -0.45593999997E+02  0.45594000000E+02  0.51100000000E-03 0.  1.
    9900012    2    1    2    0    0 -0.23918320815E+02  0.46380909331E+01  0.20569965071E+02  0.59301930610E+02  0.49999975529E+02 0.  0.
        -12    1    1    2    0    0  0.23918320815E+02 -0.46380909331E+01 -0.20569965071E+02  0.31886069390E+02  0.00000000000E+00 0.  1.
         11    1    3    3    0    0  0.53767210390E+01 -0.61350162908E+01 -0.38385236760E+01  0.90156429772E+01  0.51100000000E-03 0. -1.
        -11    1    3    3    0    0 -0.72780669196E+01  0.49285954897E+01 -0.71740095278E+01  0.11345824102E+02  0.51100000000E-03 0.  1.
         12    1    3    3    0    0 -0.22016974935E+02  0.58445117342E+01  0.31582498275E+02  0.38940463531E+02  0.00000000000E+00 0. -1.
</event>
<event>
 7    1  0.1184848E-011  0.5930194E+02  0.7816164E-02  0.1266605E+00
        -11   -1    0    0    0    0  0.00000000000E+00  0.00000000000E+00  0.45593999997E+02  0.45594000000E+02  0.51100000000E-03 0. -1.
         11   -1    0    0    0    0 -0.00000000000E+00 -0.00000000000E+00 -0.45593999997E+02  0.45594000000E+02  0.51100000000E-03 0.  1.
    9900012    2    1    2    0    0  0.43141017970E+01  0.29794120810E+02 -0.10508069812E+02  0.59301942853E+02  0.49999997858E+02 0.  0.
        -12    1    1    2    0    0 -0.43141017970E+01 -0.29794120810E+02  0.10508069812E+02  0.31886057147E+02  0.00000000000E+00 0.  1.
         11    1    3    3    0    0  0.11240574334E+01  0.29347144442E+02  0.71161692266E+01  0.30218508513E+02  0.51100000000E-03 0. -1.
        -11    1    3    3    0    0 -0.22478858129E+01  0.77964261674E+01 -0.18195916709E+02  0.19923067955E+02  0.51100000000E-03 0.  1.
        -12    1    3    3    0    0  0.54379301764E+01 -0.73494497992E+01  0.57167767013E+00  0.91603663853E+01  0.00000000000E+00 0.  1.
</event>
<event>
 7    1  0.1184848E-011  0.5930195E+02  0.7816164E-02  0.1266605E+00
        -11   -1    0    0    0    0  0.00000000000E+00  0.00000000000E+00  0.45593999997E+02  0.45594000000E+02  0.51100000000E-03 0.  1.
         11   -1    0    0    0    0 -0.00000000000E+00 -0.00000000000E+00 -0.45593999997E+02  0.45594000000E+02  0.51100000000E-03 0. -1.
    9900012    2    1    2    0    0 -0.73141583785E+00 -0.25163335378E+02  0.19570167686E+02  0.59301954780E+02  0.50000019610E+02 0.  0.
        -12    1    1    2    0    0  0.73141583785E+00  0.25163335378E+02 -0.19570167686E+02  0.31886045220E+02  0.00000000000E+00 0.  1.
         11    1    3    3    0    0 -0.20130056599E+01 -0.21119424493E+02  0.29626522965E+01  0.21421008183E+02  0.51100000000E-03 0. -1.
        -11    1    3    3    0    0 -0.13684349078E+02 -0.10847108830E+02  0.68082972604E+01  0.18742307529E+02  0.51100000000E-03 0.  1.
        -12    1    3    3    0    0  0.14965938900E+02  0.68031979449E+01  0.97992181289E+01  0.19138639068E+02  0.00000000000E+00 0.  1.
</event>
<event>
 7    1  0.1184848E-011  0.5930194E+02  0.7816164E-02  0.1266605E+00
        -11   -1    0    0    0    0  0.00000000000E+00  0.00000000000E+00  0.45593999997E+02  0.45594000000E+02  0.51100000000E-03 0.  1.
         11   -1    0    0    0    0 -0.00000000000E+00 -0.00000000000E+00 -0.45593999997E+02  0.45594000000E+02  0.51100000000E-03 0. -1.
    9900012    2    1    2    0    0  0.15687796145E+02 -0.74150194000E+01 -0.26751284529E+02  0.59301942161E+02  0.49999996595E+02 0.  0.
        -12    1    1    2    0    0 -0.15687796145E+02  0.74150194000E+01  0.26751284529E+02  0.31886057839E+02  0.00000000000E+00 0.  1.
         11    1    3    3    0    0  0.15481045147E+02 -0.47324294070E+01 -0.10550385296E+02  0.19322765772E+02  0.51100000000E-03 0. -1.
        -11    1    3    3    0    0 -0.19947689550E+01 -0.48103828674E+01  0.11229607618E+02  0.12378326787E+02  0.51100000000E-03 0.  1.
         12    1    3    3    0    0  0.22015199534E+01  0.21277928744E+01 -0.27430506851E+02  0.27600849602E+02  0.00000000000E+00 0. -1.
</event>
<event>
 7    1  0.1184848E-011  0.5930191E+02  0.7816164E-02  0.1266605E+00
        -11   -1    0    0    0    0  0.00000000000E+00  0.00000000000E+00  0.45593999997E+02  0.45594000000E+02  0.51100000000E-03 0.  1.
         11   -1    0    0    0    0 -0.00000000000E+00 -0.00000000000E+00 -0.45593999997E+02  0.45594000000E+02  0.51100000000E-03 0. -1.
    9900012    2    1    2    0    0 -0.16359418365E+02 -0.84393876409E+01 -0.26035914091E+02  0.59301911253E+02  0.49999940227E+02 0.  0.
        -12    1    1    2    0    0  0.16359418365E+02  0.84393876409E+01  0.26035914091E+02  0.31886088747E+02  0.00000000000E+00 0.  1.
         11    1    3    3    0    0 -0.28249543574E+01  0.21112980193E+01 -0.40161480770E+00  0.35495409792E+01  0.51100000000E-03 0. -1.
        -11    1    3    3    0    0 -0.20379137449E+02 -0.10549590146E+02 -0.36379420939E+02  0.43012386164E+02  0.51100000000E-03 0.  1.
        -12    1    3    3    0    0  0.68446734419E+01 -0.10955140376E-02  0.10745121656E+02  0.12739984110E+02  0.00000000000E+00 0.  1.
</event>
<event>
 7    1  0.1184848E-011  0.5930196E+02  0.7816164E-02  0.1266605E+00
        -11   -1    0    0    0    0  0.00000000000E+00  0.00000000000E+00  0.45593999997E+02  0.45594000000E+02  0.51100000000E-03 0.  1.
         11   -1    0    0    0    0 -0.00000000000E+00 -0.00000000000E+00 -0.45593999997E+02  0.45594000000E+02  0.51100000000E-03 0. -1.
    9900012    2    1    2    0    0 -0.90361627842E+01  0.20231135335E+02 -0.22929644188E+02  0.59301958267E+02  0.50000025969E+02 0.  0.
        -12    1    1    2    0    0  0.90361627842E+01 -0.20231135335E+02  0.22929644188E+02  0.31886041733E+02  0.00000000000E+00 0.  1.
         11    1    3    3    0    0  0.62964017018E+01  0.44961333449E+01  0.59427965127E+01  0.97558556826E+01  0.51100000000E-03 0. -1.
        -11    1    3    3    0    0  0.10538991069E+01  0.89176627367E+00  0.71486772371E+01  0.72807648579E+01  0.51100000000E-03 0.  1.
         12    1    3    3    0    0 -0.16386463593E+02  0.14843235716E+02 -0.36021117938E+02  0.42265337726E+02  0.00000000000E+00 0. -1.
</event>
<event>
 7    1  0.1184848E-011  0.5930197E+02  0.7816164E-02  0.1266605E+00
        -11   -1    0    0    0    0  0.00000000000E+00  0.00000000000E+00  0.45593999997E+02  0.45594000000E+02  0.51100000000E-03 0.  1.
         11   -1    0    0    0    0 -0.00000000000E+00 -0.00000000000E+00 -0.45593999997E+02  0.45594000000E+02  0.51100000000E-03 0. -1.
    9900012    2    1    2    0    0  0.99106944269E+01  0.29656646729E+02 -0.62434205606E+01  0.59301970779E+02  0.50000048787E+02 0.  0.
        -12    1    1    2    0    0 -0.99106944269E+01 -0.29656646729E+02  0.62434205606E+01  0.31886029221E+02  0.00000000000E+00 0.  1.
         11    1    3    3    0    0  0.23673830826E+01 -0.28619363459E+01 -0.10248336148E+02  0.10900622752E+02  0.51100000000E-03 0. -1.
        -11    1    3    3    0    0 -0.82555585226E+01  0.25533895293E+02 -0.72337072508E+01  0.27793174994E+02  0.51100000000E-03 0.  1.
         12    1    3    3    0    0  0.15798869867E+02  0.69846877810E+01  0.11238622838E+02  0.20608173033E+02  0.00000000000E+00 0. -1.
</event>
<event>
 7    1  0.1184848E-011  0.5930198E+02  0.7816164E-02  0.1266605E+00
        -11   -1    0    0    0    0  0.00000000000E+00  0.00000000000E+00  0.45593999997E+02  0.45594000000E+02  0.51100000000E-03 0.  1.
         11   -1    0    0    0    0 -0.00000000000E+00 -0.00000000000E+00 -0.45593999997E+02  0.45594000000E+02  0.51100000000E-03 0. -1.
    9900012    2    1    2    0    0 -0.29015650477E+02 -0.24059236709E+01 -0.13000827556E+02  0.59301984908E+02  0.50000074556E+02 0.  0.
        -12    1    1    2    0    0  0.29015650477E+02  0.24059236709E+01  0.13000827556E+02  0.31886015092E+02  0.00000000000E+00 0.  1.
         11    1    3    3    0    0 -0.28008943075E+02  0.86877345168E+00  0.72290295813E+01  0.28939843269E+02  0.51100000000E-03 0. -1.
        -11    1    3    3    0    0 -0.12048328808E+01  0.30247176197E+01  0.40964083344E+01  0.52326953335E+01  0.51100000000E-03 0.  1.
         12    1    3    3    0    0  0.19812547927E+00 -0.62994147422E+01 -0.24326265472E+02  0.25129446305E+02  0.00000000000E+00 0. -1.
</event>
<event>
 7    1  0.1184848E-011  0.5930195E+02  0.7816164E-02  0.1266605E+00
        -11   -1    0    0    0    0  0.00000000000E+00  0.00000000000E+00  0.45593999997E+02  0.45594000000E+02  0.51100000000E-03 0. -1.
         11   -1    0    0    0    0 -0.00000000000E+00 -0.00000000000E+00 -0.45593999997E+02  0.45594000000E+02  0.51100000000E-03 0.  1.
    9900012    2    1    2    0    0  0.77338101519E+01  0.19504993486E+01  0.30872378569E+02  0.59301952492E+02  0.50000015436E+02 0.  0.
        -12    1    1    2    0    0 -0.77338101519E+01 -0.19504993486E+01 -0.30872378569E+02  0.31886047508E+02  0.00000000000E+00 0.  1.
         11    1    3    3    0    0 -0.19725425885E+01 -0.15345819366E+02  0.12971515571E+02  0.20190228150E+02  0.51100000000E-03 0. -1.
        -11    1    3    3    0    0 -0.70439698477E+01 -0.28585028777E+01  0.81625174473E+01  0.11154158025E+02  0.51100000000E-03 0.  1.
         12    1    3    3    0    0  0.16750322588E+02  0.20154821593E+02  0.97383455514E+01  0.27957566316E+02  0.00000000000E+00 0. -1.
</event>
<event>
 7    1  0.1184848E-011  0.5930183E+02  0.7816164E-02  0.1266605E+00
        -11   -1    0    0    0    0  0.00000000000E+00  0.00000000000E+00  0.45593999997E+02  0.45594000000E+02  0.51100000000E-03 0.  1.
         11   -1    0    0    0    0 -0.00000000000E+00 -0.00000000000E+00 -0.45593999997E+02  0.45594000000E+02  0.51100000000E-03 0. -1.
    9900012    2    1    2    0    0 -0.21853328455E+01  0.29500962483E+02 -0.11901495070E+02  0.59301826633E+02  0.49999785900E+02 0.  0.
        -12    1    1    2    0    0  0.21853328455E+01 -0.29500962483E+02  0.11901495070E+02  0.31886173367E+02  0.00000000000E+00 0.  1.
         11    1    3    3    0    0 -0.17647204958E+01  0.37586138325E+01  0.68569736791E+01  0.80162026339E+01  0.51100000000E-03 0. -1.
        -11    1    3    3    0    0  0.15517952739E+02  0.71948868901E+01  0.43397824806E+01  0.17646726801E+02  0.51100000000E-03 0.  1.
         12    1    3    3    0    0 -0.15938565088E+02  0.18547461760E+02 -0.23098251230E+02  0.33638897198E+02  0.00000000000E+00 0. -1.
</event>
<event>
 7    1  0.1184848E-011  0.5930195E+02  0.7816164E-02  0.1266605E+00
        -11   -1    0    0    0    0  0.00000000000E+00  0.00000000000E+00  0.45593999997E+02  0.45594000000E+02  0.51100000000E-03 0. -1.
         11   -1    0    0    0    0 -0.00000000000E+00 -0.00000000000E+00 -0.45593999997E+02  0.45594000000E+02  0.51100000000E-03 0.  1.
    9900012    2    1    2    0    0  0.21651704660E+02 -0.47002629995E+01  0.22931010787E+02  0.59301952226E+02  0.50000014952E+02 0.  0.
        -12    1    1    2    0    0 -0.21651704660E+02  0.47002629995E+01 -0.22931010787E+02  0.31886047774E+02  0.00000000000E+00 0.  1.
         11    1    3    3    0    0  0.22037649559E+02 -0.13818988913E+02  0.20227965295E+02  0.32951373764E+02  0.51100000000E-03 0. -1.
        -11    1    3    3    0    0  0.42125532114E+01  0.14237943523E+02  0.87117545244E+01  0.17215089529E+02  0.51100000000E-03 0.  1.
        -12    1    3    3    0    0 -0.45984981108E+01 -0.51192176098E+01 -0.60087090330E+01  0.91354889336E+01  0.00000000000E+00 0.  1.
</event>
<event>
 7    1  0.1184848E-011  0.5930184E+02  0.7816164E-02  0.1266605E+00
        -11   -1    0    0    0    0  0.00000000000E+00  0.00000000000E+00  0.45593999997E+02  0.45594000000E+02  0.51100000000E-03 0. -1.
         11   -1    0    0    0    0 -0.00000000000E+00 -0.00000000000E+00 -0.45593999997E+02  0.45594000000E+02  0.51100000000E-03 0.  1.
    9900012    2    1    2    0    0 -0.31593167992E+02 -0.13414685715E+01 -0.40986957305E+01  0.59301841429E+02  0.49999812884E+02 0.  0.
        -12    1    1    2    0    0  0.31593167992E+02  0.13414685715E+01  0.40986957305E+01  0.31886158571E+02  0.00000000000E+00 0.  1.
         11    1    3    3    0    0 -0.15644820323E+02  0.39537382612E+00  0.89339198435E+01  0.18020312080E+02  0.51100000000E-03 0. -1.
        -11    1    3    3    0    0  0.66200156267E+01 -0.75286277835E+01  0.55681130405E+01  0.11467725419E+02  0.51100000000E-03 0.  1.
        -12    1    3    3    0    0 -0.22568363296E+02  0.57917853860E+01 -0.18600728615E+02  0.29813803930E+02  0.00000000000E+00 0.  1.
</event>
<event>
 7    1  0.1184848E-011  0.5930196E+02  0.7816164E-02  0.1266605E+00
        -11   -1    0    0    0    0  0.00000000000E+00  0.00000000000E+00  0.45593999997E+02  0.45594000000E+02  0.51100000000E-03 0. -1.
         11   -1    0    0    0    0 -0.00000000000E+00 -0.00000000000E+00 -0.45593999997E+02  0.45594000000E+02  0.51100000000E-03 0.  1.
    9900012    2    1    2    0    0  0.18740029403E+02 -0.15015602978E+02  0.20977671063E+02  0.59301957316E+02  0.50000024234E+02 0.  0.
        -12    1    1    2    0    0 -0.18740029403E+02  0.15015602978E+02 -0.20977671063E+02  0.31886042684E+02  0.00000000000E+00 0.  1.
         11    1    3    3    0    0  0.81267925292E+01 -0.35325067141E+01  0.64623290928E+00  0.88848735349E+01  0.51100000000E-03 0. -1.
        -11    1    3    3    0    0 -0.56407471290E+01 -0.27503579477E+01  0.29255456645E+02  0.29920966575E+02  0.51100000000E-03 0.  1.
         12    1    3    3    0    0  0.16253984003E+02 -0.87327383165E+01 -0.89240184915E+01  0.20496117206E+02  0.00000000000E+00 0. -1.
</event>
<event>
 7    1  0.1184848E-011  0.5930194E+02  0.7816164E-02  0.1266605E+00
        -11   -1    0    0    0    0  0.00000000000E+00  0.00000000000E+00  0.45593999997E+02  0.45594000000E+02  0.51100000000E-03 0. -1.
         11   -1    0    0    0    0 -0.00000000000E+00 -0.00000000000E+00 -0.45593999997E+02  0.45594000000E+02  0.51100000000E-03 0.  1.
    9900012    2    1    2    0    0 -0.21684817348E+02  0.23135712283E+02 -0.33508499133E+01  0.59301942209E+02  0.49999996684E+02 0.  0.
        -12    1    1    2    0    0  0.21684817348E+02 -0.23135712283E+02  0.33508499133E+01  0.31886057791E+02  0.00000000000E+00 0.  1.
         11    1    3    3    0    0  0.37692244413E+01  0.22081500351E+02  0.12540955674E+02  0.25672461512E+02  0.51100000000E-03 0.  1.
        -11    1    3    3    0    0 -0.11692420001E+01 -0.33977480888E+01  0.98153629803E+00  0.37249473413E+01  0.51100000000E-03 0. -1.
        -12    1    3    3    0    0 -0.24284799789E+02  0.44519600215E+01 -0.16873341885E+02  0.29904533356E+02  0.00000000000E+00 0.  1.
</event>
<event>
 7    1  0.1184848E-011  0.5930195E+02  0.7816164E-02  0.1266605E+00
        -11   -1    0    0    0    0  0.00000000000E+00  0.00000000000E+00  0.45593999997E+02  0.45594000000E+02  0.51100000000E-03 0.  1.
         11   -1    0    0    0    0 -0.00000000000E+00 -0.00000000000E+00 -0.45593999997E+02  0.45594000000E+02  0.51100000000E-03 0. -1.
    9900012    2    1    2    0    0  0.15542246366E+02  0.21715671970E+02 -0.17423785597E+02  0.59301950767E+02  0.50000012290E+02 0.  0.
        -12    1    1    2    0    0 -0.15542246366E+02 -0.21715671970E+02  0.17423785597E+02  0.31886049233E+02  0.00000000000E+00 0.  1.
         11    1    3    3    0    0  0.15475782260E+02  0.94117805869E+01 -0.25198144098E+02  0.31032691095E+02  0.51100000000E-03 0. -1.
        -11    1    3    3    0    0  0.85374869123E+01 -0.31391718003E+01  0.20700844476E+00  0.90986776581E+01  0.51100000000E-03 0.  1.
        -12    1    3    3    0    0 -0.84710228071E+01  0.15443063183E+02  0.75673500558E+01  0.19170582014E+02  0.00000000000E+00 0.  1.
</event>
<event>
 7    1  0.1184848E-011  0.5930180E+02  0.7816164E-02  0.1266605E+00
        -11   -1    0    0    0    0  0.00000000000E+00  0.00000000000E+00  0.45593999997E+02  0.45594000000E+02  0.51100000000E-03 0.  1.
         11   -1    0    0    0    0 -0.00000000000E+00 -0.00000000000E+00 -0.45593999997E+02  0.45594000000E+02  0.51100000000E-03 0. -1.
    9900012    2    1    2    0    0 -0.78048057610E+01 -0.30877271787E+02 -0.15520228030E+01  0.59301801093E+02  0.49999739321E+02 0.  0.
        -12    1    1    2    0    0  0.78048057610E+01  0.30877271787E+02  0.15520228030E+01  0.31886198907E+02  0.00000000000E+00 0.  1.
         11    1    3    3    0    0  0.81931316589E+01 -0.36446327773E+02  0.68818112191E+01  0.37984490788E+02  0.51100000000E-03 0. -1.
        -11    1    3    3    0    0  0.49584975839E+00  0.28025732499E+01 -0.14399223793E+01  0.31896176140E+01  0.51100000000E-03 0.  1.
        -12    1    3    3    0    0 -0.16493787178E+02  0.27664827368E+01 -0.69939116428E+01  0.18127692691E+02  0.00000000000E+00 0.  1.
</event>
<event>
 7    1  0.1184848E-011  0.5930197E+02  0.7816164E-02  0.1266605E+00
        -11   -1    0    0    0    0  0.00000000000E+00  0.00000000000E+00  0.45593999997E+02  0.45594000000E+02  0.51100000000E-03 0.  1.
         11   -1    0    0    0    0 -0.00000000000E+00 -0.00000000000E+00 -0.45593999997E+02  0.45594000000E+02  0.51100000000E-03 0. -1.
    9900012    2    1    2    0    0 -0.65324591291E+01  0.31345698244E+01 -0.31051896768E+02  0.59301971035E+02  0.50000049255E+02 0.  0.
        -12    1    1    2    0    0  0.65324591291E+01 -0.31345698244E+01  0.31051896768E+02  0.31886028965E+02  0.00000000000E+00 0.  1.
         11    1    3    3    0    0 -0.22782891496E+02  0.84584934273E-01 -0.22530828420E+02  0.32042246005E+02  0.51100000000E-03 0. -1.
        -11    1    3    3    0    0 -0.41998788529E+01 -0.22924629530E+00  0.12090612890E+01  0.43764558383E+01  0.51100000000E-03 0.  1.
         12    1    3    3    0    0  0.20450311220E+02  0.32792311855E+01 -0.97301296370E+01  0.22883269192E+02  0.00000000000E+00 0. -1.
</event>
<event>
 7    1  0.1184848E-011  0.5930195E+02  0.7816164E-02  0.1266605E+00
        -11   -1    0    0    0    0  0.00000000000E+00  0.00000000000E+00  0.45593999997E+02  0.45594000000E+02  0.51100000000E-03 0. -1.
         11   -1    0    0    0    0 -0.00000000000E+00 -0.00000000000E+00 -0.45593999997E+02  0.45594000000E+02  0.51100000000E-03 0.  1.
    9900012    2    1    2    0    0  0.11096840022E+02 -0.96743273075E+01  0.28284052183E+02  0.59301951715E+02  0.50000014020E+02 0.  0.
        -12    1    1    2    0    0 -0.11096840022E+02  0.96743273075E+01 -0.28284052183E+02  0.31886048285E+02  0.00000000000E+00 0.  1.
         11    1    3    3    0    0 -0.13692625886E+00 -0.14448297293E+02  0.25517414975E+02  0.29324230778E+02  0.51100000000E-03 0. -1.
        -11    1    3    3    0    0 -0.62940899497E+01 -0.38386930124E+01  0.68073807406E+01  0.10034518680E+02  0.51100000000E-03 0.  1.
        -12    1    3    3    0    0  0.17527856231E+02  0.86126629977E+01 -0.40407435326E+01  0.19943202257E+02  0.00000000000E+00 0.  1.
</event>
<event>
 7    1  0.1184848E-011  0.5930191E+02  0.7816164E-02  0.1266605E+00
        -11   -1    0    0    0    0  0.00000000000E+00  0.00000000000E+00  0.45593999997E+02  0.45594000000E+02  0.51100000000E-03 0.  1.
         11   -1    0    0    0    0 -0.00000000000E+00 -0.00000000000E+00 -0.45593999997E+02  0.45594000000E+02  0.51100000000E-03 0. -1.
    9900012    2    1    2    0    0 -0.47111897257E+01 -0.21636900730E+01 -0.31461820106E+02  0.59301906045E+02  0.49999930728E+02 0.  0.
        -12    1    1    2    0    0  0.47111897257E+01  0.21636900730E+01  0.31461820106E+02  0.31886093955E+02  0.00000000000E+00 0.  1.
         11    1    3    3    0    0  0.61441960042E+01 -0.45925738230E+01  0.82397095245E+00  0.77150377348E+01  0.51100000000E-03 0. -1.
        -11    1    3    3    0    0 -0.33830072560E+01 -0.31923200560E+01  0.85288666233E+01  0.97147934395E+01  0.51100000000E-03 0.  1.
         12    1    3    3    0    0 -0.74723784739E+01  0.56212038060E+01 -0.40814657682E+02  0.41872074870E+02  0.00000000000E+00 0. -1.
</event>
<event>
 7    1  0.1184848E-011  0.5930195E+02  0.7816164E-02  0.1266605E+00
        -11   -1    0    0    0    0  0.00000000000E+00  0.00000000000E+00  0.45593999997E+02  0.45594000000E+02  0.51100000000E-03 0.  1.
         11   -1    0    0    0    0 -0.00000000000E+00 -0.00000000000E+00 -0.45593999997E+02  0.45594000000E+02  0.51100000000E-03 0. -1.
    9900012    2    1    2    0    0  0.21904392579E+02  0.13285800777E+02 -0.18984348133E+02  0.59301946770E+02  0.50000005001E+02 0.  0.
        -12    1    1    2    0    0 -0.21904392579E+02 -0.13285800777E+02  0.18984348133E+02  0.31886053230E+02  0.00000000000E+00 0.  1.
         11    1    3    3    0    0 -0.11558032652E+02 -0.12115613181E+01 -0.33670313051E+01  0.12099293354E+02  0.51100000000E-03 0. -1.
        -11    1    3    3    0    0  0.32418424152E+01 -0.28572781478E+01 -0.11286380663E+02  0.12085361781E+02  0.51100000000E-03 0.  1.
        -12    1    3    3    0    0  0.30220582815E+02  0.17354640243E+02 -0.43309361652E+01  0.35117291634E+02  0.00000000000E+00 0.  1.
</event>
<event>
 7    1  0.1184848E-011  0.5930155E+02  0.7816164E-02  0.1266606E+00
        -11   -1    0    0    0    0  0.00000000000E+00  0.00000000000E+00  0.45593999997E+02  0.45594000000E+02  0.51100000000E-03 0. -1.
         11   -1    0    0    0    0 -0.00000000000E+00 -0.00000000000E+00 -0.45593999997E+02  0.45594000000E+02  0.51100000000E-03 0.  1.
    9900012    2    1    2    0    0  0.42084997881E+01 -0.12816623821E+02  0.28892359491E+02  0.59301549059E+02  0.49999279666E+02 0.  0.
        -12    1    1    2    0    0 -0.42084997881E+01  0.12816623821E+02 -0.28892359491E+02  0.31886450941E+02  0.00000000000E+00 0.  1.
         11    1    3    3    0    0  0.12159013812E+02 -0.26354232498E+02  0.14504732556E+02  0.32446486007E+02  0.51100000000E-03 0. -1.
        -11    1    3    3    0    0  0.20841229747E+01  0.11620218732E+02  0.44899202528E+01  0.12630615032E+02  0.51100000000E-03 0.  1.
        -12    1    3    3    0    0 -0.10034636998E+02  0.19173899449E+01  0.98977066822E+01  0.14224448019E+02  0.00000000000E+00 0.  1.
</event>
<event>
 7    1  0.1184848E-011  0.5930192E+02  0.7816164E-02  0.1266605E+00
        -11   -1    0    0    0    0  0.00000000000E+00  0.00000000000E+00  0.45593999997E+02  0.45594000000E+02  0.51100000000E-03 0.  1.
         11   -1    0    0    0    0 -0.00000000000E+00 -0.00000000000E+00 -0.45593999997E+02  0.45594000000E+02  0.51100000000E-03 0. -1.
    9900012    2    1    2    0    0 -0.20737678828E+02 -0.93094727882E+01 -0.22360777148E+02  0.59301922138E+02  0.49999960078E+02 0.  0.
        -12    1    1    2    0    0  0.20737678828E+02  0.93094727882E+01  0.22360777148E+02  0.31886077862E+02  0.00000000000E+00 0.  1.
         11    1    3    3    0    0 -0.13103477560E+02  0.18031775106E+00 -0.11641479867E+02  0.17528767567E+02  0.51100000000E-03 0. -1.
        -11    1    3    3    0    0 -0.22728232893E+02 -0.10528229980E+02 -0.86646295048E+01  0.26504565676E+02  0.51100000000E-03 0.  1.
         12    1    3    3    0    0  0.15094031625E+02  0.10384394411E+01 -0.20546677762E+01  0.15268588895E+02  0.00000000000E+00 0. -1.
</event>
<event>
 7    1  0.1184848E-011  0.5930193E+02  0.7816164E-02  0.1266605E+00
        -11   -1    0    0    0    0  0.00000000000E+00  0.00000000000E+00  0.45593999997E+02  0.45594000000E+02  0.51100000000E-03 0. -1.
         11   -1    0    0    0    0 -0.00000000000E+00 -0.00000000000E+00 -0.45593999997E+02  0.45594000000E+02  0.51100000000E-03 0.  1.
    9900012    2    1    2    0    0 -0.18957020691E+02 -0.16670495067E+02  0.19479406024E+02  0.59301932536E+02  0.49999979042E+02 0.  0.
        -12    1    1    2    0    0  0.18957020691E+02  0.16670495067E+02 -0.19479406024E+02  0.31886067464E+02  0.00000000000E+00 0.  1.
         11    1    3    3    0    0 -0.64786577137E+01 -0.13673709871E+02  0.69369888674E+01  0.16645274471E+02  0.51100000000E-03 0. -1.
        -11    1    3    3    0    0  0.19392527343E+01 -0.86851448197E+01  0.22526179959E+02  0.24220264770E+02  0.51100000000E-03 0.  1.
        -12    1    3    3    0    0 -0.14417615712E+02  0.56883596235E+01 -0.99837628027E+01  0.18436393295E+02  0.00000000000E+00 0.  1.
</event>
<event>
 7    1  0.1184848E-011  0.5930193E+02  0.7816164E-02  0.1266605E+00
        -11   -1    0    0    0    0  0.00000000000E+00  0.00000000000E+00  0.45593999997E+02  0.45594000000E+02  0.51100000000E-03 0.  1.
         11   -1    0    0    0    0 -0.00000000000E+00 -0.00000000000E+00 -0.45593999997E+02  0.45594000000E+02  0.51100000000E-03 0. -1.
    9900012    2    1    2    0    0 -0.87377609047E+01 -0.30178825767E+02 -0.54416587554E+01  0.59301927173E+02  0.49999969261E+02 0.  0.
        -12    1    1    2    0    0  0.87377609047E+01  0.30178825767E+02  0.54416587554E+01  0.31886072827E+02  0.00000000000E+00 0.  1.
         11    1    3    3    0    0  0.53091626146E+01 -0.26681659689E+02  0.46782362504E+01  0.27604058870E+02  0.51100000000E-03 0. -1.
        -11    1    3    3    0    0 -0.11135540067E+01  0.79466346689E+01  0.43858152950E+01  0.91446367424E+01  0.51100000000E-03 0.  1.
        -12    1    3    3    0    0 -0.12933369513E+02 -0.11443800747E+02 -0.14505710301E+02  0.22553231561E+02  0.00000000000E+00 0.  1.
</event>
<event>
 7    1  0.1395409E-011  0.5930193E+02  0.7816164E-02  0.1266605E+00
        -11   -1    0    0    0    0  0.00000000000E+00  0.00000000000E+00  0.45593999997E+02  0.45594000000E+02  0.51100000000E-03 0. -1.
         11   -1    0    0    0    0 -0.00000000000E+00 -0.00000000000E+00 -0.45593999997E+02  0.45594000000E+02  0.51100000000E-03 0.  1.
    9900012    2    1    2    0    0  0.13318641730E+02 -0.28971256822E+02  0.37291929293E-01  0.59301932038E+02  0.49999978134E+02 0.  0.
        -12    1    1    2    0    0 -0.13318641730E+02  0.28971256822E+02 -0.37291929293E-01  0.31886067962E+02  0.00000000000E+00 0.  1.
         11    1    3    3    0    0  0.15858948844E+02 -0.49142105106E+01  0.37233884531E+01  0.17015268003E+02  0.51100000000E-03 0. -1.
        -11    1    3    3    0    0 -0.98395704183E+01 -0.19390504852E+02  0.11653181526E+02  0.24669930368E+02  0.51100000000E-03 0.  1.
         12    1    3    3    0    0  0.72992633045E+01 -0.46665414595E+01 -0.15339278050E+02  0.17616733667E+02  0.00000000000E+00 0. -1.
</event>
<event>
 7    1  0.1184848E-011  0.5930194E+02  0.7816164E-02  0.1266605E+00
        -11   -1    0    0    0    0  0.00000000000E+00  0.00000000000E+00  0.45593999997E+02  0.45594000000E+02  0.51100000000E-03 0.  1.
         11   -1    0    0    0    0 -0.00000000000E+00 -0.00000000000E+00 -0.45593999997E+02  0.45594000000E+02  0.51100000000E-03 0. -1.
    9900012    2    1    2    0    0 -0.14942547873E+02 -0.75246625911E+01 -0.27144439415E+02  0.59301939170E+02  0.49999991141E+02 0.  0.
        -12    1    1    2    0    0  0.14942547873E+02  0.75246625911E+01  0.27144439415E+02  0.31886060830E+02  0.00000000000E+00 0.  1.
         11    1    3    3    0    0  0.62225889801E+01 -0.12646486650E+02 -0.84198936787E+01  0.16417942868E+02  0.51100000000E-03 0. -1.
        -11    1    3    3    0    0 -0.11806566869E+02 -0.27188769067E+01  0.72951169603E+01  0.14142349331E+02  0.51100000000E-03 0.  1.
         12    1    3    3    0    0 -0.93585699842E+01  0.78407009653E+01 -0.26019662697E+02  0.28741646972E+02  0.00000000000E+00 0. -1.
</event>
<event>
 7    1  0.1184848E-011  0.5930194E+02  0.7816164E-02  0.1266605E+00
        -11   -1    0    0    0    0  0.00000000000E+00  0.00000000000E+00  0.45593999997E+02  0.45594000000E+02  0.51100000000E-03 0.  1.
         11   -1    0    0    0    0 -0.00000000000E+00 -0.00000000000E+00 -0.45593999997E+02  0.45594000000E+02  0.51100000000E-03 0. -1.
    9900012    2    1    2    0    0  0.18915701501E+02  0.15777816354E+02  0.20247896478E+02  0.59301944051E+02  0.50000000043E+02 0.  0.
        -12    1    1    2    0    0 -0.18915701501E+02 -0.15777816354E+02 -0.20247896478E+02  0.31886055949E+02  0.00000000000E+00 0.  1.
         11    1    3    3    0    0 -0.99704228002E+00 -0.11808841372E+02  0.29936030808E+01  0.12223112841E+02  0.51100000000E-03 0. -1.
        -11    1    3    3    0    0  0.13538685987E+02  0.99703112681E+01 -0.54206333628E+01  0.17665967037E+02  0.51100000000E-03 0.  1.
        -12    1    3    3    0    0  0.63740577938E+01  0.17616346458E+02  0.22674926760E+02  0.29412864173E+02  0.00000000000E+00 0.  1.
</event>
<event>
 7    1  0.1184848E-011  0.5930194E+02  0.7816164E-02  0.1266605E+00
        -11   -1    0    0    0    0  0.00000000000E+00  0.00000000000E+00  0.45593999997E+02  0.45594000000E+02  0.51100000000E-03 0.  1.
         11   -1    0    0    0    0 -0.00000000000E+00 -0.00000000000E+00 -0.45593999997E+02  0.45594000000E+02  0.51100000000E-03 0. -1.
    9900012    2    1    2    0    0 -0.27358904347E+01  0.19131208917E+02 -0.25362035269E+02  0.59301935895E+02  0.49999985168E+02 0.  0.
        -12    1    1    2    0    0  0.27358904347E+01 -0.19131208917E+02  0.25362035269E+02  0.31886064105E+02  0.00000000000E+00 0.  1.
         11    1    3    3    0    0 -0.95047422969E-01  0.24076453878E+01  0.81208760914E+01  0.84707980190E+01  0.51100000000E-03 0. -1.
        -11    1    3    3    0    0 -0.18455912410E+02  0.93171357958E+01 -0.20040077344E+02  0.28792957864E+02  0.51100000000E-03 0.  1.
         12    1    3    3    0    0  0.15815069398E+02  0.74064277337E+01 -0.13442834017E+02  0.22038180012E+02  0.00000000000E+00 0. -1.
</event>
<event>
 7    1  0.2550039E-011  0.5930190E+02  0.7816164E-02  0.1266605E+00
        -11   -1    0    0    0    0  0.00000000000E+00  0.00000000000E+00  0.45593999997E+02  0.45594000000E+02  0.51100000000E-03 0. -1.
         11   -1    0    0    0    0 -0.00000000000E+00 -0.00000000000E+00 -0.45593999997E+02  0.45594000000E+02  0.51100000000E-03 0.  1.
    9900012    2    1    2    0    0 -0.60796882382E+01  0.14238347591E+02  0.27875258845E+02  0.59301902609E+02  0.49999924461E+02 0.  0.
        -12    1    1    2    0    0  0.60796882382E+01 -0.14238347591E+02 -0.27875258845E+02  0.31886097391E+02  0.00000000000E+00 0.  1.
         11    1    3    3    0    0 -0.10567795757E+02  0.17468070927E+02  0.49383647028E+01  0.21004743638E+02  0.51100000000E-03 0. -1.
        -11    1    3    3    0    0 -0.21952202292E+01  0.15081923615E+01 -0.68788167120E+01  0.73764324489E+01  0.51100000000E-03 0.  1.
         12    1    3    3    0    0  0.66833277483E+01 -0.47379156974E+01  0.29815710854E+02  0.30920726522E+02  0.00000000000E+00 0. -1.
</event>
<event>
 7    1  0.1184848E-011  0.5930194E+02  0.7816164E-02  0.1266605E+00
        -11   -1    0    0    0    0  0.00000000000E+00  0.00000000000E+00  0.45593999997E+02  0.45594000000E+02  0.51100000000E-03 0. -1.
         11   -1    0    0    0    0 -0.00000000000E+00 -0.00000000000E+00 -0.45593999997E+02  0.45594000000E+02  0.51100000000E-03 0.  1.
    9900012    2    1    2    0    0  0.11232473012E+02 -0.50785484216E+01  0.29406811249E+02  0.59301942673E+02  0.49999997529E+02 0.  0.
        -12    1    1    2    0    0 -0.11232473012E+02  0.50785484216E+01 -0.29406811249E+02  0.31886057327E+02  0.00000000000E+00 0.  1.
         11    1    3    3    0    0 -0.82596404367E+01  0.97488560045E+01 -0.17734206521E+01  0.12899878860E+02  0.51100000000E-03 0. -1.
        -11    1    3    3    0    0  0.14127644522E+02 -0.10073869207E+02  0.33605611756E+01  0.17673894653E+02  0.51100000000E-03 0.  1.
         12    1    3    3    0    0  0.53644689266E+01 -0.47535352190E+01  0.27819670726E+02  0.28728169159E+02  0.00000000000E+00 0. -1.
</event>
<event>
 7    1  0.1184848E-011  0.5930193E+02  0.7816164E-02  0.1266605E+00
        -11   -1    0    0    0    0  0.00000000000E+00  0.00000000000E+00  0.45593999997E+02  0.45594000000E+02  0.51100000000E-03 0.  1.
         11   -1    0    0    0    0 -0.00000000000E+00 -0.00000000000E+00 -0.45593999997E+02  0.45594000000E+02  0.51100000000E-03 0. -1.
    9900012    2    1    2    0    0  0.27919397013E+02  0.15401327061E+02  0.16647748603E+00  0.59301932203E+02  0.49999978434E+02 0.  0.
        -12    1    1    2    0    0 -0.27919397013E+02 -0.15401327061E+02 -0.16647748603E+00  0.31886067797E+02  0.00000000000E+00 0.  1.
         11    1    3    3    0    0  0.10061551955E+02  0.12373692172E+02  0.94606348227E+01  0.18543103765E+02  0.51100000000E-03 0. -1.
        -11    1    3    3    0    0 -0.11369078821E+01 -0.34250692659E+01  0.11387807801E+02  0.11945954369E+02  0.51100000000E-03 0.  1.
         12    1    3    3    0    0  0.18994752940E+02  0.64527041553E+01 -0.20681965138E+02  0.28812874069E+02  0.00000000000E+00 0. -1.
</event>
<event>
 7    1  0.1184848E-011  0.5930197E+02  0.7816164E-02  0.1266605E+00
        -11   -1    0    0    0    0  0.00000000000E+00  0.00000000000E+00  0.45593999997E+02  0.45594000000E+02  0.51100000000E-03 0. -1.
         11   -1    0    0    0    0 -0.00000000000E+00 -0.00000000000E+00 -0.45593999997E+02  0.45594000000E+02  0.51100000000E-03 0.  1.
    9900012    2    1    2    0    0 -0.73014178497E+00 -0.20919835501E+01  0.31808948583E+02  0.59301973090E+02  0.50000053002E+02 0.  0.
        -12    1    1    2    0    0  0.73014178497E+00  0.20919835501E+01 -0.31808948583E+02  0.31886026910E+02  0.00000000000E+00 0.  1.
         11    1    3    3    0    0 -0.98528597495E+01 -0.98885794942E+01 -0.23342635042E+01  0.14153149332E+02  0.51100000000E-03 0. -1.
        -11    1    3    3    0    0  0.11792626551E+02 -0.25577215760E+01  0.33077786928E+01  0.12511969500E+02  0.51100000000E-03 0.  1.
         12    1    3    3    0    0 -0.26699085867E+01  0.10354317520E+02  0.30835433394E+02  0.32636854257E+02  0.00000000000E+00 0. -1.
</event>
<event>
 7    1  0.1184848E-011  0.5930195E+02  0.7816164E-02  0.1266605E+00
        -11   -1    0    0    0    0  0.00000000000E+00  0.00000000000E+00  0.45593999997E+02  0.45594000000E+02  0.51100000000E-03 0.  1.
         11   -1    0    0    0    0 -0.00000000000E+00 -0.00000000000E+00 -0.45593999997E+02  0.45594000000E+02  0.51100000000E-03 0. -1.
    9900012    2    1    2    0    0  0.18325706261E+02 -0.26087148123E+02 -0.59104631795E+00  0.59301950653E+02  0.50000012083E+02 0.  0.
        -12    1    1    2    0    0 -0.18325706261E+02  0.26087148123E+02  0.59104631795E+00  0.31886049347E+02  0.00000000000E+00 0.  1.
         11    1    3    3    0    0 -0.60319498734E+01 -0.13038928264E+02 -0.12836779817E+02  0.19266057871E+02  0.51100000000E-03 0. -1.
        -11    1    3    3    0    0  0.11623808795E+02 -0.20143766396E+02  0.98771571306E+01  0.25267419512E+02  0.51100000000E-03 0.  1.
        -12    1    3    3    0    0  0.12733847339E+02  0.70955465371E+01  0.23685763687E+01  0.14768473270E+02  0.00000000000E+00 0.  1.
</event>
<event>
 7    1  0.1184848E-011  0.5930195E+02  0.7816164E-02  0.1266605E+00
        -11   -1    0    0    0    0  0.00000000000E+00  0.00000000000E+00  0.45593999997E+02  0.45594000000E+02  0.51100000000E-03 0.  1.
         11   -1    0    0    0    0 -0.00000000000E+00 -0.00000000000E+00 -0.45593999997E+02  0.45594000000E+02  0.51100000000E-03 0. -1.
    9900012    2    1    2    0    0  0.48566536813E+01 -0.30541988366E+02  0.77666093205E+01  0.59301947271E+02  0.50000005914E+02 0.  0.
        -12    1    1    2    0    0 -0.48566536813E+01  0.30541988366E+02 -0.77666093205E+01  0.31886052729E+02  0.00000000000E+00 0.  1.
         11    1    3    3    0    0  0.84082780788E+01  0.24812896421E+01  0.15441098928E+01  0.89016972629E+01  0.51100000000E-03 0. -1.
        -11    1    3    3    0    0  0.68272925280E+01 -0.35008239897E+02  0.12867175950E+02  0.37917713554E+02  0.51100000000E-03 0.  1.
         12    1    3    3    0    0 -0.10378916926E+02  0.19849618889E+01 -0.66446765219E+01  0.12482536454E+02  0.00000000000E+00 0. -1.
</event>
<event>
 7    1  0.1184848E-011  0.5930196E+02  0.7816164E-02  0.1266605E+00
        -11   -1    0    0    0    0  0.00000000000E+00  0.00000000000E+00  0.45593999997E+02  0.45594000000E+02  0.51100000000E-03 0. -1.
         11   -1    0    0    0    0 -0.00000000000E+00 -0.00000000000E+00 -0.45593999997E+02  0.45594000000E+02  0.51100000000E-03 0.  1.
    9900012    2    1    2    0    0  0.15000854238E+02  0.15344123154E+02  0.23584995588E+02  0.59301956656E+02  0.50000023031E+02 0.  0.
        -12    1    1    2    0    0 -0.15000854238E+02 -0.15344123154E+02 -0.23584995588E+02  0.31886043344E+02  0.00000000000E+00 0.  1.
         11    1    3    3    0    0  0.69645364470E+01 -0.36115981057E+01  0.70130722445E+01  0.10522907933E+02  0.51100000000E-03 0. -1.
        -11    1    3    3    0    0  0.13484831877E+02  0.26931592090E+02  0.22366096814E+02  0.37515245304E+02  0.51100000000E-03 0.  1.
        -12    1    3    3    0    0 -0.54485140854E+01 -0.79758708306E+01 -0.57941734710E+01  0.11263803419E+02  0.00000000000E+00 0.  1.
</event>
<event>
 7    1  0.1184848E-011  0.5930191E+02  0.7816164E-02  0.1266605E+00
        -11   -1    0    0    0    0  0.00000000000E+00  0.00000000000E+00  0.45593999997E+02  0.45594000000E+02  0.51100000000E-03 0.  1.
         11   -1    0    0    0    0 -0.00000000000E+00 -0.00000000000E+00 -0.45593999997E+02  0.45594000000E+02  0.51100000000E-03 0. -1.
    9900012    2    1    2    0    0 -0.41242713405E+01  0.29346850920E+02  0.11767556273E+02  0.59301911283E+02  0.49999940282E+02 0.  0.
        -12    1    1    2    0    0  0.41242713405E+01 -0.29346850920E+02 -0.11767556273E+02  0.31886088717E+02  0.00000000000E+00 0.  1.
         11    1    3    3    0    0 -0.30642791913E+01  0.66489707472E+01 -0.40663961315E+01  0.83746162132E+01  0.51100000000E-03 0. -1.
        -11    1    3    3    0    0 -0.15377192877E+02  0.28337891236E+02  0.63776728401E+01  0.32865922346E+02  0.51100000000E-03 0.  1.
        -12    1    3    3    0    0  0.14317200728E+02 -0.56400110640E+01  0.94562795649E+01  0.18061372725E+02  0.00000000000E+00 0.  1.
</event>
<event>
 7    1  0.1184848E-011  0.5930196E+02  0.7816164E-02  0.1266605E+00
        -11   -1    0    0    0    0  0.00000000000E+00  0.00000000000E+00  0.45593999997E+02  0.45594000000E+02  0.51100000000E-03 0.  1.
         11   -1    0    0    0    0 -0.00000000000E+00 -0.00000000000E+00 -0.45593999997E+02  0.45594000000E+02  0.51100000000E-03 0. -1.
    9900012    2    1    2    0    0  0.70993262910E+01  0.81949387367E+01 -0.29986033044E+02  0.59301958659E+02  0.50000026684E+02 0.  0.
        -12    1    1    2    0    0 -0.70993262910E+01 -0.81949387367E+01  0.29986033044E+02  0.31886041341E+02  0.00000000000E+00 0.  1.
         11    1    3    3    0    0  0.15088914988E+01  0.12997164381E+01  0.17261707978E+01  0.26354662318E+01  0.51100000000E-03 0. -1.
        -11    1    3    3    0    0  0.12881747974E+02 -0.15624399327E+02 -0.47719763717E+01  0.20804639962E+02  0.51100000000E-03 0.  1.
         12    1    3    3    0    0 -0.72913131819E+01  0.22519621626E+02 -0.26940227470E+02  0.35861852465E+02  0.00000000000E+00 0. -1.
</event>
<event>
 7    1  0.1210463E-011  0.5930178E+02  0.7816164E-02  0.1266605E+00
        -11   -1    0    0    0    0  0.00000000000E+00  0.00000000000E+00  0.45593999997E+02  0.45594000000E+02  0.51100000000E-03 0. -1.
         11   -1    0    0    0    0 -0.00000000000E+00 -0.00000000000E+00 -0.45593999997E+02  0.45594000000E+02  0.51100000000E-03 0.  1.
    9900012    2    1    2    0    0  0.57148905221E+01  0.10337286783E+02  0.29617759408E+02  0.59301778147E+02  0.49999697473E+02 0.  0.
        -12    1    1    2    0    0 -0.57148905221E+01 -0.10337286783E+02 -0.29617759408E+02  0.31886221853E+02  0.00000000000E+00 0.  1.
         11    1    3    3    0    0  0.61167703179E+01  0.62210218440E+01 -0.21294063469E+01  0.89805547466E+01  0.51100000000E-03 0. -1.
        -11    1    3    3    0    0  0.31675494879E+01 -0.53096560820E+01 -0.75463106309E+01  0.97556456407E+01  0.51100000000E-03 0.  1.
         12    1    3    3    0    0 -0.35694292837E+01  0.94259210209E+01  0.39293476386E+02  0.40565577760E+02  0.00000000000E+00 0. -1.
</event>
<event>
 7    1  0.1184848E-011  0.5930194E+02  0.7816164E-02  0.1266605E+00
        -11   -1    0    0    0    0  0.00000000000E+00  0.00000000000E+00  0.45593999997E+02  0.45594000000E+02  0.51100000000E-03 0.  1.
         11   -1    0    0    0    0 -0.00000000000E+00 -0.00000000000E+00 -0.45593999997E+02  0.45594000000E+02  0.51100000000E-03 0. -1.
    9900012    2    1    2    0    0  0.86221701530E+01 -0.23525864228E+02 -0.19720865144E+02  0.59301943050E+02  0.49999998216E+02 0.  0.
        -12    1    1    2    0    0 -0.86221701530E+01  0.23525864228E+02  0.19720865144E+02  0.31886056950E+02  0.00000000000E+00 0.  1.
         11    1    3    3    0    0  0.39101713302E+01  0.85669526437E+01  0.42091200513E+01  0.10314979850E+02  0.51100000000E-03 0.  1.
        -11    1    3    3    0    0 -0.26120758362E+01 -0.48677354541E+01 -0.19722656252E+02  0.20481722548E+02  0.51100000000E-03 0. -1.
        -12    1    3    3    0    0  0.73240746591E+01 -0.27225081418E+02 -0.42073289426E+01  0.28505240652E+02  0.00000000000E+00 0.  1.
</event>
<event>
 7    1  0.1184848E-011  0.5930194E+02  0.7816164E-02  0.1266605E+00
        -11   -1    0    0    0    0  0.00000000000E+00  0.00000000000E+00  0.45593999997E+02  0.45594000000E+02  0.51100000000E-03 0.  1.
         11   -1    0    0    0    0 -0.00000000000E+00 -0.00000000000E+00 -0.45593999997E+02  0.45594000000E+02  0.51100000000E-03 0. -1.
    9900012    2    1    2    0    0  0.21470733093E+02 -0.16500385452E+02 -0.16836446934E+02  0.59301936509E+02  0.49999986287E+02 0.  0.
        -12    1    1    2    0    0 -0.21470733093E+02  0.16500385452E+02  0.16836446934E+02  0.31886063491E+02  0.00000000000E+00 0.  1.
         11    1    3    3    0    0  0.60994476381E+01 -0.10958843788E+02  0.20021238108E+00  0.12543508438E+02  0.51100000000E-03 0. -1.
        -11    1    3    3    0    0  0.73610120446E+01 -0.20739761336E+02 -0.19498974763E+02  0.29402928692E+02  0.51100000000E-03 0.  1.
        -12    1    3    3    0    0  0.80102734106E+01  0.15198219673E+02  0.24623154481E+01  0.17355499379E+02  0.00000000000E+00 0.  1.
</event>
<event>
 7    1  0.1184848E-011  0.5930198E+02  0.7816164E-02  0.1266605E+00
        -11   -1    0    0    0    0  0.00000000000E+00  0.00000000000E+00  0.45593999997E+02  0.45594000000E+02  0.51100000000E-03 0. -1.
         11   -1    0    0    0    0 -0.00000000000E+00 -0.00000000000E+00 -0.45593999997E+02  0.45594000000E+02  0.51100000000E-03 0.  1.
    9900012    2    1    2    0    0 -0.35552398972E+01  0.11713869299E+02 -0.29442550948E+02  0.59301980007E+02  0.50000065617E+02 0.  0.
        -12    1    1    2    0    0  0.35552398972E+01 -0.11713869299E+02  0.29442550948E+02  0.31886019993E+02  0.00000000000E+00 0.  1.
         11    1    3    3    0    0 -0.22619716820E+02  0.98667491895E+01 -0.26157800644E+02  0.35961574818E+02  0.51100000000E-03 0.  1.
        -11    1    3    3    0    0  0.46157231232E+01 -0.20982674826E+01  0.42117311861E+01  0.65913812076E+01  0.51100000000E-03 0. -1.
        -12    1    3    3    0    0  0.14448753799E+02  0.39453875916E+01 -0.74964814901E+01  0.16749023982E+02  0.00000000000E+00 0.  1.
</event>
<event>
 7    1  0.1184848E-011  0.5930194E+02  0.7816164E-02  0.1266605E+00
        -11   -1    0    0    0    0  0.00000000000E+00  0.00000000000E+00  0.45593999997E+02  0.45594000000E+02  0.51100000000E-03 0.  1.
         11   -1    0    0    0    0 -0.00000000000E+00 -0.00000000000E+00 -0.45593999997E+02  0.45594000000E+02  0.51100000000E-03 0. -1.
    9900012    2    1    2    0    0  0.50800869380E+01  0.26941723551E+02 -0.16280574384E+02  0.59301939512E+02  0.49999991764E+02 0.  0.
        -12    1    1    2    0    0 -0.50800869380E+01 -0.26941723551E+02  0.16280574384E+02  0.31886060488E+02  0.00000000000E+00 0.  1.
         11    1    3    3    0    0  0.41483685595E+01  0.17502071759E+02 -0.13699919800E+02  0.22610158786E+02  0.51100000000E-03 0. -1.
        -11    1    3    3    0    0  0.23158841589E+01 -0.42322097683E+01 -0.16464804241E+02  0.17157059711E+02  0.51100000000E-03 0.  1.
        -12    1    3    3    0    0 -0.13841657804E+01  0.13671861560E+02  0.13884149657E+02  0.19534721015E+02  0.00000000000E+00 0.  1.
</event>
<event>
 7    1  0.1184848E-011  0.5930193E+02  0.7816164E-02  0.1266605E+00
        -11   -1    0    0    0    0  0.00000000000E+00  0.00000000000E+00  0.45593999997E+02  0.45594000000E+02  0.51100000000E-03 0.  1.
         11   -1    0    0    0    0 -0.00000000000E+00 -0.00000000000E+00 -0.45593999997E+02  0.45594000000E+02  0.51100000000E-03 0. -1.
    9900012    2    1    2    0    0  0.18522629377E+02  0.17779440690E+02 -0.18908339289E+02  0.59301927728E+02  0.49999970273E+02 0.  0.
        -12    1    1    2    0    0 -0.18522629377E+02 -0.17779440690E+02  0.18908339289E+02  0.31886072272E+02  0.00000000000E+00 0.  1.
         11    1    3    3    0    0  0.35304112956E+01  0.14592349616E+02 -0.82845958899E+01  0.17147448806E+02  0.51100000000E-03 0. -1.
        -11    1    3    3    0    0 -0.10115127756E+02 -0.31737130566E+01 -0.12253161273E+02  0.16202722781E+02  0.51100000000E-03 0.  1.
        -12    1    3    3    0    0  0.25107345838E+02  0.63608041308E+01  0.16294178740E+01  0.25951756141E+02  0.00000000000E+00 0.  1.
</event>
<event>
 7    1  0.1184848E-011  0.5930165E+02  0.7816164E-02  0.1266606E+00
        -11   -1    0    0    0    0  0.00000000000E+00  0.00000000000E+00  0.45593999997E+02  0.45594000000E+02  0.51100000000E-03 0. -1.
         11   -1    0    0    0    0 -0.00000000000E+00 -0.00000000000E+00 -0.45593999997E+02  0.45594000000E+02  0.51100000000E-03 0.  1.
    9900012    2    1    2    0    0  0.14868167195E+02 -0.17326926396E+02  0.22258804502E+02  0.59301652577E+02  0.49999468462E+02 0.  0.
        -12    1    1    2    0    0 -0.14868167195E+02  0.17326926396E+02 -0.22258804502E+02  0.31886347423E+02  0.00000000000E+00 0.  1.
         11    1    3    3    0    0  0.51194083253E+01 -0.78920317028E+01 -0.49199442664E+01  0.10615948278E+02  0.51100000000E-03 0. -1.
        -11    1    3    3    0    0  0.10742723267E+02 -0.11536136564E+02 -0.49118328700E+01  0.16511046376E+02  0.51100000000E-03 0.  1.
         12    1    3    3    0    0 -0.99396439692E+00  0.21012418705E+01  0.32090581638E+02  0.32174657924E+02  0.00000000000E+00 0. -1.
</event>
<event>
 7    1  0.1184848E-011  0.5930197E+02  0.7816164E-02  0.1266605E+00
        -11   -1    0    0    0    0  0.00000000000E+00  0.00000000000E+00  0.45593999997E+02  0.45594000000E+02  0.51100000000E-03 0. -1.
         11   -1    0    0    0    0 -0.00000000000E+00 -0.00000000000E+00 -0.45593999997E+02  0.45594000000E+02  0.51100000000E-03 0.  1.
    9900012    2    1    2    0    0  0.84378312360E+01  0.19627174752E+02  0.23670565991E+02  0.59301973608E+02  0.50000053948E+02 0.  0.
        -12    1    1    2    0    0 -0.84378312360E+01 -0.19627174752E+02 -0.23670565991E+02  0.31886026392E+02  0.00000000000E+00 0.  1.
         11    1    3    3    0    0  0.18462302997E+02 -0.37545738562E+00 -0.26778792993E+01  0.18659277532E+02  0.51100000000E-03 0. -1.
        -11    1    3    3    0    0  0.34460777068E+01 -0.14889597988E+01 -0.40628270030E+00  0.37759129675E+01  0.51100000000E-03 0.  1.
         12    1    3    3    0    0 -0.13470549468E+02  0.21491591936E+02  0.26754727991E+02  0.36866783109E+02  0.00000000000E+00 0. -1.
</event>
<event>
 7    1  0.1184848E-011  0.5930195E+02  0.7816164E-02  0.1266605E+00
        -11   -1    0    0    0    0  0.00000000000E+00  0.00000000000E+00  0.45593999997E+02  0.45594000000E+02  0.51100000000E-03 0. -1.
         11   -1    0    0    0    0 -0.00000000000E+00 -0.00000000000E+00 -0.45593999997E+02  0.45594000000E+02  0.51100000000E-03 0.  1.
    9900012    2    1    2    0    0  0.17716027123E+02  0.66139379252E+01  0.25673306751E+02  0.59301945503E+02  0.50000002690E+02 0.  0.
        -12    1    1    2    0    0 -0.17716027123E+02 -0.66139379252E+01 -0.25673306751E+02  0.31886054497E+02  0.00000000000E+00 0.  1.
         11    1    3    3    0    0 -0.50560422238E+01  0.12137207940E+01  0.67280325860E+01  0.85031231835E+01  0.51100000000E-03 0.  1.
        -11    1    3    3    0    0  0.23388919368E+02 -0.37798873373E+00  0.30159878814E+02  0.38168085032E+02  0.51100000000E-03 0. -1.
         12    1    3    3    0    0 -0.61685002155E+00  0.57782058649E+01 -0.11214604649E+02  0.12630737287E+02  0.00000000000E+00 0. -1.
</event>
<event>
 7    1  0.1184848E-011  0.5930194E+02  0.7816164E-02  0.1266605E+00
        -11   -1    0    0    0    0  0.00000000000E+00  0.00000000000E+00  0.45593999997E+02  0.45594000000E+02  0.51100000000E-03 0.  1.
         11   -1    0    0    0    0 -0.00000000000E+00 -0.00000000000E+00 -0.45593999997E+02  0.45594000000E+02  0.51100000000E-03 0. -1.
    9900012    2    1    2    0    0 -0.27019611064E+02 -0.14937755881E+02 -0.79702472661E+01  0.59301940753E+02  0.49999994027E+02 0.  0.
        -12    1    1    2    0    0  0.27019611064E+02  0.14937755881E+02  0.79702472661E+01  0.31886059247E+02  0.00000000000E+00 0.  1.
         11    1    3    3    0    0 -0.29608218999E+02 -0.15066751974E+02  0.85516098156E+01  0.34304280754E+02  0.51100000000E-03 0.  1.
        -11    1    3    3    0    0 -0.41340465597E+01 -0.67997200266E+01 -0.32730598011E+01  0.86046181857E+01  0.51100000000E-03 0. -1.
        -12    1    3    3    0    0  0.67226544942E+01  0.69287161193E+01 -0.13248797281E+02  0.16393041813E+02  0.00000000000E+00 0.  1.
</event>
<event>
 7    1  0.1184848E-011  0.5930197E+02  0.7816164E-02  0.1266605E+00
        -11   -1    0    0    0    0  0.00000000000E+00  0.00000000000E+00  0.45593999997E+02  0.45594000000E+02  0.51100000000E-03 0. -1.
         11   -1    0    0    0    0 -0.00000000000E+00 -0.00000000000E+00 -0.45593999997E+02  0.45594000000E+02  0.51100000000E-03 0.  1.
    9900012    2    1    2    0    0  0.88389999447E+01  0.22993611250E+02  0.20245611444E+02  0.59301970754E+02  0.50000048742E+02 0.  0.
        -12    1    1    2    0    0 -0.88389999447E+01 -0.22993611250E+02 -0.20245611444E+02  0.31886029246E+02  0.00000000000E+00 0.  1.
         11    1    3    3    0    0 -0.70687447141E+01  0.28099073326E+02  0.12815366763E+02  0.31682151113E+02  0.51100000000E-03 0. -1.
        -11    1    3    3    0    0 -0.18051265629E+01 -0.78320506411E+01 -0.43327163735E+00  0.80490511072E+01  0.51100000000E-03 0.  1.
        -12    1    3    3    0    0  0.17712871222E+02  0.27265885652E+01  0.78635163188E+01  0.19570768534E+02  0.00000000000E+00 0.  1.
</event>
<event>
 7    1  0.1184848E-011  0.5930194E+02  0.7816164E-02  0.1266605E+00
        -11   -1    0    0    0    0  0.00000000000E+00  0.00000000000E+00  0.45593999997E+02  0.45594000000E+02  0.51100000000E-03 0.  1.
         11   -1    0    0    0    0 -0.00000000000E+00 -0.00000000000E+00 -0.45593999997E+02  0.45594000000E+02  0.51100000000E-03 0. -1.
    9900012    2    1    2    0    0  0.44886414608E+01  0.30928944377E+02  0.63224218052E+01  0.59301944742E+02  0.50000001302E+02 0.  0.
        -12    1    1    2    0    0 -0.44886414608E+01 -0.30928944377E+02 -0.63224218052E+01  0.31886055258E+02  0.00000000000E+00 0.  1.
         11    1    3    3    0    0  0.19625599255E+02  0.28166664546E+02 -0.45877771833E+01  0.34634850043E+02  0.51100000000E-03 0. -1.
        -11    1    3    3    0    0 -0.36913274858E+01 -0.64066170773E+01  0.27828163123E+01  0.79002979610E+01  0.51100000000E-03 0.  1.
        -12    1    3    3    0    0 -0.11445630308E+02  0.91688969082E+01  0.81273826762E+01  0.16766796737E+02  0.00000000000E+00 0.  1.
</event>
<event>
 7    1  0.1184848E-011  0.5930197E+02  0.7816164E-02  0.1266605E+00
        -11   -1    0    0    0    0  0.00000000000E+00  0.00000000000E+00  0.45593999997E+02  0.45594000000E+02  0.51100000000E-03 0.  1.
         11   -1    0    0    0    0 -0.00000000000E+00 -0.00000000000E+00 -0.45593999997E+02  0.45594000000E+02  0.51100000000E-03 0. -1.
    9900012    2    1    2    0    0 -0.90814362990E+01 -0.25581239886E+02 -0.16728619767E+02  0.59301967969E+02  0.50000043664E+02 0.  0.
        -12    1    1    2    0    0  0.90814362990E+01  0.25581239886E+02  0.16728619767E+02  0.31886032031E+02  0.00000000000E+00 0.  1.
         11    1    3    3    0    0 -0.20520336272E+02 -0.23276431495E+02 -0.32433013909E+01  0.31199286338E+02  0.51100000000E-03 0. -1.
        -11    1    3    3    0    0  0.20759019094E+01  0.20007705505E+01  0.56644731499E+01  0.63559977863E+01  0.51100000000E-03 0.  1.
        -12    1    3    3    0    0  0.93629980633E+01 -0.43055789416E+01 -0.19149791526E+02  0.21746683845E+02  0.00000000000E+00 0.  1.
</event>
<event>
 7    1  0.1184848E-011  0.5930182E+02  0.7816164E-02  0.1266605E+00
        -11   -1    0    0    0    0  0.00000000000E+00  0.00000000000E+00  0.45593999997E+02  0.45594000000E+02  0.51100000000E-03 0.  1.
         11   -1    0    0    0    0 -0.00000000000E+00 -0.00000000000E+00 -0.45593999997E+02  0.45594000000E+02  0.51100000000E-03 0. -1.
    9900012    2    1    2    0    0 -0.14426669153E+01  0.24064881905E+02 -0.20869323891E+02  0.59301819473E+02  0.49999772842E+02 0.  0.
        -12    1    1    2    0    0  0.14426669153E+01 -0.24064881905E+02  0.20869323891E+02  0.31886180527E+02  0.00000000000E+00 0.  1.
         11    1    3    3    0    0  0.29002847541E+01  0.12803960926E+02  0.67558120185E+00  0.13145701855E+02  0.51100000000E-03 0. -1.
        -11    1    3    3    0    0 -0.20726422594E+02  0.11033449762E+02 -0.17485598673E+02  0.29275719776E+02  0.51100000000E-03 0.  1.
         12    1    3    3    0    0  0.16383470924E+02  0.22747121719E+00 -0.40593064200E+01  0.16880397842E+02  0.00000000000E+00 0. -1.
</event>
<event>
 7    1  0.1184848E-011  0.5930184E+02  0.7816164E-02  0.1266605E+00
        -11   -1    0    0    0    0  0.00000000000E+00  0.00000000000E+00  0.45593999997E+02  0.45594000000E+02  0.51100000000E-03 0.  1.
         11   -1    0    0    0    0 -0.00000000000E+00 -0.00000000000E+00 -0.45593999997E+02  0.45594000000E+02  0.51100000000E-03 0. -1.
    9900012    2    1    2    0    0  0.31387730606E+02 -0.27542516018E+01  0.48940217566E+01  0.59301843389E+02  0.49999816459E+02 0.  0.
        -12    1    1    2    0    0 -0.31387730606E+02  0.27542516018E+01 -0.48940217566E+01  0.31886156611E+02  0.00000000000E+00 0.  1.
         11    1    3    3    0    0 -0.16033502414E+01 -0.72079882576E+01 -0.77507603698E+01  0.10705144244E+02  0.51100000000E-03 0. -1.
        -11    1    3    3    0    0  0.10652199541E+02 -0.85268554872E+01 -0.77397657573E+01  0.15686956167E+02  0.51100000000E-03 0.  1.
        -12    1    3    3    0    0  0.22338881307E+02  0.12980592143E+02  0.20384547884E+02  0.32909742977E+02  0.00000000000E+00 0.  1.
</event>
<event>
 7    1  0.1184848E-011  0.5930194E+02  0.7816164E-02  0.1266605E+00
        -11   -1    0    0    0    0  0.00000000000E+00  0.00000000000E+00  0.45593999997E+02  0.45594000000E+02  0.51100000000E-03 0. -1.
         11   -1    0    0    0    0 -0.00000000000E+00 -0.00000000000E+00 -0.45593999997E+02  0.45594000000E+02  0.51100000000E-03 0.  1.
    9900012    2    1    2    0    0  0.46846109091E+01  0.85895510173E+01  0.30347900668E+02  0.59301936571E+02  0.49999986401E+02 0.  0.
        -12    1    1    2    0    0 -0.46846109091E+01 -0.85895510173E+01 -0.30347900668E+02  0.31886063429E+02  0.00000000000E+00 0.  1.
         11    1    3    3    0    0 -0.93905860920E+01  0.11353980903E+01  0.15994268398E+02  0.18581949785E+02  0.51100000000E-03 0. -1.
        -11    1    3    3    0    0 -0.43247911460E+01 -0.11072301949E+02  0.59282775132E+01  0.13283228653E+02  0.51100000000E-03 0.  1.
         12    1    3    3    0    0  0.18399988147E+02  0.18526454876E+02  0.84253547564E+01  0.27436758133E+02  0.00000000000E+00 0. -1.
</event>
<event>
 7    1  0.1184848E-011  0.5930195E+02  0.7816164E-02  0.1266605E+00
        -11   -1    0    0    0    0  0.00000000000E+00  0.00000000000E+00  0.45593999997E+02  0.45594000000E+02  0.51100000000E-03 0. -1.
         11   -1    0    0    0    0 -0.00000000000E+00 -0.00000000000E+00 -0.45593999997E+02  0.45594000000E+02  0.51100000000E-03 0.  1.
    9900012    2    1    2    0    0  0.31342502032E+02 -0.43342962410E+01 -0.39473412441E+01  0.59301951947E+02  0.50000014443E+02 0.  0.
        -12    1    1    2    0    0 -0.31342502032E+02  0.43342962410E+01  0.39473412441E+01  0.31886048053E+02  0.00000000000E+00 0.  1.
         11    1    3    3    0    0  0.10850575896E+02 -0.53313125354E+01  0.73435254698E+01  0.14145149600E+02  0.51100000000E-03 0. -1.
        -11    1    3    3    0    0 -0.22578511981E+01  0.14341456222E+02  0.34775608296E+01  0.14928787231E+02  0.51100000000E-03 0.  1.
         12    1    3    3    0    0  0.22749777334E+02 -0.13344439928E+02 -0.14768427543E+02  0.30228015116E+02  0.00000000000E+00 0. -1.
</event>
<event>
 7    1  0.1184848E-011  0.5930181E+02  0.7816164E-02  0.1266605E+00
        -11   -1    0    0    0    0  0.00000000000E+00  0.00000000000E+00  0.45593999997E+02  0.45594000000E+02  0.51100000000E-03 0.  1.
         11   -1    0    0    0    0 -0.00000000000E+00 -0.00000000000E+00 -0.45593999997E+02  0.45594000000E+02  0.51100000000E-03 0. -1.
    9900012    2    1    2    0    0  0.20456817628E+02  0.14302551602E+02 -0.19841491179E+02  0.59301809540E+02  0.49999754727E+02 0.  0.
        -12    1    1    2    0    0 -0.20456817628E+02 -0.14302551602E+02  0.19841491179E+02  0.31886190460E+02  0.00000000000E+00 0.  1.
         11    1    3    3    0    0  0.63814242682E+01 -0.67377992376E+01  0.53206605375E+01  0.10697193233E+02  0.51100000000E-03 0. -1.
        -11    1    3    3    0    0 -0.67982151005E+01 -0.37854680220E+01 -0.10347004795E+02  0.12946273796E+02  0.51100000000E-03 0.  1.
         12    1    3    3    0    0  0.20873608461E+02  0.24825818862E+02 -0.14815146921E+02  0.35658342511E+02  0.00000000000E+00 0. -1.
</event>
<event>
 7    1  0.1184848E-011  0.5930194E+02  0.7816164E-02  0.1266605E+00
        -11   -1    0    0    0    0  0.00000000000E+00  0.00000000000E+00  0.45593999997E+02  0.45594000000E+02  0.51100000000E-03 0.  1.
         11   -1    0    0    0    0 -0.00000000000E+00 -0.00000000000E+00 -0.45593999997E+02  0.45594000000E+02  0.51100000000E-03 0. -1.
    9900012    2    1    2    0    0 -0.12224909150E+02  0.30417177202E+00 -0.29447922467E+02  0.59301936244E+02  0.49999985805E+02 0.  0.
        -12    1    1    2    0    0  0.12224909150E+02 -0.30417177202E+00  0.29447922467E+02  0.31886063756E+02  0.00000000000E+00 0.  1.
         11    1    3    3    0    0 -0.21711729982E+02 -0.65639086178E+00 -0.17796381623E+02  0.28080976958E+02  0.51100000000E-03 0. -1.
        -11    1    3    3    0    0 -0.77992511164E+01  0.67403062484E+01 -0.68355603110E+01  0.12368707747E+02  0.51100000000E-03 0.  1.
        -12    1    3    3    0    0  0.17286071948E+02 -0.57797436146E+01 -0.48159805330E+01  0.18852251540E+02  0.00000000000E+00 0.  1.
</event>
<event>
 7    1  0.1184848E-011  0.5930195E+02  0.7816164E-02  0.1266605E+00
        -11   -1    0    0    0    0  0.00000000000E+00  0.00000000000E+00  0.45593999997E+02  0.45594000000E+02  0.51100000000E-03 0. -1.
         11   -1    0    0    0    0 -0.00000000000E+00 -0.00000000000E+00 -0.45593999997E+02  0.45594000000E+02  0.51100000000E-03 0.  1.
    9900012    2    1    2    0    0 -0.11207082246E+02  0.27968702819E+02  0.10434228351E+02  0.59301950525E+02  0.50000011849E+02 0.  0.
        -12    1    1    2    0    0  0.11207082246E+02 -0.27968702819E+02 -0.10434228351E+02  0.31886049475E+02  0.00000000000E+00 0.  1.
         11    1    3    3    0    0  0.10118965374E+02  0.32401705728E+02  0.10895770285E+01  0.33962496561E+02  0.51100000000E-03 0. -1.
        -11    1    3    3    0    0 -0.12108142162E+02  0.56462492433E-01  0.10543781745E+01  0.12154094299E+02  0.51100000000E-03 0.  1.
        -12    1    3    3    0    0 -0.92179054582E+01 -0.44894654007E+01  0.82902731483E+01  0.13185359665E+02  0.00000000000E+00 0.  1.
</event>
<event>
 7    1  0.1184848E-011  0.5930194E+02  0.7816164E-02  0.1266605E+00
        -11   -1    0    0    0    0  0.00000000000E+00  0.00000000000E+00  0.45593999997E+02  0.45594000000E+02  0.51100000000E-03 0.  1.
         11   -1    0    0    0    0 -0.00000000000E+00 -0.00000000000E+00 -0.45593999997E+02  0.45594000000E+02  0.51100000000E-03 0. -1.
    9900012    2    1    2    0    0 -0.13519224838E+02  0.27311415030E+02 -0.93828404581E+01  0.59301944643E+02  0.50000001123E+02 0.  0.
        -12    1    1    2    0    0  0.13519224838E+02 -0.27311415030E+02  0.93828404581E+01  0.31886055357E+02  0.00000000000E+00 0.  1.
         11    1    3    3    0    0 -0.23515145378E+02  0.20649120051E+02 -0.20032347460E+02  0.37157006958E+02  0.51100000000E-03 0. -1.
        -11    1    3    3    0    0 -0.24526351138E+01 -0.21109132809E+01 -0.49471286982E+00  0.32735477644E+01  0.51100000000E-03 0.  1.
        -12    1    3    3    0    0  0.12448555653E+02  0.87732082592E+01  0.11144219872E+02  0.18871389922E+02  0.00000000000E+00 0.  1.
</event>
<event>
 7    1  0.1184848E-011  0.5930192E+02  0.7816164E-02  0.1266605E+00
        -11   -1    0    0    0    0  0.00000000000E+00  0.00000000000E+00  0.45593999997E+02  0.45594000000E+02  0.51100000000E-03 0. -1.
         11   -1    0    0    0    0 -0.00000000000E+00 -0.00000000000E+00 -0.45593999997E+02  0.45594000000E+02  0.51100000000E-03 0.  1.
    9900012    2    1    2    0    0  0.10417079916E+02 -0.69175236070E+01  0.29331798288E+02  0.59301920316E+02  0.49999956755E+02 0.  0.
        -12    1    1    2    0    0 -0.10417079916E+02  0.69175236070E+01 -0.29331798288E+02  0.31886079684E+02  0.00000000000E+00 0.  1.
         11    1    3    3    0    0 -0.59990526117E+00  0.93545957931E+00 -0.70713294525E+01  0.71581192665E+01  0.51100000000E-03 0. -1.
        -11    1    3    3    0    0 -0.60765166411E+01  0.88376903398E+01  0.31122165867E+01  0.11167574373E+02  0.51100000000E-03 0.  1.
         12    1    3    3    0    0  0.17093501818E+02 -0.16690673526E+02  0.33290911154E+02  0.40976226676E+02  0.00000000000E+00 0. -1.
</event>
<event>
 7    1  0.1184848E-011  0.5930193E+02  0.7816164E-02  0.1266605E+00
        -11   -1    0    0    0    0  0.00000000000E+00  0.00000000000E+00  0.45593999997E+02  0.45594000000E+02  0.51100000000E-03 0.  1.
         11   -1    0    0    0    0 -0.00000000000E+00 -0.00000000000E+00 -0.45593999997E+02  0.45594000000E+02  0.51100000000E-03 0. -1.
    9900012    2    1    2    0    0  0.17511411282E+02  0.25542733845E+02  0.75921368515E+01  0.59301932206E+02  0.49999978441E+02 0.  0.
        -12    1    1    2    0    0 -0.17511411282E+02 -0.25542733845E+02 -0.75921368515E+01  0.31886067794E+02  0.00000000000E+00 0.  1.
         11    1    3    3    0    0  0.13058565033E+02  0.16320120802E+02  0.53848204863E+01  0.21583993042E+02  0.51100000000E-03 0. -1.
        -11    1    3    3    0    0 -0.12539137007E+02  0.14890129917E+02 -0.11223356348E+01  0.19498860566E+02  0.51100000000E-03 0.  1.
         12    1    3    3    0    0  0.16991983257E+02 -0.56675168749E+01  0.33296519999E+01  0.18219078598E+02  0.00000000000E+00 0. -1.
</event>
<event>
 7    1  0.1184848E-011  0.5930198E+02  0.7816164E-02  0.1266605E+00
        -11   -1    0    0    0    0  0.00000000000E+00  0.00000000000E+00  0.45593999997E+02  0.45594000000E+02  0.51100000000E-03 0.  1.
         11   -1    0    0    0    0 -0.00000000000E+00 -0.00000000000E+00 -0.45593999997E+02  0.45594000000E+02  0.51100000000E-03 0. -1.
    9900012    2    1    2    0    0 -0.10600217070E+02  0.27015448452E+02 -0.13210562896E+02  0.59301983801E+02  0.50000072537E+02 0.  0.
        -12    1    1    2    0    0  0.10600217070E+02 -0.27015448452E+02  0.13210562896E+02  0.31886016199E+02  0.00000000000E+00 0.  1.
         11    1    3    3    0    0 -0.15112504274E+02  0.19896735346E+01 -0.36872459654E+01  0.15682549834E+02  0.51100000000E-03 0.  1.
        -11    1    3    3    0    0 -0.12498588813E+02  0.93438665380E+01 -0.12888671940E+02  0.20239575807E+02  0.51100000000E-03 0. -1.
        -12    1    3    3    0    0  0.17010876017E+02  0.15681908379E+02  0.33653550092E+01  0.23379858161E+02  0.00000000000E+00 0.  1.
</event>
<event>
 7    1  0.1184848E-011  0.5930194E+02  0.7816164E-02  0.1266605E+00
        -11   -1    0    0    0    0  0.00000000000E+00  0.00000000000E+00  0.45593999997E+02  0.45594000000E+02  0.51100000000E-03 0.  1.
         11   -1    0    0    0    0 -0.00000000000E+00 -0.00000000000E+00 -0.45593999997E+02  0.45594000000E+02  0.51100000000E-03 0. -1.
    9900012    2    1    2    0    0  0.23177295725E+02 -0.98608012084E+01 -0.19552448315E+02  0.59301942346E+02  0.49999996934E+02 0.  0.
        -12    1    1    2    0    0 -0.23177295725E+02  0.98608012084E+01  0.19552448315E+02  0.31886057654E+02  0.00000000000E+00 0.  1.
         11    1    3    3    0    0 -0.10966511361E+01 -0.12484657741E+02  0.37063943960E+00  0.12538209460E+02  0.51100000000E-03 0. -1.
        -11    1    3    3    0    0  0.28867893917E+02  0.92395183675E+01 -0.63311507959E+01  0.30964616412E+02  0.51100000000E-03 0.  1.
         12    1    3    3    0    0 -0.45939470565E+01 -0.66156618351E+01 -0.13591936958E+02  0.15799116474E+02  0.00000000000E+00 0. -1.
</event>
<event>
 7    1  0.1184848E-011  0.5930196E+02  0.7816164E-02  0.1266605E+00
        -11   -1    0    0    0    0  0.00000000000E+00  0.00000000000E+00  0.45593999997E+02  0.45594000000E+02  0.51100000000E-03 0. -1.
         11   -1    0    0    0    0 -0.00000000000E+00 -0.00000000000E+00 -0.45593999997E+02  0.45594000000E+02  0.51100000000E-03 0.  1.
    9900012    2    1    2    0    0  0.11525574206E+02  0.12186069582E+02  0.27117895963E+02  0.59301961769E+02  0.50000032355E+02 0.  0.
        -12    1    1    2    0    0 -0.11525574206E+02 -0.12186069582E+02 -0.27117895963E+02  0.31886038231E+02  0.00000000000E+00 0.  1.
         11    1    3    3    0    0 -0.39052025796E+01  0.32959792474E+00  0.68562702236E+01  0.78973212939E+01  0.51100000000E-03 0. -1.
        -11    1    3    3    0    0  0.91990812632E+01 -0.24564057961E+01  0.31018349530E+02  0.32446803130E+02  0.51100000000E-03 0.  1.
        -12    1    3    3    0    0  0.62316955221E+01  0.14312877453E+02 -0.10756723791E+02  0.18957837345E+02  0.00000000000E+00 0.  1.
</event>
<event>
 7    1  0.1184848E-011  0.5930195E+02  0.7816164E-02  0.1266605E+00
        -11   -1    0    0    0    0  0.00000000000E+00  0.00000000000E+00  0.45593999997E+02  0.45594000000E+02  0.51100000000E-03 0.  1.
         11   -1    0    0    0    0 -0.00000000000E+00 -0.00000000000E+00 -0.45593999997E+02  0.45594000000E+02  0.51100000000E-03 0. -1.
    9900012    2    1    2    0    0  0.28774327505E+01 -0.26520094352E+02 -0.17467825191E+02  0.59301953826E+02  0.50000017870E+02 0.  0.
        -12    1    1    2    0    0 -0.28774327505E+01  0.26520094352E+02  0.17467825191E+02  0.31886046174E+02  0.00000000000E+00 0.  1.
         11    1    3    3    0    0 -0.21754978124E+02 -0.20950652092E+02 -0.78445294099E+01  0.31204896061E+02  0.51100000000E-03 0. -1.
        -11    1    3    3    0    0  0.11637822593E+02 -0.16511782342E+00 -0.12131673015E+01  0.11702049127E+02  0.51100000000E-03 0.  1.
        -12    1    3    3    0    0  0.12994588281E+02 -0.54043244366E+01 -0.84101284800E+01  0.16395008639E+02  0.00000000000E+00 0.  1.
</event>
<event>
 7    1  0.1184848E-011  0.5930194E+02  0.7816164E-02  0.1266605E+00
        -11   -1    0    0    0    0  0.00000000000E+00  0.00000000000E+00  0.45593999997E+02  0.45594000000E+02  0.51100000000E-03 0. -1.
         11   -1    0    0    0    0 -0.00000000000E+00 -0.00000000000E+00 -0.45593999997E+02  0.45594000000E+02  0.51100000000E-03 0.  1.
    9900012    2    1    2    0    0 -0.21767960739E+02 -0.23157390139E+02 -0.25713746577E+01  0.59301940344E+02  0.49999993282E+02 0.  0.
        -12    1    1    2    0    0  0.21767960739E+02  0.23157390139E+02  0.25713746577E+01  0.31886059656E+02  0.00000000000E+00 0.  1.
         11    1    3    3    0    0 -0.29320219140E+02 -0.57517342265E+01  0.50113175093E-01  0.29879093169E+02  0.51100000000E-03 0. -1.
        -11    1    3    3    0    0 -0.55554474426E+00 -0.45924340464E+01 -0.11117777927E+02  0.12041763440E+02  0.51100000000E-03 0.  1.
         12    1    3    3    0    0  0.81078031457E+01 -0.12813221866E+02  0.84962900945E+01  0.17381083735E+02  0.00000000000E+00 0. -1.
</event>
<event>
 7    1  0.1184848E-011  0.5930196E+02  0.7816164E-02  0.1266605E+00
        -11   -1    0    0    0    0  0.00000000000E+00  0.00000000000E+00  0.45593999997E+02  0.45594000000E+02  0.51100000000E-03 0. -1.
         11   -1    0    0    0    0 -0.00000000000E+00 -0.00000000000E+00 -0.45593999997E+02  0.45594000000E+02  0.51100000000E-03 0.  1.
    9900012    2    1    2    0    0  0.93310603360E+01  0.27680212725E+02  0.12785023461E+02  0.59301957781E+02  0.50000025083E+02 0.  0.
        -12    1    1    2    0    0 -0.93310603360E+01 -0.27680212725E+02 -0.12785023461E+02  0.31886042219E+02  0.00000000000E+00 0.  1.
         11    1    3    3    0    0  0.14643901215E+02  0.34896840738E+00  0.42600291334E+00  0.14654251959E+02  0.51100000000E-03 0.  1.
        -11    1    3    3    0    0  0.98970433676E+00  0.21166425811E+02  0.22703793287E+02  0.31055745462E+02  0.51100000000E-03 0. -1.
         12    1    3    3    0    0 -0.63025452156E+01  0.61648185065E+01 -0.10344772739E+02  0.13591960361E+02  0.00000000000E+00 0. -1.
</event>
<event>
 7    1  0.1184848E-011  0.5930196E+02  0.7816164E-02  0.1266605E+00
        -11   -1    0    0    0    0  0.00000000000E+00  0.00000000000E+00  0.45593999997E+02  0.45594000000E+02  0.51100000000E-03 0.  1.
         11   -1    0    0    0    0 -0.00000000000E+00 -0.00000000000E+00 -0.45593999997E+02  0.45594000000E+02  0.51100000000E-03 0. -1.
    9900012    2    1    2    0    0  0.13363514749E+02  0.17525590908E+02  0.23043208878E+02  0.59301963267E+02  0.50000035089E+02 0.  0.
        -12    1    1    2    0    0 -0.13363514749E+02 -0.17525590908E+02 -0.23043208878E+02  0.31886036733E+02  0.00000000000E+00 0.  1.
         11    1    3    3    0    0  0.59562477818E+01  0.22775671611E+02  0.63231829751E+00  0.23550115321E+02  0.51100000000E-03 0. -1.
        -11    1    3    3    0    0  0.14465168322E+01  0.46145533080E+01  0.23668736531E+02  0.24157723453E+02  0.51100000000E-03 0.  1.
        -12    1    3    3    0    0  0.59607501349E+01 -0.98646340107E+01 -0.12578459505E+01  0.11594124494E+02  0.00000000000E+00 0.  1.
</event>
<event>
 7    1  0.1184848E-011  0.5930195E+02  0.7816164E-02  0.1266605E+00
        -11   -1    0    0    0    0  0.00000000000E+00  0.00000000000E+00  0.45593999997E+02  0.45594000000E+02  0.51100000000E-03 0.  1.
         11   -1    0    0    0    0 -0.00000000000E+00 -0.00000000000E+00 -0.45593999997E+02  0.45594000000E+02  0.51100000000E-03 0. -1.
    9900012    2    1    2    0    0  0.15092272349E+02 -0.17271053960E+02 -0.22150716123E+02  0.59301949534E+02  0.50000010042E+02 0.  0.
        -12    1    1    2    0    0 -0.15092272349E+02  0.17271053960E+02  0.22150716123E+02  0.31886050466E+02  0.00000000000E+00 0.  1.
         11    1    3    3    0    0 -0.21049704783E+00 -0.17639273090E+02  0.60824940366E+01  0.18659715917E+02  0.51100000000E-03 0. -1.
        -11    1    3    3    0    0 -0.56494182666E+01  0.29664904820E+01 -0.14595741781E+01  0.65457123045E+01  0.51100000000E-03 0.  1.
         12    1    3    3    0    0  0.20952187664E+02 -0.25982713525E+01 -0.26773635982E+02  0.34096521312E+02  0.00000000000E+00 0. -1.
</event>
<event>
 7    1  0.1184848E-011  0.5930194E+02  0.7816164E-02  0.1266605E+00
        -11   -1    0    0    0    0  0.00000000000E+00  0.00000000000E+00  0.45593999997E+02  0.45594000000E+02  0.51100000000E-03 0.  1.
         11   -1    0    0    0    0 -0.00000000000E+00 -0.00000000000E+00 -0.45593999997E+02  0.45594000000E+02  0.51100000000E-03 0. -1.
    9900012    2    1    2    0    0 -0.38364857397E+01 -0.31577517794E+02 -0.22050874694E+01  0.59301942489E+02  0.49999997194E+02 0.  0.
        -12    1    1    2    0    0  0.38364857397E+01  0.31577517794E+02  0.22050874694E+01  0.31886057511E+02  0.00000000000E+00 0.  1.
         11    1    3    3    0    0  0.18957156871E+01 -0.36477588216E+02  0.97770379049E+00  0.36539897167E+02  0.51100000000E-03 0. -1.
        -11    1    3    3    0    0  0.55283474412E+01 -0.48777805942E+01  0.53604879418E+00  0.73920712609E+01  0.51100000000E-03 0.  1.
        -12    1    3    3    0    0 -0.11260548868E+02  0.97778510158E+01 -0.37188400541E+01  0.15369974061E+02  0.00000000000E+00 0.  1.
</event>
<event>
 7    1  0.1184848E-011  0.5930193E+02  0.7816164E-02  0.1266605E+00
        -11   -1    0    0    0    0  0.00000000000E+00  0.00000000000E+00  0.45593999997E+02  0.45594000000E+02  0.51100000000E-03 0.  1.
         11   -1    0    0    0    0 -0.00000000000E+00 -0.00000000000E+00 -0.45593999997E+02  0.45594000000E+02  0.51100000000E-03 0. -1.
    9900012    2    1    2    0    0 -0.22567358385E+02 -0.15764133883E+01 -0.22471102633E+02  0.59301934122E+02  0.49999981934E+02 0.  0.
        -12    1    1    2    0    0  0.22567358385E+02  0.15764133883E+01  0.22471102633E+02  0.31886065878E+02  0.00000000000E+00 0.  1.
         11    1    3    3    0    0  0.38340167089E+01 -0.26010673448E+01 -0.23219526280E+02  0.23677238783E+02  0.51100000000E-03 0. -1.
        -11    1    3    3    0    0 -0.35929528132E+01  0.39128970016E+01 -0.91607295430E+01  0.10589572177E+02  0.51100000000E-03 0.  1.
        -12    1    3    3    0    0 -0.22808422280E+02 -0.28882430451E+01  0.99091531902E+01  0.25035123162E+02  0.00000000000E+00 0.  1.
</event>
<event>
 7    1  0.1184848E-011  0.5930194E+02  0.7816164E-02  0.1266605E+00
        -11   -1    0    0    0    0  0.00000000000E+00  0.00000000000E+00  0.45593999997E+02  0.45594000000E+02  0.51100000000E-03 0. -1.
         11   -1    0    0    0    0 -0.00000000000E+00 -0.00000000000E+00 -0.45593999997E+02  0.45594000000E+02  0.51100000000E-03 0.  1.
    9900012    2    1    2    0    0 -0.41637509693E+01 -0.53566848343E+01  0.31155901356E+02  0.59301935899E+02  0.49999985175E+02 0.  0.
        -12    1    1    2    0    0  0.41637509693E+01  0.53566848343E+01 -0.31155901356E+02  0.31886064101E+02  0.00000000000E+00 0.  1.
         11    1    3    3    0    0 -0.85769548654E+01 -0.18118479387E+02  0.27574594379E+02  0.34091079559E+02  0.51100000000E-03 0. -1.
        -11    1    3    3    0    0  0.76624623964E+00 -0.58905383136E+01  0.55714884407E+00  0.59662375095E+01  0.51100000000E-03 0.  1.
        -12    1    3    3    0    0  0.36469576564E+01  0.18652332867E+02  0.30241581335E+01  0.19244618831E+02  0.00000000000E+00 0.  1.
</event>
<event>
 7    1  0.1299364E-011  0.5930199E+02  0.7816164E-02  0.1266605E+00
        -11   -1    0    0    0    0  0.00000000000E+00  0.00000000000E+00  0.45593999997E+02  0.45594000000E+02  0.51100000000E-03 0.  1.
         11   -1    0    0    0    0 -0.00000000000E+00 -0.00000000000E+00 -0.45593999997E+02  0.45594000000E+02  0.51100000000E-03 0. -1.
    9900012    2    1    2    0    0  0.14206728606E+02 -0.16782107162E+02 -0.23092143133E+02  0.59301994717E+02  0.50000092444E+02 0.  0.
        -12    1    1    2    0    0 -0.14206728606E+02  0.16782107162E+02  0.23092143133E+02  0.31886005283E+02  0.00000000000E+00 0.  1.
         11    1    3    3    0    0  0.86892865241E+00  0.55678230517E+01 -0.23614727176E+01  0.61100117999E+01  0.51100000000E-03 0. -1.
        -11    1    3    3    0    0  0.71215421791E+01 -0.49619658993E+01  0.12474870342E+02  0.15197363551E+02  0.51100000000E-03 0.  1.
         12    1    3    3    0    0  0.62162577742E+01 -0.17387964315E+02 -0.33205540757E+02  0.37994619365E+02  0.00000000000E+00 0. -1.
</event>
<event>
 7    1  0.1184848E-011  0.5930198E+02  0.7816164E-02  0.1266605E+00
        -11   -1    0    0    0    0  0.00000000000E+00  0.00000000000E+00  0.45593999997E+02  0.45594000000E+02  0.51100000000E-03 0. -1.
         11   -1    0    0    0    0 -0.00000000000E+00 -0.00000000000E+00 -0.45593999997E+02  0.45594000000E+02  0.51100000000E-03 0.  1.
    9900012    2    1    2    0    0 -0.24204708938E+02 -0.18703508345E+02 -0.90016122307E+01  0.59301981403E+02  0.50000068164E+02 0.  0.
        -12    1    1    2    0    0  0.24204708938E+02  0.18703508345E+02  0.90016122307E+01  0.31886018597E+02  0.00000000000E+00 0.  1.
         11    1    3    3    0    0 -0.32774877159E+01 -0.50835714414E+01 -0.13159764977E+02  0.14483233024E+02  0.51100000000E-03 0. -1.
        -11    1    3    3    0    0  0.10515183085E+02 -0.65670548636E+01  0.14352520248E+01  0.12480193649E+02  0.51100000000E-03 0.  1.
         12    1    3    3    0    0 -0.31442404307E+02 -0.70528820403E+01  0.27229007211E+01  0.32338554730E+02  0.00000000000E+00 0. -1.
</event>
<event>
 7    1  0.1184848E-011  0.5930195E+02  0.7816164E-02  0.1266605E+00
        -11   -1    0    0    0    0  0.00000000000E+00  0.00000000000E+00  0.45593999997E+02  0.45594000000E+02  0.51100000000E-03 0. -1.
         11   -1    0    0    0    0 -0.00000000000E+00 -0.00000000000E+00 -0.45593999997E+02  0.45594000000E+02  0.51100000000E-03 0.  1.
    9900012    2    1    2    0    0  0.21557452213E+02  0.95813388968E+01  0.21452138052E+02  0.59301952456E+02  0.50000015370E+02 0.  0.
        -12    1    1    2    0    0 -0.21557452213E+02 -0.95813388968E+01 -0.21452138052E+02  0.31886047544E+02  0.00000000000E+00 0.  1.
         11    1    3    3    0    0  0.17615192572E+02 -0.34823450961E+01  0.15151906700E+02  0.23494723101E+02  0.51100000000E-03 0. -1.
        -11    1    3    3    0    0  0.46053235482E+01 -0.10465746998E+02 -0.21943413688E-01  0.11434218250E+02  0.51100000000E-03 0.  1.
         12    1    3    3    0    0 -0.66306390681E+00  0.23529430991E+02  0.63221747661E+01  0.24373011104E+02  0.00000000000E+00 0. -1.
</event>
<event>
 7    1  0.1348678E-011  0.5930193E+02  0.7816164E-02  0.1266605E+00
        -11   -1    0    0    0    0  0.00000000000E+00  0.00000000000E+00  0.45593999997E+02  0.45594000000E+02  0.51100000000E-03 0.  1.
         11   -1    0    0    0    0 -0.00000000000E+00 -0.00000000000E+00 -0.45593999997E+02  0.45594000000E+02  0.51100000000E-03 0. -1.
    9900012    2    1    2    0    0 -0.33635206678E+01  0.30836383781E+02 -0.73841426272E+01  0.59301930968E+02  0.49999976183E+02 0.  0.
        -12    1    1    2    0    0  0.33635206678E+01 -0.30836383781E+02  0.73841426272E+01  0.31886069032E+02  0.00000000000E+00 0.  1.
         11    1    3    3    0    0 -0.22914812011E+01  0.29094355681E+02 -0.25666283574E+01  0.29297098832E+02  0.51100000000E-03 0. -1.
        -11    1    3    3    0    0  0.19886908354E+01  0.10049792428E+01  0.12350834823E+02  0.12550218947E+02  0.51100000000E-03 0.  1.
         12    1    3    3    0    0 -0.30607303020E+01  0.73704885703E+00 -0.17168349093E+02  0.17454613189E+02  0.00000000000E+00 0. -1.
</event>
<event>
 7    1  0.1184848E-011  0.5930179E+02  0.7816164E-02  0.1266605E+00
        -11   -1    0    0    0    0  0.00000000000E+00  0.00000000000E+00  0.45593999997E+02  0.45594000000E+02  0.51100000000E-03 0. -1.
         11   -1    0    0    0    0 -0.00000000000E+00 -0.00000000000E+00 -0.45593999997E+02  0.45594000000E+02  0.51100000000E-03 0.  1.
    9900012    2    1    2    0    0  0.58329458977E+00 -0.48194296247E+01  0.31514495596E+02  0.59301787193E+02  0.49999713971E+02 0.  0.
        -12    1    1    2    0    0 -0.58329458977E+00  0.48194296247E+01 -0.31514495596E+02  0.31886212807E+02  0.00000000000E+00 0.  1.
         11    1    3    3    0    0  0.21927409719E+01  0.25830726865E+01  0.11753370904E+02  0.12232011500E+02  0.51100000000E-03 0. -1.
        -11    1    3    3    0    0  0.68682125049E+01 -0.16246894833E+02  0.27433108779E+02  0.32614557981E+02  0.51100000000E-03 0.  1.
        -12    1    3    3    0    0 -0.84776588870E+01  0.88443925220E+01 -0.76719840869E+01  0.14455217713E+02  0.00000000000E+00 0.  1.
</event>
<event>
 7    1  0.1184848E-011  0.5930194E+02  0.7816164E-02  0.1266605E+00
        -11   -1    0    0    0    0  0.00000000000E+00  0.00000000000E+00  0.45593999997E+02  0.45594000000E+02  0.51100000000E-03 0. -1.
         11   -1    0    0    0    0 -0.00000000000E+00 -0.00000000000E+00 -0.45593999997E+02  0.45594000000E+02  0.51100000000E-03 0.  1.
    9900012    2    1    2    0    0 -0.30934549496E+02 -0.73056315586E+01  0.25302378652E+01  0.59301941783E+02  0.49999995906E+02 0.  0.
        -12    1    1    2    0    0  0.30934549496E+02  0.73056315586E+01 -0.25302378652E+01  0.31886058217E+02  0.00000000000E+00 0.  1.
         11    1    3    3    0    0 -0.40645460267E+01  0.10154903989E+01  0.58191983951E+01  0.71704131942E+01  0.51100000000E-03 0. -1.
        -11    1    3    3    0    0 -0.34285912154E+02  0.69781464024E+01 -0.31346393926E+01  0.35128966165E+02  0.51100000000E-03 0.  1.
         12    1    3    3    0    0  0.74159086847E+01 -0.15299268360E+02 -0.15432113726E+00  0.17002562424E+02  0.00000000000E+00 0. -1.
</event>
<event>
 7    1  0.1184848E-011  0.5930196E+02  0.7816164E-02  0.1266605E+00
        -11   -1    0    0    0    0  0.00000000000E+00  0.00000000000E+00  0.45593999997E+02  0.45594000000E+02  0.51100000000E-03 0.  1.
         11   -1    0    0    0    0 -0.00000000000E+00 -0.00000000000E+00 -0.45593999997E+02  0.45594000000E+02  0.51100000000E-03 0. -1.
    9900012    2    1    2    0    0 -0.20436762723E+02 -0.10062048611E+02 -0.22311738719E+02  0.59301956384E+02  0.50000022535E+02 0.  0.
        -12    1    1    2    0    0  0.20436762723E+02  0.10062048611E+02  0.22311738719E+02  0.31886043616E+02  0.00000000000E+00 0.  1.
         11    1    3    3    0    0  0.12160161097E+01  0.56098322884E+00 -0.57807515451E+01  0.59338424355E+01  0.51100000000E-03 0. -1.
        -11    1    3    3    0    0 -0.19747937684E+02  0.46105042718E+01 -0.27738159645E+02  0.34360490292E+02  0.51100000000E-03 0.  1.
        -12    1    3    3    0    0 -0.19048411487E+01 -0.15233536111E+02  0.11207172471E+02  0.19007623656E+02  0.00000000000E+00 0.  1.
</event>
<event>
 7    1  0.1184848E-011  0.5930188E+02  0.7816164E-02  0.1266605E+00
        -11   -1    0    0    0    0  0.00000000000E+00  0.00000000000E+00  0.45593999997E+02  0.45594000000E+02  0.51100000000E-03 0.  1.
         11   -1    0    0    0    0 -0.00000000000E+00 -0.00000000000E+00 -0.45593999997E+02  0.45594000000E+02  0.51100000000E-03 0. -1.
    9900012    2    1    2    0    0 -0.25072913513E+02 -0.15915599550E+02 -0.11608932529E+02  0.59301880519E+02  0.49999884175E+02 0.  0.
        -12    1    1    2    0    0  0.25072913513E+02  0.15915599550E+02  0.11608932529E+02  0.31886119481E+02  0.00000000000E+00 0.  1.
         11    1    3    3    0    0  0.68802672246E+01 -0.82635410868E+01 -0.63209819840E+00  0.10771431510E+02  0.51100000000E-03 0. -1.
        -11    1    3    3    0    0 -0.34269484301E+01  0.56904239788E+01  0.90376790988E+01  0.11216262495E+02  0.51100000000E-03 0.  1.
         12    1    3    3    0    0 -0.28526232308E+02 -0.13342482442E+02 -0.20014513430E+02  0.37314186514E+02  0.00000000000E+00 0. -1.
</event>
<event>
 7    1  0.1184848E-011  0.5930194E+02  0.7816164E-02  0.1266605E+00
        -11   -1    0    0    0    0  0.00000000000E+00  0.00000000000E+00  0.45593999997E+02  0.45594000000E+02  0.51100000000E-03 0. -1.
         11   -1    0    0    0    0 -0.00000000000E+00 -0.00000000000E+00 -0.45593999997E+02  0.45594000000E+02  0.51100000000E-03 0.  1.
    9900012    2    1    2    0    0 -0.10607833226E+01  0.20261515579E+02  0.24598102317E+02  0.59301938587E+02  0.49999990078E+02 0.  0.
        -12    1    1    2    0    0  0.10607833226E+01 -0.20261515579E+02 -0.24598102317E+02  0.31886061413E+02  0.00000000000E+00 0.  1.
         11    1    3    3    0    0 -0.18112362378E+02  0.48275520340E+01 -0.21442960628E+01  0.18866927026E+02  0.51100000000E-03 0. -1.
        -11    1    3    3    0    0 -0.21134812744E+01  0.61486998674E+01  0.33476236134E+00  0.65104054602E+01  0.51100000000E-03 0.  1.
         12    1    3    3    0    0  0.19165060330E+02  0.92852636780E+01  0.26407636018E+02  0.33924606101E+02  0.00000000000E+00 0. -1.
</event>
<event>
 7    1  0.1184848E-011  0.5930195E+02  0.7816164E-02  0.1266605E+00
        -11   -1    0    0    0    0  0.00000000000E+00  0.00000000000E+00  0.45593999997E+02  0.45594000000E+02  0.51100000000E-03 0.  1.
         11   -1    0    0    0    0 -0.00000000000E+00 -0.00000000000E+00 -0.45593999997E+02  0.45594000000E+02  0.51100000000E-03 0. -1.
    9900012    2    1    2    0    0 -0.27064242922E+02  0.13302492566E+02 -0.10358106956E+02  0.59301953943E+02  0.50000018083E+02 0.  0.
        -12    1    1    2    0    0  0.27064242922E+02 -0.13302492566E+02  0.10358106956E+02  0.31886046057E+02  0.00000000000E+00 0.  1.
         11    1    3    3    0    0 -0.29874306544E+00 -0.75100391576E+01  0.17036139700E+01  0.77066358671E+01  0.51100000000E-03 0. -1.
        -11    1    3    3    0    0 -0.35664134961E+01  0.13606896825E+01  0.12209590448E+02  0.12792375886E+02  0.51100000000E-03 0.  1.
         12    1    3    3    0    0 -0.23199086361E+02  0.19451842042E+02 -0.24271311374E+02  0.38802942190E+02  0.00000000000E+00 0. -1.
</event>
<event>
 7    1  0.1184848E-011  0.5930194E+02  0.7816164E-02  0.1266605E+00
        -11   -1    0    0    0    0  0.00000000000E+00  0.00000000000E+00  0.45593999997E+02  0.45594000000E+02  0.51100000000E-03 0.  1.
         11   -1    0    0    0    0 -0.00000000000E+00 -0.00000000000E+00 -0.45593999997E+02  0.45594000000E+02  0.51100000000E-03 0. -1.
    9900012    2    1    2    0    0 -0.28342639817E+02 -0.80977797677E+01  0.12159001980E+02  0.59301943516E+02  0.49999999066E+02 0.  0.
        -12    1    1    2    0    0  0.28342639817E+02  0.80977797677E+01 -0.12159001980E+02  0.31886056484E+02  0.00000000000E+00 0.  1.
         11    1    3    3    0    0 -0.47148333413E+01 -0.76378992704E+01  0.11518413598E+01  0.90495247102E+01  0.51100000000E-03 0. -1.
        -11    1    3    3    0    0 -0.11421547956E+02 -0.46538023484E+01  0.27010490994E+02  0.29693033830E+02  0.51100000000E-03 0.  1.
         12    1    3    3    0    0 -0.12206258519E+02  0.41939218510E+01 -0.16003330374E+02  0.20559384976E+02  0.00000000000E+00 0. -1.
</event>
<event>
 7    1  0.1184848E-011  0.5930195E+02  0.7816164E-02  0.1266605E+00
        -11   -1    0    0    0    0  0.00000000000E+00  0.00000000000E+00  0.45593999997E+02  0.45594000000E+02  0.51100000000E-03 0.  1.
         11   -1    0    0    0    0 -0.00000000000E+00 -0.00000000000E+00 -0.45593999997E+02  0.45594000000E+02  0.51100000000E-03 0. -1.
    9900012    2    1    2    0    0  0.24916632563E+02  0.16989011300E+02 -0.10356394404E+02  0.59301953078E+02  0.50000016506E+02 0.  0.
        -12    1    1    2    0    0 -0.24916632563E+02 -0.16989011300E+02  0.10356394404E+02  0.31886046922E+02  0.00000000000E+00 0.  1.
         11    1    3    3    0    0  0.71609322553E+01  0.13285178942E+02  0.91248499973E+01  0.17636264288E+02  0.51100000000E-03 0. -1.
        -11    1    3    3    0    0 -0.38369922197E+01  0.61223016212E+01  0.51107632734E+01  0.88501405600E+01  0.51100000000E-03 0.  1.
         12    1    3    3    0    0  0.21592692528E+02 -0.24184692637E+01 -0.24592007675E+02  0.32815548231E+02  0.00000000000E+00 0. -1.
</event>
<event>
 7    1  0.1184848E-011  0.5930195E+02  0.7816164E-02  0.1266605E+00
        -11   -1    0    0    0    0  0.00000000000E+00  0.00000000000E+00  0.45593999997E+02  0.45594000000E+02  0.51100000000E-03 0.  1.
         11   -1    0    0    0    0 -0.00000000000E+00 -0.00000000000E+00 -0.45593999997E+02  0.45594000000E+02  0.51100000000E-03 0. -1.
    9900012    2    1    2    0    0  0.30268485508E+02 -0.70602873228E+01 -0.71198042061E+01  0.59301945306E+02  0.50000002331E+02 0.  0.
        -12    1    1    2    0    0 -0.30268485508E+02  0.70602873228E+01  0.71198042061E+01  0.31886054694E+02  0.00000000000E+00 0.  1.
         11    1    3    3    0    0  0.27486237588E+02  0.55896346303E+01 -0.21432443659E+01  0.28130601997E+02  0.51100000000E-03 0.  1.
        -11    1    3    3    0    0  0.36714907130E+01  0.48885169463E+01  0.74655193480E+01  0.96494259616E+01  0.51100000000E-03 0. -1.
         12    1    3    3    0    0 -0.88924279296E+00 -0.17538438899E+02 -0.12442079188E+02  0.21521917347E+02  0.00000000000E+00 0. -1.
</event>
<event>
 7    1  0.1184848E-011  0.5930193E+02  0.7816164E-02  0.1266605E+00
        -11   -1    0    0    0    0  0.00000000000E+00  0.00000000000E+00  0.45593999997E+02  0.45594000000E+02  0.51100000000E-03 0.  1.
         11   -1    0    0    0    0 -0.00000000000E+00 -0.00000000000E+00 -0.45593999997E+02  0.45594000000E+02  0.51100000000E-03 0. -1.
    9900012    2    1    2    0    0 -0.16577505325E+02  0.16811167936E+02 -0.21431105607E+02  0.59301931918E+02  0.49999977915E+02 0.  0.
        -12    1    1    2    0    0  0.16577505325E+02 -0.16811167936E+02  0.21431105607E+02  0.31886068082E+02  0.00000000000E+00 0.  1.
         11    1    3    3    0    0  0.11590623521E+01  0.19053042410E+02 -0.32972901043E+00  0.19091112385E+02  0.51100000000E-03 0.  1.
        -11    1    3    3    0    0 -0.47721942624E+01  0.54340160584E+01 -0.23826615775E+02  0.24899999762E+02  0.51100000000E-03 0. -1.
         12    1    3    3    0    0 -0.12964373415E+02 -0.76758905325E+01  0.27252391781E+01  0.15310819772E+02  0.00000000000E+00 0. -1.
</event>
<event>
 7    1  0.1184848E-011  0.5930194E+02  0.7816164E-02  0.1266605E+00
        -11   -1    0    0    0    0  0.00000000000E+00  0.00000000000E+00  0.45593999997E+02  0.45594000000E+02  0.51100000000E-03 0. -1.
         11   -1    0    0    0    0 -0.00000000000E+00 -0.00000000000E+00 -0.45593999997E+02  0.45594000000E+02  0.51100000000E-03 0.  1.
    9900012    2    1    2    0    0  0.12926116063E+02  0.28249568125E+02  0.71831909342E+01  0.59301940229E+02  0.49999993072E+02 0.  0.
        -12    1    1    2    0    0 -0.12926116063E+02 -0.28249568125E+02 -0.71831909342E+01  0.31886059771E+02  0.00000000000E+00 0.  1.
         11    1    3    3    0    0  0.68212733425E+01 -0.33967713039E+01 -0.61291545487E+01  0.97792822358E+01  0.51100000000E-03 0. -1.
        -11    1    3    3    0    0  0.12043284906E+01  0.27488460484E+02 -0.68551374746E+01  0.28355930191E+02  0.51100000000E-03 0.  1.
         12    1    3    3    0    0  0.49005142295E+01  0.41578789447E+01  0.20167482957E+02  0.21166727803E+02  0.00000000000E+00 0. -1.
</event>
<event>
 7    1  0.1184848E-011  0.5930205E+02  0.7816164E-02  0.1266604E+00
        -11   -1    0    0    0    0  0.00000000000E+00  0.00000000000E+00  0.45593999997E+02  0.45594000000E+02  0.51100000000E-03 0.  1.
         11   -1    0    0    0    0 -0.00000000000E+00 -0.00000000000E+00 -0.45593999997E+02  0.45594000000E+02  0.51100000000E-03 0. -1.
    9900012    2    1    2    0    0 -0.25444089010E+01 -0.21550041647E+02 -0.23363128445E+02  0.59302045688E+02  0.50000185404E+02 0.  0.
        -12    1    1    2    0    0  0.25444089010E+01  0.21550041647E+02  0.23363128445E+02  0.31885954312E+02  0.00000000000E+00 0.  1.
         11    1    3    3    0    0 -0.92874647279E+01  0.60755649466E+01 -0.14403057141E+01  0.11191245297E+02  0.51100000000E-03 0.  1.
        -11    1    3    3    0    0 -0.82789696929E+01 -0.36465733234E+01 -0.17185493654E+02  0.19421123257E+02  0.51100000000E-03 0. -1.
        -12    1    3    3    0    0  0.15022025520E+02 -0.23979033270E+02 -0.47373290776E+01  0.28689677134E+02  0.00000000000E+00 0.  1.
</event>
<event>
 7    1  0.1184848E-011  0.5930194E+02  0.7816164E-02  0.1266605E+00
        -11   -1    0    0    0    0  0.00000000000E+00  0.00000000000E+00  0.45593999997E+02  0.45594000000E+02  0.51100000000E-03 0.  1.
         11   -1    0    0    0    0 -0.00000000000E+00 -0.00000000000E+00 -0.45593999997E+02  0.45594000000E+02  0.51100000000E-03 0. -1.
    9900012    2    1    2    0    0 -0.53978436859E+01 -0.69665858049E+01 -0.30643932594E+02  0.59301942874E+02  0.49999997896E+02 0.  0.
        -12    1    1    2    0    0  0.53978436859E+01  0.69665858049E+01  0.30643932594E+02  0.31886057126E+02  0.00000000000E+00 0.  1.
         11    1    3    3    0    0 -0.24506327243E+02 -0.36710372967E+01 -0.98723285097E+01  0.26673947219E+02  0.51100000000E-03 0. -1.
        -11    1    3    3    0    0  0.20330636318E+01 -0.73074873962E+01 -0.54750843264E+01  0.93546388716E+01  0.51100000000E-03 0.  1.
        -12    1    3    3    0    0  0.17075419926E+02  0.40119388880E+01 -0.15296519758E+02  0.23273356783E+02  0.00000000000E+00 0.  1.
</event>
<event>
 7    1  0.1184848E-011  0.5930177E+02  0.7816164E-02  0.1266605E+00
        -11   -1    0    0    0    0  0.00000000000E+00  0.00000000000E+00  0.45593999997E+02  0.45594000000E+02  0.51100000000E-03 0.  1.
         11   -1    0    0    0    0 -0.00000000000E+00 -0.00000000000E+00 -0.45593999997E+02  0.45594000000E+02  0.51100000000E-03 0. -1.
    9900012    2    1    2    0    0 -0.21219391345E+02  0.18424229572E+01 -0.23729189231E+02  0.59301772363E+02  0.49999686923E+02 0.  0.
        -12    1    1    2    0    0  0.21219391345E+02 -0.18424229572E+01  0.23729189231E+02  0.31886227637E+02  0.00000000000E+00 0.  1.
         11    1    3    3    0    0 -0.19617789969E+02  0.13293916384E+02 -0.17237460167E+02  0.29303855197E+02  0.51100000000E-03 0. -1.
        -11    1    3    3    0    0 -0.49351989065E+01  0.55949342505E+01  0.51700735072E+01  0.90768462500E+01  0.51100000000E-03 0.  1.
         12    1    3    3    0    0  0.33335975308E+01 -0.17046427678E+02 -0.11661802571E+02  0.20921070916E+02  0.00000000000E+00 0. -1.
</event>
<event>
 7    1  0.1184848E-011  0.5930194E+02  0.7816164E-02  0.1266605E+00
        -11   -1    0    0    0    0  0.00000000000E+00  0.00000000000E+00  0.45593999997E+02  0.45594000000E+02  0.51100000000E-03 0.  1.
         11   -1    0    0    0    0 -0.00000000000E+00 -0.00000000000E+00 -0.45593999997E+02  0.45594000000E+02  0.51100000000E-03 0. -1.
    9900012    2    1    2    0    0  0.20431480665E+02 -0.20413491823E+02 -0.13511659314E+02  0.59301937402E+02  0.49999987917E+02 0.  0.
        -12    1    1    2    0    0 -0.20431480665E+02  0.20413491823E+02  0.13511659314E+02  0.31886062598E+02  0.00000000000E+00 0.  1.
         11    1    3    3    0    0  0.14482626804E+02 -0.18573736518E+02 -0.23887258892E+02  0.33545958102E+02  0.51100000000E-03 0. -1.
        -11    1    3    3    0    0  0.12203735322E+02 -0.32862740761E+01 -0.10166725185E+01  0.12679289270E+02  0.51100000000E-03 0.  1.
        -12    1    3    3    0    0 -0.62548814614E+01  0.14465187706E+01  0.11392272096E+02  0.13076690031E+02  0.00000000000E+00 0.  1.
</event>
<event>
 7    1  0.1184848E-011  0.5930195E+02  0.7816164E-02  0.1266605E+00
        -11   -1    0    0    0    0  0.00000000000E+00  0.00000000000E+00  0.45593999997E+02  0.45594000000E+02  0.51100000000E-03 0. -1.
         11   -1    0    0    0    0 -0.00000000000E+00 -0.00000000000E+00 -0.45593999997E+02  0.45594000000E+02  0.51100000000E-03 0.  1.
    9900012    2    1    2    0    0 -0.22246912363E+02  0.18409395611E+02  0.13523656616E+02  0.59301949058E+02  0.50000009173E+02 0.  0.
        -12    1    1    2    0    0  0.22246912363E+02 -0.18409395611E+02 -0.13523656616E+02  0.31886050942E+02  0.00000000000E+00 0.  1.
         11    1    3    3    0    0 -0.22925809352E+02  0.30331885147E+01 -0.82953102015E+01  0.24568376800E+02  0.51100000000E-03 0.  1.
        -11    1    3    3    0    0  0.45063472863E+01 -0.40563610789E+01  0.12722486611E+01  0.61951471318E+01  0.51100000000E-03 0. -1.
        -12    1    3    3    0    0 -0.38274502970E+01  0.19432568175E+02  0.20546718156E+02  0.28538425126E+02  0.00000000000E+00 0.  1.
</event>
<event>
 7    1  0.1184848E-011  0.5930193E+02  0.7816164E-02  0.1266605E+00
        -11   -1    0    0    0    0  0.00000000000E+00  0.00000000000E+00  0.45593999997E+02  0.45594000000E+02  0.51100000000E-03 0. -1.
         11   -1    0    0    0    0 -0.00000000000E+00 -0.00000000000E+00 -0.45593999997E+02  0.45594000000E+02  0.51100000000E-03 0.  1.
    9900012    2    1    2    0    0 -0.71545065117E+01 -0.25495918229E+02  0.17762110563E+02  0.59301931233E+02  0.49999976666E+02 0.  0.
        -12    1    1    2    0    0  0.71545065117E+01  0.25495918229E+02 -0.17762110563E+02  0.31886068767E+02  0.00000000000E+00 0.  1.
         11    1    3    3    0    0  0.13334008592E+02  0.82858073274E+01  0.74174970052E+01  0.17362881393E+02  0.51100000000E-03 0.  1.
        -11    1    3    3    0    0 -0.38218235681E+01 -0.12233695812E+02  0.66773411726E+01  0.14451869568E+02  0.51100000000E-03 0. -1.
        -12    1    3    3    0    0 -0.16666691535E+02 -0.21548029744E+02  0.36672723851E+01  0.27487180273E+02  0.00000000000E+00 0.  1.
</event>
<event>
 7    1  0.1184848E-011  0.5930202E+02  0.7816164E-02  0.1266604E+00
        -11   -1    0    0    0    0  0.00000000000E+00  0.00000000000E+00  0.45593999997E+02  0.45594000000E+02  0.51100000000E-03 0.  1.
         11   -1    0    0    0    0 -0.00000000000E+00 -0.00000000000E+00 -0.45593999997E+02  0.45594000000E+02  0.51100000000E-03 0. -1.
    9900012    2    1    2    0    0 -0.74970450351E+01 -0.24670198724E+02 -0.18758767768E+02  0.59302019421E+02  0.50000137499E+02 0.  0.
        -12    1    1    2    0    0  0.74970450351E+01  0.24670198724E+02  0.18758767768E+02  0.31885980579E+02  0.00000000000E+00 0.  1.
         11    1    3    3    0    0  0.11460315271E+02  0.28997703569E+01 -0.14179359516E+02  0.18460816092E+02  0.51100000000E-03 0. -1.
        -11    1    3    3    0    0  0.66680408901E+00 -0.58450384559E+00  0.58234943099E+01  0.58906161543E+01  0.51100000000E-03 0.  1.
         12    1    3    3    0    0 -0.19624164395E+02 -0.26985465235E+02 -0.10402902562E+02  0.34950587175E+02  0.00000000000E+00 0. -1.
</event>
<event>
 7    1  0.1184848E-011  0.5930192E+02  0.7816164E-02  0.1266605E+00
        -11   -1    0    0    0    0  0.00000000000E+00  0.00000000000E+00  0.45593999997E+02  0.45594000000E+02  0.51100000000E-03 0.  1.
         11   -1    0    0    0    0 -0.00000000000E+00 -0.00000000000E+00 -0.45593999997E+02  0.45594000000E+02  0.51100000000E-03 0. -1.
    9900012    2    1    2    0    0  0.19118519840E+02 -0.13206854875E+02 -0.21835364962E+02  0.59301921853E+02  0.49999959559E+02 0.  0.
        -12    1    1    2    0    0 -0.19118519840E+02  0.13206854875E+02  0.21835364962E+02  0.31886078147E+02  0.00000000000E+00 0.  1.
         11    1    3    3    0    0 -0.64963403339E+01 -0.59984214655E+01 -0.16676936375E+00  0.88437158533E+01  0.51100000000E-03 0. -1.
        -11    1    3    3    0    0  0.26143466222E+02  0.70438197865E+01 -0.34099967366E+01  0.27289637251E+02  0.51100000000E-03 0.  1.
         12    1    3    3    0    0 -0.52860604782E+00 -0.14252253195E+02 -0.18258598862E+02  0.23168568750E+02  0.00000000000E+00 0. -1.
</event>
<event>
 7    1  0.1184848E-011  0.5930191E+02  0.7816164E-02  0.1266605E+00
        -11   -1    0    0    0    0  0.00000000000E+00  0.00000000000E+00  0.45593999997E+02  0.45594000000E+02  0.51100000000E-03 0. -1.
         11   -1    0    0    0    0 -0.00000000000E+00 -0.00000000000E+00 -0.45593999997E+02  0.45594000000E+02  0.51100000000E-03 0.  1.
    9900012    2    1    2    0    0 -0.40111556684E+01 -0.12222150003E+02  0.29176227807E+02  0.59301912288E+02  0.49999942115E+02 0.  0.
        -12    1    1    2    0    0  0.40111556684E+01  0.12222150003E+02 -0.29176227807E+02  0.31886087712E+02  0.00000000000E+00 0.  1.
         11    1    3    3    0    0  0.10030174504E+02 -0.95777355974E+01  0.33627774869E+02  0.36375330413E+02  0.51100000000E-03 0. -1.
        -11    1    3    3    0    0 -0.65113567373E+01  0.35825260438E+01  0.52952157179E+01  0.91253257024E+01  0.51100000000E-03 0.  1.
        -12    1    3    3    0    0 -0.75299734348E+01 -0.62269404492E+01 -0.97467627791E+01  0.13801256173E+02  0.00000000000E+00 0.  1.
</event>
<event>
 7    1  0.1184848E-011  0.5930194E+02  0.7816164E-02  0.1266605E+00
        -11   -1    0    0    0    0  0.00000000000E+00  0.00000000000E+00  0.45593999997E+02  0.45594000000E+02  0.51100000000E-03 0. -1.
         11   -1    0    0    0    0 -0.00000000000E+00 -0.00000000000E+00 -0.45593999997E+02  0.45594000000E+02  0.51100000000E-03 0.  1.
    9900012    2    1    2    0    0  0.49180458590E+01 -0.47647178119E+01  0.31142108646E+02  0.59301942830E+02  0.49999997816E+02 0.  0.
        -12    1    1    2    0    0 -0.49180458590E+01  0.47647178119E+01 -0.31142108646E+02  0.31886057170E+02  0.00000000000E+00 0.  1.
         11    1    3    3    0    0 -0.11498125980E+02 -0.12949810690E+02  0.12933609040E+02  0.21614410494E+02  0.51100000000E-03 0. -1.
        -11    1    3    3    0    0  0.34881112099E+01  0.63838505776E+00 -0.72973385712E+01  0.81132980827E+01  0.51100000000E-03 0.  1.
         12    1    3    3    0    0  0.12928060629E+02  0.75467078200E+01  0.25505838178E+02  0.29574234254E+02  0.00000000000E+00 0. -1.
</event>
<event>
 7    1  0.1184848E-011  0.5930196E+02  0.7816164E-02  0.1266605E+00
        -11   -1    0    0    0    0  0.00000000000E+00  0.00000000000E+00  0.45593999997E+02  0.45594000000E+02  0.51100000000E-03 0. -1.
         11   -1    0    0    0    0 -0.00000000000E+00 -0.00000000000E+00 -0.45593999997E+02  0.45594000000E+02  0.51100000000E-03 0.  1.
    9900012    2    1    2    0    0 -0.74735170862E+01 -0.23580351270E+02  0.20120459592E+02  0.59301963592E+02  0.50000035680E+02 0.  0.
        -12    1    1    2    0    0  0.74735170862E+01  0.23580351270E+02 -0.20120459592E+02  0.31886036408E+02  0.00000000000E+00 0.  1.
         11    1    3    3    0    0 -0.26710630681E+01  0.66740660006E+01  0.72104154626E+01  0.10181739846E+02  0.51100000000E-03 0. -1.
        -11    1    3    3    0    0 -0.12056146043E+02  0.11738920725E+01 -0.39293182438E+01  0.12734528736E+02  0.51100000000E-03 0.  1.
         12    1    3    3    0    0  0.72536920252E+01 -0.31428309343E+02  0.16839362373E+02  0.36385695009E+02  0.00000000000E+00 0. -1.
</event>
<event>
 7    1  0.1184848E-011  0.5930194E+02  0.7816164E-02  0.1266605E+00
        -11   -1    0    0    0    0  0.00000000000E+00  0.00000000000E+00  0.45593999997E+02  0.45594000000E+02  0.51100000000E-03 0. -1.
         11   -1    0    0    0    0 -0.00000000000E+00 -0.00000000000E+00 -0.45593999997E+02  0.45594000000E+02  0.51100000000E-03 0.  1.
    9900012    2    1    2    0    0  0.20451769724E+02 -0.22732502871E+02  0.90376543568E+01  0.59301940853E+02  0.49999994210E+02 0.  0.
        -12    1    1    2    0    0 -0.20451769724E+02  0.22732502871E+02 -0.90376543568E+01  0.31886059147E+02  0.00000000000E+00 0.  1.
         11    1    3    3    0    0  0.62590038194E+01 -0.16987798431E+02  0.18415547121E+02  0.25824267663E+02  0.51100000000E-03 0. -1.
        -11    1    3    3    0    0  0.12010135856E+02  0.99614334241E+01 -0.12360580586E+01  0.15652519252E+02  0.51100000000E-03 0.  1.
        -12    1    3    3    0    0  0.21826300494E+01 -0.15706137865E+02 -0.81418347051E+01  0.17825153938E+02  0.00000000000E+00 0.  1.
</event>
<event>
 7    1  0.1184848E-011  0.5930197E+02  0.7816164E-02  0.1266605E+00
        -11   -1    0    0    0    0  0.00000000000E+00  0.00000000000E+00  0.45593999997E+02  0.45594000000E+02  0.51100000000E-03 0.  1.
         11   -1    0    0    0    0 -0.00000000000E+00 -0.00000000000E+00 -0.45593999997E+02  0.45594000000E+02  0.51100000000E-03 0. -1.
    9900012    2    1    2    0    0  0.27597096631E+01  0.17994061559E+02 -0.26178548406E+02  0.59301974135E+02  0.50000054908E+02 0.  0.
        -12    1    1    2    0    0 -0.27597096631E+01 -0.17994061559E+02  0.26178548406E+02  0.31886025865E+02  0.00000000000E+00 0.  1.
         11    1    3    3    0    0 -0.50870730354E-01  0.16995147968E+02 -0.18664834884E+02  0.25243092199E+02  0.51100000000E-03 0. -1.
        -11    1    3    3    0    0  0.67719955051E+01  0.63591526757E+00 -0.19910090558E+02  0.21039867339E+02  0.51100000000E-03 0.  1.
        -12    1    3    3    0    0 -0.39614151116E+01  0.36299832367E+00  0.12396377035E+02  0.13019014597E+02  0.00000000000E+00 0.  1.
</event>
<event>
 7    1  0.1184848E-011  0.5930229E+02  0.7816164E-02  0.1266604E+00
        -11   -1    0    0    0    0  0.00000000000E+00  0.00000000000E+00  0.45593999997E+02  0.45594000000E+02  0.51100000000E-03 0.  1.
         11   -1    0    0    0    0 -0.00000000000E+00 -0.00000000000E+00 -0.45593999997E+02  0.45594000000E+02  0.51100000000E-03 0. -1.
    9900012    2    1    2    0    0  0.29399951304E+02  0.10487150355E+02  0.65085284616E+01  0.59302291571E+02  0.50000633832E+02 0.  0.
        -12    1    1    2    0    0 -0.29399951304E+02 -0.10487150355E+02 -0.65085284616E+01  0.31885708429E+02  0.00000000000E+00 0.  1.
         11    1    3    3    0    0 -0.13621034715E+01  0.47261374901E+01 -0.95163070256E+01  0.10712226711E+02  0.51100000000E-03 0. -1.
        -11    1    3    3    0    0 -0.59765767073E+01 -0.41082673568E+01 -0.14762444800E+00  0.72539039870E+01  0.51100000000E-03 0.  1.
        -12    1    3    3    0    0  0.36738631483E+02  0.98692802220E+01  0.16172459935E+02  0.41336160873E+02  0.00000000000E+00 0.  1.
</event>
<event>
 7    1  0.1184848E-011  0.5930193E+02  0.7816164E-02  0.1266605E+00
        -11   -1    0    0    0    0  0.00000000000E+00  0.00000000000E+00  0.45593999997E+02  0.45594000000E+02  0.51100000000E-03 0.  1.
         11   -1    0    0    0    0 -0.00000000000E+00 -0.00000000000E+00 -0.45593999997E+02  0.45594000000E+02  0.51100000000E-03 0. -1.
    9900012    2    1    2    0    0 -0.21303858283E+02  0.99125087246E+01 -0.21554796354E+02  0.59301930113E+02  0.49999974623E+02 0.  0.
        -12    1    1    2    0    0  0.21303858283E+02 -0.99125087246E+01  0.21554796354E+02  0.31886069887E+02  0.00000000000E+00 0.  1.
         11    1    3    3    0    0 -0.10943017141E+02 -0.10555906978E+01 -0.13666193116E+02  0.17539348061E+02  0.51100000000E-03 0. -1.
        -11    1    3    3    0    0 -0.15798297682E+02  0.52616502716E+00  0.11173922801E+02  0.19357675747E+02  0.51100000000E-03 0.  1.
         12    1    3    3    0    0  0.54374565407E+01  0.10441934395E+02 -0.19062526039E+02  0.22404906305E+02  0.00000000000E+00 0. -1.
</event>
<event>
 7    1  0.1184848E-011  0.5930195E+02  0.7816164E-02  0.1266605E+00
        -11   -1    0    0    0    0  0.00000000000E+00  0.00000000000E+00  0.45593999997E+02  0.45594000000E+02  0.51100000000E-03 0.  1.
         11   -1    0    0    0    0 -0.00000000000E+00 -0.00000000000E+00 -0.45593999997E+02  0.45594000000E+02  0.51100000000E-03 0. -1.
    9900012    2    1    2    0    0 -0.11942713671E+02  0.11396114137E+02 -0.27280407343E+02  0.59301945806E+02  0.50000003243E+02 0.  0.
        -12    1    1    2    0    0  0.11942713671E+02 -0.11396114137E+02  0.27280407343E+02  0.31886054194E+02  0.00000000000E+00 0.  1.
         11    1    3    3    0    0  0.45258461186E+01  0.82758204654E+01 -0.10396073480E+02  0.14037479529E+02  0.51100000000E-03 0.  1.
        -11    1    3    3    0    0 -0.73169344312E+01  0.18706109225E+02 -0.18250077887E+02  0.27138927667E+02  0.51100000000E-03 0. -1.
        -12    1    3    3    0    0 -0.91516253580E+01 -0.15585815553E+02  0.13657440234E+01  0.18125538610E+02  0.00000000000E+00 0.  1.
</event>
<event>
 7    1  0.1184848E-011  0.5930193E+02  0.7816164E-02  0.1266605E+00
        -11   -1    0    0    0    0  0.00000000000E+00  0.00000000000E+00  0.45593999997E+02  0.45594000000E+02  0.51100000000E-03 0.  1.
         11   -1    0    0    0    0 -0.00000000000E+00 -0.00000000000E+00 -0.45593999997E+02  0.45594000000E+02  0.51100000000E-03 0. -1.
    9900012    2    1    2    0    0  0.49319441895E+01  0.11209404169E+02 -0.29440556235E+02  0.59301934599E+02  0.49999982805E+02 0.  0.
        -12    1    1    2    0    0 -0.49319441895E+01 -0.11209404169E+02  0.29440556235E+02  0.31886065401E+02  0.00000000000E+00 0.  1.
         11    1    3    3    0    0 -0.25098076773E+01  0.25146043669E+01 -0.34901786249E+01  0.49803330003E+01  0.51100000000E-03 0. -1.
        -11    1    3    3    0    0 -0.32047937859E+01 -0.14963559161E+02  0.28425544821E+01  0.15564669037E+02  0.51100000000E-03 0.  1.
         12    1    3    3    0    0  0.10646545653E+02  0.23658358963E+02 -0.28792932092E+02  0.38756932562E+02  0.00000000000E+00 0. -1.
</event>
<event>
 7    1  0.1184848E-011  0.5930197E+02  0.7816164E-02  0.1266605E+00
        -11   -1    0    0    0    0  0.00000000000E+00  0.00000000000E+00  0.45593999997E+02  0.45594000000E+02  0.51100000000E-03 0. -1.
         11   -1    0    0    0    0 -0.00000000000E+00 -0.00000000000E+00 -0.45593999997E+02  0.45594000000E+02  0.51100000000E-03 0.  1.
    9900012    2    1    2    0    0  0.18481850864E+02  0.13028031371E+02 -0.22481338409E+02  0.59301968742E+02  0.50000045072E+02 0.  0.
        -12    1    1    2    0    0 -0.18481850864E+02 -0.13028031371E+02  0.22481338409E+02  0.31886031258E+02  0.00000000000E+00 0.  1.
         11    1    3    3    0    0  0.20730193736E+02  0.15142020260E+02 -0.50156336216E+01  0.26156801998E+02  0.51100000000E-03 0. -1.
        -11    1    3    3    0    0  0.14315988135E+01  0.76392000767E+00  0.75370358518E+01  0.77097314242E+01  0.51100000000E-03 0.  1.
        -12    1    3    3    0    0 -0.36799416855E+01 -0.28779088970E+01 -0.25002740639E+02  0.25435435319E+02  0.00000000000E+00 0.  1.
</event>
<event>
 7    1  0.1184848E-011  0.5930195E+02  0.7816164E-02  0.1266605E+00
        -11   -1    0    0    0    0  0.00000000000E+00  0.00000000000E+00  0.45593999997E+02  0.45594000000E+02  0.51100000000E-03 0.  1.
         11   -1    0    0    0    0 -0.00000000000E+00 -0.00000000000E+00 -0.45593999997E+02  0.45594000000E+02  0.51100000000E-03 0. -1.
    9900012    2    1    2    0    0 -0.12997275625E+02 -0.28908786123E+02  0.34746791992E+01  0.59301945300E+02  0.50000002321E+02 0.  0.
        -12    1    1    2    0    0  0.12997275625E+02  0.28908786123E+02 -0.34746791992E+01  0.31886054700E+02  0.00000000000E+00 0.  1.
         11    1    3    3    0    0 -0.23315397798E+01 -0.17075933469E+02  0.21160437250E+02  0.27290798568E+02  0.51100000000E-03 0. -1.
        -11    1    3    3    0    0 -0.14392323221E+02 -0.12724658326E+01 -0.54966476785E+01  0.15458695707E+02  0.51100000000E-03 0.  1.
        -12    1    3    3    0    0  0.37265873755E+01 -0.10560386821E+02 -0.12189110373E+02  0.16552451026E+02  0.00000000000E+00 0.  1.
</event>
<event>
 7    1  0.1184848E-011  0.5930193E+02  0.7816164E-02  0.1266605E+00
        -11   -1    0    0    0    0  0.00000000000E+00  0.00000000000E+00  0.45593999997E+02  0.45594000000E+02  0.51100000000E-03 0.  1.
         11   -1    0    0    0    0 -0.00000000000E+00 -0.00000000000E+00 -0.45593999997E+02  0.45594000000E+02  0.51100000000E-03 0. -1.
    9900012    2    1    2    0    0 -0.86220843231E+01  0.27947197804E+02 -0.12701780732E+02  0.59301930362E+02  0.49999975077E+02 0.  0.
        -12    1    1    2    0    0  0.86220843231E+01 -0.27947197804E+02  0.12701780732E+02  0.31886069638E+02  0.00000000000E+00 0.  1.
         11    1    3    3    0    0 -0.10378177740E+02  0.82147304388E+01 -0.30097924422E+00  0.13239295984E+02  0.51100000000E-03 0. -1.
        -11    1    3    3    0    0  0.12711062279E+02 -0.68808633450E+01 -0.91334928639E+01  0.17097896853E+02  0.51100000000E-03 0.  1.
         12    1    3    3    0    0 -0.10954968862E+02  0.26613330710E+02 -0.32673086241E+01  0.28964737525E+02  0.00000000000E+00 0. -1.
</event>
<event>
 7    1  0.1184848E-011  0.5930194E+02  0.7816164E-02  0.1266605E+00
        -11   -1    0    0    0    0  0.00000000000E+00  0.00000000000E+00  0.45593999997E+02  0.45594000000E+02  0.51100000000E-03 0.  1.
         11   -1    0    0    0    0 -0.00000000000E+00 -0.00000000000E+00 -0.45593999997E+02  0.45594000000E+02  0.51100000000E-03 0. -1.
    9900012    2    1    2    0    0  0.61693755730E+01  0.15236952825E+02 -0.27322053091E+02  0.59301944874E+02  0.50000001544E+02 0.  0.
        -12    1    1    2    0    0 -0.61693755730E+01 -0.15236952825E+02  0.27322053091E+02  0.31886055126E+02  0.00000000000E+00 0.  1.
         11    1    3    3    0    0  0.14027109614E+02  0.73902876354E+01  0.17518316727E+00  0.15855814229E+02  0.51100000000E-03 0. -1.
        -11    1    3    3    0    0 -0.34779736157E+01 -0.58562358034E+01 -0.28231571662E+02  0.29041581173E+02  0.51100000000E-03 0.  1.
         12    1    3    3    0    0 -0.43797604257E+01  0.13702900993E+02  0.73433540342E+00  0.14404549472E+02  0.00000000000E+00 0. -1.
</event>
<event>
 7    1  0.1184848E-011  0.5930194E+02  0.7816164E-02  0.1266605E+00
        -11   -1    0    0    0    0  0.00000000000E+00  0.00000000000E+00  0.45593999997E+02  0.45594000000E+02  0.51100000000E-03 0. -1.
         11   -1    0    0    0    0 -0.00000000000E+00 -0.00000000000E+00 -0.45593999997E+02  0.45594000000E+02  0.51100000000E-03 0.  1.
    9900012    2    1    2    0    0 -0.28281000023E+02 -0.14238500153E+02  0.37643965402E+01  0.59301944581E+02  0.50000001008E+02 0.  0.
        -12    1    1    2    0    0  0.28281000023E+02  0.14238500153E+02 -0.37643965402E+01  0.31886055419E+02  0.00000000000E+00 0.  1.
         11    1    3    3    0    0 -0.49993842970E+01 -0.88886149966E+01 -0.30155946830E+01  0.10634619479E+02  0.51100000000E-03 0. -1.
        -11    1    3    3    0    0 -0.73517780468E+01 -0.19737996161E+02  0.14810583005E+02  0.25748601945E+02  0.51100000000E-03 0.  1.
         12    1    3    3    0    0 -0.15929837679E+02  0.14388111005E+02 -0.80305917821E+01  0.22918723157E+02  0.00000000000E+00 0. -1.
</event>
<event>
 7    1  0.1184848E-011  0.5930208E+02  0.7816164E-02  0.1266604E+00
        -11   -1    0    0    0    0  0.00000000000E+00  0.00000000000E+00  0.45593999997E+02  0.45594000000E+02  0.51100000000E-03 0.  1.
         11   -1    0    0    0    0 -0.00000000000E+00 -0.00000000000E+00 -0.45593999997E+02  0.45594000000E+02  0.51100000000E-03 0. -1.
    9900012    2    1    2    0    0 -0.16593289311E+02  0.19516051540E+02  0.18986797509E+02  0.59302078381E+02  0.50000245028E+02 0.  0.
        -12    1    1    2    0    0  0.16593289311E+02 -0.19516051540E+02 -0.18986797509E+02  0.31885921619E+02  0.00000000000E+00 0.  1.
         11    1    3    3    0    0 -0.82403004455E+01 -0.10066145984E+02  0.16089098915E+02  0.20690310547E+02  0.51100000000E-03 0. -1.
        -11    1    3    3    0    0 -0.86668874919E+00  0.37898725279E+01  0.10086226209E+02  0.10809544050E+02  0.51100000000E-03 0.  1.
         12    1    3    3    0    0 -0.74863001158E+01  0.25792324996E+02 -0.71885276147E+01  0.27802223785E+02  0.00000000000E+00 0. -1.
</event>
<event>
 7    1  0.1184848E-011  0.5930202E+02  0.7816164E-02  0.1266605E+00
        -11   -1    0    0    0    0  0.00000000000E+00  0.00000000000E+00  0.45593999997E+02  0.45594000000E+02  0.51100000000E-03 0.  1.
         11   -1    0    0    0    0 -0.00000000000E+00 -0.00000000000E+00 -0.45593999997E+02  0.45594000000E+02  0.51100000000E-03 0. -1.
    9900012    2    1    2    0    0  0.49237080004E+01  0.27763851006E+02  0.14887634851E+02  0.59302015703E+02  0.50000130718E+02 0.  0.
        -12    1    1    2    0    0 -0.49237080004E+01 -0.27763851006E+02 -0.14887634851E+02  0.31885984297E+02  0.00000000000E+00 0.  1.
         11    1    3    3    0    0 -0.17162398932E+01  0.36046614447E+01  0.22908806785E+02  0.23254085492E+02  0.51100000000E-03 0. -1.
        -11    1    3    3    0    0  0.81293815300E+01  0.72453461876E+01  0.73553222206E+01  0.13140877089E+02  0.51100000000E-03 0.  1.
         12    1    3    3    0    0 -0.14894336364E+01  0.16913843373E+02 -0.15376494155E+02  0.22907053121E+02  0.00000000000E+00 0. -1.
</event>
<event>
 7    1  0.1184848E-011  0.5930194E+02  0.7816164E-02  0.1266605E+00
        -11   -1    0    0    0    0  0.00000000000E+00  0.00000000000E+00  0.45593999997E+02  0.45594000000E+02  0.51100000000E-03 0.  1.
         11   -1    0    0    0    0 -0.00000000000E+00 -0.00000000000E+00 -0.45593999997E+02  0.45594000000E+02  0.51100000000E-03 0. -1.
    9900012    2    1    2    0    0  0.30223645271E+02 -0.56534608332E+01 -0.84433636930E+01  0.59301941239E+02  0.49999994915E+02 0.  0.
        -12    1    1    2    0    0 -0.30223645271E+02  0.56534608332E+01  0.84433636930E+01  0.31886058761E+02  0.00000000000E+00 0.  1.
         11    1    3    3    0    0  0.14847229597E+01  0.10405055247E+02  0.13523443871E+01  0.10597094534E+02  0.51100000000E-03 0. -1.
        -11    1    3    3    0    0  0.28915530472E+02  0.18695775866E+01 -0.16799377838E+01  0.29024565700E+02  0.51100000000E-03 0.  1.
         12    1    3    3    0    0 -0.17660816134E+00 -0.17928093667E+02 -0.81157702963E+01  0.19680281006E+02  0.00000000000E+00 0. -1.
</event>
<event>
 7    1  0.1184848E-011  0.5930193E+02  0.7816164E-02  0.1266605E+00
        -11   -1    0    0    0    0  0.00000000000E+00  0.00000000000E+00  0.45593999997E+02  0.45594000000E+02  0.51100000000E-03 0. -1.
         11   -1    0    0    0    0 -0.00000000000E+00 -0.00000000000E+00 -0.45593999997E+02  0.45594000000E+02  0.51100000000E-03 0.  1.
    9900012    2    1    2    0    0  0.38072706096E+01  0.29882565277E+02  0.10452665734E+02  0.59301933482E+02  0.49999980767E+02 0.  0.
        -12    1    1    2    0    0 -0.38072706096E+01 -0.29882565277E+02 -0.10452665734E+02  0.31886066518E+02  0.00000000000E+00 0.  1.
         11    1    3    3    0    0 -0.40513909715E+01  0.55851536355E+01  0.17935136516E+02  0.19216577012E+02  0.51100000000E-03 0. -1.
        -11    1    3    3    0    0  0.19361593723E+02  0.13524785262E+02 -0.47513676051E+01  0.24090799535E+02  0.51100000000E-03 0.  1.
         12    1    3    3    0    0 -0.11502932142E+02  0.10772626380E+02 -0.27311031773E+01  0.15994556935E+02  0.00000000000E+00 0. -1.
</event>
<event>
 7    1  0.1184848E-011  0.5930201E+02  0.7816164E-02  0.1266605E+00
        -11   -1    0    0    0    0  0.00000000000E+00  0.00000000000E+00  0.45593999997E+02  0.45594000000E+02  0.51100000000E-03 0.  1.
         11   -1    0    0    0    0 -0.00000000000E+00 -0.00000000000E+00 -0.45593999997E+02  0.45594000000E+02  0.51100000000E-03 0. -1.
    9900012    2    1    2    0    0 -0.46437707902E+01  0.23995639015E+02 -0.20478299870E+02  0.59302014607E+02  0.50000128720E+02 0.  0.
        -12    1    1    2    0    0  0.46437707902E+01 -0.23995639015E+02  0.20478299870E+02  0.31885985393E+02  0.00000000000E+00 0.  1.
         11    1    3    3    0    0 -0.76941197477E+01  0.11225103671E+02 -0.82908582825E+01  0.15935518895E+02  0.51100000000E-03 0. -1.
        -11    1    3    3    0    0 -0.96121285678E+01  0.23074727676E+02 -0.48263765320E+01  0.25458397114E+02  0.51100000000E-03 0.  1.
        -12    1    3    3    0    0  0.12662477525E+02 -0.10304192332E+02 -0.73610650551E+01  0.17908098599E+02  0.00000000000E+00 0.  1.
</event>
<event>
 7    1  0.1184848E-011  0.5930209E+02  0.7816164E-02  0.1266604E+00
        -11   -1    0    0    0    0  0.00000000000E+00  0.00000000000E+00  0.45593999997E+02  0.45594000000E+02  0.51100000000E-03 0.  1.
         11   -1    0    0    0    0 -0.00000000000E+00 -0.00000000000E+00 -0.45593999997E+02  0.45594000000E+02  0.51100000000E-03 0. -1.
    9900012    2    1    2    0    0 -0.18701702694E+02  0.10965045812E+02 -0.23382159834E+02  0.59302089133E+02  0.50000264637E+02 0.  0.
        -12    1    1    2    0    0  0.18701702694E+02 -0.10965045812E+02  0.23382159834E+02  0.31885910867E+02  0.00000000000E+00 0.  1.
         11    1    3    3    0    0  0.17087501737E+01 -0.11416189619E+02 -0.92818726533E+01  0.14812237265E+02  0.51100000000E-03 0. -1.
        -11    1    3    3    0    0 -0.12291415512E+02 -0.32045542180E+00  0.54502433070E+01  0.13449414089E+02  0.51100000000E-03 0.  1.
         12    1    3    3    0    0 -0.81190373557E+01  0.22701690853E+02 -0.19550530488E+02  0.31040437779E+02  0.00000000000E+00 0. -1.
</event>
<event>
 7    1  0.1184848E-011  0.5930194E+02  0.7816164E-02  0.1266605E+00
        -11   -1    0    0    0    0  0.00000000000E+00  0.00000000000E+00  0.45593999997E+02  0.45594000000E+02  0.51100000000E-03 0. -1.
         11   -1    0    0    0    0 -0.00000000000E+00 -0.00000000000E+00 -0.45593999997E+02  0.45594000000E+02  0.51100000000E-03 0.  1.
    9900012    2    1    2    0    0 -0.24582291619E+02  0.19387847254E+02 -0.60450746733E+01  0.59301943327E+02  0.49999998722E+02 0.  0.
        -12    1    1    2    0    0  0.24582291619E+02 -0.19387847254E+02  0.60450746733E+01  0.31886056673E+02  0.00000000000E+00 0.  1.
         11    1    3    3    0    0 -0.29868154289E+02  0.55332578999E+01 -0.50118118082E+01  0.30787040155E+02  0.51100000000E-03 0. -1.
        -11    1    3    3    0    0 -0.55120974050E+01 -0.45044838475E+01 -0.11777932516E+01  0.72153163298E+01  0.51100000000E-03 0.  1.
         12    1    3    3    0    0  0.10797960076E+02  0.18359073201E+02  0.14453038658E+00  0.21299586842E+02  0.00000000000E+00 0. -1.
</event>
<event>
 7    1  0.1184848E-011  0.5930194E+02  0.7816164E-02  0.1266605E+00
        -11   -1    0    0    0    0  0.00000000000E+00  0.00000000000E+00  0.45593999997E+02  0.45594000000E+02  0.51100000000E-03 0.  1.
         11   -1    0    0    0    0 -0.00000000000E+00 -0.00000000000E+00 -0.45593999997E+02  0.45594000000E+02  0.51100000000E-03 0. -1.
    9900012    2    1    2    0    0 -0.27319502318E+02  0.37739319461E+01 -0.16003847288E+02  0.59301938825E+02  0.49999990511E+02 0.  0.
        -12    1    1    2    0    0  0.27319502318E+02 -0.37739319461E+01  0.16003847288E+02  0.31886061175E+02  0.00000000000E+00 0.  1.
         11    1    3    3    0    0 -0.90124949321E+01  0.65681967568E+01  0.84117318830E+01  0.13968661606E+02  0.51100000000E-03 0. -1.
        -11    1    3    3    0    0 -0.16076355886E+02 -0.32085671154E+01  0.39617980424E+01  0.16865348069E+02  0.51100000000E-03 0.  1.
         12    1    3    3    0    0 -0.22306514996E+01  0.41430230468E+00 -0.28377377214E+02  0.28467929149E+02  0.00000000000E+00 0. -1.
</event>
<event>
 7    1  0.1184848E-011  0.5930195E+02  0.7816164E-02  0.1266605E+00
        -11   -1    0    0    0    0  0.00000000000E+00  0.00000000000E+00  0.45593999997E+02  0.45594000000E+02  0.51100000000E-03 0. -1.
         11   -1    0    0    0    0 -0.00000000000E+00 -0.00000000000E+00 -0.45593999997E+02  0.45594000000E+02  0.51100000000E-03 0.  1.
    9900012    2    1    2    0    0 -0.28728981838E+02  0.79324596619E+01  0.11333210055E+02  0.59301953461E+02  0.50000017204E+02 0.  0.
        -12    1    1    2    0    0  0.28728981838E+02 -0.79324596619E+01 -0.11333210055E+02  0.31886046539E+02  0.00000000000E+00 0.  1.
         11    1    3    3    0    0 -0.15785776564E+02 -0.18080907469E+02  0.29761647861E+01  0.24186101665E+02  0.51100000000E-03 0. -1.
        -11    1    3    3    0    0  0.11949728046E+01 -0.16617367099E+01  0.29209260261E+01  0.35666704372E+01  0.51100000000E-03 0.  1.
         12    1    3    3    0    0 -0.14138178078E+02  0.27675103841E+02  0.54361192430E+01  0.31549181359E+02  0.00000000000E+00 0. -1.
</event>
<event>
 7    1  0.1184848E-011  0.5930194E+02  0.7816164E-02  0.1266605E+00
        -11   -1    0    0    0    0  0.00000000000E+00  0.00000000000E+00  0.45593999997E+02  0.45594000000E+02  0.51100000000E-03 0. -1.
         11   -1    0    0    0    0 -0.00000000000E+00 -0.00000000000E+00 -0.45593999997E+02  0.45594000000E+02  0.51100000000E-03 0.  1.
    9900012    2    1    2    0    0  0.10298051197E+02 -0.81269464990E+01  0.29062408245E+02  0.59301942062E+02  0.49999996414E+02 0.  0.
        -12    1    1    2    0    0 -0.10298051197E+02  0.81269464990E+01 -0.29062408245E+02  0.31886057938E+02  0.00000000000E+00 0.  1.
         11    1    3    3    0    0  0.92120710151E+01  0.98765742455E+01  0.97073384596E+01  0.16632540138E+02  0.51100000000E-03 0. -1.
        -11    1    3    3    0    0 -0.12857681490E+01  0.96722110585E+01  0.21368443651E+01  0.99885419654E+01  0.51100000000E-03 0.  1.
         12    1    3    3    0    0  0.23717483307E+01 -0.27675731803E+02  0.17218225420E+02  0.32680859958E+02  0.00000000000E+00 0. -1.
</event>
<event>
 7    1  0.1184848E-011  0.5930195E+02  0.7816164E-02  0.1266605E+00
        -11   -1    0    0    0    0  0.00000000000E+00  0.00000000000E+00  0.45593999997E+02  0.45594000000E+02  0.51100000000E-03 0.  1.
         11   -1    0    0    0    0 -0.00000000000E+00 -0.00000000000E+00 -0.45593999997E+02  0.45594000000E+02  0.51100000000E-03 0. -1.
    9900012    2    1    2    0    0  0.23125383902E+02 -0.12421352998E+02 -0.18101012369E+02  0.59301952272E+02  0.50000015036E+02 0.  0.
        -12    1    1    2    0    0 -0.23125383902E+02  0.12421352998E+02  0.18101012369E+02  0.31886047728E+02  0.00000000000E+00 0.  1.
         11    1    3    3    0    0  0.70848057544E+01 -0.93787392469E+01 -0.19532319741E+02  0.22796200059E+02  0.51100000000E-03 0. -1.
        -11    1    3    3    0    0 -0.26993950702E+01  0.31647477990E+01 -0.11952287785E+02  0.12655415676E+02  0.51100000000E-03 0.  1.
         12    1    3    3    0    0  0.18739973218E+02 -0.62073615497E+01  0.13383595156E+02  0.23850336537E+02  0.00000000000E+00 0. -1.
</event>
<event>
 7    1  0.1184848E-011  0.5930195E+02  0.7816164E-02  0.1266605E+00
        -11   -1    0    0    0    0  0.00000000000E+00  0.00000000000E+00  0.45593999997E+02  0.45594000000E+02  0.51100000000E-03 0.  1.
         11   -1    0    0    0    0 -0.00000000000E+00 -0.00000000000E+00 -0.45593999997E+02  0.45594000000E+02  0.51100000000E-03 0. -1.
    9900012    2    1    2    0    0  0.20018966442E+02 -0.12220548691E+02 -0.21601373959E+02  0.59301950000E+02  0.50000010892E+02 0.  0.
        -12    1    1    2    0    0 -0.20018966442E+02  0.12220548691E+02  0.21601373959E+02  0.31886050000E+02  0.00000000000E+00 0.  1.
         11    1    3    3    0    0  0.19295441302E+02 -0.21298350566E+02 -0.19027548898E+02  0.34467106191E+02  0.51100000000E-03 0. -1.
        -11    1    3    3    0    0 -0.39857368671E+01 -0.64498409383E+01  0.22467295538E+01  0.79078657331E+01  0.51100000000E-03 0.  1.
        -12    1    3    3    0    0  0.47092620067E+01  0.15527642813E+02 -0.48205546145E+01  0.16926978076E+02  0.00000000000E+00 0.  1.
</event>
<event>
 7    1  0.1184848E-011  0.5930194E+02  0.7816164E-02  0.1266605E+00
        -11   -1    0    0    0    0  0.00000000000E+00  0.00000000000E+00  0.45593999997E+02  0.45594000000E+02  0.51100000000E-03 0.  1.
         11   -1    0    0    0    0 -0.00000000000E+00 -0.00000000000E+00 -0.45593999997E+02  0.45594000000E+02  0.51100000000E-03 0. -1.
    9900012    2    1    2    0    0  0.14716808199E+02 -0.23627604057E+01 -0.28187831310E+02  0.59301938558E+02  0.49999990025E+02 0.  0.
        -12    1    1    2    0    0 -0.14716808199E+02  0.23627604057E+01  0.28187831310E+02  0.31886061442E+02  0.00000000000E+00 0.  1.
         11    1    3    3    0    0  0.14840915106E+02 -0.45973287278E+00  0.93772653179E+00  0.14877615629E+02  0.51100000000E-03 0. -1.
        -11    1    3    3    0    0  0.11243558168E+01  0.15737953740E+02 -0.15278621271E+02  0.21963233645E+02  0.51100000000E-03 0.  1.
         12    1    3    3    0    0 -0.12484627236E+01 -0.17640981273E+02 -0.13846936571E+02  0.22461089285E+02  0.00000000000E+00 0. -1.
</event>
<event>
 7    1  0.1184848E-011  0.5930191E+02  0.7816164E-02  0.1266605E+00
        -11   -1    0    0    0    0  0.00000000000E+00  0.00000000000E+00  0.45593999997E+02  0.45594000000E+02  0.51100000000E-03 0. -1.
         11   -1    0    0    0    0 -0.00000000000E+00 -0.00000000000E+00 -0.45593999997E+02  0.45594000000E+02  0.51100000000E-03 0.  1.
    9900012    2    1    2    0    0  0.84073231826E+00 -0.25746473497E+02 -0.18791882149E+02  0.59301912704E+02  0.49999942873E+02 0.  0.
        -12    1    1    2    0    0 -0.84073231826E+00  0.25746473497E+02  0.18791882149E+02  0.31886087296E+02  0.00000000000E+00 0.  1.
         11    1    3    3    0    0  0.13245368184E+02  0.49833827911E+01  0.12650597524E+01  0.14208246155E+02  0.51100000000E-03 0. -1.
        -11    1    3    3    0    0 -0.95493390961E+01 -0.11641857059E+00 -0.34878778000E+01  0.10167040979E+02  0.51100000000E-03 0.  1.
         12    1    3    3    0    0 -0.28552967695E+01 -0.30613437717E+02 -0.16569064101E+02  0.34926625570E+02  0.00000000000E+00 0. -1.
</event>
<event>
 7    1  0.1184848E-011  0.5930193E+02  0.7816164E-02  0.1266605E+00
        -11   -1    0    0    0    0  0.00000000000E+00  0.00000000000E+00  0.45593999997E+02  0.45594000000E+02  0.51100000000E-03 0.  1.
         11   -1    0    0    0    0 -0.00000000000E+00 -0.00000000000E+00 -0.45593999997E+02  0.45594000000E+02  0.51100000000E-03 0. -1.
    9900012    2    1    2    0    0  0.86838242078E+01  0.30552678086E+02  0.28011347893E+01  0.59301932553E+02  0.49999979073E+02 0.  0.
        -12    1    1    2    0    0 -0.86838242078E+01 -0.30552678086E+02 -0.28011347893E+01  0.31886067447E+02  0.00000000000E+00 0.  1.
         11    1    3    3    0    0 -0.43517246862E+01  0.11829563613E+02 -0.41892447028E+01  0.13282539458E+02  0.51100000000E-03 0. -1.
        -11    1    3    3    0    0 -0.58550552277E+01  0.11267222146E+02 -0.12538131272E+02  0.17844794834E+02  0.51100000000E-03 0.  1.
        -12    1    3    3    0    0  0.18890604122E+02  0.74558923269E+01  0.19528510764E+02  0.28174598261E+02  0.00000000000E+00 0.  1.
</event>
<event>
 7    1  0.1184848E-011  0.5930195E+02  0.7816164E-02  0.1266605E+00
        -11   -1    0    0    0    0  0.00000000000E+00  0.00000000000E+00  0.45593999997E+02  0.45594000000E+02  0.51100000000E-03 0. -1.
         11   -1    0    0    0    0 -0.00000000000E+00 -0.00000000000E+00 -0.45593999997E+02  0.45594000000E+02  0.51100000000E-03 0.  1.
    9900012    2    1    2    0    0  0.21814311384E+01 -0.27482997393E+02  0.16020191363E+02  0.59301947896E+02  0.50000007054E+02 0.  0.
        -12    1    1    2    0    0 -0.21814311384E+01  0.27482997393E+02 -0.16020191363E+02  0.31886052104E+02  0.00000000000E+00 0.  1.
         11    1    3    3    0    0 -0.68421962924E+01 -0.15552773380E+02  0.10624439323E+02  0.20039538945E+02  0.51100000000E-03 0. -1.
        -11    1    3    3    0    0  0.15503352620E+02  0.82784608714E+01  0.37933908012E+01  0.17979896298E+02  0.51100000000E-03 0.  1.
         12    1    3    3    0    0 -0.64797251895E+01 -0.20208684884E+02  0.16023612382E+01  0.21282512653E+02  0.00000000000E+00 0. -1.
</event>
<event>
 7    1  0.1184848E-011  0.5930196E+02  0.7816164E-02  0.1266605E+00
        -11   -1    0    0    0    0  0.00000000000E+00  0.00000000000E+00  0.45593999997E+02  0.45594000000E+02  0.51100000000E-03 0.  1.
         11   -1    0    0    0    0 -0.00000000000E+00 -0.00000000000E+00 -0.45593999997E+02  0.45594000000E+02  0.51100000000E-03 0. -1.
    9900012    2    1    2    0    0 -0.12940837932E+02 -0.24688486048E+02  0.15483301849E+02  0.59301964407E+02  0.50000037166E+02 0.  0.
        -12    1    1    2    0    0  0.12940837932E+02  0.24688486048E+02 -0.15483301849E+02  0.31886035593E+02  0.00000000000E+00 0.  1.
         11    1    3    3    0    0  0.10050139149E+02 -0.14963486110E+02 -0.16600931115E+01  0.18101577911E+02  0.51100000000E-03 0. -1.
        -11    1    3    3    0    0 -0.54394630766E+01 -0.15183692378E+02  0.92666796832E-01  0.16128882794E+02  0.51100000000E-03 0.  1.
        -12    1    3    3    0    0 -0.17551514004E+02  0.54586924396E+01  0.17050728163E+02  0.25071503702E+02  0.00000000000E+00 0.  1.
</event>
<event>
 7    1  0.1184848E-011  0.5930195E+02  0.7816164E-02  0.1266605E+00
        -11   -1    0    0    0    0  0.00000000000E+00  0.00000000000E+00  0.45593999997E+02  0.45594000000E+02  0.51100000000E-03 0.  1.
         11   -1    0    0    0    0 -0.00000000000E+00 -0.00000000000E+00 -0.45593999997E+02  0.45594000000E+02  0.51100000000E-03 0. -1.
    9900012    2    1    2    0    0 -0.25566831634E+02  0.93979151905E+01 -0.16575184956E+02  0.59301945900E+02  0.50000003414E+02 0.  0.
        -12    1    1    2    0    0  0.25566831634E+02 -0.93979151905E+01  0.16575184956E+02  0.31886054100E+02  0.00000000000E+00 0.  1.
         11    1    3    3    0    0 -0.30683038473E+02  0.17583835593E+02 -0.26400047453E+02  0.44131651112E+02  0.51100000000E-03 0. -1.
        -11    1    3    3    0    0 -0.12076152223E+01 -0.11123974010E+01  0.19834886471E+00  0.16538152969E+01  0.51100000000E-03 0.  1.
         12    1    3    3    0    0  0.63238220611E+01 -0.70735230014E+01  0.96265136322E+01  0.13516479491E+02  0.00000000000E+00 0. -1.
</event>
<event>
 7    1  0.1184848E-011  0.5930197E+02  0.7816164E-02  0.1266605E+00
        -11   -1    0    0    0    0  0.00000000000E+00  0.00000000000E+00  0.45593999997E+02  0.45594000000E+02  0.51100000000E-03 0. -1.
         11   -1    0    0    0    0 -0.00000000000E+00 -0.00000000000E+00 -0.45593999997E+02  0.45594000000E+02  0.51100000000E-03 0.  1.
    9900012    2    1    2    0    0 -0.26273985417E+02 -0.82492767402E+01 -0.16073151620E+02  0.59301967330E+02  0.50000042498E+02 0.  0.
        -12    1    1    2    0    0  0.26273985417E+02  0.82492767402E+01  0.16073151620E+02  0.31886032670E+02  0.00000000000E+00 0.  1.
         11    1    3    3    0    0 -0.12503039899E+02  0.94001248732E+01  0.11339698640E+01  0.15683565993E+02  0.51100000000E-03 0. -1.
        -11    1    3    3    0    0 -0.19021775315E+02 -0.92969466632E+00  0.19521820426E-01  0.19044491320E+02  0.51100000000E-03 0.  1.
         12    1    3    3    0    0  0.52508297963E+01 -0.16719706947E+02 -0.17226643305E+02  0.24573910017E+02  0.00000000000E+00 0. -1.
</event>
<event>
 7    1  0.1184848E-011  0.5930197E+02  0.7816164E-02  0.1266605E+00
        -11   -1    0    0    0    0  0.00000000000E+00  0.00000000000E+00  0.45593999997E+02  0.45594000000E+02  0.51100000000E-03 0.  1.
         11   -1    0    0    0    0 -0.00000000000E+00 -0.00000000000E+00 -0.45593999997E+02  0.45594000000E+02  0.51100000000E-03 0. -1.
    9900012    2    1    2    0    0 -0.77034804979E+01  0.28734315562E+02 -0.11476677009E+02  0.59301974570E+02  0.50000055701E+02 0.  0.
        -12    1    1    2    0    0  0.77034804979E+01 -0.28734315562E+02  0.11476677009E+02  0.31886025430E+02  0.00000000000E+00 0.  1.
         11    1    3    3    0    0 -0.83942285221E+00  0.21480952789E+02 -0.46098796946E+01  0.21986062733E+02  0.51100000000E-03 0. -1.
        -11    1    3    3    0    0 -0.73720608581E+01  0.11099913889E+02  0.12074140390E+02  0.17981663884E+02  0.51100000000E-03 0.  1.
        -12    1    3    3    0    0  0.50800321242E+00 -0.38465511165E+01 -0.18940937704E+02  0.19334247952E+02  0.00000000000E+00 0.  1.
</event>
<event>
 7    1  0.1184848E-011  0.5930196E+02  0.7816164E-02  0.1266605E+00
        -11   -1    0    0    0    0  0.00000000000E+00  0.00000000000E+00  0.45593999997E+02  0.45594000000E+02  0.51100000000E-03 0.  1.
         11   -1    0    0    0    0 -0.00000000000E+00 -0.00000000000E+00 -0.45593999997E+02  0.45594000000E+02  0.51100000000E-03 0. -1.
    9900012    2    1    2    0    0 -0.82748640137E+01 -0.21940428694E+02 -0.21607034318E+02  0.59301957320E+02  0.50000024242E+02 0.  0.
        -12    1    1    2    0    0  0.82748640137E+01  0.21940428694E+02  0.21607034318E+02  0.31886042680E+02  0.00000000000E+00 0.  1.
         11    1    3    3    0    0 -0.32387389280E+01 -0.80479728442E+00 -0.14696450403E+02  0.15070593327E+02  0.51100000000E-03 0. -1.
        -11    1    3    3    0    0 -0.15908534446E+02 -0.14486613218E+02 -0.17442718107E+02  0.27698228210E+02  0.51100000000E-03 0.  1.
        -12    1    3    3    0    0  0.10872409360E+02 -0.66490181923E+01  0.10532134192E+02  0.16533135784E+02  0.00000000000E+00 0.  1.
</event>
<event>
 7    1  0.1184848E-011  0.5930192E+02  0.7816164E-02  0.1266605E+00
        -11   -1    0    0    0    0  0.00000000000E+00  0.00000000000E+00  0.45593999997E+02  0.45594000000E+02  0.51100000000E-03 0.  1.
         11   -1    0    0    0    0 -0.00000000000E+00 -0.00000000000E+00 -0.45593999997E+02  0.45594000000E+02  0.51100000000E-03 0. -1.
    9900012    2    1    2    0    0  0.16981752842E+02 -0.40171077644E+01 -0.26687166363E+02  0.59301922586E+02  0.49999960895E+02 0.  0.
        -12    1    1    2    0    0 -0.16981752842E+02  0.40171077644E+01  0.26687166363E+02  0.31886077414E+02  0.00000000000E+00 0.  1.
         11    1    3    3    0    0  0.31845649814E+01  0.56417826639E+01 -0.37807852229E+01  0.75010334562E+01  0.51100000000E-03 0. -1.
        -11    1    3    3    0    0 -0.47707114056E+01 -0.62951785960E+01  0.10675839451E+02  0.13280154709E+02  0.51100000000E-03 0.  1.
         12    1    3    3    0    0  0.18567899266E+02 -0.33637118323E+01 -0.33582220591E+02  0.38520734420E+02  0.00000000000E+00 0. -1.
</event>
<event>
 7    1  0.1213408E-011  0.5930195E+02  0.7816164E-02  0.1266605E+00
        -11   -1    0    0    0    0  0.00000000000E+00  0.00000000000E+00  0.45593999997E+02  0.45594000000E+02  0.51100000000E-03 0. -1.
         11   -1    0    0    0    0 -0.00000000000E+00 -0.00000000000E+00 -0.45593999997E+02  0.45594000000E+02  0.51100000000E-03 0.  1.
    9900012    2    1    2    0    0  0.61158981219E+01  0.13173424025E+02  0.28386210255E+02  0.59301949083E+02  0.50000009220E+02 0.  0.
        -12    1    1    2    0    0 -0.61158981219E+01 -0.13173424025E+02 -0.28386210255E+02  0.31886050917E+02  0.00000000000E+00 0.  1.
         11    1    3    3    0    0  0.30244206424E+01  0.21365076387E+02  0.26505923059E+02  0.34178612709E+02  0.51100000000E-03 0. -1.
        -11    1    3    3    0    0 -0.17495304637E+01 -0.97227273849E+01  0.10938505648E+02  0.14739171982E+02  0.51100000000E-03 0.  1.
        -12    1    3    3    0    0  0.48410079433E+01  0.15310750233E+01 -0.90582184509E+01  0.10384164393E+02  0.00000000000E+00 0.  1.
</event>
<event>
 7    1  0.1184848E-011  0.5930197E+02  0.7816164E-02  0.1266605E+00
        -11   -1    0    0    0    0  0.00000000000E+00  0.00000000000E+00  0.45593999997E+02  0.45594000000E+02  0.51100000000E-03 0. -1.
         11   -1    0    0    0    0 -0.00000000000E+00 -0.00000000000E+00 -0.45593999997E+02  0.45594000000E+02  0.51100000000E-03 0.  1.
    9900012    2    1    2    0    0  0.22995822666E+02 -0.34702231082E+01  0.21814407077E+02  0.59301973834E+02  0.50000054360E+02 0.  0.
        -12    1    1    2    0    0 -0.22995822666E+02  0.34702231082E+01 -0.21814407077E+02  0.31886026166E+02  0.00000000000E+00 0.  1.
         11    1    3    3    0    0  0.19037486846E+02 -0.12235720779E+02  0.11741909566E+02  0.25495317392E+02  0.51100000000E-03 0. -1.
        -11    1    3    3    0    0  0.97597311839E+01 -0.75619468331E+01 -0.22427955663E+01  0.12548526802E+02  0.51100000000E-03 0.  1.
        -12    1    3    3    0    0 -0.58013953637E+01  0.16327444504E+02  0.12315293077E+02  0.21258129640E+02  0.00000000000E+00 0.  1.
</event>
<event>
 7    1  0.1184848E-011  0.5930200E+02  0.7816164E-02  0.1266605E+00
        -11   -1    0    0    0    0  0.00000000000E+00  0.00000000000E+00  0.45593999997E+02  0.45594000000E+02  0.51100000000E-03 0.  1.
         11   -1    0    0    0    0 -0.00000000000E+00 -0.00000000000E+00 -0.45593999997E+02  0.45594000000E+02  0.51100000000E-03 0. -1.
    9900012    2    1    2    0    0  0.12448911092E+02  0.46880839039E+01 -0.28978676097E+02  0.59301997014E+02  0.50000096634E+02 0.  0.
        -12    1    1    2    0    0 -0.12448911092E+02 -0.46880839039E+01  0.28978676097E+02  0.31886002986E+02  0.00000000000E+00 0.  1.
         11    1    3    3    0    0  0.75899116179E+01  0.11588556249E+02  0.16424919624E+01  0.13949880803E+02  0.51100000000E-03 0. -1.
        -11    1    3    3    0    0  0.13945760403E+02  0.36464241070E+01 -0.34493280174E+01  0.14821555452E+02  0.51100000000E-03 0.  1.
         12    1    3    3    0    0 -0.90867609292E+01 -0.10546896452E+02 -0.27171840042E+02  0.30530560759E+02  0.00000000000E+00 0. -1.
</event>
<event>
 7    1  0.1184848E-011  0.5930192E+02  0.7816164E-02  0.1266605E+00
        -11   -1    0    0    0    0  0.00000000000E+00  0.00000000000E+00  0.45593999997E+02  0.45594000000E+02  0.51100000000E-03 0.  1.
         11   -1    0    0    0    0 -0.00000000000E+00 -0.00000000000E+00 -0.45593999997E+02  0.45594000000E+02  0.51100000000E-03 0. -1.
    9900012    2    1    2    0    0 -0.20800169611E+02 -0.17268956552E+02 -0.16907334011E+02  0.59301923735E+02  0.49999962991E+02 0.  0.
        -12    1    1    2    0    0  0.20800169611E+02  0.17268956552E+02  0.16907334011E+02  0.31886076265E+02  0.00000000000E+00 0.  1.
         11    1    3    3    0    0 -0.45134920560E+01 -0.19049746997E+02 -0.13836248332E+02  0.23973031501E+02  0.51100000000E-03 0. -1.
        -11    1    3    3    0    0 -0.71718387091E+01 -0.96686884585E+01  0.10043609228E+02  0.15677783439E+02  0.51100000000E-03 0.  1.
         12    1    3    3    0    0 -0.91148388457E+01  0.11449478904E+02 -0.13114694907E+02  0.19651108794E+02  0.00000000000E+00 0. -1.
</event>
<event>
 7    1  0.1184848E-011  0.5930196E+02  0.7816164E-02  0.1266605E+00
        -11   -1    0    0    0    0  0.00000000000E+00  0.00000000000E+00  0.45593999997E+02  0.45594000000E+02  0.51100000000E-03 0. -1.
         11   -1    0    0    0    0 -0.00000000000E+00 -0.00000000000E+00 -0.45593999997E+02  0.45594000000E+02  0.51100000000E-03 0.  1.
    9900012    2    1    2    0    0 -0.25389126206E+02 -0.16938869398E+02 -0.92296372370E+01  0.59301964976E+02  0.50000038205E+02 0.  0.
        -12    1    1    2    0    0  0.25389126206E+02  0.16938869398E+02  0.92296372370E+01  0.31886035024E+02  0.00000000000E+00 0.  1.
         11    1    3    3    0    0 -0.76951302651E+01  0.56563142957E+01  0.37270487666E+01  0.10251820032E+02  0.51100000000E-03 0. -1.
        -11    1    3    3    0    0 -0.26114209490E+02 -0.14542556609E+02  0.21556016338E+01  0.29968058140E+02  0.51100000000E-03 0.  1.
         12    1    3    3    0    0  0.84202135487E+01 -0.80526270846E+01 -0.15112287637E+02  0.19082086804E+02  0.00000000000E+00 0. -1.
</event>
<event>
 7    1  0.1184848E-011  0.5930197E+02  0.7816164E-02  0.1266605E+00
        -11   -1    0    0    0    0  0.00000000000E+00  0.00000000000E+00  0.45593999997E+02  0.45594000000E+02  0.51100000000E-03 0. -1.
         11   -1    0    0    0    0 -0.00000000000E+00 -0.00000000000E+00 -0.45593999997E+02  0.45594000000E+02  0.51100000000E-03 0.  1.
    9900012    2    1    2    0    0 -0.52224879783E+01 -0.30885499983E+02 -0.59607580894E+01  0.59301966586E+02  0.50000041141E+02 0.  0.
        -12    1    1    2    0    0  0.52224879783E+01  0.30885499983E+02  0.59607580894E+01  0.31886033414E+02  0.00000000000E+00 0.  1.
         11    1    3    3    0    0 -0.10509177502E+02 -0.33112573469E+02 -0.30248462014E+01  0.34871693797E+02  0.51100000000E-03 0. -1.
        -11    1    3    3    0    0 -0.57772839926E+01 -0.43365705216E+01 -0.78420222584E+01  0.10662090207E+02  0.51100000000E-03 0.  1.
         12    1    3    3    0    0  0.11063973517E+02  0.65636440076E+01  0.49061103704E+01  0.13768182582E+02  0.00000000000E+00 0. -1.
</event>
<event>
 7    1  0.1184848E-011  0.5930193E+02  0.7816164E-02  0.1266605E+00
        -11   -1    0    0    0    0  0.00000000000E+00  0.00000000000E+00  0.45593999997E+02  0.45594000000E+02  0.51100000000E-03 0.  1.
         11   -1    0    0    0    0 -0.00000000000E+00 -0.00000000000E+00 -0.45593999997E+02  0.45594000000E+02  0.51100000000E-03 0. -1.
    9900012    2    1    2    0    0 -0.28219938327E+02 -0.13527934489E+02 -0.61115819137E+01  0.59301931502E+02  0.49999977157E+02 0.  0.
        -12    1    1    2    0    0  0.28219938327E+02  0.13527934489E+02  0.61115819137E+01  0.31886068498E+02  0.00000000000E+00 0.  1.
         11    1    3    3    0    0  0.87510791731E+00  0.48694004882E+01 -0.14905627217E+02  0.15705241099E+02  0.51100000000E-03 0. -1.
        -11    1    3    3    0    0 -0.23166488322E+01 -0.15142187867E+02  0.32089218061E+00  0.15321739041E+02  0.51100000000E-03 0.  1.
        -12    1    3    3    0    0 -0.26778397413E+02 -0.32551471106E+01  0.84731531227E+01  0.28274951362E+02  0.00000000000E+00 0.  1.
</event>
<event>
 7    1  0.1184848E-011  0.5930191E+02  0.7816164E-02  0.1266605E+00
        -11   -1    0    0    0    0  0.00000000000E+00  0.00000000000E+00  0.45593999997E+02  0.45594000000E+02  0.51100000000E-03 0.  1.
         11   -1    0    0    0    0 -0.00000000000E+00 -0.00000000000E+00 -0.45593999997E+02  0.45594000000E+02  0.51100000000E-03 0. -1.
    9900012    2    1    2    0    0  0.52989204197E+01 -0.29220927999E+02  0.11609535575E+02  0.59301913583E+02  0.49999944476E+02 0.  0.
        -12    1    1    2    0    0 -0.52989204197E+01  0.29220927999E+02 -0.11609535575E+02  0.31886086417E+02  0.00000000000E+00 0.  1.
         11    1    3    3    0    0 -0.35219972090E+01 -0.11159365754E+02  0.38430319676E+00  0.11708270477E+02  0.51100000000E-03 0. -1.
        -11    1    3    3    0    0  0.12131751691E+01 -0.15631041241E+02 -0.14071101372E+02  0.21066493262E+02  0.51100000000E-03 0.  1.
        -12    1    3    3    0    0  0.76077424595E+01 -0.24305210044E+01  0.25296333750E+02  0.26527149844E+02  0.00000000000E+00 0.  1.
</event>
<event>
 7    1  0.1184848E-011  0.5930194E+02  0.7816164E-02  0.1266605E+00
        -11   -1    0    0    0    0  0.00000000000E+00  0.00000000000E+00  0.45593999997E+02  0.45594000000E+02  0.51100000000E-03 0.  1.
         11   -1    0    0    0    0 -0.00000000000E+00 -0.00000000000E+00 -0.45593999997E+02  0.45594000000E+02  0.51100000000E-03 0. -1.
    9900012    2    1    2    0    0  0.16228089242E+02  0.25537748521E+02 -0.10059497201E+02  0.59301937780E+02  0.49999988605E+02 0.  0.
        -12    1    1    2    0    0 -0.16228089242E+02 -0.25537748521E+02  0.10059497201E+02  0.31886062220E+02  0.00000000000E+00 0.  1.
         11    1    3    3    0    0  0.24501934615E+02  0.13430963924E+02 -0.14110676895E+02  0.31302504604E+02  0.51100000000E-03 0. -1.
        -11    1    3    3    0    0 -0.46415366375E+01  0.15324286247E+02 -0.57903851455E+01  0.17026631250E+02  0.51100000000E-03 0.  1.
        -12    1    3    3    0    0 -0.36323087357E+01 -0.32175016496E+01  0.98415648389E+01  0.10972801925E+02  0.00000000000E+00 0.  1.
</event>
<event>
 7    1  0.1184848E-011  0.5930194E+02  0.7816164E-02  0.1266605E+00
        -11   -1    0    0    0    0  0.00000000000E+00  0.00000000000E+00  0.45593999997E+02  0.45594000000E+02  0.51100000000E-03 0.  1.
         11   -1    0    0    0    0 -0.00000000000E+00 -0.00000000000E+00 -0.45593999997E+02  0.45594000000E+02  0.51100000000E-03 0. -1.
    9900012    2    1    2    0    0 -0.10859603383E+02 -0.21369420739E+02 -0.21027071353E+02  0.59301939440E+02  0.49999991634E+02 0.  0.
        -12    1    1    2    0    0  0.10859603383E+02  0.21369420739E+02  0.21027071353E+02  0.31886060560E+02  0.00000000000E+00 0.  1.
         11    1    3    3    0    0 -0.13242662719E+01 -0.14882828276E+02 -0.90566907517E+01  0.17472146585E+02  0.51100000000E-03 0. -1.
        -11    1    3    3    0    0 -0.20154829591E+02 -0.99338057681E+01 -0.18314517464E+02  0.28988259745E+02  0.51100000000E-03 0.  1.
        -12    1    3    3    0    0  0.10619492479E+02  0.34472133053E+01  0.63441368627E+01  0.12841533110E+02  0.00000000000E+00 0.  1.
</event>
<event>
 7    1  0.1184848E-011  0.5930195E+02  0.7816164E-02  0.1266605E+00
        -11   -1    0    0    0    0  0.00000000000E+00  0.00000000000E+00  0.45593999997E+02  0.45594000000E+02  0.51100000000E-03 0. -1.
         11   -1    0    0    0    0 -0.00000000000E+00 -0.00000000000E+00 -0.45593999997E+02  0.45594000000E+02  0.51100000000E-03 0.  1.
    9900012    2    1    2    0    0  0.16620073139E+02 -0.22952931031E+02  0.14616994340E+02  0.59301946660E+02  0.50000004801E+02 0.  0.
        -12    1    1    2    0    0 -0.16620073139E+02  0.22952931031E+02 -0.14616994340E+02  0.31886053340E+02  0.00000000000E+00 0.  1.
         11    1    3    3    0    0  0.93042201269E+01  0.80899881269E+01  0.68688282988E+01  0.14113724616E+02  0.51100000000E-03 0. -1.
        -11    1    3    3    0    0  0.75243504654E+01  0.27604948842E+01 -0.45504305628E+01  0.92164310067E+01  0.51100000000E-03 0.  1.
         12    1    3    3    0    0 -0.20849745313E+00 -0.33803414042E+02  0.12298596604E+02  0.35971791038E+02  0.00000000000E+00 0. -1.
</event>
<event>
 7    1  0.1184848E-011  0.5930193E+02  0.7816164E-02  0.1266605E+00
        -11   -1    0    0    0    0  0.00000000000E+00  0.00000000000E+00  0.45593999997E+02  0.45594000000E+02  0.51100000000E-03 0.  1.
         11   -1    0    0    0    0 -0.00000000000E+00 -0.00000000000E+00 -0.45593999997E+02  0.45594000000E+02  0.51100000000E-03 0. -1.
    9900012    2    1    2    0    0  0.16635400932E+02 -0.17485325107E+02 -0.20838621874E+02  0.59301932198E+02  0.49999978425E+02 0.  0.
        -12    1    1    2    0    0 -0.16635400932E+02  0.17485325107E+02  0.20838621874E+02  0.31886067802E+02  0.00000000000E+00 0.  1.
         11    1    3    3    0    0 -0.68060355946E+01  0.24088975602E+01 -0.51187682708E+01  0.88502371065E+01  0.51100000000E-03 0. -1.
        -11    1    3    3    0    0 -0.31472588174E+00  0.97484777475E+01 -0.13936613559E+01  0.98526221389E+01  0.51100000000E-03 0.  1.
        -12    1    3    3    0    0  0.23756162409E+02 -0.29642700415E+02 -0.14326192248E+02  0.40599072952E+02  0.00000000000E+00 0.  1.
</event>
<event>
 7    1  0.1184848E-011  0.5930196E+02  0.7816164E-02  0.1266605E+00
        -11   -1    0    0    0    0  0.00000000000E+00  0.00000000000E+00  0.45593999997E+02  0.45594000000E+02  0.51100000000E-03 0.  1.
         11   -1    0    0    0    0 -0.00000000000E+00 -0.00000000000E+00 -0.45593999997E+02  0.45594000000E+02  0.51100000000E-03 0. -1.
    9900012    2    1    2    0    0  0.13581044118E+02  0.19160627346E+02 -0.21567231289E+02  0.59301955010E+02  0.50000020029E+02 0.  0.
        -12    1    1    2    0    0 -0.13581044118E+02 -0.19160627346E+02  0.21567231289E+02  0.31886044990E+02  0.00000000000E+00 0.  1.
         11    1    3    3    0    0 -0.41433432322E+01  0.36627891882E+01 -0.62908484632E+01  0.83760427664E+01  0.51100000000E-03 0. -1.
        -11    1    3    3    0    0  0.43678146779E+01  0.26801540943E+02  0.79609162343E+00  0.27166784206E+02  0.51100000000E-03 0.  1.
         12    1    3    3    0    0  0.13356572672E+02 -0.11303702785E+02 -0.16072474449E+02  0.23759128038E+02  0.00000000000E+00 0. -1.
</event>
<event>
 7    1  0.1184848E-011  0.5930194E+02  0.7816164E-02  0.1266605E+00
        -11   -1    0    0    0    0  0.00000000000E+00  0.00000000000E+00  0.45593999997E+02  0.45594000000E+02  0.51100000000E-03 0. -1.
         11   -1    0    0    0    0 -0.00000000000E+00 -0.00000000000E+00 -0.45593999997E+02  0.45594000000E+02  0.51100000000E-03 0.  1.
    9900012    2    1    2    0    0  0.31755044193E+02 -0.26603903727E+01  0.11226204600E+01  0.59301940580E+02  0.49999993712E+02 0.  0.
        -12    1    1    2    0    0 -0.31755044193E+02  0.26603903727E+01 -0.11226204600E+01  0.31886059420E+02  0.00000000000E+00 0.  1.
         11    1    3    3    0    0  0.17028636915E+02  0.15091249248E+02 -0.64587772128E+01  0.23652401198E+02  0.51100000000E-03 0. -1.
        -11    1    3    3    0    0  0.88572150971E+01  0.32973641735E+01 -0.47294461326E+01  0.10568374083E+02  0.51100000000E-03 0.  1.
         12    1    3    3    0    0  0.58691921807E+01 -0.21049003795E+02  0.12310843805E+02  0.25081165300E+02  0.00000000000E+00 0. -1.
</event>
<event>
 7    1  0.1184848E-011  0.5930195E+02  0.7816164E-02  0.1266605E+00
        -11   -1    0    0    0    0  0.00000000000E+00  0.00000000000E+00  0.45593999997E+02  0.45594000000E+02  0.51100000000E-03 0.  1.
         11   -1    0    0    0    0 -0.00000000000E+00 -0.00000000000E+00 -0.45593999997E+02  0.45594000000E+02  0.51100000000E-03 0. -1.
    9900012    2    1    2    0    0  0.28625974415E+02  0.20407419181E+01 -0.13896378019E+02  0.59301947236E+02  0.50000005852E+02 0.  0.
        -12    1    1    2    0    0 -0.28625974415E+02 -0.20407419181E+01  0.13896378019E+02  0.31886052764E+02  0.00000000000E+00 0.  1.
         11    1    3    3    0    0 -0.86114005184E+01  0.11419916205E+01 -0.15231462395E+00  0.86881277474E+01  0.51100000000E-03 0. -1.
        -11    1    3    3    0    0  0.10824102477E+02  0.72489306586E+01  0.84557007626E+01  0.15530842404E+02  0.51100000000E-03 0.  1.
         12    1    3    3    0    0  0.26413272457E+02 -0.63501803610E+01 -0.22199764158E+02  0.35082977085E+02  0.00000000000E+00 0. -1.
</event>
<event>
 7    1  0.1184848E-011  0.5930195E+02  0.7816164E-02  0.1266605E+00
        -11   -1    0    0    0    0  0.00000000000E+00  0.00000000000E+00  0.45593999997E+02  0.45594000000E+02  0.51100000000E-03 0.  1.
         11   -1    0    0    0    0 -0.00000000000E+00 -0.00000000000E+00 -0.45593999997E+02  0.45594000000E+02  0.51100000000E-03 0. -1.
    9900012    2    1    2    0    0 -0.15439791490E+02 -0.18051125131E+02 -0.21271815418E+02  0.59301946451E+02  0.50000004420E+02 0.  0.
        -12    1    1    2    0    0  0.15439791490E+02  0.18051125131E+02  0.21271815418E+02  0.31886053549E+02  0.00000000000E+00 0.  1.
         11    1    3    3    0    0  0.15886407663E+01 -0.15737638379E+01 -0.23866560262E+01  0.32705717161E+01  0.51100000000E-03 0. -1.
        -11    1    3    3    0    0  0.11950145922E+02 -0.18191651412E+02 -0.70075722923E+00  0.21776896694E+02  0.51100000000E-03 0.  1.
         12    1    3    3    0    0 -0.28978578179E+02  0.17142901185E+01 -0.18184402162E+02  0.34254478041E+02  0.00000000000E+00 0. -1.
</event>
<event>
 7    1  0.1184848E-011  0.5930204E+02  0.7816164E-02  0.1266604E+00
        -11   -1    0    0    0    0  0.00000000000E+00  0.00000000000E+00  0.45593999997E+02  0.45594000000E+02  0.51100000000E-03 0. -1.
         11   -1    0    0    0    0 -0.00000000000E+00 -0.00000000000E+00 -0.45593999997E+02  0.45594000000E+02  0.51100000000E-03 0.  1.
    9900012    2    1    2    0    0  0.18654893351E+02  0.25845000752E+02 -0.86331131932E+00  0.59302040453E+02  0.50000175856E+02 0.  0.
        -12    1    1    2    0    0 -0.18654893351E+02 -0.25845000752E+02  0.86331131932E+00  0.31885959547E+02  0.00000000000E+00 0.  1.
         11    1    3    3    0    0  0.45291369178E+00  0.13792874191E+02  0.82105406998E+01  0.16058066138E+02  0.51100000000E-03 0. -1.
        -11    1    3    3    0    0  0.78610855189E+01  0.18394989782E+02 -0.18984850752E+02  0.27578920809E+02  0.51100000000E-03 0.  1.
         12    1    3    3    0    0  0.10340894140E+02 -0.63428632211E+01  0.99109987332E+01  0.15665053506E+02  0.00000000000E+00 0. -1.
</event>
<event>
 7    1  0.1184848E-011  0.5930188E+02  0.7816164E-02  0.1266605E+00
        -11   -1    0    0    0    0  0.00000000000E+00  0.00000000000E+00  0.45593999997E+02  0.45594000000E+02  0.51100000000E-03 0. -1.
         11   -1    0    0    0    0 -0.00000000000E+00 -0.00000000000E+00 -0.45593999997E+02  0.45594000000E+02  0.51100000000E-03 0.  1.
    9900012    2    1    2    0    0  0.62562496192E-01 -0.58497298534E+01  0.31344878881E+02  0.59301879422E+02  0.49999882175E+02 0.  0.
        -12    1    1    2    0    0 -0.62562496192E-01  0.58497298534E+01 -0.31344878881E+02  0.31886120578E+02  0.00000000000E+00 0.  1.
         11    1    3    3    0    0 -0.23083695862E+01 -0.67709092205E+01  0.27035545538E+02  0.27965952596E+02  0.51100000000E-03 0. -1.
        -11    1    3    3    0    0  0.61662118674E+01  0.14329838164E+02  0.70735795176E+01  0.17128980064E+02  0.51100000000E-03 0.  1.
         12    1    3    3    0    0 -0.37952797850E+01 -0.13408658797E+02 -0.27642461747E+01  0.14206946762E+02  0.00000000000E+00 0. -1.
</event>
<event>
 7    1  0.1184848E-011  0.5930195E+02  0.7816164E-02  0.1266605E+00
        -11   -1    0    0    0    0  0.00000000000E+00  0.00000000000E+00  0.45593999997E+02  0.45594000000E+02  0.51100000000E-03 0. -1.
         11   -1    0    0    0    0 -0.00000000000E+00 -0.00000000000E+00 -0.45593999997E+02  0.45594000000E+02  0.51100000000E-03 0.  1.
    9900012    2    1    2    0    0 -0.22861265173E+01 -0.27088468530E+02  0.16664590633E+02  0.59301951598E+02  0.50000013806E+02 0.  0.
        -12    1    1    2    0    0  0.22861265173E+01  0.27088468530E+02 -0.16664590633E+02  0.31886048402E+02  0.00000000000E+00 0.  1.
         11    1    3    3    0    0 -0.10755836711E+02  0.89997456240E+01  0.73039075078E+00  0.14043394018E+02  0.51100000000E-03 0. -1.
        -11    1    3    3    0    0  0.27504996978E+01 -0.22797803977E+02 -0.10001346693E+01  0.22984894700E+02  0.51100000000E-03 0.  1.
        -12    1    3    3    0    0  0.57192104955E+01 -0.13290410177E+02  0.16934334551E+02  0.22273662879E+02  0.00000000000E+00 0.  1.
</event>
<event>
 7    1  0.1184848E-011  0.5930190E+02  0.7816164E-02  0.1266605E+00
        -11   -1    0    0    0    0  0.00000000000E+00  0.00000000000E+00  0.45593999997E+02  0.45594000000E+02  0.51100000000E-03 0.  1.
         11   -1    0    0    0    0 -0.00000000000E+00 -0.00000000000E+00 -0.45593999997E+02  0.45594000000E+02  0.51100000000E-03 0. -1.
    9900012    2    1    2    0    0 -0.66527011743E+01 -0.37199871829E+01 -0.30961698227E+02  0.59301898096E+02  0.49999916231E+02 0.  0.
        -12    1    1    2    0    0  0.66527011743E+01  0.37199871829E+01  0.30961698227E+02  0.31886101904E+02  0.00000000000E+00 0.  1.
         11    1    3    3    0    0 -0.20586477756E+02 -0.11588652394E+02 -0.21284014583E+02  0.31797943451E+02  0.51100000000E-03 0. -1.
        -11    1    3    3    0    0  0.73990157657E+01 -0.50658544985E+01 -0.94264413937E+01  0.13010231117E+02  0.51100000000E-03 0.  1.
        -12    1    3    3    0    0  0.65347608159E+01  0.12934519709E+02 -0.25124225028E+00  0.14493723528E+02  0.00000000000E+00 0.  1.
</event>
<event>
 7    1  0.1184848E-011  0.5930195E+02  0.7816164E-02  0.1266605E+00
        -11   -1    0    0    0    0  0.00000000000E+00  0.00000000000E+00  0.45593999997E+02  0.45594000000E+02  0.51100000000E-03 0. -1.
         11   -1    0    0    0    0 -0.00000000000E+00 -0.00000000000E+00 -0.45593999997E+02  0.45594000000E+02  0.51100000000E-03 0.  1.
    9900012    2    1    2    0    0  0.61121949550E+01 -0.26725031480E+02  0.16282942539E+02  0.59301945799E+02  0.50000003231E+02 0.  0.
        -12    1    1    2    0    0 -0.61121949550E+01  0.26725031480E+02 -0.16282942539E+02  0.31886054201E+02  0.00000000000E+00 0.  1.
         11    1    3    3    0    0 -0.59035827831E+01  0.21862726106E+01 -0.45642320805E+01  0.77758788796E+01  0.51100000000E-03 0. -1.
        -11    1    3    3    0    0 -0.10087423341E+02 -0.36567536635E+01  0.13368409951E+02  0.17141830180E+02  0.51100000000E-03 0.  1.
         12    1    3    3    0    0  0.22103201079E+02 -0.25254550427E+02  0.74787646680E+01  0.34384236740E+02  0.00000000000E+00 0. -1.
</event>
<event>
 7    1  0.1184848E-011  0.5930195E+02  0.7816164E-02  0.1266605E+00
        -11   -1    0    0    0    0  0.00000000000E+00  0.00000000000E+00  0.45593999997E+02  0.45594000000E+02  0.51100000000E-03 0. -1.
         11   -1    0    0    0    0 -0.00000000000E+00 -0.00000000000E+00 -0.45593999997E+02  0.45594000000E+02  0.51100000000E-03 0.  1.
    9900012    2    1    2    0    0  0.13698157480E+02 -0.15997629669E+02  0.23940692144E+02  0.59301946407E+02  0.50000004340E+02 0.  0.
        -12    1    1    2    0    0 -0.13698157480E+02  0.15997629669E+02 -0.23940692144E+02  0.31886053593E+02  0.00000000000E+00 0.  1.
         11    1    3    3    0    0  0.22104483678E+02  0.12720641659E+01  0.20217780692E+02  0.29983078599E+02  0.51100000000E-03 0. -1.
        -11    1    3    3    0    0 -0.53677224039E+01 -0.79945473447E+00  0.10044937216E+02  0.11417194735E+02  0.51100000000E-03 0.  1.
        -12    1    3    3    0    0 -0.30386037939E+01 -0.16470239101E+02 -0.63220257642E+01  0.17901673073E+02  0.00000000000E+00 0.  1.
</event>
<event>
 7    1  0.1184848E-011  0.5930195E+02  0.7816164E-02  0.1266605E+00
        -11   -1    0    0    0    0  0.00000000000E+00  0.00000000000E+00  0.45593999997E+02  0.45594000000E+02  0.51100000000E-03 0.  1.
         11   -1    0    0    0    0 -0.00000000000E+00 -0.00000000000E+00 -0.45593999997E+02  0.45594000000E+02  0.51100000000E-03 0. -1.
    9900012    2    1    2    0    0 -0.77418426141E+01 -0.55558114910E+01 -0.30428882913E+02  0.59301951582E+02  0.50000013778E+02 0.  0.
        -12    1    1    2    0    0  0.77418426141E+01  0.55558114910E+01  0.30428882913E+02  0.31886048418E+02  0.00000000000E+00 0.  1.
         11    1    3    3    0    0  0.42146264550E+01 -0.63572723167E+01 -0.14549129409E+02  0.16427268619E+02  0.51100000000E-03 0. -1.
        -11    1    3    3    0    0  0.10858241173E+02  0.67679278061E+01  0.24244963123E+01  0.13022458708E+02  0.51100000000E-03 0.  1.
         12    1    3    3    0    0 -0.22814710242E+02 -0.59664669804E+01 -0.18304249816E+02  0.29852224255E+02  0.00000000000E+00 0. -1.
</event>
<event>
 7    1  0.1184848E-011  0.5930194E+02  0.7816164E-02  0.1266605E+00
        -11   -1    0    0    0    0  0.00000000000E+00  0.00000000000E+00  0.45593999997E+02  0.45594000000E+02  0.51100000000E-03 0.  1.
         11   -1    0    0    0    0 -0.00000000000E+00 -0.00000000000E+00 -0.45593999997E+02  0.45594000000E+02  0.51100000000E-03 0. -1.
    9900012    2    1    2    0    0 -0.29558270213E+02 -0.60299513483E+01 -0.10328080246E+02  0.59301938894E+02  0.49999990638E+02 0.  0.
        -12    1    1    2    0    0  0.29558270213E+02  0.60299513483E+01  0.10328080246E+02  0.31886061106E+02  0.00000000000E+00 0.  1.
         11    1    3    3    0    0  0.92274340304E+00 -0.58606125963E+01 -0.44073383412E+01  0.73907284422E+01  0.51100000000E-03 0. -1.
        -11    1    3    3    0    0  0.99441086063E+01  0.38993612567E+01 -0.33764518501E+01  0.11202265018E+02  0.51100000000E-03 0.  1.
         12    1    3    3    0    0 -0.40425122222E+02 -0.40687000087E+01 -0.25442900548E+01  0.40708945434E+02  0.00000000000E+00 0. -1.
</event>
<event>
 7    1  0.1184848E-011  0.5930197E+02  0.7816164E-02  0.1266605E+00
        -11   -1    0    0    0    0  0.00000000000E+00  0.00000000000E+00  0.45593999997E+02  0.45594000000E+02  0.51100000000E-03 0. -1.
         11   -1    0    0    0    0 -0.00000000000E+00 -0.00000000000E+00 -0.45593999997E+02  0.45594000000E+02  0.51100000000E-03 0.  1.
    9900012    2    1    2    0    0 -0.15184256981E+02  0.18895408147E+02  0.20715232371E+02  0.59301969182E+02  0.50000045876E+02 0.  0.
        -12    1    1    2    0    0  0.15184256981E+02 -0.18895408147E+02 -0.20715232371E+02  0.31886030818E+02  0.00000000000E+00 0.  1.
         11    1    3    3    0    0 -0.27996283123E+01 -0.47154158848E+01 -0.78055428680E+01  0.95393692338E+01  0.51100000000E-03 0. -1.
        -11    1    3    3    0    0  0.21734572370E+01  0.22332912416E+02  0.65491271162E+01  0.23374643518E+02  0.51100000000E-03 0.  1.
         12    1    3    3    0    0 -0.14558085906E+02  0.12779116159E+01  0.21971648123E+02  0.26387956431E+02  0.00000000000E+00 0. -1.
</event>
<event>
 7    1  0.1184848E-011  0.5930194E+02  0.7816164E-02  0.1266605E+00
        -11   -1    0    0    0    0  0.00000000000E+00  0.00000000000E+00  0.45593999997E+02  0.45594000000E+02  0.51100000000E-03 0.  1.
         11   -1    0    0    0    0 -0.00000000000E+00 -0.00000000000E+00 -0.45593999997E+02  0.45594000000E+02  0.51100000000E-03 0. -1.
    9900012    2    1    2    0    0 -0.31826943739E+02  0.17183971687E+00  0.19331254242E+01  0.59301939558E+02  0.49999991848E+02 0.  0.
        -12    1    1    2    0    0  0.31826943739E+02 -0.17183971687E+00 -0.19331254242E+01  0.31886060442E+02  0.00000000000E+00 0.  1.
         11    1    3    3    0    0 -0.53292354355E+01  0.84102638707E+01 -0.75206405496E+01  0.12477713061E+02  0.51100000000E-03 0. -1.
        -11    1    3    3    0    0 -0.14131259596E+02  0.12540697000E+02  0.12197185489E+02  0.22488506244E+02  0.51100000000E-03 0.  1.
         12    1    3    3    0    0 -0.12366448708E+02 -0.20779121154E+02 -0.27434195150E+01  0.24335720252E+02  0.00000000000E+00 0. -1.
</event>
<event>
 7    1  0.1184848E-011  0.5930192E+02  0.7816164E-02  0.1266605E+00
        -11   -1    0    0    0    0  0.00000000000E+00  0.00000000000E+00  0.45593999997E+02  0.45594000000E+02  0.51100000000E-03 0. -1.
         11   -1    0    0    0    0 -0.00000000000E+00 -0.00000000000E+00 -0.45593999997E+02  0.45594000000E+02  0.51100000000E-03 0.  1.
    9900012    2    1    2    0    0  0.50522147150E+01 -0.27969535939E+02 -0.14453443142E+02  0.59301924155E+02  0.49999963756E+02 0.  0.
        -12    1    1    2    0    0 -0.50522147150E+01  0.27969535939E+02  0.14453443142E+02  0.31886075845E+02  0.00000000000E+00 0.  1.
         11    1    3    3    0    0  0.25352501134E+01 -0.21086585088E+02  0.35629756203E+01  0.21535235298E+02  0.51100000000E-03 0. -1.
        -11    1    3    3    0    0  0.10384921551E+02  0.47387705371E+01  0.36215939618E+01  0.11975745694E+02  0.51100000000E-03 0.  1.
        -12    1    3    3    0    0 -0.78679569498E+01 -0.11621721388E+02 -0.21638012725E+02  0.25790943163E+02  0.00000000000E+00 0.  1.
</event>
<event>
 7    1  0.1184848E-011  0.5930201E+02  0.7816164E-02  0.1266605E+00
        -11   -1    0    0    0    0  0.00000000000E+00  0.00000000000E+00  0.45593999997E+02  0.45594000000E+02  0.51100000000E-03 0.  1.
         11   -1    0    0    0    0 -0.00000000000E+00 -0.00000000000E+00 -0.45593999997E+02  0.45594000000E+02  0.51100000000E-03 0. -1.
    9900012    2    1    2    0    0  0.23872337771E+02 -0.10391517985E+02 -0.18407717495E+02  0.59302012167E+02  0.50000124270E+02 0.  0.
        -12    1    1    2    0    0 -0.23872337771E+02  0.10391517985E+02  0.18407717495E+02  0.31885987833E+02  0.00000000000E+00 0.  1.
         11    1    3    3    0    0 -0.52718567959E+01 -0.76308354696E+00 -0.10771000484E+01  0.54346035137E+01  0.51100000000E-03 0. -1.
        -11    1    3    3    0    0  0.57741336087E+01  0.77160803242E+01  0.10039114401E+02  0.13916261449E+02  0.51100000000E-03 0.  1.
         12    1    3    3    0    0  0.23370060958E+02 -0.17344514762E+02 -0.27369731848E+02  0.39951147204E+02  0.00000000000E+00 0. -1.
</event>
<event>
 7    1  0.1184848E-011  0.5930194E+02  0.7816164E-02  0.1266605E+00
        -11   -1    0    0    0    0  0.00000000000E+00  0.00000000000E+00  0.45593999997E+02  0.45594000000E+02  0.51100000000E-03 0.  1.
         11   -1    0    0    0    0 -0.00000000000E+00 -0.00000000000E+00 -0.45593999997E+02  0.45594000000E+02  0.51100000000E-03 0. -1.
    9900012    2    1    2    0    0 -0.23030064022E+02 -0.20368121048E+02 -0.84543722944E+01  0.59301943255E+02  0.49999998590E+02 0.  0.
        -12    1    1    2    0    0  0.23030064022E+02  0.20368121048E+02  0.84543722944E+01  0.31886056745E+02  0.00000000000E+00 0.  1.
         11    1    3    3    0    0 -0.13002514044E+01  0.74223787344E+01 -0.81265459028E+00  0.75791007076E+01  0.51100000000E-03 0. -1.
        -11    1    3    3    0    0 -0.10036301043E+02  0.47839961412E+01  0.80454831743E+01  0.13723839021E+02  0.51100000000E-03 0.  1.
         12    1    3    3    0    0 -0.11693511575E+02 -0.32574495923E+02 -0.15687200878E+02  0.37999003526E+02  0.00000000000E+00 0. -1.
</event>
<event>
 7    1  0.1184848E-011  0.5930193E+02  0.7816164E-02  0.1266605E+00
        -11   -1    0    0    0    0  0.00000000000E+00  0.00000000000E+00  0.45593999997E+02  0.45594000000E+02  0.51100000000E-03 0. -1.
         11   -1    0    0    0    0 -0.00000000000E+00 -0.00000000000E+00 -0.45593999997E+02  0.45594000000E+02  0.51100000000E-03 0.  1.
    9900012    2    1    2    0    0 -0.48824663012E+01  0.10190360741E+01  0.31493562372E+02  0.59301931214E+02  0.49999976631E+02 0.  0.
        -12    1    1    2    0    0  0.48824663012E+01 -0.10190360741E+01 -0.31493562372E+02  0.31886068786E+02  0.00000000000E+00 0.  1.
         11    1    3    3    0    0 -0.10477613903E+02  0.42505015779E+01  0.12177562702E+02  0.16617466425E+02  0.51100000000E-03 0. -1.
        -11    1    3    3    0    0 -0.10963439152E+02 -0.81710597389E+01 -0.34513702925E+01  0.14102310890E+02  0.51100000000E-03 0.  1.
         12    1    3    3    0    0  0.16558586753E+02  0.49395942351E+01  0.22767369963E+02  0.28582153899E+02  0.00000000000E+00 0. -1.
</event>
<event>
 7    1  0.1184848E-011  0.5930194E+02  0.7816164E-02  0.1266605E+00
        -11   -1    0    0    0    0  0.00000000000E+00  0.00000000000E+00  0.45593999997E+02  0.45594000000E+02  0.51100000000E-03 0. -1.
         11   -1    0    0    0    0 -0.00000000000E+00 -0.00000000000E+00 -0.45593999997E+02  0.45594000000E+02  0.51100000000E-03 0.  1.
    9900012    2    1    2    0    0 -0.10965310439E+02  0.28302175687E+02  0.97708617412E+01  0.59301938456E+02  0.49999989838E+02 0.  0.
        -12    1    1    2    0    0  0.10965310439E+02 -0.28302175687E+02 -0.97708617412E+01  0.31886061544E+02  0.00000000000E+00 0.  1.
         11    1    3    3    0    0 -0.52008233423E+01  0.16884271413E+02 -0.18902405247E+02  0.25873308813E+02  0.51100000000E-03 0.  1.
        -11    1    3    3    0    0  0.80832285525E+00  0.56206377038E+01  0.32625208518E+01  0.65489691253E+01  0.51100000000E-03 0. -1.
        -12    1    3    3    0    0 -0.65728099515E+01  0.57972665705E+01  0.25410746136E+02  0.26879660518E+02  0.00000000000E+00 0.  1.
</event>
<event>
 7    1  0.1184848E-011  0.5930191E+02  0.7816164E-02  0.1266605E+00
        -11   -1    0    0    0    0  0.00000000000E+00  0.00000000000E+00  0.45593999997E+02  0.45594000000E+02  0.51100000000E-03 0.  1.
         11   -1    0    0    0    0 -0.00000000000E+00 -0.00000000000E+00 -0.45593999997E+02  0.45594000000E+02  0.51100000000E-03 0. -1.
    9900012    2    1    2    0    0  0.27729850062E+02  0.12945951733E+02 -0.89543581602E+01  0.59301909289E+02  0.49999936646E+02 0.  0.
        -12    1    1    2    0    0 -0.27729850062E+02 -0.12945951733E+02  0.89543581602E+01  0.31886090711E+02  0.00000000000E+00 0.  1.
         11    1    3    3    0    0  0.18697741298E+02  0.99651609201E+01 -0.17935077323E+01  0.21263269553E+02  0.51100000000E-03 0. -1.
        -11    1    3    3    0    0 -0.45431530985E+01  0.17138503115E+02 -0.39123905399E+01  0.18156963653E+02  0.51100000000E-03 0.  1.
         12    1    3    3    0    0  0.13575261863E+02 -0.14157712302E+02 -0.32484598880E+01  0.19881676084E+02  0.00000000000E+00 0. -1.
</event>
<event>
 7    1  0.1184848E-011  0.5930198E+02  0.7816164E-02  0.1266605E+00
        -11   -1    0    0    0    0  0.00000000000E+00  0.00000000000E+00  0.45593999997E+02  0.45594000000E+02  0.51100000000E-03 0. -1.
         11   -1    0    0    0    0 -0.00000000000E+00 -0.00000000000E+00 -0.45593999997E+02  0.45594000000E+02  0.51100000000E-03 0.  1.
    9900012    2    1    2    0    0 -0.34145668413E+01 -0.30971978124E+02  0.67672664082E+01  0.59301975000E+02  0.50000056486E+02 0.  0.
        -12    1    1    2    0    0  0.34145668413E+01  0.30971978124E+02 -0.67672664082E+01  0.31886025000E+02  0.00000000000E+00 0.  1.
         11    1    3    3    0    0  0.51019773330E+01 -0.29928653138E+02  0.78522200876E+01  0.31359397505E+02  0.51100000000E-03 0. -1.
        -11    1    3    3    0    0 -0.11440396875E+02 -0.10914288069E+02 -0.55001464678E+01  0.16740847533E+02  0.51100000000E-03 0.  1.
        -12    1    3    3    0    0  0.29238527003E+01  0.98709630820E+01  0.44151927884E+01  0.11201729962E+02  0.00000000000E+00 0.  1.
</event>
<event>
 7    1  0.1184848E-011  0.5930194E+02  0.7816164E-02  0.1266605E+00
        -11   -1    0    0    0    0  0.00000000000E+00  0.00000000000E+00  0.45593999997E+02  0.45594000000E+02  0.51100000000E-03 0. -1.
         11   -1    0    0    0    0 -0.00000000000E+00 -0.00000000000E+00 -0.45593999997E+02  0.45594000000E+02  0.51100000000E-03 0.  1.
    9900012    2    1    2    0    0 -0.30472042270E+02 -0.51754647399E+00  0.93759221929E+01  0.59301935153E+02  0.49999983815E+02 0.  0.
        -12    1    1    2    0    0  0.30472042270E+02  0.51754647399E+00 -0.93759221929E+01  0.31886064847E+02  0.00000000000E+00 0.  1.
         11    1    3    3    0    0 -0.18502986683E+02  0.25387477505E+01  0.13457656067E+02  0.23019866711E+02  0.51100000000E-03 0. -1.
        -11    1    3    3    0    0 -0.29431237001E+01 -0.16664816020E+02 -0.90796560648E+01  0.19204640705E+02  0.51100000000E-03 0.  1.
         12    1    3    3    0    0 -0.90259318863E+01  0.13608521796E+02  0.49979221908E+01  0.17077427737E+02  0.00000000000E+00 0. -1.
</event>
<event>
 7    1  0.1184848E-011  0.5930194E+02  0.7816164E-02  0.1266605E+00
        -11   -1    0    0    0    0  0.00000000000E+00  0.00000000000E+00  0.45593999997E+02  0.45594000000E+02  0.51100000000E-03 0.  1.
         11   -1    0    0    0    0 -0.00000000000E+00 -0.00000000000E+00 -0.45593999997E+02  0.45594000000E+02  0.51100000000E-03 0. -1.
    9900012    2    1    2    0    0 -0.11315167676E+02  0.29777675760E+02  0.14062661154E+01  0.59301943838E+02  0.49999999654E+02 0.  0.
        -12    1    1    2    0    0  0.11315167676E+02 -0.29777675760E+02 -0.14062661154E+01  0.31886056162E+02  0.00000000000E+00 0.  1.
         11    1    3    3    0    0 -0.13731116254E+02 -0.33368010845E+00  0.46896339674E+01  0.14513702595E+02  0.51100000000E-03 0. -1.
        -11    1    3    3    0    0 -0.13289837168E+02  0.17045098554E+02  0.58765977464E+01  0.22398427579E+02  0.51100000000E-03 0.  1.
        -12    1    3    3    0    0  0.15705785747E+02  0.13066257314E+02 -0.91599655983E+01  0.22389813663E+02  0.00000000000E+00 0.  1.
</event>
<event>
 7    1  0.1184848E-011  0.5930193E+02  0.7816164E-02  0.1266605E+00
        -11   -1    0    0    0    0  0.00000000000E+00  0.00000000000E+00  0.45593999997E+02  0.45594000000E+02  0.51100000000E-03 0.  1.
         11   -1    0    0    0    0 -0.00000000000E+00 -0.00000000000E+00 -0.45593999997E+02  0.45594000000E+02  0.51100000000E-03 0. -1.
    9900012    2    1    2    0    0 -0.25618124687E+02  0.18684506195E+02  0.33648679845E+01  0.59301930616E+02  0.49999975540E+02 0.  0.
        -12    1    1    2    0    0  0.25618124687E+02 -0.18684506195E+02 -0.33648679845E+01  0.31886069384E+02  0.00000000000E+00 0.  1.
         11    1    3    3    0    0 -0.29468368541E+01 -0.60186165898E+01 -0.23314333377E+01  0.70952924372E+01  0.51100000000E-03 0.  1.
        -11    1    3    3    0    0  0.21335884038E+00 -0.54183480593E+01  0.12632635824E+02  0.13747272668E+02  0.51100000000E-03 0. -1.
         12    1    3    3    0    0 -0.22884646673E+02  0.30121470844E+02 -0.69363345016E+01  0.38459365511E+02  0.00000000000E+00 0. -1.
</event>
<event>
 7    1  0.1184848E-011  0.5930193E+02  0.7816164E-02  0.1266605E+00
        -11   -1    0    0    0    0  0.00000000000E+00  0.00000000000E+00  0.45593999997E+02  0.45594000000E+02  0.51100000000E-03 0.  1.
         11   -1    0    0    0    0 -0.00000000000E+00 -0.00000000000E+00 -0.45593999997E+02  0.45594000000E+02  0.51100000000E-03 0. -1.
    9900012    2    1    2    0    0 -0.30064535979E+01 -0.26349311216E+02 -0.17703004219E+02  0.59301932146E+02  0.49999978330E+02 0.  0.
        -12    1    1    2    0    0  0.30064535979E+01  0.26349311216E+02  0.17703004219E+02  0.31886067854E+02  0.00000000000E+00 0.  1.
         11    1    3    3    0    0  0.78397170554E+01 -0.81668256962E+01 -0.23075446714E+01  0.11553482944E+02  0.51100000000E-03 0. -1.
        -11    1    3    3    0    0 -0.17912458973E+02 -0.26171672319E+02 -0.37156807656E+01  0.31931471971E+02  0.51100000000E-03 0.  1.
         12    1    3    3    0    0  0.70662883193E+01  0.79891867991E+01 -0.11679778782E+02  0.15816977231E+02  0.00000000000E+00 0. -1.
</event>
<event>
 7    1  0.1184848E-011  0.5930195E+02  0.7816164E-02  0.1266605E+00
        -11   -1    0    0    0    0  0.00000000000E+00  0.00000000000E+00  0.45593999997E+02  0.45594000000E+02  0.51100000000E-03 0.  1.
         11   -1    0    0    0    0 -0.00000000000E+00 -0.00000000000E+00 -0.45593999997E+02  0.45594000000E+02  0.51100000000E-03 0. -1.
    9900012    2    1    2    0    0  0.16642944913E+01  0.18530038106E+02 -0.25895718919E+02  0.59301945890E+02  0.50000003397E+02 0.  0.
        -12    1    1    2    0    0 -0.16642944913E+01 -0.18530038106E+02  0.25895718919E+02  0.31886054110E+02  0.00000000000E+00 0.  1.
         11    1    3    3    0    0 -0.11584560356E+02 -0.27206824465E+01 -0.20110699916E+02  0.23367593009E+02  0.51100000000E-03 0. -1.
        -11    1    3    3    0    0 -0.57506090133E+01  0.13793095756E+02 -0.10440128022E+01  0.14980285630E+02  0.51100000000E-03 0.  1.
         12    1    3    3    0    0  0.18999463861E+02  0.74576247960E+01 -0.47410062005E+01  0.20954067252E+02  0.00000000000E+00 0. -1.
</event>
<event>
 7    1  0.1184848E-011  0.5930195E+02  0.7816164E-02  0.1266605E+00
        -11   -1    0    0    0    0  0.00000000000E+00  0.00000000000E+00  0.45593999997E+02  0.45594000000E+02  0.51100000000E-03 0.  1.
         11   -1    0    0    0    0 -0.00000000000E+00 -0.00000000000E+00 -0.45593999997E+02  0.45594000000E+02  0.51100000000E-03 0. -1.
    9900012    2    1    2    0    0 -0.57308289183E+00  0.44329115187E+01 -0.31571201850E+02  0.59301954231E+02  0.50000018608E+02 0.  0.
        -12    1    1    2    0    0  0.57308289183E+00 -0.44329115187E+01  0.31571201850E+02  0.31886045769E+02  0.00000000000E+00 0.  1.
         11    1    3    3    0    0  0.51604981879E+01  0.20298425219E+01 -0.98859040621E+01  0.11334994557E+02  0.51100000000E-03 0. -1.
        -11    1    3    3    0    0  0.81684881362E+01  0.17654582479E+02 -0.21861466890E+01  0.19575181188E+02  0.51100000000E-03 0.  1.
         12    1    3    3    0    0 -0.13902069216E+02 -0.15251513483E+02 -0.19499151099E+02  0.28391778486E+02  0.00000000000E+00 0. -1.
</event>
<event>
 7    1  0.1184848E-011  0.5930192E+02  0.7816164E-02  0.1266605E+00
        -11   -1    0    0    0    0  0.00000000000E+00  0.00000000000E+00  0.45593999997E+02  0.45594000000E+02  0.51100000000E-03 0. -1.
         11   -1    0    0    0    0 -0.00000000000E+00 -0.00000000000E+00 -0.45593999997E+02  0.45594000000E+02  0.51100000000E-03 0.  1.
    9900012    2    1    2    0    0 -0.15804320847E+02 -0.25607740405E+02  0.10544632075E+02  0.59301918527E+02  0.49999953493E+02 0.  0.
        -12    1    1    2    0    0  0.15804320847E+02  0.25607740405E+02 -0.10544632075E+02  0.31886081473E+02  0.00000000000E+00 0.  1.
         11    1    3    3    0    0 -0.94328527690E+00 -0.19837638383E+02  0.31304962612E+01  0.20105265252E+02  0.51100000000E-03 0. -1.
        -11    1    3    3    0    0  0.33223654627E+01 -0.16752382650E+02  0.14901986358E+01  0.17143544819E+02  0.51100000000E-03 0.  1.
         12    1    3    3    0    0 -0.18183401033E+02  0.10982280628E+02  0.59239371782E+01  0.22053108457E+02  0.00000000000E+00 0. -1.
</event>
<event>
 7    1  0.1184848E-011  0.5930193E+02  0.7816164E-02  0.1266605E+00
        -11   -1    0    0    0    0  0.00000000000E+00  0.00000000000E+00  0.45593999997E+02  0.45594000000E+02  0.51100000000E-03 0.  1.
         11   -1    0    0    0    0 -0.00000000000E+00 -0.00000000000E+00 -0.45593999997E+02  0.45594000000E+02  0.51100000000E-03 0. -1.
    9900012    2    1    2    0    0 -0.16245738174E+01  0.30289004419E+02  0.98315043203E+01  0.59301929280E+02  0.49999973104E+02 0.  0.
        -12    1    1    2    0    0  0.16245738174E+01 -0.30289004419E+02 -0.98315043203E+01  0.31886070720E+02  0.00000000000E+00 0.  1.
         11    1    3    3    0    0  0.18702956873E+02  0.11890799144E+02  0.18644604174E+01  0.22241131109E+02  0.51100000000E-03 0. -1.
        -11    1    3    3    0    0 -0.48916246879E+01 -0.54879467673E+01 -0.55291122816E+00  0.73723308998E+01  0.51100000000E-03 0.  1.
         12    1    3    3    0    0 -0.15435906003E+02  0.23886152042E+02  0.85199551311E+01  0.29688467272E+02  0.00000000000E+00 0. -1.
</event>
<event>
 7    1  0.1184848E-011  0.5930195E+02  0.7816164E-02  0.1266605E+00
        -11   -1    0    0    0    0  0.00000000000E+00  0.00000000000E+00  0.45593999997E+02  0.45594000000E+02  0.51100000000E-03 0.  1.
         11   -1    0    0    0    0 -0.00000000000E+00 -0.00000000000E+00 -0.45593999997E+02  0.45594000000E+02  0.51100000000E-03 0. -1.
    9900012    2    1    2    0    0  0.13654034876E+01  0.31586070867E+02 -0.41443828864E+01  0.59301951185E+02  0.50000013054E+02 0.  0.
        -12    1    1    2    0    0 -0.13654034876E+01 -0.31586070867E+02  0.41443828864E+01  0.31886048815E+02  0.00000000000E+00 0.  1.
         11    1    3    3    0    0 -0.27728061384E+01  0.13372003689E+00  0.60774812916E+01  0.66814754389E+01  0.51100000000E-03 0. -1.
        -11    1    3    3    0    0 -0.70852255952E+01  0.26561650143E+02  0.97724439739E+01  0.29175714928E+02  0.51100000000E-03 0.  1.
         12    1    3    3    0    0  0.11223435221E+02  0.48907006868E+01 -0.19994308152E+02  0.23444760819E+02  0.00000000000E+00 0. -1.
</event>
<event>
 7    1  0.1184848E-011  0.5930195E+02  0.7816164E-02  0.1266605E+00
        -11   -1    0    0    0    0  0.00000000000E+00  0.00000000000E+00  0.45593999997E+02  0.45594000000E+02  0.51100000000E-03 0.  1.
         11   -1    0    0    0    0 -0.00000000000E+00 -0.00000000000E+00 -0.45593999997E+02  0.45594000000E+02  0.51100000000E-03 0. -1.
    9900012    2    1    2    0    0  0.21283880993E+02  0.14558792116E+01 -0.23698031419E+02  0.59301954972E+02  0.50000019960E+02 0.  0.
        -12    1    1    2    0    0 -0.21283880993E+02 -0.14558792116E+01  0.23698031419E+02  0.31886045028E+02  0.00000000000E+00 0.  1.
         11    1    3    3    0    0 -0.26637018707E+01 -0.80372950100E+01 -0.43012710896E+01  0.94970707053E+01  0.51100000000E-03 0. -1.
        -11    1    3    3    0    0  0.21992740167E+02 -0.10155895706E+02 -0.35433373501E+01  0.24482199197E+02  0.51100000000E-03 0.  1.
        -12    1    3    3    0    0  0.19548426961E+01  0.19649069928E+02 -0.15853422979E+02  0.25322685070E+02  0.00000000000E+00 0.  1.
</event>
<event>
 7    1  0.1184848E-011  0.5930197E+02  0.7816164E-02  0.1266605E+00
        -11   -1    0    0    0    0  0.00000000000E+00  0.00000000000E+00  0.45593999997E+02  0.45594000000E+02  0.51100000000E-03 0. -1.
         11   -1    0    0    0    0 -0.00000000000E+00 -0.00000000000E+00 -0.45593999997E+02  0.45594000000E+02  0.51100000000E-03 0.  1.
    9900012    2    1    2    0    0 -0.78468116566E+01 -0.30209947262E+02  0.65196447031E+01  0.59301966477E+02  0.50000040942E+02 0.  0.
        -12    1    1    2    0    0  0.78468116566E+01  0.30209947262E+02 -0.65196447031E+01  0.31886033523E+02  0.00000000000E+00 0.  1.
         11    1    3    3    0    0  0.72677092463E+01 -0.15027855802E+01 -0.12097560641E+01  0.75194063718E+01  0.51100000000E-03 0. -1.
        -11    1    3    3    0    0 -0.13743220469E+02  0.14019445130E+01 -0.97794811951E+01  0.16925714460E+02  0.51100000000E-03 0.  1.
         12    1    3    3    0    0 -0.13713004337E+01 -0.30109106195E+02  0.17508881962E+02  0.34856845645E+02  0.00000000000E+00 0. -1.
</event>
<event>
 7    1  0.1184848E-011  0.5930194E+02  0.7816164E-02  0.1266605E+00
        -11   -1    0    0    0    0  0.00000000000E+00  0.00000000000E+00  0.45593999997E+02  0.45594000000E+02  0.51100000000E-03 0. -1.
         11   -1    0    0    0    0 -0.00000000000E+00 -0.00000000000E+00 -0.45593999997E+02  0.45594000000E+02  0.51100000000E-03 0.  1.
    9900012    2    1    2    0    0  0.76433766808E+01 -0.21919000827E+02  0.21859941577E+02  0.59301939565E+02  0.49999991861E+02 0.  0.
        -12    1    1    2    0    0 -0.76433766808E+01  0.21919000827E+02 -0.21859941577E+02  0.31886060435E+02  0.00000000000E+00 0.  1.
         11    1    3    3    0    0 -0.18884818610E+01 -0.24560409603E+01  0.64423237281E+01  0.71485688230E+01  0.51100000000E-03 0. -1.
        -11    1    3    3    0    0  0.23321096444E+02 -0.24247404207E+02  0.16590323202E+02  0.37510651479E+02  0.51100000000E-03 0.  1.
        -12    1    3    3    0    0 -0.13789237902E+02  0.47844443403E+01 -0.11727053535E+01  0.14642719263E+02  0.00000000000E+00 0.  1.
</event>
<event>
 7    1  0.1184848E-011  0.5930194E+02  0.7816164E-02  0.1266605E+00
        -11   -1    0    0    0    0  0.00000000000E+00  0.00000000000E+00  0.45593999997E+02  0.45594000000E+02  0.51100000000E-03 0. -1.
         11   -1    0    0    0    0 -0.00000000000E+00 -0.00000000000E+00 -0.45593999997E+02  0.45594000000E+02  0.51100000000E-03 0.  1.
    9900012    2    1    2    0    0 -0.55099326161E+01  0.11563310968E+02  0.29200193929E+02  0.59301939669E+02  0.49999992051E+02 0.  0.
        -12    1    1    2    0    0  0.55099326161E+01 -0.11563310968E+02 -0.29200193929E+02  0.31886060331E+02  0.00000000000E+00 0.  1.
         11    1    3    3    0    0  0.88156649793E+01 -0.11974024289E+02  0.20938848335E+02  0.25681288452E+02  0.51100000000E-03 0. -1.
        -11    1    3    3    0    0  0.33890651324E+01  0.71044724232E+01  0.47775704470E+01  0.92078483112E+01  0.51100000000E-03 0.  1.
        -12    1    3    3    0    0 -0.17714662728E+02  0.16432862833E+02  0.34837751467E+01  0.24412802906E+02  0.00000000000E+00 0.  1.
</event>
<event>
 7    1  0.1184848E-011  0.5930194E+02  0.7816164E-02  0.1266605E+00
        -11   -1    0    0    0    0  0.00000000000E+00  0.00000000000E+00  0.45593999997E+02  0.45594000000E+02  0.51100000000E-03 0.  1.
         11   -1    0    0    0    0 -0.00000000000E+00 -0.00000000000E+00 -0.45593999997E+02  0.45594000000E+02  0.51100000000E-03 0. -1.
    9900012    2    1    2    0    0 -0.33311012794E+01  0.30053527332E+02 -0.10119779471E+02  0.59301942273E+02  0.49999996800E+02 0.  0.
        -12    1    1    2    0    0  0.33311012794E+01 -0.30053527332E+02  0.10119779471E+02  0.31886057727E+02  0.00000000000E+00 0.  1.
         11    1    3    3    0    0  0.15617394755E+01 -0.18852853449E+01 -0.35179150203E+01  0.42859138316E+01  0.51100000000E-03 0. -1.
        -11    1    3    3    0    0 -0.24489026969E+02  0.15931558986E+02 -0.18750563640E+01  0.29275294196E+02  0.51100000000E-03 0.  1.
         12    1    3    3    0    0  0.19596186214E+02  0.16007253691E+02 -0.47268080865E+01  0.25740734246E+02  0.00000000000E+00 0. -1.
</event>
<event>
 7    1  0.1184848E-011  0.5930194E+02  0.7816164E-02  0.1266605E+00
        -11   -1    0    0    0    0  0.00000000000E+00  0.00000000000E+00  0.45593999997E+02  0.45594000000E+02  0.51100000000E-03 0. -1.
         11   -1    0    0    0    0 -0.00000000000E+00 -0.00000000000E+00 -0.45593999997E+02  0.45594000000E+02  0.51100000000E-03 0.  1.
    9900012    2    1    2    0    0  0.15753089706E+02 -0.99331969292E+01  0.25882277398E+02  0.59301944743E+02  0.50000001305E+02 0.  0.
        -12    1    1    2    0    0 -0.15753089706E+02  0.99331969292E+01 -0.25882277398E+02  0.31886055257E+02  0.00000000000E+00 0.  1.
         11    1    3    3    0    0 -0.14131062217E+02 -0.12455774055E+02  0.87988669640E+01  0.20790701932E+02  0.51100000000E-03 0. -1.
        -11    1    3    3    0    0  0.76749047589E+01 -0.50611073687E+01  0.10865829725E+02  0.14233243718E+02  0.51100000000E-03 0.  1.
        -12    1    3    3    0    0  0.22209247165E+02  0.75836844948E+01  0.62175807091E+01  0.24277999094E+02  0.00000000000E+00 0.  1.
</event>
<event>
 7    1  0.1184848E-011  0.5930190E+02  0.7816164E-02  0.1266605E+00
        -11   -1    0    0    0    0  0.00000000000E+00  0.00000000000E+00  0.45593999997E+02  0.45594000000E+02  0.51100000000E-03 0.  1.
         11   -1    0    0    0    0 -0.00000000000E+00 -0.00000000000E+00 -0.45593999997E+02  0.45594000000E+02  0.51100000000E-03 0. -1.
    9900012    2    1    2    0    0  0.14206203704E+02 -0.17733261428E+02 -0.22370478859E+02  0.59301904144E+02  0.49999927262E+02 0.  0.
        -12    1    1    2    0    0 -0.14206203704E+02  0.17733261428E+02  0.22370478859E+02  0.31886095856E+02  0.00000000000E+00 0.  1.
         11    1    3    3    0    0 -0.40964942767E+01 -0.13850930299E+02 -0.65297952694E+01  0.15851427759E+02  0.51100000000E-03 0. -1.
        -11    1    3    3    0    0  0.27085840731E+01 -0.15344727151E+02 -0.18193754119E+02  0.23954326712E+02  0.51100000000E-03 0.  1.
        -12    1    3    3    0    0  0.15594113908E+02  0.11462396022E+02  0.23530705296E+01  0.19496149673E+02  0.00000000000E+00 0.  1.
</event>
<event>
 7    1  0.1184848E-011  0.5930194E+02  0.7816164E-02  0.1266605E+00
        -11   -1    0    0    0    0  0.00000000000E+00  0.00000000000E+00  0.45593999997E+02  0.45594000000E+02  0.51100000000E-03 0.  1.
         11   -1    0    0    0    0 -0.00000000000E+00 -0.00000000000E+00 -0.45593999997E+02  0.45594000000E+02  0.51100000000E-03 0. -1.
    9900012    2    1    2    0    0 -0.76555609393E+01 -0.29230120507E+02 -0.10183979017E+02  0.59301937421E+02  0.49999987951E+02 0.  0.
        -12    1    1    2    0    0  0.76555609393E+01  0.29230120507E+02  0.10183979017E+02  0.31886062579E+02  0.00000000000E+00 0.  1.
         11    1    3    3    0    0  0.81911776501E+01 -0.13234266484E+02 -0.13285095625E+02  0.20463014604E+02  0.51100000000E-03 0. -1.
        -11    1    3    3    0    0 -0.20047040836E+01  0.93088414936E+01  0.30397411725E+01  0.99956688157E+01  0.51100000000E-03 0.  1.
        -12    1    3    3    0    0 -0.13842034506E+02 -0.25304695517E+02  0.61375435359E-01  0.28843254002E+02  0.00000000000E+00 0.  1.
</event>
<event>
 7    1  0.1184848E-011  0.5930196E+02  0.7816164E-02  0.1266605E+00
        -11   -1    0    0    0    0  0.00000000000E+00  0.00000000000E+00  0.45593999997E+02  0.45594000000E+02  0.51100000000E-03 0. -1.
         11   -1    0    0    0    0 -0.00000000000E+00 -0.00000000000E+00 -0.45593999997E+02  0.45594000000E+02  0.51100000000E-03 0.  1.
    9900012    2    1    2    0    0 -0.45739768080E+00  0.86654709959E+01  0.30682571487E+02  0.59301956136E+02  0.50000022083E+02 0.  0.
        -12    1    1    2    0    0  0.45739768080E+00 -0.86654709959E+01 -0.30682571487E+02  0.31886043864E+02  0.00000000000E+00 0.  1.
         11    1    3    3    0    0  0.10975711182E+01  0.15198224225E+02  0.17238216469E+02  0.23007537662E+02  0.51100000000E-03 0. -1.
        -11    1    3    3    0    0 -0.12778272922E+02  0.59751730334E+01 -0.99043380006E+00  0.14141001062E+02  0.51100000000E-03 0.  1.
        -12    1    3    3    0    0  0.11223304123E+02 -0.12507926263E+02  0.14434788818E+02  0.22153417413E+02  0.00000000000E+00 0.  1.
</event>
<event>
 7    1  0.1184848E-011  0.5930195E+02  0.7816164E-02  0.1266605E+00
        -11   -1    0    0    0    0  0.00000000000E+00  0.00000000000E+00  0.45593999997E+02  0.45594000000E+02  0.51100000000E-03 0.  1.
         11   -1    0    0    0    0 -0.00000000000E+00 -0.00000000000E+00 -0.45593999997E+02  0.45594000000E+02  0.51100000000E-03 0. -1.
    9900012    2    1    2    0    0 -0.94541128538E+01 -0.25272374692E+01 -0.30347209618E+02  0.59301948023E+02  0.50000007287E+02 0.  0.
        -12    1    1    2    0    0  0.94541128538E+01  0.25272374692E+01  0.30347209618E+02  0.31886051977E+02  0.00000000000E+00 0.  1.
         11    1    3    3    0    0 -0.23384323159E+01  0.47090012596E+01 -0.75779164673E+01  0.92232194382E+01  0.51100000000E-03 0. -1.
        -11    1    3    3    0    0 -0.14958225184E+02 -0.15206584074E+02 -0.29965059260E+02  0.36781700295E+02  0.51100000000E-03 0.  1.
        -12    1    3    3    0    0  0.78425446461E+01  0.79703453448E+01  0.71957661098E+01  0.13297028290E+02  0.00000000000E+00 0.  1.
</event>
<event>
 7    1  0.1184848E-011  0.5930197E+02  0.7816164E-02  0.1266605E+00
        -11   -1    0    0    0    0  0.00000000000E+00  0.00000000000E+00  0.45593999997E+02  0.45594000000E+02  0.51100000000E-03 0.  1.
         11   -1    0    0    0    0 -0.00000000000E+00 -0.00000000000E+00 -0.45593999997E+02  0.45594000000E+02  0.51100000000E-03 0. -1.
    9900012    2    1    2    0    0 -0.22435144648E+02  0.21302454312E+02 -0.77193616164E+01  0.59301971416E+02  0.50000049949E+02 0.  0.
        -12    1    1    2    0    0  0.22435144648E+02 -0.21302454312E+02  0.77193616164E+01  0.31886028584E+02  0.00000000000E+00 0.  1.
         11    1    3    3    0    0  0.22703311207E+01 -0.18245727938E+01  0.10818139944E+01  0.31070550457E+01  0.51100000000E-03 0. -1.
        -11    1    3    3    0    0  0.67644060849E+01  0.18995195897E+02 -0.13274920614E+02  0.24141213192E+02  0.51100000000E-03 0.  1.
         12    1    3    3    0    0 -0.31469881854E+02  0.41318312095E+01  0.44737450032E+01  0.32053703178E+02  0.00000000000E+00 0. -1.
</event>
<event>
 7    1  0.1184848E-011  0.5930195E+02  0.7816164E-02  0.1266605E+00
        -11   -1    0    0    0    0  0.00000000000E+00  0.00000000000E+00  0.45593999997E+02  0.45594000000E+02  0.51100000000E-03 0. -1.
         11   -1    0    0    0    0 -0.00000000000E+00 -0.00000000000E+00 -0.45593999997E+02  0.45594000000E+02  0.51100000000E-03 0.  1.
    9900012    2    1    2    0    0 -0.57786276418E+00 -0.28410995571E+02  0.14463807660E+02  0.59301947771E+02  0.50000006827E+02 0.  0.
        -12    1    1    2    0    0  0.57786276418E+00  0.28410995571E+02 -0.14463807660E+02  0.31886052229E+02  0.00000000000E+00 0.  1.
         11    1    3    3    0    0  0.10021285810E+02  0.43796284907E+01  0.10222900222E+02  0.14970471075E+02  0.51100000000E-03 0. -1.
        -11    1    3    3    0    0 -0.48133879336E+01 -0.59072597236E+01 -0.10622307908E+02  0.13072790307E+02  0.51100000000E-03 0.  1.
         12    1    3    3    0    0 -0.57857606409E+01 -0.26883364338E+02  0.14863215347E+02  0.31258686389E+02  0.00000000000E+00 0. -1.
</event>
<event>
 7    1  0.1184848E-011  0.5930192E+02  0.7816164E-02  0.1266605E+00
        -11   -1    0    0    0    0  0.00000000000E+00  0.00000000000E+00  0.45593999997E+02  0.45594000000E+02  0.51100000000E-03 0. -1.
         11   -1    0    0    0    0 -0.00000000000E+00 -0.00000000000E+00 -0.45593999997E+02  0.45594000000E+02  0.51100000000E-03 0.  1.
    9900012    2    1    2    0    0  0.21649715627E+02  0.20913934192E+02  0.10517573071E+02  0.59301918814E+02  0.49999954015E+02 0.  0.
        -12    1    1    2    0    0 -0.21649715627E+02 -0.20913934192E+02 -0.10517573071E+02  0.31886081186E+02  0.00000000000E+00 0.  1.
         11    1    3    3    0    0  0.13574579419E+02 -0.41468329519E+01 -0.35313427574E+01  0.14626544769E+02  0.51100000000E-03 0. -1.
        -11    1    3    3    0    0  0.76010327623E+01  0.49844035442E+01 -0.98874466226E+01  0.13430620936E+02  0.51100000000E-03 0.  1.
         12    1    3    3    0    0  0.47410344582E+00  0.20076363599E+02  0.23936362451E+02  0.31244753109E+02  0.00000000000E+00 0. -1.
</event>
<event>
 7    1  0.1184848E-011  0.5930193E+02  0.7816164E-02  0.1266605E+00
        -11   -1    0    0    0    0  0.00000000000E+00  0.00000000000E+00  0.45593999997E+02  0.45594000000E+02  0.51100000000E-03 0. -1.
         11   -1    0    0    0    0 -0.00000000000E+00 -0.00000000000E+00 -0.45593999997E+02  0.45594000000E+02  0.51100000000E-03 0.  1.
    9900012    2    1    2    0    0  0.28802587632E+02  0.12343685457E+02  0.58962573361E+01  0.59301929757E+02  0.49999973973E+02 0.  0.
        -12    1    1    2    0    0 -0.28802587632E+02 -0.12343685457E+02 -0.58962573361E+01  0.31886070243E+02  0.00000000000E+00 0.  1.
         11    1    3    3    0    0  0.16513498508E+02 -0.29998901443E+01  0.15585659167E+02  0.22904317187E+02  0.51100000000E-03 0. -1.
        -11    1    3    3    0    0 -0.44400178328E+00  0.14286768161E+01  0.94255889805E+01  0.95435833375E+01  0.51100000000E-03 0.  1.
        -12    1    3    3    0    0  0.12733090908E+02  0.13914898786E+02 -0.19114990812E+02  0.26854029232E+02  0.00000000000E+00 0.  1.
</event>
<event>
 7    1  0.1184848E-011  0.5930192E+02  0.7816164E-02  0.1266605E+00
        -11   -1    0    0    0    0  0.00000000000E+00  0.00000000000E+00  0.45593999997E+02  0.45594000000E+02  0.51100000000E-03 0.  1.
         11   -1    0    0    0    0 -0.00000000000E+00 -0.00000000000E+00 -0.45593999997E+02  0.45594000000E+02  0.51100000000E-03 0. -1.
    9900012    2    1    2    0    0  0.14908684702E+02  0.27781120955E+02  0.47605352843E+01  0.59301917499E+02  0.49999951619E+02 0.  0.
        -12    1    1    2    0    0 -0.14908684702E+02 -0.27781120955E+02 -0.47605352843E+01  0.31886082501E+02  0.00000000000E+00 0.  1.
         11    1    3    3    0    0 -0.97754012433E+01 -0.42321500885E+01  0.15093465077E+01  0.10758610086E+02  0.51100000000E-03 0.  1.
        -11    1    3    3    0    0  0.14918970264E+02  0.66919077393E+01 -0.91145299941E+01  0.18719827996E+02  0.51100000000E-03 0. -1.
         12    1    3    3    0    0  0.97651156811E+01  0.25321363304E+02  0.12365718771E+02  0.29823479417E+02  0.00000000000E+00 0. -1.
</event>
<event>
 7    1  0.1184848E-011  0.5930194E+02  0.7816164E-02  0.1266605E+00
        -11   -1    0    0    0    0  0.00000000000E+00  0.00000000000E+00  0.45593999997E+02  0.45594000000E+02  0.51100000000E-03 0. -1.
         11   -1    0    0    0    0 -0.00000000000E+00 -0.00000000000E+00 -0.45593999997E+02  0.45594000000E+02  0.51100000000E-03 0.  1.
    9900012    2    1    2    0    0 -0.21738942535E+02 -0.22847394402E+02  0.47048741837E+01  0.59301938867E+02  0.49999990588E+02 0.  0.
        -12    1    1    2    0    0  0.21738942535E+02  0.22847394402E+02 -0.47048741837E+01  0.31886061133E+02  0.00000000000E+00 0.  1.
         11    1    3    3    0    0  0.69658991994E+01 -0.15346667965E+02  0.12153362341E+02  0.20778551098E+02  0.51100000000E-03 0. -1.
        -11    1    3    3    0    0 -0.78380939603E+01 -0.11846420581E+02  0.34014780302E+01  0.14606281203E+02  0.51100000000E-03 0.  1.
        -12    1    3    3    0    0 -0.20866747774E+02  0.43456941436E+01 -0.10849966187E+02  0.23917106567E+02  0.00000000000E+00 0.  1.
</event>
<event>
 7    1  0.1184848E-011  0.5930197E+02  0.7816164E-02  0.1266605E+00
        -11   -1    0    0    0    0  0.00000000000E+00  0.00000000000E+00  0.45593999997E+02  0.45594000000E+02  0.51100000000E-03 0. -1.
         11   -1    0    0    0    0 -0.00000000000E+00 -0.00000000000E+00 -0.45593999997E+02  0.45594000000E+02  0.51100000000E-03 0.  1.
    9900012    2    1    2    0    0 -0.10177847323E+02  0.16530180049E+01  0.30172804108E+02  0.59301966186E+02  0.50000040411E+02 0.  0.
        -12    1    1    2    0    0  0.10177847323E+02 -0.16530180049E+01 -0.30172804108E+02  0.31886033814E+02  0.00000000000E+00 0.  1.
         11    1    3    3    0    0  0.63224504756E-01  0.39493078991E+01  0.19787717146E+02  0.20178076726E+02  0.51100000000E-03 0. -1.
        -11    1    3    3    0    0 -0.20847097032E+02  0.85599585452E+01  0.58309539186E+01  0.23278195137E+02  0.51100000000E-03 0.  1.
         12    1    3    3    0    0  0.10606025204E+02 -0.10856248439E+02  0.45541330430E+01  0.15845694323E+02  0.00000000000E+00 0. -1.
</event>
<event>
 7    1  0.1184848E-011  0.5930191E+02  0.7816164E-02  0.1266605E+00
        -11   -1    0    0    0    0  0.00000000000E+00  0.00000000000E+00  0.45593999997E+02  0.45594000000E+02  0.51100000000E-03 0.  1.
         11   -1    0    0    0    0 -0.00000000000E+00 -0.00000000000E+00 -0.45593999997E+02  0.45594000000E+02  0.51100000000E-03 0. -1.
    9900012    2    1    2    0    0 -0.12883241496E+02 -0.43853231557E+01 -0.28835977710E+02  0.59301912421E+02  0.49999942356E+02 0.  0.
        -12    1    1    2    0    0  0.12883241496E+02  0.43853231557E+01  0.28835977710E+02  0.31886087579E+02  0.00000000000E+00 0.  1.
         11    1    3    3    0    0 -0.27523911086E+01 -0.14093491212E+01 -0.13671861435E+02  0.14017193625E+02  0.51100000000E-03 0. -1.
        -11    1    3    3    0    0 -0.14094333942E+02  0.14357495641E+02 -0.18338263215E+02  0.27222781422E+02  0.51100000000E-03 0.  1.
        -12    1    3    3    0    0  0.39634835547E+01 -0.17333469676E+02  0.31741469402E+01  0.18061937373E+02  0.00000000000E+00 0.  1.
</event>
<event>
 7    1  0.1184848E-011  0.5930194E+02  0.7816164E-02  0.1266605E+00
        -11   -1    0    0    0    0  0.00000000000E+00  0.00000000000E+00  0.45593999997E+02  0.45594000000E+02  0.51100000000E-03 0. -1.
         11   -1    0    0    0    0 -0.00000000000E+00 -0.00000000000E+00 -0.45593999997E+02  0.45594000000E+02  0.51100000000E-03 0.  1.
    9900012    2    1    2    0    0  0.17500254282E+02  0.58784426566E+01  0.25998192736E+02  0.59301937001E+02  0.49999987186E+02 0.  0.
        -12    1    1    2    0    0 -0.17500254282E+02 -0.58784426566E+01 -0.25998192736E+02  0.31886062999E+02  0.00000000000E+00 0.  1.
         11    1    3    3    0    0  0.14566621835E+02  0.10610296148E+02  0.22465859915E+02  0.28800689540E+02  0.51100000000E-03 0. -1.
        -11    1    3    3    0    0 -0.32588230036E+01 -0.35247045543E+01  0.15904600388E+02  0.16613241204E+02  0.51100000000E-03 0.  1.
         12    1    3    3    0    0  0.61924554503E+01 -0.12071489369E+01 -0.12372267566E+02  0.13888006257E+02  0.00000000000E+00 0. -1.
</event>
<event>
 7    1  0.1184848E-011  0.5930192E+02  0.7816164E-02  0.1266605E+00
        -11   -1    0    0    0    0  0.00000000000E+00  0.00000000000E+00  0.45593999997E+02  0.45594000000E+02  0.51100000000E-03 0. -1.
         11   -1    0    0    0    0 -0.00000000000E+00 -0.00000000000E+00 -0.45593999997E+02  0.45594000000E+02  0.51100000000E-03 0.  1.
    9900012    2    1    2    0    0  0.40925012893E+01  0.16416273513E+02  0.27027388918E+02  0.59301915973E+02  0.49999948835E+02 0.  0.
        -12    1    1    2    0    0 -0.40925012893E+01 -0.16416273513E+02 -0.27027388918E+02  0.31886084027E+02  0.00000000000E+00 0.  1.
         11    1    3    3    0    0 -0.78154065024E+01 -0.15302045398E+01  0.26912901801E+02  0.28066463766E+02  0.51100000000E-03 0. -1.
        -11    1    3    3    0    0  0.83102063085E+01 -0.37867554219E+01 -0.94444565696E+00  0.91810142890E+01  0.51100000000E-03 0.  1.
         12    1    3    3    0    0  0.35977014832E+01  0.21733233475E+02  0.10589327737E+01  0.22054437918E+02  0.00000000000E+00 0. -1.
</event>
<event>
 7    1  0.1184848E-011  0.5930194E+02  0.7816164E-02  0.1266605E+00
        -11   -1    0    0    0    0  0.00000000000E+00  0.00000000000E+00  0.45593999997E+02  0.45594000000E+02  0.51100000000E-03 0. -1.
         11   -1    0    0    0    0 -0.00000000000E+00 -0.00000000000E+00 -0.45593999997E+02  0.45594000000E+02  0.51100000000E-03 0.  1.
    9900012    2    1    2    0    0  0.28163952231E+02  0.12457060716E+02  0.82664573982E+01  0.59301939019E+02  0.49999990865E+02 0.  0.
        -12    1    1    2    0    0 -0.28163952231E+02 -0.12457060716E+02 -0.82664573982E+01  0.31886060981E+02  0.00000000000E+00 0.  1.
         11    1    3    3    0    0  0.11222775399E+02  0.19499329242E+02  0.53811032575E+01  0.23132894351E+02  0.51100000000E-03 0.  1.
        -11    1    3    3    0    0  0.21121974185E+02  0.61245223249E+01  0.38265431168E+01  0.22322410257E+02  0.51100000000E-03 0. -1.
        -12    1    3    3    0    0 -0.41807973534E+01 -0.13166790850E+02 -0.94118897607E+00  0.13846634410E+02  0.00000000000E+00 0.  1.
</event>
<event>
 7    1  0.1184848E-011  0.5930192E+02  0.7816164E-02  0.1266605E+00
        -11   -1    0    0    0    0  0.00000000000E+00  0.00000000000E+00  0.45593999997E+02  0.45594000000E+02  0.51100000000E-03 0. -1.
         11   -1    0    0    0    0 -0.00000000000E+00 -0.00000000000E+00 -0.45593999997E+02  0.45594000000E+02  0.51100000000E-03 0.  1.
    9900012    2    1    2    0    0  0.93496015275E+01  0.19317809138E+02  0.23582391780E+02  0.59301921523E+02  0.49999958956E+02 0.  0.
        -12    1    1    2    0    0 -0.93496015275E+01 -0.19317809138E+02 -0.23582391780E+02  0.31886078477E+02  0.00000000000E+00 0.  1.
         11    1    3    3    0    0  0.19963118891E+00  0.78312558888E+01 -0.63760504513E+01  0.10100615874E+02  0.51100000000E-03 0.  1.
        -11    1    3    3    0    0  0.22815383907E+02  0.11044001455E+02  0.19951179623E+02  0.32257732089E+02  0.51100000000E-03 0. -1.
         12    1    3    3    0    0 -0.13665413568E+02  0.44255179422E+00  0.10007262608E+02  0.16943573560E+02  0.00000000000E+00 0. -1.
</event>
<event>
 7    1  0.1184848E-011  0.5930194E+02  0.7816164E-02  0.1266605E+00
        -11   -1    0    0    0    0  0.00000000000E+00  0.00000000000E+00  0.45593999997E+02  0.45594000000E+02  0.51100000000E-03 0. -1.
         11   -1    0    0    0    0 -0.00000000000E+00 -0.00000000000E+00 -0.45593999997E+02  0.45594000000E+02  0.51100000000E-03 0.  1.
    9900012    2    1    2    0    0  0.46215184868E+01  0.26434765728E+02  0.17221070509E+02  0.59301944400E+02  0.50000000680E+02 0.  0.
        -12    1    1    2    0    0 -0.46215184868E+01 -0.26434765728E+02 -0.17221070509E+02  0.31886055600E+02  0.00000000000E+00 0.  1.
         11    1    3    3    0    0  0.84592993313E+01  0.22978540624E+02  0.13648063228E+02  0.28032886125E+02  0.51100000000E-03 0. -1.
        -11    1    3    3    0    0  0.35095968303E+01 -0.50029201655E+01 -0.11181421899E+02  0.12742475271E+02  0.51100000000E-03 0.  1.
         12    1    3    3    0    0 -0.73473776749E+01  0.84591452699E+01  0.14754429179E+02  0.18526583004E+02  0.00000000000E+00 0. -1.
</event>
<event>
 7    1  0.1184848E-011  0.5930195E+02  0.7816164E-02  0.1266605E+00
        -11   -1    0    0    0    0  0.00000000000E+00  0.00000000000E+00  0.45593999997E+02  0.45594000000E+02  0.51100000000E-03 0.  1.
         11   -1    0    0    0    0 -0.00000000000E+00 -0.00000000000E+00 -0.45593999997E+02  0.45594000000E+02  0.51100000000E-03 0. -1.
    9900012    2    1    2    0    0 -0.10463978920E+02  0.29897489439E+02  0.36559190882E+01  0.59301945462E+02  0.50000002616E+02 0.  0.
        -12    1    1    2    0    0  0.10463978920E+02 -0.29897489439E+02 -0.36559190882E+01  0.31886054538E+02  0.00000000000E+00 0.  1.
         11    1    3    3    0    0  0.56033096246E+01  0.10142148368E+02 -0.71121759790E+00  0.11608879489E+02  0.51100000000E-03 0. -1.
        -11    1    3    3    0    0 -0.36405378587E+01  0.12213133163E+02  0.21642201289E+02  0.25115712501E+02  0.51100000000E-03 0.  1.
         12    1    3    3    0    0 -0.12426750686E+02  0.75422079086E+01 -0.17275064603E+02  0.22577353472E+02  0.00000000000E+00 0. -1.
</event>
<event>
 7    1  0.1184848E-011  0.5930194E+02  0.7816164E-02  0.1266605E+00
        -11   -1    0    0    0    0  0.00000000000E+00  0.00000000000E+00  0.45593999997E+02  0.45594000000E+02  0.51100000000E-03 0.  1.
         11   -1    0    0    0    0 -0.00000000000E+00 -0.00000000000E+00 -0.45593999997E+02  0.45594000000E+02  0.51100000000E-03 0. -1.
    9900012    2    1    2    0    0 -0.50797183779E+01 -0.26543537600E+02  0.16922116140E+02  0.59301938126E+02  0.49999989237E+02 0.  0.
        -12    1    1    2    0    0  0.50797183779E+01  0.26543537600E+02 -0.16922116140E+02  0.31886061874E+02  0.00000000000E+00 0.  1.
         11    1    3    3    0    0  0.15458694094E+00  0.10622197670E+02  0.23343504196E+01  0.10876772159E+02  0.51100000000E-03 0. -1.
        -11    1    3    3    0    0  0.63817686629E+00  0.12567840753E+01 -0.47905897518E+01  0.49936486015E+01  0.51100000000E-03 0.  1.
         12    1    3    3    0    0 -0.58724821851E+01 -0.38422519346E+02  0.19378355472E+02  0.43431517366E+02  0.00000000000E+00 0. -1.
</event>
<event>
 7    1  0.1184848E-011  0.5930195E+02  0.7816164E-02  0.1266605E+00
        -11   -1    0    0    0    0  0.00000000000E+00  0.00000000000E+00  0.45593999997E+02  0.45594000000E+02  0.51100000000E-03 0. -1.
         11   -1    0    0    0    0 -0.00000000000E+00 -0.00000000000E+00 -0.45593999997E+02  0.45594000000E+02  0.51100000000E-03 0.  1.
    9900012    2    1    2    0    0  0.23694506496E+02 -0.13918855388E+02 -0.16172700742E+02  0.59301946267E+02  0.50000004083E+02 0.  0.
        -12    1    1    2    0    0 -0.23694506496E+02  0.13918855388E+02  0.16172700742E+02  0.31886053733E+02  0.00000000000E+00 0.  1.
         11    1    3    3    0    0  0.23332819491E+02  0.44235794053E+01  0.55236903465E+01  0.24382364025E+02  0.51100000000E-03 0. -1.
        -11    1    3    3    0    0 -0.46496310675E+01  0.17965918505E+00 -0.13085097908E+02  0.13887805227E+02  0.51100000000E-03 0.  1.
        -12    1    3    3    0    0  0.50113180725E+01 -0.18522093978E+02 -0.86112931802E+01  0.21031777015E+02  0.00000000000E+00 0.  1.
</event>
<event>
 7    1  0.1184848E-011  0.5930199E+02  0.7816164E-02  0.1266605E+00
        -11   -1    0    0    0    0  0.00000000000E+00  0.00000000000E+00  0.45593999997E+02  0.45594000000E+02  0.51100000000E-03 0.  1.
         11   -1    0    0    0    0 -0.00000000000E+00 -0.00000000000E+00 -0.45593999997E+02  0.45594000000E+02  0.51100000000E-03 0. -1.
    9900012    2    1    2    0    0 -0.14379251698E+02 -0.81380866289E+01 -0.27271351091E+02  0.59301985453E+02  0.50000075549E+02 0.  0.
        -12    1    1    2    0    0  0.14379251698E+02  0.81380866289E+01  0.27271351091E+02  0.31886014547E+02  0.00000000000E+00 0.  1.
         11    1    3    3    0    0  0.12117895057E+02 -0.11969436397E+02 -0.20990503970E+02  0.27031685952E+02  0.51100000000E-03 0. -1.
        -11    1    3    3    0    0 -0.79083695457E+01  0.29546360736E+01 -0.10212383989E+02  0.13250093214E+02  0.51100000000E-03 0.  1.
        -12    1    3    3    0    0 -0.18588777209E+02  0.87671369401E+00  0.39315368672E+01  0.19020206286E+02  0.00000000000E+00 0.  1.
</event>
<event>
 7    1  0.1184848E-011  0.5930167E+02  0.7816164E-02  0.1266606E+00
        -11   -1    0    0    0    0  0.00000000000E+00  0.00000000000E+00  0.45593999997E+02  0.45594000000E+02  0.51100000000E-03 0.  1.
         11   -1    0    0    0    0 -0.00000000000E+00 -0.00000000000E+00 -0.45593999997E+02  0.45594000000E+02  0.51100000000E-03 0. -1.
    9900012    2    1    2    0    0  0.28999580470E+02  0.10475046386E+02 -0.81262533238E+01  0.59301666606E+02  0.49999494046E+02 0.  0.
        -12    1    1    2    0    0 -0.28999580470E+02 -0.10475046386E+02  0.81262533238E+01  0.31886333394E+02  0.00000000000E+00 0.  1.
         11    1    3    3    0    0  0.38014686388E+02  0.25447828034E+01 -0.11451488191E+02  0.39783525268E+02  0.51100000000E-03 0. -1.
        -11    1    3    3    0    0 -0.76839293035E+00  0.10515080865E+02  0.25077065195E+01  0.10837248061E+02  0.51100000000E-03 0.  1.
        -12    1    3    3    0    0 -0.82467129873E+01 -0.25848172822E+01  0.81752834741E+00  0.86808932764E+01  0.00000000000E+00 0.  1.
</event>
<event>
 7    1  0.1184848E-011  0.5930195E+02  0.7816164E-02  0.1266605E+00
        -11   -1    0    0    0    0  0.00000000000E+00  0.00000000000E+00  0.45593999997E+02  0.45594000000E+02  0.51100000000E-03 0.  1.
         11   -1    0    0    0    0 -0.00000000000E+00 -0.00000000000E+00 -0.45593999997E+02  0.45594000000E+02  0.51100000000E-03 0. -1.
    9900012    2    1    2    0    0 -0.26742424193E+02 -0.69991717403E+01 -0.15892584657E+02  0.59301954402E+02  0.50000018920E+02 0.  0.
        -12    1    1    2    0    0  0.26742424193E+02  0.69991717403E+01  0.15892584657E+02  0.31886045598E+02  0.00000000000E+00 0.  1.
         11    1    3    3    0    0 -0.27206436588E+02  0.29610617793E+01 -0.24178058845E+02  0.36517620520E+02  0.51100000000E-03 0. -1.
        -11    1    3    3    0    0 -0.91339418618E+01 -0.49401756146E+01  0.37313295718E+01  0.11034357692E+02  0.51100000000E-03 0.  1.
        -12    1    3    3    0    0  0.95979542562E+01 -0.50200579050E+01  0.45541446169E+01  0.11749976190E+02  0.00000000000E+00 0.  1.
</event>
<event>
 7    1  0.1184848E-011  0.5930195E+02  0.7816164E-02  0.1266605E+00
        -11   -1    0    0    0    0  0.00000000000E+00  0.00000000000E+00  0.45593999997E+02  0.45594000000E+02  0.51100000000E-03 0.  1.
         11   -1    0    0    0    0 -0.00000000000E+00 -0.00000000000E+00 -0.45593999997E+02  0.45594000000E+02  0.51100000000E-03 0. -1.
    9900012    2    1    2    0    0 -0.24167958627E+02 -0.20790452685E+02 -0.62234538040E+00  0.59301945669E+02  0.50000002994E+02 0.  0.
        -12    1    1    2    0    0  0.24167958627E+02  0.20790452685E+02  0.62234538040E+00  0.31886054331E+02  0.00000000000E+00 0.  1.
         11    1    3    3    0    0  0.13464813889E+01 -0.24134873775E+01 -0.12923391554E+02  0.13215596202E+02  0.51100000000E-03 0. -1.
        -11    1    3    3    0    0 -0.10607192042E+02  0.55493618565E+01  0.13279746757E+02  0.17879027217E+02  0.51100000000E-03 0.  1.
         12    1    3    3    0    0 -0.14907247974E+02 -0.23926327164E+02 -0.97870058356E+00  0.28207322250E+02  0.00000000000E+00 0. -1.
</event>
<event>
 7    1  0.1184848E-011  0.5930194E+02  0.7816164E-02  0.1266605E+00
        -11   -1    0    0    0    0  0.00000000000E+00  0.00000000000E+00  0.45593999997E+02  0.45594000000E+02  0.51100000000E-03 0.  1.
         11   -1    0    0    0    0 -0.00000000000E+00 -0.00000000000E+00 -0.45593999997E+02  0.45594000000E+02  0.51100000000E-03 0. -1.
    9900012    2    1    2    0    0  0.20838770370E+02  0.15747150856E+02 -0.18289167404E+02  0.59301941056E+02  0.49999994581E+02 0.  0.
        -12    1    1    2    0    0 -0.20838770370E+02 -0.15747150856E+02  0.18289167404E+02  0.31886058944E+02  0.00000000000E+00 0.  1.
         11    1    3    3    0    0  0.21365884922E+02  0.48858414877E+01 -0.19780836897E+02  0.29523786920E+02  0.51100000000E-03 0. -1.
        -11    1    3    3    0    0  0.37835129527E+01 -0.36588254926E+01 -0.96385319446E+01  0.10981952129E+02  0.51100000000E-03 0.  1.
        -12    1    3    3    0    0 -0.43106275043E+01  0.14520134861E+02  0.11130201437E+02  0.18796202007E+02  0.00000000000E+00 0.  1.
</event>
<event>
 7    1  0.1184848E-011  0.5930193E+02  0.7816164E-02  0.1266605E+00
        -11   -1    0    0    0    0  0.00000000000E+00  0.00000000000E+00  0.45593999997E+02  0.45594000000E+02  0.51100000000E-03 0. -1.
         11   -1    0    0    0    0 -0.00000000000E+00 -0.00000000000E+00 -0.45593999997E+02  0.45594000000E+02  0.51100000000E-03 0.  1.
    9900012    2    1    2    0    0  0.72020299914E+01 -0.30838634025E+02 -0.37189463180E+01  0.59301934921E+02  0.49999983392E+02 0.  0.
        -12    1    1    2    0    0 -0.72020299914E+01  0.30838634025E+02  0.37189463180E+01  0.31886065079E+02  0.00000000000E+00 0.  1.
         11    1    3    3    0    0 -0.69037112092E+01 -0.47982507670E+01  0.79986208235E+01  0.11604411843E+02  0.51100000000E-03 0. -1.
        -11    1    3    3    0    0 -0.33393098155E+01 -0.26076703289E+02  0.67575363153E+00  0.26298328610E+02  0.51100000000E-03 0.  1.
         12    1    3    3    0    0  0.17445051016E+02  0.36320030906E-01 -0.12393320773E+02  0.21399194468E+02  0.00000000000E+00 0. -1.
</event>
<event>
 7    1  0.1184848E-011  0.5930196E+02  0.7816164E-02  0.1266605E+00
        -11   -1    0    0    0    0  0.00000000000E+00  0.00000000000E+00  0.45593999997E+02  0.45594000000E+02  0.51100000000E-03 0. -1.
         11   -1    0    0    0    0 -0.00000000000E+00 -0.00000000000E+00 -0.45593999997E+02  0.45594000000E+02  0.51100000000E-03 0.  1.
    9900012    2    1    2    0    0  0.11917254037E+02  0.27159023476E+02  0.11708384821E+02  0.59301956422E+02  0.50000022603E+02 0.  0.
        -12    1    1    2    0    0 -0.11917254037E+02 -0.27159023476E+02 -0.11708384821E+02  0.31886043578E+02  0.00000000000E+00 0.  1.
         11    1    3    3    0    0 -0.47146288601E+01  0.11503316715E+02  0.11751747599E+02  0.17107238018E+02  0.51100000000E-03 0. -1.
        -11    1    3    3    0    0  0.49891829735E+01  0.92878036020E+01  0.17359034022E+02  0.20309881952E+02  0.51100000000E-03 0.  1.
        -12    1    3    3    0    0  0.11642699923E+02  0.63679031595E+01 -0.17402396799E+02  0.21884836451E+02  0.00000000000E+00 0.  1.
</event>
<event>
 7    1  0.1184848E-011  0.5930194E+02  0.7816164E-02  0.1266605E+00
        -11   -1    0    0    0    0  0.00000000000E+00  0.00000000000E+00  0.45593999997E+02  0.45594000000E+02  0.51100000000E-03 0. -1.
         11   -1    0    0    0    0 -0.00000000000E+00 -0.00000000000E+00 -0.45593999997E+02  0.45594000000E+02  0.51100000000E-03 0.  1.
    9900012    2    1    2    0    0  0.28779912898E+02 -0.67503488416E+01  0.11952831811E+02  0.59301940598E+02  0.49999993744E+02 0.  0.
        -12    1    1    2    0    0 -0.28779912898E+02  0.67503488416E+01 -0.11952831811E+02  0.31886059402E+02  0.00000000000E+00 0.  1.
         11    1    3    3    0    0  0.10806116432E+02 -0.17139176879E+02  0.77086022201E+01  0.21678239893E+02  0.51100000000E-03 0. -1.
        -11    1    3    3    0    0  0.24513067475E+02  0.30197883140E+00 -0.93869136010E+00  0.24532892409E+02  0.51100000000E-03 0.  1.
        -12    1    3    3    0    0 -0.65392710088E+01  0.10086849206E+02  0.51829209508E+01  0.13090808295E+02  0.00000000000E+00 0.  1.
</event>
<event>
 7    1  0.1184848E-011  0.5930197E+02  0.7816164E-02  0.1266605E+00
        -11   -1    0    0    0    0  0.00000000000E+00  0.00000000000E+00  0.45593999997E+02  0.45594000000E+02  0.51100000000E-03 0.  1.
         11   -1    0    0    0    0 -0.00000000000E+00 -0.00000000000E+00 -0.45593999997E+02  0.45594000000E+02  0.51100000000E-03 0. -1.
    9900012    2    1    2    0    0  0.18140364852E+02  0.21382638848E+02 -0.15179887836E+02  0.59301967387E+02  0.50000042601E+02 0.  0.
        -12    1    1    2    0    0 -0.18140364852E+02 -0.21382638848E+02  0.15179887836E+02  0.31886032613E+02  0.00000000000E+00 0.  1.
         11    1    3    3    0    0  0.84407350473E+01  0.15074572597E+02 -0.13500446082E+02  0.21926030005E+02  0.51100000000E-03 0. -1.
        -11    1    3    3    0    0 -0.82917966373E+01  0.15137784219E+02  0.50867914739E-01  0.17260040276E+02  0.51100000000E-03 0.  1.
         12    1    3    3    0    0  0.17991426442E+02 -0.88297179675E+01 -0.17303096696E+01  0.20115897106E+02  0.00000000000E+00 0. -1.
</event>
<event>
 7    1  0.1184848E-011  0.5930193E+02  0.7816164E-02  0.1266605E+00
        -11   -1    0    0    0    0  0.00000000000E+00  0.00000000000E+00  0.45593999997E+02  0.45594000000E+02  0.51100000000E-03 0. -1.
         11   -1    0    0    0    0 -0.00000000000E+00 -0.00000000000E+00 -0.45593999997E+02  0.45594000000E+02  0.51100000000E-03 0.  1.
    9900012    2    1    2    0    0 -0.65130867811E+01 -0.25053422096E+02  0.18617932437E+02  0.59301926765E+02  0.49999968517E+02 0.  0.
        -12    1    1    2    0    0  0.65130867811E+01  0.25053422096E+02 -0.18617932437E+02  0.31886073235E+02  0.00000000000E+00 0.  1.
         11    1    3    3    0    0 -0.16421229628E+01  0.64396965150E+01  0.11808412338E+02  0.13550087130E+02  0.51100000000E-03 0.  1.
        -11    1    3    3    0    0 -0.11575717933E+02 -0.66273479597E+00  0.81498276505E+01  0.14172372916E+02  0.51100000000E-03 0. -1.
        -12    1    3    3    0    0  0.67047541149E+01 -0.30830383815E+02 -0.13403075513E+01  0.31579466719E+02  0.00000000000E+00 0.  1.
</event>
<event>
 7    1  0.1184848E-011  0.5930195E+02  0.7816164E-02  0.1266605E+00
        -11   -1    0    0    0    0  0.00000000000E+00  0.00000000000E+00  0.45593999997E+02  0.45594000000E+02  0.51100000000E-03 0. -1.
         11   -1    0    0    0    0 -0.00000000000E+00 -0.00000000000E+00 -0.45593999997E+02  0.45594000000E+02  0.51100000000E-03 0.  1.
    9900012    2    1    2    0    0  0.11373199809E+02  0.23453951370E+02  0.18365255690E+02  0.59301950929E+02  0.50000012587E+02 0.  0.
        -12    1    1    2    0    0 -0.11373199809E+02 -0.23453951370E+02 -0.18365255690E+02  0.31886049071E+02  0.00000000000E+00 0.  1.
         11    1    3    3    0    0  0.71693779166E+01  0.15961443702E+02  0.69845879192E+01  0.18840173391E+02  0.51100000000E-03 0. -1.
        -11    1    3    3    0    0  0.43360557224E+01  0.22311985647E+02  0.11852673628E+02  0.25634195036E+02  0.51100000000E-03 0.  1.
        -12    1    3    3    0    0 -0.13223382953E+00 -0.14819477978E+02 -0.47200585706E+00  0.14827582502E+02  0.00000000000E+00 0.  1.
</event>
<event>
 7    1  0.1184848E-011  0.5930195E+02  0.7816164E-02  0.1266605E+00
        -11   -1    0    0    0    0  0.00000000000E+00  0.00000000000E+00  0.45593999997E+02  0.45594000000E+02  0.51100000000E-03 0.  1.
         11   -1    0    0    0    0 -0.00000000000E+00 -0.00000000000E+00 -0.45593999997E+02  0.45594000000E+02  0.51100000000E-03 0. -1.
    9900012    2    1    2    0    0  0.11498446197E+01 -0.81125961908E+01 -0.30815319956E+02  0.59301948134E+02  0.50000007490E+02 0.  0.
        -12    1    1    2    0    0 -0.11498446197E+01  0.81125961908E+01  0.30815319956E+02  0.31886051866E+02  0.00000000000E+00 0.  1.
         11    1    3    3    0    0 -0.15453083099E+01 -0.13194092642E+02 -0.66891662142E+01  0.14873365568E+02  0.51100000000E-03 0. -1.
        -11    1    3    3    0    0  0.10832262432E+02 -0.10663233757E+02 -0.21767321798E+02  0.26549176297E+02  0.51100000000E-03 0.  1.
         12    1    3    3    0    0 -0.81371095028E+01  0.15744730208E+02 -0.23588319437E+01  0.17879406269E+02  0.00000000000E+00 0. -1.
</event>
<event>
 7    1  0.1184848E-011  0.5930187E+02  0.7816164E-02  0.1266605E+00
        -11   -1    0    0    0    0  0.00000000000E+00  0.00000000000E+00  0.45593999997E+02  0.45594000000E+02  0.51100000000E-03 0.  1.
         11   -1    0    0    0    0 -0.00000000000E+00 -0.00000000000E+00 -0.45593999997E+02  0.45594000000E+02  0.51100000000E-03 0. -1.
    9900012    2    1    2    0    0  0.71415575330E+01 -0.28369764874E+02 -0.12683846429E+02  0.59301868795E+02  0.49999862793E+02 0.  0.
        -12    1    1    2    0    0 -0.71415575330E+01  0.28369764874E+02  0.12683846429E+02  0.31886131205E+02  0.00000000000E+00 0.  1.
         11    1    3    3    0    0 -0.91713199557E+01 -0.63721302811E+01 -0.11259067983E+01  0.11224295988E+02  0.51100000000E-03 0. -1.
        -11    1    3    3    0    0 -0.47900221615E+01  0.64267577654E+01 -0.97610238949E+01  0.12630325230E+02  0.51100000000E-03 0.  1.
         12    1    3    3    0    0  0.21102899650E+02 -0.28424392358E+02 -0.17969157362E+01  0.35447247576E+02  0.00000000000E+00 0. -1.
</event>
<event>
 7    1  0.1184848E-011  0.5930193E+02  0.7816164E-02  0.1266605E+00
        -11   -1    0    0    0    0  0.00000000000E+00  0.00000000000E+00  0.45593999997E+02  0.45594000000E+02  0.51100000000E-03 0. -1.
         11   -1    0    0    0    0 -0.00000000000E+00 -0.00000000000E+00 -0.45593999997E+02  0.45594000000E+02  0.51100000000E-03 0.  1.
    9900012    2    1    2    0    0  0.26597402144E+01 -0.13654761491E+02  0.28691375241E+02  0.59301925569E+02  0.49999966336E+02 0.  0.
        -12    1    1    2    0    0 -0.26597402144E+01  0.13654761491E+02 -0.28691375241E+02  0.31886074431E+02  0.00000000000E+00 0.  1.
         11    1    3    3    0    0  0.95798751937E+01 -0.21949799262E+02  0.78130694070E+01  0.25191501547E+02  0.51100000000E-03 0. -1.
        -11    1    3    3    0    0  0.40578686227E+01  0.54294536643E+01 -0.31979045263E+01  0.74947887544E+01  0.51100000000E-03 0.  1.
         12    1    3    3    0    0 -0.10978003602E+02  0.28655841067E+01  0.24076210361E+02  0.26615635267E+02  0.00000000000E+00 0. -1.
</event>
<event>
 7    1  0.1184848E-011  0.5930197E+02  0.7816164E-02  0.1266605E+00
        -11   -1    0    0    0    0  0.00000000000E+00  0.00000000000E+00  0.45593999997E+02  0.45594000000E+02  0.51100000000E-03 0.  1.
         11   -1    0    0    0    0 -0.00000000000E+00 -0.00000000000E+00 -0.45593999997E+02  0.45594000000E+02  0.51100000000E-03 0. -1.
    9900012    2    1    2    0    0 -0.16534076745E+02 -0.12191260950E+02 -0.24386807282E+02  0.59301970037E+02  0.50000047435E+02 0.  0.
        -12    1    1    2    0    0  0.16534076745E+02  0.12191260950E+02  0.24386807282E+02  0.31886029963E+02  0.00000000000E+00 0.  1.
         11    1    3    3    0    0 -0.17651805805E+02 -0.15957894015E+02 -0.29147579603E+02  0.37627410574E+02  0.51100000000E-03 0. -1.
        -11    1    3    3    0    0  0.47044096149E+01  0.10572101248E+01 -0.73308697208E+01  0.87744409621E+01  0.51100000000E-03 0.  1.
        -12    1    3    3    0    0 -0.35866805556E+01  0.27094229394E+01  0.12091642042E+02  0.12900118501E+02  0.00000000000E+00 0.  1.
</event>
<event>
 7    1  0.1184848E-011  0.5930193E+02  0.7816164E-02  0.1266605E+00
        -11   -1    0    0    0    0  0.00000000000E+00  0.00000000000E+00  0.45593999997E+02  0.45594000000E+02  0.51100000000E-03 0.  1.
         11   -1    0    0    0    0 -0.00000000000E+00 -0.00000000000E+00 -0.45593999997E+02  0.45594000000E+02  0.51100000000E-03 0. -1.
    9900012    2    1    2    0    0  0.47889105898E+00 -0.13098864363E+02 -0.29067370171E+02  0.59301927917E+02  0.49999970618E+02 0.  0.
        -12    1    1    2    0    0 -0.47889105898E+00  0.13098864363E+02  0.29067370171E+02  0.31886072083E+02  0.00000000000E+00 0.  1.
         11    1    3    3    0    0 -0.39463758189E+01  0.77492405761E+01 -0.37433726012E+01  0.94677056515E+01  0.51100000000E-03 0. -1.
        -11    1    3    3    0    0 -0.31323417025E+01 -0.15212026011E+02  0.63558042914E+01  0.16781345249E+02  0.51100000000E-03 0.  1.
         12    1    3    3    0    0  0.75576085804E+01 -0.56360789278E+01 -0.31679801861E+02  0.33052877017E+02  0.00000000000E+00 0. -1.
</event>
<event>
 7    1  0.1184848E-011  0.5930193E+02  0.7816164E-02  0.1266605E+00
        -11   -1    0    0    0    0  0.00000000000E+00  0.00000000000E+00  0.45593999997E+02  0.45594000000E+02  0.51100000000E-03 0. -1.
         11   -1    0    0    0    0 -0.00000000000E+00 -0.00000000000E+00 -0.45593999997E+02  0.45594000000E+02  0.51100000000E-03 0.  1.
    9900012    2    1    2    0    0 -0.17475988941E+02  0.11668510905E+02  0.23982427349E+02  0.59301934740E+02  0.49999983062E+02 0.  0.
        -12    1    1    2    0    0  0.17475988941E+02 -0.11668510905E+02 -0.23982427349E+02  0.31886065260E+02  0.00000000000E+00 0.  1.
         11    1    3    3    0    0 -0.31859915782E+01  0.77836298879E+01  0.89750974971E+01  0.12299911053E+02  0.51100000000E-03 0. -1.
        -11    1    3    3    0    0 -0.79354213809E+01  0.10560906833E+02 -0.12380623888E+02  0.18104792563E+02  0.51100000000E-03 0.  1.
         12    1    3    3    0    0 -0.63545759821E+01 -0.66760258163E+01  0.27387953740E+02  0.28897231124E+02  0.00000000000E+00 0. -1.
</event>
<event>
 7    1  0.1184848E-011  0.5930192E+02  0.7816164E-02  0.1266605E+00
        -11   -1    0    0    0    0  0.00000000000E+00  0.00000000000E+00  0.45593999997E+02  0.45594000000E+02  0.51100000000E-03 0.  1.
         11   -1    0    0    0    0 -0.00000000000E+00 -0.00000000000E+00 -0.45593999997E+02  0.45594000000E+02  0.51100000000E-03 0. -1.
    9900012    2    1    2    0    0 -0.71344029327E+01  0.15061736033E+02 -0.27183943046E+02  0.59301915934E+02  0.49999948763E+02 0.  0.
        -12    1    1    2    0    0  0.71344029327E+01 -0.15061736033E+02  0.27183943046E+02  0.31886084066E+02  0.00000000000E+00 0.  1.
         11    1    3    3    0    0  0.91365104830E+01  0.11045473281E+01 -0.22179969016E+01  0.94665389199E+01  0.51100000000E-03 0. -1.
        -11    1    3    3    0    0  0.17405877555E+01 -0.34597084350E+01  0.77284397623E+01  0.86445364023E+01  0.51100000000E-03 0.  1.
        -12    1    3    3    0    0 -0.18011501171E+02  0.17416897140E+02 -0.32694385907E+02  0.41190840611E+02  0.00000000000E+00 0.  1.
</event>
<event>
 7    1  0.1184848E-011  0.5930191E+02  0.7816164E-02  0.1266605E+00
        -11   -1    0    0    0    0  0.00000000000E+00  0.00000000000E+00  0.45593999997E+02  0.45594000000E+02  0.51100000000E-03 0. -1.
         11   -1    0    0    0    0 -0.00000000000E+00 -0.00000000000E+00 -0.45593999997E+02  0.45594000000E+02  0.51100000000E-03 0.  1.
    9900012    2    1    2    0    0  0.30251083019E+02 -0.90471336465E+01 -0.44434407068E+01  0.59301908732E+02  0.49999935629E+02 0.  0.
        -12    1    1    2    0    0 -0.30251083019E+02  0.90471336465E+01  0.44434407068E+01  0.31886091268E+02  0.00000000000E+00 0.  1.
         11    1    3    3    0    0  0.15056426937E+02 -0.78001941576E+01 -0.12457292089E+02  0.21040987321E+02  0.51100000000E-03 0. -1.
        -11    1    3    3    0    0  0.24995993198E+02 -0.11275236450E+01 -0.86364013102E+00  0.25036310832E+02  0.51100000000E-03 0.  1.
        -12    1    3    3    0    0 -0.98013371157E+01 -0.11941584386E+00  0.88774915132E+01  0.13224610579E+02  0.00000000000E+00 0.  1.
</event>
<event>
 7    1  0.1184848E-011  0.5930191E+02  0.7816164E-02  0.1266605E+00
        -11   -1    0    0    0    0  0.00000000000E+00  0.00000000000E+00  0.45593999997E+02  0.45594000000E+02  0.51100000000E-03 0.  1.
         11   -1    0    0    0    0 -0.00000000000E+00 -0.00000000000E+00 -0.45593999997E+02  0.45594000000E+02  0.51100000000E-03 0. -1.
    9900012    2    1    2    0    0  0.12951554444E+01 -0.31504644364E+02 -0.47437060119E+01  0.59301909132E+02  0.49999936359E+02 0.  0.
        -12    1    1    2    0    0 -0.12951554444E+01  0.31504644364E+02  0.47437060119E+01  0.31886090868E+02  0.00000000000E+00 0.  1.
         11    1    3    3    0    0  0.25232703968E+01 -0.10783170753E+02 -0.13600119610E+02  0.17538726255E+02  0.51100000000E-03 0. -1.
        -11    1    3    3    0    0  0.15197684901E+01 -0.11756448312E+02 -0.13232910960E+02  0.17766083022E+02  0.51100000000E-03 0.  1.
        -12    1    3    3    0    0 -0.27478834425E+01 -0.89650252987E+01  0.22089324559E+02  0.23997099855E+02  0.00000000000E+00 0.  1.
</event>
<event>
 7    1  0.1184848E-011  0.5930199E+02  0.7816164E-02  0.1266605E+00
        -11   -1    0    0    0    0  0.00000000000E+00  0.00000000000E+00  0.45593999997E+02  0.45594000000E+02  0.51100000000E-03 0. -1.
         11   -1    0    0    0    0 -0.00000000000E+00 -0.00000000000E+00 -0.45593999997E+02  0.45594000000E+02  0.51100000000E-03 0.  1.
    9900012    2    1    2    0    0 -0.29893093808E+01 -0.89453952859E+00  0.31732968115E+02  0.59301993086E+02  0.50000089470E+02 0.  0.
        -12    1    1    2    0    0  0.29893093808E+01  0.89453952859E+00 -0.31732968115E+02  0.31886006914E+02  0.00000000000E+00 0.  1.
         11    1    3    3    0    0  0.89069052815E+01  0.59789153275E+01  0.67962476982E+01  0.12699187896E+02  0.51100000000E-03 0. -1.
        -11    1    3    3    0    0  0.12673131902E+02 -0.74786670797E+01  0.79343664025E+01  0.16718041272E+02  0.51100000000E-03 0.  1.
         12    1    3    3    0    0 -0.24569346564E+02  0.60521222358E+00  0.17002354014E+02  0.29884763918E+02  0.00000000000E+00 0. -1.
</event>
<event>
 7    1  0.1184848E-011  0.5930191E+02  0.7816164E-02  0.1266605E+00
        -11   -1    0    0    0    0  0.00000000000E+00  0.00000000000E+00  0.45593999997E+02  0.45594000000E+02  0.51100000000E-03 0. -1.
         11   -1    0    0    0    0 -0.00000000000E+00 -0.00000000000E+00 -0.45593999997E+02  0.45594000000E+02  0.51100000000E-03 0.  1.
    9900012    2    1    2    0    0 -0.95587070266E+01  0.30338309472E+02 -0.22227663472E+01  0.59301912252E+02  0.49999942049E+02 0.  0.
        -12    1    1    2    0    0  0.95587070266E+01 -0.30338309472E+02  0.22227663472E+01  0.31886087748E+02  0.00000000000E+00 0.  1.
         11    1    3    3    0    0  0.69899337534E+01  0.37140151393E+01  0.11307564832E+02  0.13802684703E+02  0.51100000000E-03 0. -1.
        -11    1    3    3    0    0 -0.20394562539E+02  0.18617306878E+02  0.19163847607E+01  0.27680585748E+02  0.51100000000E-03 0.  1.
        -12    1    3    3    0    0  0.38459217594E+01  0.80069874547E+01 -0.15446715940E+02  0.17818641800E+02  0.00000000000E+00 0.  1.
</event>
<event>
 7    1  0.1184848E-011  0.5930199E+02  0.7816164E-02  0.1266605E+00
        -11   -1    0    0    0    0  0.00000000000E+00  0.00000000000E+00  0.45593999997E+02  0.45594000000E+02  0.51100000000E-03 0.  1.
         11   -1    0    0    0    0 -0.00000000000E+00 -0.00000000000E+00 -0.45593999997E+02  0.45594000000E+02  0.51100000000E-03 0. -1.
    9900012    2    1    2    0    0  0.27102996288E+02 -0.32817566830E+01  0.16473478840E+02  0.59301986769E+02  0.50000077949E+02 0.  0.
        -12    1    1    2    0    0 -0.27102996288E+02  0.32817566830E+01 -0.16473478840E+02  0.31886013231E+02  0.00000000000E+00 0.  1.
         11    1    3    3    0    0 -0.38218939659E-02 -0.10877266751E+02 -0.96036229970E+01  0.14510152360E+02  0.51100000000E-03 0. -1.
        -11    1    3    3    0    0  0.69331193805E+01 -0.52075924610E+01 -0.94359108385E+00  0.87222432882E+01  0.51100000000E-03 0.  1.
        -12    1    3    3    0    0  0.20173698801E+02  0.12803102529E+02  0.27020692921E+02  0.36069591120E+02  0.00000000000E+00 0.  1.
</event>
<event>
 7    1  0.1184848E-011  0.5930194E+02  0.7816164E-02  0.1266605E+00
        -11   -1    0    0    0    0  0.00000000000E+00  0.00000000000E+00  0.45593999997E+02  0.45594000000E+02  0.51100000000E-03 0. -1.
         11   -1    0    0    0    0 -0.00000000000E+00 -0.00000000000E+00 -0.45593999997E+02  0.45594000000E+02  0.51100000000E-03 0.  1.
    9900012    2    1    2    0    0 -0.85332488145E+01 -0.76139670350E+01  0.29764604867E+02  0.59301944549E+02  0.50000000951E+02 0.  0.
        -12    1    1    2    0    0  0.85332488145E+01  0.76139670350E+01 -0.29764604867E+02  0.31886055451E+02  0.00000000000E+00 0.  1.
         11    1    3    3    0    0  0.25289002314E+01  0.44588152305E+01 -0.50914178528E+01  0.72248810131E+01  0.51100000000E-03 0. -1.
        -11    1    3    3    0    0 -0.26639202639E+01  0.11436602215E+02  0.19515403557E+02  0.22775937251E+02  0.51100000000E-03 0.  1.
         12    1    3    3    0    0 -0.83982287821E+01 -0.23509384480E+02  0.15340619162E+02  0.29301126286E+02  0.00000000000E+00 0. -1.
</event>
<event>
 7    1  0.1184848E-011  0.5930195E+02  0.7816164E-02  0.1266605E+00
        -11   -1    0    0    0    0  0.00000000000E+00  0.00000000000E+00  0.45593999997E+02  0.45594000000E+02  0.51100000000E-03 0.  1.
         11   -1    0    0    0    0 -0.00000000000E+00 -0.00000000000E+00 -0.45593999997E+02  0.45594000000E+02  0.51100000000E-03 0. -1.
    9900012    2    1    2    0    0  0.60036114977E+01  0.22958615762E+02 -0.21297385810E+02  0.59301952407E+02  0.50000015282E+02 0.  0.
        -12    1    1    2    0    0 -0.60036114977E+01 -0.22958615762E+02  0.21297385810E+02  0.31886047593E+02  0.00000000000E+00 0.  1.
         11    1    3    3    0    0  0.18835972525E+02  0.22750551680E+02 -0.13949359640E+02  0.32664446993E+02  0.51100000000E-03 0. -1.
        -11    1    3    3    0    0  0.37971657319E+01  0.31853350939E+01 -0.83540347551E+01  0.97136359931E+01  0.51100000000E-03 0.  1.
        -12    1    3    3    0    0 -0.16629526759E+02 -0.29772710117E+01  0.10060085847E+01  0.16923869421E+02  0.00000000000E+00 0.  1.
</event>
<event>
 7    1  0.1184848E-011  0.5930193E+02  0.7816164E-02  0.1266605E+00
        -11   -1    0    0    0    0  0.00000000000E+00  0.00000000000E+00  0.45593999997E+02  0.45594000000E+02  0.51100000000E-03 0. -1.
         11   -1    0    0    0    0 -0.00000000000E+00 -0.00000000000E+00 -0.45593999997E+02  0.45594000000E+02  0.51100000000E-03 0.  1.
    9900012    2    1    2    0    0  0.14084481307E+02  0.27613157886E+02 -0.74741193329E+01  0.59301928403E+02  0.49999971503E+02 0.  0.
        -12    1    1    2    0    0 -0.14084481307E+02 -0.27613157886E+02  0.74741193329E+01  0.31886071597E+02  0.00000000000E+00 0.  1.
         11    1    3    3    0    0 -0.20512532024E+01 -0.17420011050E+01  0.26656282854E+01  0.37878466134E+01  0.51100000000E-03 0. -1.
        -11    1    3    3    0    0 -0.13701582014E+02  0.35610164816E+01 -0.74094599933E+01  0.15978557060E+02  0.51100000000E-03 0.  1.
         12    1    3    3    0    0  0.29837316523E+02  0.25794142509E+02 -0.27302876250E+01  0.39535524729E+02  0.00000000000E+00 0. -1.
</event>
<event>
 7    1  0.1446138E-011  0.5930198E+02  0.7816164E-02  0.1266605E+00
        -11   -1    0    0    0    0  0.00000000000E+00  0.00000000000E+00  0.45593999997E+02  0.45594000000E+02  0.51100000000E-03 0.  1.
         11   -1    0    0    0    0 -0.00000000000E+00 -0.00000000000E+00 -0.45593999997E+02  0.45594000000E+02  0.51100000000E-03 0. -1.
    9900012    2    1    2    0    0 -0.22987368724E+02 -0.14936982753E+01 -0.22046944986E+02  0.59301983651E+02  0.50000072263E+02 0.  0.
        -12    1    1    2    0    0  0.22987368724E+02  0.14936982753E+01  0.22046944986E+02  0.31886016349E+02  0.00000000000E+00 0.  1.
         11    1    3    3    0    0  0.36132053419E+01  0.53335515086E+01 -0.13378856604E+00  0.64435955940E+01  0.51100000000E-03 0. -1.
        -11    1    3    3    0    0  0.95259485020E+01 -0.55785133362E+01 -0.97029967926E+00  0.11081741182E+02  0.51100000000E-03 0.  1.
         12    1    3    3    0    0 -0.36126522568E+02 -0.12487364477E+01 -0.20942856741E+02  0.41776646874E+02  0.00000000000E+00 0. -1.
</event>
<event>
 7    1  0.2059722E-011  0.5930194E+02  0.7816164E-02  0.1266605E+00
        -11   -1    0    0    0    0  0.00000000000E+00  0.00000000000E+00  0.45593999997E+02  0.45594000000E+02  0.51100000000E-03 0. -1.
         11   -1    0    0    0    0 -0.00000000000E+00 -0.00000000000E+00 -0.45593999997E+02  0.45594000000E+02  0.51100000000E-03 0.  1.
    9900012    2    1    2    0    0 -0.18635943070E+02  0.10716118900E+02  0.23549680916E+02  0.59301936436E+02  0.49999986154E+02 0.  0.
        -12    1    1    2    0    0  0.18635943070E+02 -0.10716118900E+02 -0.23549680916E+02  0.31886063564E+02  0.00000000000E+00 0.  1.
         11    1    3    3    0    0 -0.72628454311E+01  0.15925925145E+02  0.12293989966E+02  0.21389862202E+02  0.51100000000E-03 0. -1.
        -11    1    3    3    0    0  0.57491856711E+01  0.27184836215E+01 -0.84852632902E+01  0.10603913544E+02  0.51100000000E-03 0.  1.
         12    1    3    3    0    0 -0.17122283310E+02 -0.79282898665E+01  0.19740954240E+02  0.27308160690E+02  0.00000000000E+00 0. -1.
</event>
<event>
 7    1  0.1184848E-011  0.5930196E+02  0.7816164E-02  0.1266605E+00
        -11   -1    0    0    0    0  0.00000000000E+00  0.00000000000E+00  0.45593999997E+02  0.45594000000E+02  0.51100000000E-03 0. -1.
         11   -1    0    0    0    0 -0.00000000000E+00 -0.00000000000E+00 -0.45593999997E+02  0.45594000000E+02  0.51100000000E-03 0.  1.
    9900012    2    1    2    0    0 -0.31086340252E+02 -0.57432524320E+01 -0.41682321197E+01  0.59301958261E+02  0.50000025959E+02 0.  0.
        -12    1    1    2    0    0  0.31086340252E+02  0.57432524320E+01  0.41682321197E+01  0.31886041739E+02  0.00000000000E+00 0.  1.
         11    1    3    3    0    0 -0.13923028652E+01  0.59640494545E+00 -0.78079902368E+01  0.79535475058E+01  0.51100000000E-03 0.  1.
        -11    1    3    3    0    0  0.85065874678E+01 -0.78919616519E+01  0.59621698983E+01  0.13045787029E+02  0.51100000000E-03 0. -1.
         12    1    3    3    0    0 -0.38200624854E+02  0.15523042744E+01 -0.23224117812E+01  0.38302623726E+02  0.00000000000E+00 0. -1.
</event>
<event>
 7    1  0.1184848E-011  0.5930195E+02  0.7816164E-02  0.1266605E+00
        -11   -1    0    0    0    0  0.00000000000E+00  0.00000000000E+00  0.45593999997E+02  0.45594000000E+02  0.51100000000E-03 0. -1.
         11   -1    0    0    0    0 -0.00000000000E+00 -0.00000000000E+00 -0.45593999997E+02  0.45594000000E+02  0.51100000000E-03 0.  1.
    9900012    2    1    2    0    0 -0.44909966854E+01  0.77078284203E+00  0.31558788784E+02  0.59301948082E+02  0.50000007393E+02 0.  0.
        -12    1    1    2    0    0  0.44909966854E+01 -0.77078284203E+00 -0.31558788784E+02  0.31886051918E+02  0.00000000000E+00 0.  1.
         11    1    3    3    0    0  0.42677403950E+01  0.11783786469E+02  0.27417394855E+01  0.12829199792E+02  0.51100000000E-03 0.  1.
        -11    1    3    3    0    0  0.38283477190E+01  0.92864341773E+01  0.17186166649E+02  0.19906240989E+02  0.51100000000E-03 0. -1.
         12    1    3    3    0    0 -0.12587084799E+02 -0.20299437805E+02  0.11630882650E+02  0.26566507301E+02  0.00000000000E+00 0. -1.
</event>
<event>
 7    1  0.1184848E-011  0.5930194E+02  0.7816164E-02  0.1266605E+00
        -11   -1    0    0    0    0  0.00000000000E+00  0.00000000000E+00  0.45593999997E+02  0.45594000000E+02  0.51100000000E-03 0.  1.
         11   -1    0    0    0    0 -0.00000000000E+00 -0.00000000000E+00 -0.45593999997E+02  0.45594000000E+02  0.51100000000E-03 0. -1.
    9900012    2    1    2    0    0  0.20769311377E+02  0.86755622722E+01 -0.22585202573E+02  0.59301936413E+02  0.49999986113E+02 0.  0.
        -12    1    1    2    0    0 -0.20769311377E+02 -0.86755622722E+01  0.22585202573E+02  0.31886063587E+02  0.00000000000E+00 0.  1.
         11    1    3    3    0    0  0.10190113451E+02 -0.15240598709E+02 -0.54831760463E+01  0.19135816705E+02  0.51100000000E-03 0. -1.
        -11    1    3    3    0    0 -0.79212739399E+01  0.64426407512E+01 -0.15101803204E+01  0.10321571854E+02  0.51100000000E-03 0.  1.
         12    1    3    3    0    0  0.18500471866E+02  0.17473520230E+02 -0.15591846206E+02  0.29844547854E+02  0.00000000000E+00 0. -1.
</event>
<event>
 7    1  0.1184848E-011  0.5930197E+02  0.7816164E-02  0.1266605E+00
        -11   -1    0    0    0    0  0.00000000000E+00  0.00000000000E+00  0.45593999997E+02  0.45594000000E+02  0.51100000000E-03 0.  1.
         11   -1    0    0    0    0 -0.00000000000E+00 -0.00000000000E+00 -0.45593999997E+02  0.45594000000E+02  0.51100000000E-03 0. -1.
    9900012    2    1    2    0    0  0.15408746766E+02 -0.11266633123E+02 -0.25541191696E+02  0.59301969013E+02  0.50000045568E+02 0.  0.
        -12    1    1    2    0    0 -0.15408746766E+02  0.11266633123E+02  0.25541191696E+02  0.31886030987E+02  0.00000000000E+00 0.  1.
         11    1    3    3    0    0  0.10465967476E+02 -0.15837704306E+02 -0.22063239872E+02  0.29105942809E+02  0.51100000000E-03 0. -1.
        -11    1    3    3    0    0  0.16524660872E+02  0.30121388173E+01  0.26432123472E+01  0.17003645755E+02  0.51100000000E-03 0.  1.
         12    1    3    3    0    0 -0.11581881583E+02  0.15589323660E+01 -0.61211641717E+01  0.13192380450E+02  0.00000000000E+00 0. -1.
</event>
<event>
 7    1  0.1184848E-011  0.5930196E+02  0.7816164E-02  0.1266605E+00
        -11   -1    0    0    0    0  0.00000000000E+00  0.00000000000E+00  0.45593999997E+02  0.45594000000E+02  0.51100000000E-03 0.  1.
         11   -1    0    0    0    0 -0.00000000000E+00 -0.00000000000E+00 -0.45593999997E+02  0.45594000000E+02  0.51100000000E-03 0. -1.
    9900012    2    1    2    0    0 -0.11550788788E+02 -0.49666371428E+01 -0.29302407381E+02  0.59301964115E+02  0.50000036635E+02 0.  0.
        -12    1    1    2    0    0  0.11550788788E+02  0.49666371428E+01  0.29302407381E+02  0.31886035885E+02  0.00000000000E+00 0.  1.
         11    1    3    3    0    0  0.76967298639E+01 -0.15433827061E+02 -0.14978836050E+02  0.22843121460E+02  0.51100000000E-03 0. -1.
        -11    1    3    3    0    0  0.16105711470E+01 -0.64494225946E+01 -0.33996486468E+01  0.74663647383E+01  0.51100000000E-03 0.  1.
        -12    1    3    3    0    0 -0.20858089799E+02  0.16916612513E+02 -0.10923922684E+02  0.28992477917E+02  0.00000000000E+00 0.  1.
</event>
<event>
 7    1  0.1184848E-011  0.5930195E+02  0.7816164E-02  0.1266605E+00
        -11   -1    0    0    0    0  0.00000000000E+00  0.00000000000E+00  0.45593999997E+02  0.45594000000E+02  0.51100000000E-03 0.  1.
         11   -1    0    0    0    0 -0.00000000000E+00 -0.00000000000E+00 -0.45593999997E+02  0.45594000000E+02  0.51100000000E-03 0. -1.
    9900012    2    1    2    0    0 -0.42101982582E+01  0.31523562464E+02 -0.22933887507E+01  0.59301946752E+02  0.50000004968E+02 0.  0.
        -12    1    1    2    0    0  0.42101982582E+01 -0.31523562464E+02  0.22933887507E+01  0.31886053248E+02  0.00000000000E+00 0.  1.
         11    1    3    3    0    0 -0.89927188773E+01  0.15865677832E+01  0.30551486699E+01  0.96291289218E+01  0.51100000000E-03 0. -1.
        -11    1    3    3    0    0  0.27162175413E+01  0.40460766077E+00  0.14025777288E+02  0.14292094803E+02  0.51100000000E-03 0.  1.
         12    1    3    3    0    0  0.20663030777E+01  0.29532387020E+02 -0.19374314708E+02  0.35380723027E+02  0.00000000000E+00 0. -1.
</event>
<event>
 7    1  0.1184848E-011  0.5930196E+02  0.7816164E-02  0.1266605E+00
        -11   -1    0    0    0    0  0.00000000000E+00  0.00000000000E+00  0.45593999997E+02  0.45594000000E+02  0.51100000000E-03 0.  1.
         11   -1    0    0    0    0 -0.00000000000E+00 -0.00000000000E+00 -0.45593999997E+02  0.45594000000E+02  0.51100000000E-03 0. -1.
    9900012    2    1    2    0    0 -0.10984811981E+02  0.26749345294E+02  0.13436000633E+02  0.59301957898E+02  0.50000025296E+02 0.  0.
        -12    1    1    2    0    0  0.10984811981E+02 -0.26749345294E+02 -0.13436000633E+02  0.31886042102E+02  0.00000000000E+00 0.  1.
         11    1    3    3    0    0 -0.14421812639E+00  0.11582261035E+02  0.24297685842E+02  0.26917412712E+02  0.51100000000E-03 0. -1.
        -11    1    3    3    0    0 -0.71198317542E+01  0.77379110318E+01  0.70361793254E+01  0.12652078529E+02  0.51100000000E-03 0.  1.
         12    1    3    3    0    0 -0.37207621003E+01  0.74291732271E+01 -0.17897864535E+02  0.19732466657E+02  0.00000000000E+00 0. -1.
</event>
<event>
 7    1  0.1184848E-011  0.5930196E+02  0.7816164E-02  0.1266605E+00
        -11   -1    0    0    0    0  0.00000000000E+00  0.00000000000E+00  0.45593999997E+02  0.45594000000E+02  0.51100000000E-03 0.  1.
         11   -1    0    0    0    0 -0.00000000000E+00 -0.00000000000E+00 -0.45593999997E+02  0.45594000000E+02  0.51100000000E-03 0. -1.
    9900012    2    1    2    0    0  0.12476440738E+02  0.15690780414E+02 -0.24796323327E+02  0.59301955811E+02  0.50000021491E+02 0.  0.
        -12    1    1    2    0    0 -0.12476440738E+02 -0.15690780414E+02  0.24796323327E+02  0.31886044189E+02  0.00000000000E+00 0.  1.
         11    1    3    3    0    0  0.13661089481E+02  0.10215415296E+02 -0.82175453850E+01  0.18934310864E+02  0.51100000000E-03 0. -1.
        -11    1    3    3    0    0  0.13776995046E+02 -0.30279802268E+01 -0.18262983185E+02  0.23076195783E+02  0.51100000000E-03 0.  1.
        -12    1    3    3    0    0 -0.14961643789E+02  0.85033453447E+01  0.16842052435E+01  0.17291449165E+02  0.00000000000E+00 0.  1.
</event>
<event>
 7    1  0.1184848E-011  0.5930198E+02  0.7816164E-02  0.1266605E+00
        -11   -1    0    0    0    0  0.00000000000E+00  0.00000000000E+00  0.45593999997E+02  0.45594000000E+02  0.51100000000E-03 0. -1.
         11   -1    0    0    0    0 -0.00000000000E+00 -0.00000000000E+00 -0.45593999997E+02  0.45594000000E+02  0.51100000000E-03 0.  1.
    9900012    2    1    2    0    0  0.57750578182E+01  0.16156792264E+02  0.26876110111E+02  0.59301976043E+02  0.50000058389E+02 0.  0.
        -12    1    1    2    0    0 -0.57750578182E+01 -0.16156792264E+02 -0.26876110111E+02  0.31886023957E+02  0.00000000000E+00 0.  1.
         11    1    3    3    0    0  0.62080214250E+01  0.17339576490E+02 -0.49186969036E+01  0.19062896484E+02  0.51100000000E-03 0. -1.
        -11    1    3    3    0    0  0.10275679775E+00 -0.22013775911E+00 -0.42102093980E+01  0.42172127085E+01  0.51100000000E-03 0.  1.
         12    1    3    3    0    0 -0.53572040454E+00 -0.96264646683E+00  0.36005016412E+02  0.36021866851E+02  0.00000000000E+00 0. -1.
</event>
<event>
 7    1  0.1184848E-011  0.5930196E+02  0.7816164E-02  0.1266605E+00
        -11   -1    0    0    0    0  0.00000000000E+00  0.00000000000E+00  0.45593999997E+02  0.45594000000E+02  0.51100000000E-03 0.  1.
         11   -1    0    0    0    0 -0.00000000000E+00 -0.00000000000E+00 -0.45593999997E+02  0.45594000000E+02  0.51100000000E-03 0. -1.
    9900012    2    1    2    0    0 -0.96533717116E+01 -0.18097895798E+02 -0.24413070086E+02  0.59301962166E+02  0.50000033079E+02 0.  0.
        -12    1    1    2    0    0  0.96533717116E+01  0.18097895798E+02  0.24413070086E+02  0.31886037834E+02  0.00000000000E+00 0.  1.
         11    1    3    3    0    0  0.64570840960E+00 -0.11595657614E+02 -0.24179582709E+01  0.11862661477E+02  0.51100000000E-03 0. -1.
        -11    1    3    3    0    0  0.11067569931E+02  0.32606525891E+01  0.41770349229E+01  0.12270720456E+02  0.51100000000E-03 0.  1.
        -12    1    3    3    0    0 -0.21366650053E+02 -0.97628907733E+01 -0.26172146738E+02  0.35168580233E+02  0.00000000000E+00 0.  1.
</event>
<event>
 7    1  0.1184848E-011  0.5930194E+02  0.7816164E-02  0.1266605E+00
        -11   -1    0    0    0    0  0.00000000000E+00  0.00000000000E+00  0.45593999997E+02  0.45594000000E+02  0.51100000000E-03 0. -1.
         11   -1    0    0    0    0 -0.00000000000E+00 -0.00000000000E+00 -0.45593999997E+02  0.45594000000E+02  0.51100000000E-03 0.  1.
    9900012    2    1    2    0    0 -0.44750841581E+01 -0.58988716138E+01  0.31014480202E+02  0.59301936481E+02  0.49999986236E+02 0.  0.
        -12    1    1    2    0    0  0.44750841581E+01  0.58988716138E+01 -0.31014480202E+02  0.31886063519E+02  0.00000000000E+00 0.  1.
         11    1    3    3    0    0  0.70441920917E+00 -0.54062137183E+01  0.27791411625E+02  0.28321121333E+02  0.51100000000E-03 0. -1.
        -11    1    3    3    0    0  0.28074848530E+01  0.83089183329E+01  0.12937846973E+02  0.15630354431E+02  0.51100000000E-03 0.  1.
         12    1    3    3    0    0 -0.79869882202E+01 -0.88015762283E+01 -0.97147783959E+01  0.15350460717E+02  0.00000000000E+00 0. -1.
</event>
<event>
 7    1  0.1184848E-011  0.5930190E+02  0.7816164E-02  0.1266605E+00
        -11   -1    0    0    0    0  0.00000000000E+00  0.00000000000E+00  0.45593999997E+02  0.45594000000E+02  0.51100000000E-03 0.  1.
         11   -1    0    0    0    0 -0.00000000000E+00 -0.00000000000E+00 -0.45593999997E+02  0.45594000000E+02  0.51100000000E-03 0. -1.
    9900012    2    1    2    0    0 -0.10027761710E+01  0.24942328192E+02 -0.19839302882E+02  0.59301902174E+02  0.49999923669E+02 0.  0.
        -12    1    1    2    0    0  0.10027761710E+01 -0.24942328192E+02  0.19839302882E+02  0.31886097826E+02  0.00000000000E+00 0.  1.
         11    1    3    3    0    0 -0.98245989900E+01 -0.30318655962E+01 -0.42438183304E+01  0.11123171696E+02  0.51100000000E-03 0. -1.
        -11    1    3    3    0    0 -0.86921013849E+01 -0.93847802332E+00  0.34271121556E+01  0.93903389435E+01  0.51100000000E-03 0.  1.
        -12    1    3    3    0    0  0.17513924204E+02  0.28912671812E+02 -0.19022596707E+02  0.38788391534E+02  0.00000000000E+00 0.  1.
</event>
<event>
 7    1  0.1184848E-011  0.5930198E+02  0.7816164E-02  0.1266605E+00
        -11   -1    0    0    0    0  0.00000000000E+00  0.00000000000E+00  0.45593999997E+02  0.45594000000E+02  0.51100000000E-03 0. -1.
         11   -1    0    0    0    0 -0.00000000000E+00 -0.00000000000E+00 -0.45593999997E+02  0.45594000000E+02  0.51100000000E-03 0.  1.
    9900012    2    1    2    0    0  0.19641399220E+02 -0.29950048839E+01  0.24939200088E+02  0.59301979261E+02  0.50000064256E+02 0.  0.
        -12    1    1    2    0    0 -0.19641399220E+02  0.29950048839E+01 -0.24939200088E+02  0.31886020739E+02  0.00000000000E+00 0.  1.
         11    1    3    3    0    0  0.94236490347E+01 -0.67870075021E+01  0.92752869103E+01  0.14862690856E+02  0.51100000000E-03 0. -1.
        -11    1    3    3    0    0  0.17710791975E+02  0.17516289596E+02  0.14350471529E+02  0.28747670983E+02  0.51100000000E-03 0.  1.
         12    1    3    3    0    0 -0.74930417903E+01 -0.13724286978E+02  0.13134416486E+01  0.15691617421E+02  0.00000000000E+00 0. -1.
</event>
<event>
 7    1  0.1184848E-011  0.5930207E+02  0.7816164E-02  0.1266604E+00
        -11   -1    0    0    0    0  0.00000000000E+00  0.00000000000E+00  0.45593999997E+02  0.45594000000E+02  0.51100000000E-03 0. -1.
         11   -1    0    0    0    0 -0.00000000000E+00 -0.00000000000E+00 -0.45593999997E+02  0.45594000000E+02  0.51100000000E-03 0.  1.
    9900012    2    1    2    0    0 -0.48828471533E+01 -0.71785475246E+01  0.30681244678E+02  0.59302070252E+02  0.50000230203E+02 0.  0.
        -12    1    1    2    0    0  0.48828471533E+01  0.71785475246E+01 -0.30681244678E+02  0.31885929748E+02  0.00000000000E+00 0.  1.
         11    1    3    3    0    0 -0.42950702143E+01  0.91840655773E+01  0.83747038314E+01  0.13150298597E+02  0.51100000000E-03 0. -1.
        -11    1    3    3    0    0 -0.20509532234E+01  0.87857010038E+01 -0.38753295961E+01  0.98190188406E+01  0.51100000000E-03 0.  1.
        -12    1    3    3    0    0  0.14631762844E+01 -0.25148314106E+02  0.26181870443E+02  0.36332752814E+02  0.00000000000E+00 0.  1.
</event>
<event>
 7    1  0.1184848E-011  0.5930194E+02  0.7816164E-02  0.1266605E+00
        -11   -1    0    0    0    0  0.00000000000E+00  0.00000000000E+00  0.45593999997E+02  0.45594000000E+02  0.51100000000E-03 0.  1.
         11   -1    0    0    0    0 -0.00000000000E+00 -0.00000000000E+00 -0.45593999997E+02  0.45594000000E+02  0.51100000000E-03 0. -1.
    9900012    2    1    2    0    0  0.30062655462E+02  0.10212019743E+02 -0.29449091872E+01  0.59301935790E+02  0.49999984976E+02 0.  0.
        -12    1    1    2    0    0 -0.30062655462E+02 -0.10212019743E+02  0.29449091872E+01  0.31886064210E+02  0.00000000000E+00 0.  1.
         11    1    3    3    0    0  0.53368989974E+01 -0.79395124575E+01  0.10684521441E+02  0.14341455563E+02  0.51100000000E-03 0. -1.
        -11    1    3    3    0    0  0.55812184336E+01  0.18665379756E+02  0.28570257306E+01  0.19690327497E+02  0.51100000000E-03 0.  1.
         12    1    3    3    0    0  0.19144538031E+02 -0.51384755612E+00 -0.16486456359E+02  0.25270152730E+02  0.00000000000E+00 0. -1.
</event>
<event>
 7    1  0.1184848E-011  0.5930193E+02  0.7816164E-02  0.1266605E+00
        -11   -1    0    0    0    0  0.00000000000E+00  0.00000000000E+00  0.45593999997E+02  0.45594000000E+02  0.51100000000E-03 0. -1.
         11   -1    0    0    0    0 -0.00000000000E+00 -0.00000000000E+00 -0.45593999997E+02  0.45594000000E+02  0.51100000000E-03 0.  1.
    9900012    2    1    2    0    0  0.39778902046E+01  0.20437208979E+02  0.24149908266E+02  0.59301934225E+02  0.49999982122E+02 0.  0.
        -12    1    1    2    0    0 -0.39778902046E+01 -0.20437208979E+02 -0.24149908266E+02  0.31886065775E+02  0.00000000000E+00 0.  1.
         11    1    3    3    0    0 -0.82967708634E+00  0.12458214276E+01 -0.80360205982E+01  0.81742316099E+01  0.51100000000E-03 0. -1.
        -11    1    3    3    0    0 -0.10332740170E+02 -0.12648843518E+01  0.41187540692E+00  0.10418017732E+02  0.51100000000E-03 0.  1.
         12    1    3    3    0    0  0.15140307461E+02  0.20456271903E+02  0.31774053457E+02  0.40709684883E+02  0.00000000000E+00 0. -1.
</event>
<event>
 7    1  0.1184848E-011  0.5930196E+02  0.7816164E-02  0.1266605E+00
        -11   -1    0    0    0    0  0.00000000000E+00  0.00000000000E+00  0.45593999997E+02  0.45594000000E+02  0.51100000000E-03 0. -1.
         11   -1    0    0    0    0 -0.00000000000E+00 -0.00000000000E+00 -0.45593999997E+02  0.45594000000E+02  0.51100000000E-03 0.  1.
    9900012    2    1    2    0    0  0.25447222039E+02  0.65657782948E+01  0.18056821864E+02  0.59301962774E+02  0.50000034189E+02 0.  0.
        -12    1    1    2    0    0 -0.25447222039E+02 -0.65657782948E+01 -0.18056821864E+02  0.31886037226E+02  0.00000000000E+00 0.  1.
         11    1    3    3    0    0 -0.41439953124E+01  0.64353193968E+01 -0.91237961733E+01  0.11909227085E+02  0.51100000000E-03 0.  1.
        -11    1    3    3    0    0  0.19421357791E+02  0.32396717341E+01  0.16773176298E+01  0.19761022394E+02  0.51100000000E-03 0. -1.
         12    1    3    3    0    0  0.10169859561E+02 -0.31092128361E+01  0.25503300407E+02  0.27631713295E+02  0.00000000000E+00 0. -1.
</event>
<event>
 7    1  0.1184848E-011  0.5930195E+02  0.7816164E-02  0.1266605E+00
        -11   -1    0    0    0    0  0.00000000000E+00  0.00000000000E+00  0.45593999997E+02  0.45594000000E+02  0.51100000000E-03 0. -1.
         11   -1    0    0    0    0 -0.00000000000E+00 -0.00000000000E+00 -0.45593999997E+02  0.45594000000E+02  0.51100000000E-03 0.  1.
    9900012    2    1    2    0    0 -0.14974170527E+02  0.16361912739E+02  0.22908119142E+02  0.59301954556E+02  0.50000019200E+02 0.  0.
        -12    1    1    2    0    0  0.14974170527E+02 -0.16361912739E+02 -0.22908119142E+02  0.31886045444E+02  0.00000000000E+00 0.  1.
         11    1    3    3    0    0 -0.13603056951E+02  0.21898524469E+02  0.12172299793E+02  0.28508830472E+02  0.51100000000E-03 0. -1.
        -11    1    3    3    0    0 -0.89733525682E+01  0.84444123852E+01  0.15524716027E+01  0.12419312589E+02  0.51100000000E-03 0.  1.
        -12    1    3    3    0    0  0.76022389921E+01 -0.13981024116E+02  0.91833477463E+01  0.18373811495E+02  0.00000000000E+00 0.  1.
</event>
<event>
 7    1  0.1184848E-011  0.5930197E+02  0.7816164E-02  0.1266605E+00
        -11   -1    0    0    0    0  0.00000000000E+00  0.00000000000E+00  0.45593999997E+02  0.45594000000E+02  0.51100000000E-03 0. -1.
         11   -1    0    0    0    0 -0.00000000000E+00 -0.00000000000E+00 -0.45593999997E+02  0.45594000000E+02  0.51100000000E-03 0.  1.
    9900012    2    1    2    0    0 -0.84357134670E+01  0.20004811678E+02  0.23353057993E+02  0.59301967484E+02  0.50000042779E+02 0.  0.
        -12    1    1    2    0    0  0.84357134670E+01 -0.20004811678E+02 -0.23353057993E+02  0.31886032516E+02  0.00000000000E+00 0.  1.
         11    1    3    3    0    0 -0.24295947233E+02  0.17668159625E+02  0.15112611329E+02  0.33628082578E+02  0.51100000000E-03 0. -1.
        -11    1    3    3    0    0  0.35796266382E+01 -0.11167162772E+01 -0.56711483206E+01  0.67987282376E+01  0.51100000000E-03 0.  1.
        -12    1    3    3    0    0  0.12280607127E+02  0.34533683301E+01  0.13911594985E+02  0.18875156668E+02  0.00000000000E+00 0.  1.
</event>
<event>
 7    1  0.1184848E-011  0.5930192E+02  0.7816164E-02  0.1266605E+00
        -11   -1    0    0    0    0  0.00000000000E+00  0.00000000000E+00  0.45593999997E+02  0.45594000000E+02  0.51100000000E-03 0. -1.
         11   -1    0    0    0    0 -0.00000000000E+00 -0.00000000000E+00 -0.45593999997E+02  0.45594000000E+02  0.51100000000E-03 0.  1.
    9900012    2    1    2    0    0 -0.84027446325E+01 -0.14380212569E+02  0.27190536718E+02  0.59301922821E+02  0.49999961323E+02 0.  0.
        -12    1    1    2    0    0  0.84027446325E+01  0.14380212569E+02 -0.27190536718E+02  0.31886077179E+02  0.00000000000E+00 0.  1.
         11    1    3    3    0    0 -0.52310794037E+01 -0.13892956934E+02  0.16312764679E+02  0.22056398977E+02  0.51100000000E-03 0. -1.
        -11    1    3    3    0    0 -0.66893805592E+01 -0.87490546660E+01 -0.97746720758E+01  0.14725419663E+02  0.51100000000E-03 0.  1.
         12    1    3    3    0    0  0.35177153304E+01  0.82617990314E+01  0.20652444114E+02  0.22520104180E+02  0.00000000000E+00 0. -1.
</event>
<event>
 7    1  0.1184848E-011  0.5930204E+02  0.7816164E-02  0.1266604E+00
        -11   -1    0    0    0    0  0.00000000000E+00  0.00000000000E+00  0.45593999997E+02  0.45594000000E+02  0.51100000000E-03 0. -1.
         11   -1    0    0    0    0 -0.00000000000E+00 -0.00000000000E+00 -0.45593999997E+02  0.45594000000E+02  0.51100000000E-03 0.  1.
    9900012    2    1    2    0    0  0.65698992490E+01  0.48984618019E+01  0.30814863420E+02  0.59302042092E+02  0.50000178845E+02 0.  0.
        -12    1    1    2    0    0 -0.65698992490E+01 -0.48984618019E+01 -0.30814863420E+02  0.31885957908E+02  0.00000000000E+00 0.  1.
         11    1    3    3    0    0  0.15528410528E+01  0.12412538438E+02  0.17621275766E+01  0.12632795401E+02  0.51100000000E-03 0. -1.
        -11    1    3    3    0    0  0.45089186071E+01  0.11815335470E+02  0.11187280731E+01  0.12695828135E+02  0.51100000000E-03 0.  1.
         12    1    3    3    0    0  0.50813958913E+00 -0.19329412106E+02  0.27934007770E+02  0.33973418555E+02  0.00000000000E+00 0. -1.
</event>
<event>
 7    1  0.1184848E-011  0.5930196E+02  0.7816164E-02  0.1266605E+00
        -11   -1    0    0    0    0  0.00000000000E+00  0.00000000000E+00  0.45593999997E+02  0.45594000000E+02  0.51100000000E-03 0. -1.
         11   -1    0    0    0    0 -0.00000000000E+00 -0.00000000000E+00 -0.45593999997E+02  0.45594000000E+02  0.51100000000E-03 0.  1.
    9900012    2    1    2    0    0  0.17226730038E+02 -0.16583258448E+02  0.21093955996E+02  0.59301958099E+02  0.50000025662E+02 0.  0.
        -12    1    1    2    0    0 -0.17226730038E+02  0.16583258448E+02 -0.21093955996E+02  0.31886041901E+02  0.00000000000E+00 0.  1.
         11    1    3    3    0    0  0.71852753435E+00  0.38143031326E+01 -0.44742159125E+01  0.59231578147E+01  0.51100000000E-03 0. -1.
        -11    1    3    3    0    0  0.43274937803E+01 -0.98887204621E-01  0.29120856280E+02  0.29440809293E+02  0.51100000000E-03 0.  1.
         12    1    3    3    0    0  0.12180708724E+02 -0.20298674376E+02 -0.35526843714E+01  0.23937990991E+02  0.00000000000E+00 0. -1.
</event>
<event>
 7    1  0.1184848E-011  0.5930195E+02  0.7816164E-02  0.1266605E+00
        -11   -1    0    0    0    0  0.00000000000E+00  0.00000000000E+00  0.45593999997E+02  0.45594000000E+02  0.51100000000E-03 0.  1.
         11   -1    0    0    0    0 -0.00000000000E+00 -0.00000000000E+00 -0.45593999997E+02  0.45594000000E+02  0.51100000000E-03 0. -1.
    9900012    2    1    2    0    0 -0.14487379414E+01  0.27529519407E+02 -0.16023332796E+02  0.59301945457E+02  0.50000002607E+02 0.  0.
        -12    1    1    2    0    0  0.14487379414E+01 -0.27529519407E+02  0.16023332796E+02  0.31886054543E+02  0.00000000000E+00 0.  1.
         11    1    3    3    0    0  0.31791168565E+01  0.55428423196E+01  0.84042233193E+01  0.10557502301E+02  0.51100000000E-03 0.  1.
        -11    1    3    3    0    0 -0.80572992691E+01  0.31381217546E+01  0.75421251709E+01  0.11473950149E+02  0.51100000000E-03 0. -1.
        -12    1    3    3    0    0  0.34294444712E+01  0.18848555333E+02 -0.31969681286E+02  0.37270493008E+02  0.00000000000E+00 0.  1.
</event>
<event>
 7    1  0.1184848E-011  0.5930196E+02  0.7816164E-02  0.1266605E+00
        -11   -1    0    0    0    0  0.00000000000E+00  0.00000000000E+00  0.45593999997E+02  0.45594000000E+02  0.51100000000E-03 0. -1.
         11   -1    0    0    0    0 -0.00000000000E+00 -0.00000000000E+00 -0.45593999997E+02  0.45594000000E+02  0.51100000000E-03 0.  1.
    9900012    2    1    2    0    0 -0.24825983694E+02 -0.19941100936E+02  0.16560822816E+01  0.59301959457E+02  0.50000028140E+02 0.  0.
        -12    1    1    2    0    0  0.24825983694E+02  0.19941100936E+02 -0.16560822816E+01  0.31886040543E+02  0.00000000000E+00 0.  1.
         11    1    3    3    0    0  0.13484488947E+01 -0.14359471163E+02 -0.32035784490E+01  0.14774154515E+02  0.51100000000E-03 0. -1.
        -11    1    3    3    0    0 -0.25044710137E+01  0.13554528552E+02  0.63895950749E+00  0.13798764033E+02  0.51100000000E-03 0.  1.
         12    1    3    3    0    0 -0.23669961575E+02 -0.19136158325E+02  0.42207012231E+01  0.30729040910E+02  0.00000000000E+00 0. -1.
</event>
<event>
 7    1  0.1184848E-011  0.5930196E+02  0.7816164E-02  0.1266605E+00
        -11   -1    0    0    0    0  0.00000000000E+00  0.00000000000E+00  0.45593999997E+02  0.45594000000E+02  0.51100000000E-03 0. -1.
         11   -1    0    0    0    0 -0.00000000000E+00 -0.00000000000E+00 -0.45593999997E+02  0.45594000000E+02  0.51100000000E-03 0.  1.
    9900012    2    1    2    0    0 -0.78906137837E+01  0.26643822555E+02  0.15638566725E+02  0.59301955475E+02  0.50000020878E+02 0.  0.
        -12    1    1    2    0    0  0.78906137837E+01 -0.26643822555E+02 -0.15638566725E+02  0.31886044525E+02  0.00000000000E+00 0.  1.
         11    1    3    3    0    0 -0.10452544633E+02  0.13606756577E+02  0.20425536477E+02  0.26675870267E+02  0.51100000000E-03 0. -1.
        -11    1    3    3    0    0  0.38136854731E+01 -0.56478936232E+01  0.75731527215E+01  0.10188009701E+02  0.51100000000E-03 0.  1.
        -12    1    3    3    0    0 -0.12517546234E+01  0.18684959601E+02 -0.12360122474E+02  0.22438075507E+02  0.00000000000E+00 0.  1.
</event>
<event>
 7    1  0.1184848E-011  0.5930193E+02  0.7816164E-02  0.1266605E+00
        -11   -1    0    0    0    0  0.00000000000E+00  0.00000000000E+00  0.45593999997E+02  0.45594000000E+02  0.51100000000E-03 0. -1.
         11   -1    0    0    0    0 -0.00000000000E+00 -0.00000000000E+00 -0.45593999997E+02  0.45594000000E+02  0.51100000000E-03 0.  1.
    9900012    2    1    2    0    0 -0.11333470616E+02 -0.23192650417E+02  0.18718294694E+02  0.59301934927E+02  0.49999983403E+02 0.  0.
        -12    1    1    2    0    0  0.11333470616E+02  0.23192650417E+02 -0.18718294694E+02  0.31886065073E+02  0.00000000000E+00 0.  1.
         11    1    3    3    0    0  0.58457329769E+01 -0.26591512312E+02  0.42702436347E+01  0.27559319695E+02  0.51100000000E-03 0. -1.
        -11    1    3    3    0    0 -0.48155670424E+01 -0.93033329511E+01  0.43571855463E+01  0.11345781422E+02  0.51100000000E-03 0.  1.
        -12    1    3    3    0    0 -0.12363636551E+02  0.12702194846E+02  0.10090865513E+02  0.20396833810E+02  0.00000000000E+00 0.  1.
</event>
<event>
 7    1  0.1184848E-011  0.5930202E+02  0.7816164E-02  0.1266605E+00
        -11   -1    0    0    0    0  0.00000000000E+00  0.00000000000E+00  0.45593999997E+02  0.45594000000E+02  0.51100000000E-03 0.  1.
         11   -1    0    0    0    0 -0.00000000000E+00 -0.00000000000E+00 -0.45593999997E+02  0.45594000000E+02  0.51100000000E-03 0. -1.
    9900012    2    1    2    0    0  0.11825311418E+02  0.21505290091E+02 -0.20356825818E+02  0.59302017980E+02  0.50000134871E+02 0.  0.
        -12    1    1    2    0    0 -0.11825311418E+02 -0.21505290091E+02  0.20356825818E+02  0.31885982020E+02  0.00000000000E+00 0.  1.
         11    1    3    3    0    0 -0.11820376186E+01  0.79694636141E+01 -0.36080286027E+01  0.88276516633E+01  0.51100000000E-03 0. -1.
        -11    1    3    3    0    0  0.24976367512E+02  0.21696983602E+02 -0.10649872095E+02  0.34756262852E+02  0.51100000000E-03 0.  1.
        -12    1    3    3    0    0 -0.11969018476E+02 -0.81611571259E+01 -0.60989251198E+01  0.15718103465E+02  0.00000000000E+00 0.  1.
</event>
<event>
 7    1  0.1184848E-011  0.5930196E+02  0.7816164E-02  0.1266605E+00
        -11   -1    0    0    0    0  0.00000000000E+00  0.00000000000E+00  0.45593999997E+02  0.45594000000E+02  0.51100000000E-03 0.  1.
         11   -1    0    0    0    0 -0.00000000000E+00 -0.00000000000E+00 -0.45593999997E+02  0.45594000000E+02  0.51100000000E-03 0. -1.
    9900012    2    1    2    0    0  0.13520948280E+02  0.15135875207E+02 -0.24592866534E+02  0.59301955325E+02  0.50000020603E+02 0.  0.
        -12    1    1    2    0    0 -0.13520948280E+02 -0.15135875207E+02  0.24592866534E+02  0.31886044675E+02  0.00000000000E+00 0.  1.
         11    1    3    3    0    0  0.33947533551E+01  0.87570036885E+01 -0.59313953324E+01  0.11108146326E+02  0.51100000000E-03 0. -1.
        -11    1    3    3    0    0  0.10909288435E+01  0.17440573238E+02  0.70006141100E+01  0.18824779383E+02  0.51100000000E-03 0.  1.
         12    1    3    3    0    0  0.90352660818E+01 -0.11061701719E+02 -0.25662085311E+02  0.29369029616E+02  0.00000000000E+00 0. -1.
</event>
<event>
 7    1  0.1184848E-011  0.5930195E+02  0.7816164E-02  0.1266605E+00
        -11   -1    0    0    0    0  0.00000000000E+00  0.00000000000E+00  0.45593999997E+02  0.45594000000E+02  0.51100000000E-03 0.  1.
         11   -1    0    0    0    0 -0.00000000000E+00 -0.00000000000E+00 -0.45593999997E+02  0.45594000000E+02  0.51100000000E-03 0. -1.
    9900012    2    1    2    0    0  0.19458900039E+02 -0.25173803657E+02 -0.20859231963E+01  0.59301948867E+02  0.50000008826E+02 0.  0.
        -12    1    1    2    0    0 -0.19458900039E+02  0.25173803657E+02  0.20859231963E+01  0.31886051133E+02  0.00000000000E+00 0.  1.
         11    1    3    3    0    0  0.31052098696E+01  0.32006189742E+01  0.48139206096E+01  0.65620211863E+01  0.51100000000E-03 0. -1.
        -11    1    3    3    0    0  0.12207550863E+02 -0.16392174887E+02  0.16405881233E+02  0.26208407714E+02  0.51100000000E-03 0.  1.
         12    1    3    3    0    0  0.41461393063E+01 -0.11982247744E+02 -0.23305725039E+02  0.26531519967E+02  0.00000000000E+00 0. -1.
</event>
<event>
 7    1  0.1184848E-011  0.5930192E+02  0.7816164E-02  0.1266605E+00
        -11   -1    0    0    0    0  0.00000000000E+00  0.00000000000E+00  0.45593999997E+02  0.45594000000E+02  0.51100000000E-03 0.  1.
         11   -1    0    0    0    0 -0.00000000000E+00 -0.00000000000E+00 -0.45593999997E+02  0.45594000000E+02  0.51100000000E-03 0. -1.
    9900012    2    1    2    0    0  0.18325078947E+02 -0.22136249194E+02 -0.13816660846E+02  0.59301918965E+02  0.49999954292E+02 0.  0.
        -12    1    1    2    0    0 -0.18325078947E+02  0.22136249194E+02  0.13816660846E+02  0.31886081035E+02  0.00000000000E+00 0.  1.
         11    1    3    3    0    0  0.22982813320E+02 -0.79734005811E+01 -0.20993468845E+02  0.32132702335E+02  0.51100000000E-03 0. -1.
        -11    1    3    3    0    0  0.35937980575E+01  0.52923364626E-01  0.98781320346E+01  0.10511692448E+02  0.51100000000E-03 0.  1.
        -12    1    3    3    0    0 -0.82515324301E+01 -0.14215771978E+02 -0.27013240361E+01  0.16657524183E+02  0.00000000000E+00 0.  1.
</event>
<event>
 7    1  0.1184848E-011  0.5930197E+02  0.7816164E-02  0.1266605E+00
        -11   -1    0    0    0    0  0.00000000000E+00  0.00000000000E+00  0.45593999997E+02  0.45594000000E+02  0.51100000000E-03 0.  1.
         11   -1    0    0    0    0 -0.00000000000E+00 -0.00000000000E+00 -0.45593999997E+02  0.45594000000E+02  0.51100000000E-03 0. -1.
    9900012    2    1    2    0    0 -0.14785798572E+02  0.25054180516E+02  0.13053251118E+02  0.59301965980E+02  0.50000040036E+02 0.  0.
        -12    1    1    2    0    0  0.14785798572E+02 -0.25054180516E+02 -0.13053251118E+02  0.31886034020E+02  0.00000000000E+00 0.  1.
         11    1    3    3    0    0  0.11045560908E+01  0.56783496853E+01  0.45734515227E+00  0.58028324253E+01  0.51100000000E-03 0. -1.
        -11    1    3    3    0    0  0.10231974854E+02  0.20369545540E+02  0.14937465400E+02  0.27253248756E+02  0.51100000000E-03 0.  1.
         12    1    3    3    0    0 -0.26122329516E+02 -0.99371470878E+00 -0.23415594344E+01  0.26245884799E+02  0.00000000000E+00 0. -1.
</event>
<event>
 7    1  0.1184848E-011  0.5930197E+02  0.7816164E-02  0.1266605E+00
        -11   -1    0    0    0    0  0.00000000000E+00  0.00000000000E+00  0.45593999997E+02  0.45594000000E+02  0.51100000000E-03 0.  1.
         11   -1    0    0    0    0 -0.00000000000E+00 -0.00000000000E+00 -0.45593999997E+02  0.45594000000E+02  0.51100000000E-03 0. -1.
    9900012    2    1    2    0    0 -0.66866330518E+01 -0.22127221879E+02 -0.21963474408E+02  0.59301965162E+02  0.50000038543E+02 0.  0.
        -12    1    1    2    0    0  0.66866330518E+01  0.22127221879E+02  0.21963474408E+02  0.31886034838E+02  0.00000000000E+00 0.  1.
         11    1    3    3    0    0 -0.15261811812E+02  0.36314298998E+01  0.20473631949E+01  0.15820931679E+02  0.51100000000E-03 0. -1.
        -11    1    3    3    0    0  0.53418511264E+01  0.22612655203E+01  0.87479787214E+00  0.58663418575E+01  0.51100000000E-03 0.  1.
         12    1    3    3    0    0  0.32333276335E+01 -0.28019917299E+02 -0.24885635475E+02  0.37614691625E+02  0.00000000000E+00 0. -1.
</event>
<event>
 7    1  0.1184848E-011  0.5930195E+02  0.7816164E-02  0.1266605E+00
        -11   -1    0    0    0    0  0.00000000000E+00  0.00000000000E+00  0.45593999997E+02  0.45594000000E+02  0.51100000000E-03 0. -1.
         11   -1    0    0    0    0 -0.00000000000E+00 -0.00000000000E+00 -0.45593999997E+02  0.45594000000E+02  0.51100000000E-03 0.  1.
    9900012    2    1    2    0    0 -0.29188398180E+02  0.11873704356E+02 -0.48757571627E+01  0.59301945817E+02  0.50000003263E+02 0.  0.
        -12    1    1    2    0    0  0.29188398180E+02 -0.11873704356E+02  0.48757571627E+01  0.31886054183E+02  0.00000000000E+00 0.  1.
         11    1    3    3    0    0 -0.18107963474E+02  0.87662234295E+00  0.16610004159E+02  0.24587782460E+02  0.51100000000E-03 0. -1.
        -11    1    3    3    0    0 -0.93804103656E+01 -0.46274814653E+01 -0.39879693292E+01  0.11194176297E+02  0.51100000000E-03 0.  1.
         12    1    3    3    0    0 -0.17000243414E+01  0.15624563478E+02 -0.17497791993E+02  0.23519987059E+02  0.00000000000E+00 0. -1.
</event>
<event>
 7    1  0.1184848E-011  0.5930193E+02  0.7816164E-02  0.1266605E+00
        -11   -1    0    0    0    0  0.00000000000E+00  0.00000000000E+00  0.45593999997E+02  0.45594000000E+02  0.51100000000E-03 0.  1.
         11   -1    0    0    0    0 -0.00000000000E+00 -0.00000000000E+00 -0.45593999997E+02  0.45594000000E+02  0.51100000000E-03 0. -1.
    9900012    2    1    2    0    0  0.14597784442E+02  0.28171973256E+02 -0.31569198270E+01  0.59301928894E+02  0.49999972400E+02 0.  0.
        -12    1    1    2    0    0 -0.14597784442E+02 -0.28171973256E+02  0.31569198270E+01  0.31886071106E+02  0.00000000000E+00 0.  1.
         11    1    3    3    0    0  0.97859940343E+01  0.59914114774E+00  0.39456819498E+00  0.98122542607E+01  0.51100000000E-03 0. -1.
        -11    1    3    3    0    0 -0.42145502658E+01 -0.70875348097E+01  0.83619773484E+01  0.11743860058E+02  0.51100000000E-03 0.  1.
        -12    1    3    3    0    0  0.90263406737E+01  0.34660366918E+02 -0.11913465370E+02  0.37745814576E+02  0.00000000000E+00 0.  1.
</event>
<event>
 7    1  0.1184848E-011  0.5930193E+02  0.7816164E-02  0.1266605E+00
        -11   -1    0    0    0    0  0.00000000000E+00  0.00000000000E+00  0.45593999997E+02  0.45594000000E+02  0.51100000000E-03 0. -1.
         11   -1    0    0    0    0 -0.00000000000E+00 -0.00000000000E+00 -0.45593999997E+02  0.45594000000E+02  0.51100000000E-03 0.  1.
    9900012    2    1    2    0    0  0.19615488589E+02 -0.63411990133E+01  0.24325768244E+02  0.59301934106E+02  0.49999981905E+02 0.  0.
        -12    1    1    2    0    0 -0.19615488589E+02  0.63411990133E+01 -0.24325768244E+02  0.31886065894E+02  0.00000000000E+00 0.  1.
         11    1    3    3    0    0  0.24127919612E+02 -0.17709017393E+01  0.19554048681E+02  0.31107128087E+02  0.51100000000E-03 0. -1.
        -11    1    3    3    0    0  0.17165171634E+01  0.97891474321E+01 -0.34428143895E+01  0.10517928018E+02  0.51100000000E-03 0.  1.
        -12    1    3    3    0    0 -0.62289481861E+01 -0.14359444706E+02  0.82145339528E+01  0.17676878000E+02  0.00000000000E+00 0.  1.
</event>
<event>
 7    1  0.1184848E-011  0.5930205E+02  0.7816164E-02  0.1266604E+00
        -11   -1    0    0    0    0  0.00000000000E+00  0.00000000000E+00  0.45593999997E+02  0.45594000000E+02  0.51100000000E-03 0.  1.
         11   -1    0    0    0    0 -0.00000000000E+00 -0.00000000000E+00 -0.45593999997E+02  0.45594000000E+02  0.51100000000E-03 0. -1.
    9900012    2    1    2    0    0 -0.13925459697E+02 -0.28661376056E+02 -0.11493884758E+01  0.59302046995E+02  0.50000187786E+02 0.  0.
        -12    1    1    2    0    0  0.13925459697E+02  0.28661376056E+02  0.11493884758E+01  0.31885953005E+02  0.00000000000E+00 0.  1.
         11    1    3    3    0    0 -0.28490936548E+01  0.67819874614E+01  0.41128424306E+01  0.84278206970E+01  0.51100000000E-03 0. -1.
        -11    1    3    3    0    0  0.76118175718E+01  0.23841198290E+01  0.15787980426E+01  0.81311990276E+01  0.51100000000E-03 0.  1.
         12    1    3    3    0    0 -0.18688183614E+02 -0.37827483347E+02 -0.68410289489E+01  0.42743027270E+02  0.00000000000E+00 0. -1.
</event>
<event>
 7    1  0.1184848E-011  0.5930192E+02  0.7816164E-02  0.1266605E+00
        -11   -1    0    0    0    0  0.00000000000E+00  0.00000000000E+00  0.45593999997E+02  0.45594000000E+02  0.51100000000E-03 0.  1.
         11   -1    0    0    0    0 -0.00000000000E+00 -0.00000000000E+00 -0.45593999997E+02  0.45594000000E+02  0.51100000000E-03 0. -1.
    9900012    2    1    2    0    0 -0.22237811066E+02 -0.93100764720E+01 -0.20869226571E+02  0.59301915534E+02  0.49999948034E+02 0.  0.
        -12    1    1    2    0    0  0.22237811066E+02  0.93100764720E+01  0.20869226571E+02  0.31886084466E+02  0.00000000000E+00 0.  1.
         11    1    3    3    0    0 -0.82811134588E+00 -0.64339790038E+01  0.13311372964E+02  0.14807920336E+02  0.51100000000E-03 0. -1.
        -11    1    3    3    0    0 -0.16032004289E+00 -0.86625673984E+00  0.21689941368E+01  0.23410764794E+01  0.51100000000E-03 0.  1.
         12    1    3    3    0    0 -0.21249379677E+02 -0.20098407284E+01 -0.36349593672E+02  0.42152918719E+02  0.00000000000E+00 0. -1.
</event>
<event>
 7    1  0.1184848E-011  0.5930194E+02  0.7816164E-02  0.1266605E+00
        -11   -1    0    0    0    0  0.00000000000E+00  0.00000000000E+00  0.45593999997E+02  0.45594000000E+02  0.51100000000E-03 0. -1.
         11   -1    0    0    0    0 -0.00000000000E+00 -0.00000000000E+00 -0.45593999997E+02  0.45594000000E+02  0.51100000000E-03 0.  1.
    9900012    2    1    2    0    0  0.12516944176E+02 -0.16660736085E+02  0.24134348232E+02  0.59301940617E+02  0.49999993780E+02 0.  0.
        -12    1    1    2    0    0 -0.12516944176E+02  0.16660736085E+02 -0.24134348232E+02  0.31886059383E+02  0.00000000000E+00 0.  1.
         11    1    3    3    0    0  0.29787856252E+01 -0.14052436041E+02  0.40691354752E+01  0.14929902420E+02  0.51100000000E-03 0. -1.
        -11    1    3    3    0    0 -0.23975081123E+01 -0.91610018911E+01 -0.85017564975E+01  0.12726030984E+02  0.51100000000E-03 0.  1.
         12    1    3    3    0    0  0.11935666663E+02  0.65527018471E+01  0.28566969254E+02  0.31646007213E+02  0.00000000000E+00 0. -1.
</event>
<event>
 7    1  0.1184848E-011  0.5930195E+02  0.7816164E-02  0.1266605E+00
        -11   -1    0    0    0    0  0.00000000000E+00  0.00000000000E+00  0.45593999997E+02  0.45594000000E+02  0.51100000000E-03 0. -1.
         11   -1    0    0    0    0 -0.00000000000E+00 -0.00000000000E+00 -0.45593999997E+02  0.45594000000E+02  0.51100000000E-03 0.  1.
    9900012    2    1    2    0    0  0.95853514216E+01  0.28442370366E+02 -0.10764417007E+02  0.59301951838E+02  0.50000014244E+02 0.  0.
        -12    1    1    2    0    0 -0.95853514216E+01 -0.28442370366E+02  0.10764417007E+02  0.31886048162E+02  0.00000000000E+00 0.  1.
         11    1    3    3    0    0  0.21970216911E+02  0.49625931651E+01  0.75951883315E+01  0.23769826421E+02  0.51100000000E-03 0. -1.
        -11    1    3    3    0    0  0.15357106313E+01  0.12601935504E+02 -0.87784950381E+01  0.15434673984E+02  0.51100000000E-03 0.  1.
        -12    1    3    3    0    0 -0.13920576121E+02  0.10877841697E+02 -0.95811103004E+01  0.20097451433E+02  0.00000000000E+00 0.  1.
</event>
<event>
 7    1  0.1184848E-011  0.5930194E+02  0.7816164E-02  0.1266605E+00
        -11   -1    0    0    0    0  0.00000000000E+00  0.00000000000E+00  0.45593999997E+02  0.45594000000E+02  0.51100000000E-03 0.  1.
         11   -1    0    0    0    0 -0.00000000000E+00 -0.00000000000E+00 -0.45593999997E+02  0.45594000000E+02  0.51100000000E-03 0. -1.
    9900012    2    1    2    0    0  0.71526608951E+01 -0.35628241150E+01 -0.30868531908E+02  0.59301944495E+02  0.50000000852E+02 0.  0.
        -12    1    1    2    0    0 -0.71526608951E+01  0.35628241150E+01  0.30868531908E+02  0.31886055505E+02  0.00000000000E+00 0.  1.
         11    1    3    3    0    0 -0.11475568864E+02 -0.15266229133E+02 -0.97324634433E+01  0.21435187838E+02  0.51100000000E-03 0. -1.
        -11    1    3    3    0    0  0.98055653548E+01 -0.54604253212E+01 -0.12270406690E+02  0.16629138198E+02  0.51100000000E-03 0.  1.
         12    1    3    3    0    0  0.88226644041E+01  0.17163830340E+02 -0.88656617749E+01  0.21237618459E+02  0.00000000000E+00 0. -1.
</event>
<event>
 7    1  0.1184848E-011  0.5930197E+02  0.7816164E-02  0.1266605E+00
        -11   -1    0    0    0    0  0.00000000000E+00  0.00000000000E+00  0.45593999997E+02  0.45594000000E+02  0.51100000000E-03 0. -1.
         11   -1    0    0    0    0 -0.00000000000E+00 -0.00000000000E+00 -0.45593999997E+02  0.45594000000E+02  0.51100000000E-03 0.  1.
    9900012    2    1    2    0    0  0.25672344594E+02  0.18864507146E+02 -0.13340553199E+01  0.59301974685E+02  0.50000055911E+02 0.  0.
        -12    1    1    2    0    0 -0.25672344594E+02 -0.18864507146E+02  0.13340553199E+01  0.31886025315E+02  0.00000000000E+00 0.  1.
         11    1    3    3    0    0 -0.54907677898E+01 -0.11163666049E+01 -0.28229863790E+01  0.62740782331E+01  0.51100000000E-03 0. -1.
        -11    1    3    3    0    0  0.97044650412E+00  0.10098134576E+02 -0.14314926032E+02  0.17545118862E+02  0.51100000000E-03 0.  1.
         12    1    3    3    0    0  0.30192665880E+02  0.98827391752E+01  0.15803857091E+02  0.35482777589E+02  0.00000000000E+00 0. -1.
</event>
<event>
 7    1  0.1184848E-011  0.5930195E+02  0.7816164E-02  0.1266605E+00
        -11   -1    0    0    0    0  0.00000000000E+00  0.00000000000E+00  0.45593999997E+02  0.45594000000E+02  0.51100000000E-03 0.  1.
         11   -1    0    0    0    0 -0.00000000000E+00 -0.00000000000E+00 -0.45593999997E+02  0.45594000000E+02  0.51100000000E-03 0. -1.
    9900012    2    1    2    0    0  0.27360902704E+02 -0.14700010847E+02 -0.72118403868E+01  0.59301953562E+02  0.50000017389E+02 0.  0.
        -12    1    1    2    0    0 -0.27360902704E+02  0.14700010847E+02  0.72118403868E+01  0.31886046438E+02  0.00000000000E+00 0.  1.
         11    1    3    3    0    0  0.10315157777E+02  0.90770442644E+01 -0.10673166992E+02  0.17398612199E+02  0.51100000000E-03 0. -1.
        -11    1    3    3    0    0  0.21271322478E+02 -0.42235439438E+01  0.30004267604E+01  0.21893150628E+02  0.51100000000E-03 0.  1.
         12    1    3    3    0    0 -0.42255775510E+01 -0.19553511168E+02  0.46089984527E+00  0.20010190736E+02  0.00000000000E+00 0. -1.
</event>
<event>
 7    1  0.1184848E-011  0.5930181E+02  0.7816164E-02  0.1266605E+00
        -11   -1    0    0    0    0  0.00000000000E+00  0.00000000000E+00  0.45593999997E+02  0.45594000000E+02  0.51100000000E-03 0. -1.
         11   -1    0    0    0    0 -0.00000000000E+00 -0.00000000000E+00 -0.45593999997E+02  0.45594000000E+02  0.51100000000E-03 0.  1.
    9900012    2    1    2    0    0 -0.19678330242E+02  0.75836376568E+01  0.23916118163E+02  0.59301812564E+02  0.49999760241E+02 0.  0.
        -12    1    1    2    0    0  0.19678330242E+02 -0.75836376568E+01 -0.23916118163E+02  0.31886187436E+02  0.00000000000E+00 0.  1.
         11    1    3    3    0    0 -0.31544993281E+01  0.13463545424E+01  0.26457890589E+02  0.26679271191E+02  0.51100000000E-03 0. -1.
        -11    1    3    3    0    0  0.54837106470E+01  0.87260749914E+01  0.18319064311E+00  0.10307716832E+02  0.51100000000E-03 0.  1.
        -12    1    3    3    0    0 -0.22007541561E+02 -0.24887918770E+01 -0.27249630699E+01  0.22314824541E+02  0.00000000000E+00 0.  1.
</event>
<event>
 7    1  0.1184848E-011  0.5930193E+02  0.7816164E-02  0.1266605E+00
        -11   -1    0    0    0    0  0.00000000000E+00  0.00000000000E+00  0.45593999997E+02  0.45594000000E+02  0.51100000000E-03 0.  1.
         11   -1    0    0    0    0 -0.00000000000E+00 -0.00000000000E+00 -0.45593999997E+02  0.45594000000E+02  0.51100000000E-03 0. -1.
    9900012    2    1    2    0    0  0.31524732241E+02  0.26984459948E+01 -0.39536494708E+01  0.59301926272E+02  0.49999967617E+02 0.  0.
        -12    1    1    2    0    0 -0.31524732241E+02 -0.26984459948E+01  0.39536494708E+01  0.31886073728E+02  0.00000000000E+00 0.  1.
         11    1    3    3    0    0  0.21476581241E+01 -0.38322045090E+01  0.29327388237E+01  0.52819678232E+01  0.51100000000E-03 0. -1.
        -11    1    3    3    0    0  0.18052552506E+02 -0.16288532765E+02 -0.13349169980E+02  0.27738264023E+02  0.51100000000E-03 0.  1.
         12    1    3    3    0    0  0.11324521612E+02  0.22819183268E+02  0.64627816851E+01  0.26281694426E+02  0.00000000000E+00 0. -1.
</event>
<event>
 7    1  0.1184848E-011  0.5930194E+02  0.7816164E-02  0.1266605E+00
        -11   -1    0    0    0    0  0.00000000000E+00  0.00000000000E+00  0.45593999997E+02  0.45594000000E+02  0.51100000000E-03 0. -1.
         11   -1    0    0    0    0 -0.00000000000E+00 -0.00000000000E+00 -0.45593999997E+02  0.45594000000E+02  0.51100000000E-03 0.  1.
    9900012    2    1    2    0    0 -0.13905104552E+02  0.22838045235E+02 -0.17372183095E+02  0.59301937398E+02  0.49999987909E+02 0.  0.
        -12    1    1    2    0    0  0.13905104552E+02 -0.22838045235E+02  0.17372183095E+02  0.31886062602E+02  0.00000000000E+00 0.  1.
         11    1    3    3    0    0 -0.31089258828E+01  0.22670236173E+02 -0.27262365741E+01  0.23044248619E+02  0.51100000000E-03 0. -1.
        -11    1    3    3    0    0 -0.18152271730E+02  0.10071818802E+02 -0.10331195745E+02  0.23187930238E+02  0.51100000000E-03 0.  1.
         12    1    3    3    0    0  0.73560930607E+01 -0.99040097406E+01 -0.43147507759E+01  0.13069758541E+02  0.00000000000E+00 0. -1.
</event>
<event>
 7    1  0.1184848E-011  0.5930216E+02  0.7816164E-02  0.1266604E+00
        -11   -1    0    0    0    0  0.00000000000E+00  0.00000000000E+00  0.45593999997E+02  0.45594000000E+02  0.51100000000E-03 0.  1.
         11   -1    0    0    0    0 -0.00000000000E+00 -0.00000000000E+00 -0.45593999997E+02  0.45594000000E+02  0.51100000000E-03 0. -1.
    9900012    2    1    2    0    0  0.35385751549E+01 -0.29968403090E+02 -0.10299524659E+02  0.59302158219E+02  0.50000390632E+02 0.  0.
        -12    1    1    2    0    0 -0.35385751549E+01  0.29968403090E+02  0.10299524659E+02  0.31885841781E+02  0.00000000000E+00 0.  1.
         11    1    3    3    0    0  0.16469300436E+01 -0.29724426873E+02 -0.50644852045E+01  0.30197730745E+02  0.51100000000E-03 0. -1.
        -11    1    3    3    0    0  0.66593715831E+01 -0.68262020026E+01 -0.14135390167E+02  0.17051496095E+02  0.51100000000E-03 0.  1.
        -12    1    3    3    0    0 -0.47677264719E+01  0.65822257861E+01  0.89003507122E+01  0.12052931378E+02  0.00000000000E+00 0.  1.
</event>
<event>
 7    1  0.1184848E-011  0.5930193E+02  0.7816164E-02  0.1266605E+00
        -11   -1    0    0    0    0  0.00000000000E+00  0.00000000000E+00  0.45593999997E+02  0.45594000000E+02  0.51100000000E-03 0.  1.
         11   -1    0    0    0    0 -0.00000000000E+00 -0.00000000000E+00 -0.45593999997E+02  0.45594000000E+02  0.51100000000E-03 0. -1.
    9900012    2    1    2    0    0 -0.12452359362E+01 -0.24157523940E+02 -0.20774617251E+02  0.59301932551E+02  0.49999979069E+02 0.  0.
        -12    1    1    2    0    0  0.12452359362E+01  0.24157523940E+02  0.20774617251E+02  0.31886067449E+02  0.00000000000E+00 0.  1.
         11    1    3    3    0    0  0.55507725848E+01 -0.10418043780E+02  0.16205640043E+01  0.11915239840E+02  0.51100000000E-03 0. -1.
        -11    1    3    3    0    0  0.16087097639E+02 -0.66778726696E+01 -0.12673131473E+02  0.21540588558E+02  0.51100000000E-03 0.  1.
        -12    1    3    3    0    0 -0.22883106160E+02 -0.70616074905E+01 -0.97220497824E+01  0.25846104153E+02  0.00000000000E+00 0.  1.
</event>
<event>
 7    1  0.1184848E-011  0.5930189E+02  0.7816164E-02  0.1266605E+00
        -11   -1    0    0    0    0  0.00000000000E+00  0.00000000000E+00  0.45593999997E+02  0.45594000000E+02  0.51100000000E-03 0. -1.
         11   -1    0    0    0    0 -0.00000000000E+00 -0.00000000000E+00 -0.45593999997E+02  0.45594000000E+02  0.51100000000E-03 0.  1.
    9900012    2    1    2    0    0 -0.73669659475E+01 -0.27111980028E+02 -0.15079526814E+02  0.59301893664E+02  0.49999908149E+02 0.  0.
        -12    1    1    2    0    0  0.73669659475E+01  0.27111980028E+02  0.15079526814E+02  0.31886106336E+02  0.00000000000E+00 0.  1.
         11    1    3    3    0    0 -0.35463946804E+01  0.89067611295E+01  0.48087004765E+01  0.10725246365E+02  0.51100000000E-03 0. -1.
        -11    1    3    3    0    0  0.13108544881E+01 -0.10956064845E+01 -0.12369148251E+02  0.12486573660E+02  0.51100000000E-03 0.  1.
        -12    1    3    3    0    0 -0.51314257553E+01 -0.34923134673E+02 -0.75190790392E+01  0.36090073639E+02  0.00000000000E+00 0.  1.
</event>
<event>
 7    1  0.1184848E-011  0.5930192E+02  0.7816164E-02  0.1266605E+00
        -11   -1    0    0    0    0  0.00000000000E+00  0.00000000000E+00  0.45593999997E+02  0.45594000000E+02  0.51100000000E-03 0.  1.
         11   -1    0    0    0    0 -0.00000000000E+00 -0.00000000000E+00 -0.45593999997E+02  0.45594000000E+02  0.51100000000E-03 0. -1.
    9900012    2    1    2    0    0  0.91016682860E+00  0.31807473861E+02 -0.20440376691E+01  0.59301923304E+02  0.49999962204E+02 0.  0.
        -12    1    1    2    0    0 -0.91016682860E+00 -0.31807473861E+02  0.20440376691E+01  0.31886076696E+02  0.00000000000E+00 0.  1.
         11    1    3    3    0    0 -0.13749953045E+02  0.13277060652E+02 -0.64255175388E+01  0.20165039652E+02  0.51100000000E-03 0. -1.
        -11    1    3    3    0    0 -0.84060049526E+01 -0.85154965443E+00  0.30385485029E+01  0.89787991035E+01  0.51100000000E-03 0.  1.
         12    1    3    3    0    0  0.23066124826E+02  0.19381962864E+02  0.13429313668E+01  0.30158084548E+02  0.00000000000E+00 0. -1.
</event>
<event>
 7    1  0.1184848E-011  0.5930194E+02  0.7816164E-02  0.1266605E+00
        -11   -1    0    0    0    0  0.00000000000E+00  0.00000000000E+00  0.45593999997E+02  0.45594000000E+02  0.51100000000E-03 0. -1.
         11   -1    0    0    0    0 -0.00000000000E+00 -0.00000000000E+00 -0.45593999997E+02  0.45594000000E+02  0.51100000000E-03 0.  1.
    9900012    2    1    2    0    0  0.24927272900E+02 -0.10234143103E+02  0.17047408816E+02  0.59301940874E+02  0.49999994247E+02 0.  0.
        -12    1    1    2    0    0 -0.24927272900E+02  0.10234143103E+02 -0.17047408816E+02  0.31886059126E+02  0.00000000000E+00 0.  1.
         11    1    3    3    0    0  0.71337614897E+01 -0.15470063516E+02  0.27969462866E+02  0.32749111003E+02  0.51100000000E-03 0. -1.
        -11    1    3    3    0    0 -0.17527569747E+01  0.40514090456E+01 -0.72049796706E+00  0.44727161601E+01  0.51100000000E-03 0.  1.
        -12    1    3    3    0    0  0.19546268385E+02  0.11845113677E+01 -0.10201556083E+02  0.22080113711E+02  0.00000000000E+00 0.  1.
</event>
<event>
 7    1  0.1184848E-011  0.5930200E+02  0.7816164E-02  0.1266605E+00
        -11   -1    0    0    0    0  0.00000000000E+00  0.00000000000E+00  0.45593999997E+02  0.45594000000E+02  0.51100000000E-03 0.  1.
         11   -1    0    0    0    0 -0.00000000000E+00 -0.00000000000E+00 -0.45593999997E+02  0.45594000000E+02  0.51100000000E-03 0. -1.
    9900012    2    1    2    0    0  0.28144041032E+02 -0.14845892880E+02 -0.20565840924E+01  0.59301998069E+02  0.50000098558E+02 0.  0.
        -12    1    1    2    0    0 -0.28144041032E+02  0.14845892880E+02  0.20565840924E+01  0.31886001931E+02  0.00000000000E+00 0.  1.
         11    1    3    3    0    0  0.15695474666E+02  0.67587700456E+01 -0.97627276588E+01  0.19680948888E+02  0.51100000000E-03 0. -1.
        -11    1    3    3    0    0  0.16731759854E+02 -0.41648734733E+01  0.12184471206E+02  0.21113012520E+02  0.51100000000E-03 0.  1.
        -12    1    3    3    0    0 -0.42831934876E+01 -0.17439789453E+02 -0.44783276396E+01  0.18508036661E+02  0.00000000000E+00 0.  1.
</event>
<event>
 7    1  0.1184848E-011  0.5930196E+02  0.7816164E-02  0.1266605E+00
        -11   -1    0    0    0    0  0.00000000000E+00  0.00000000000E+00  0.45593999997E+02  0.45594000000E+02  0.51100000000E-03 0.  1.
         11   -1    0    0    0    0 -0.00000000000E+00 -0.00000000000E+00 -0.45593999997E+02  0.45594000000E+02  0.51100000000E-03 0. -1.
    9900012    2    1    2    0    0  0.15506101578E+02 -0.13500669095E+02 -0.24372368062E+02  0.59301959526E+02  0.50000028265E+02 0.  0.
        -12    1    1    2    0    0 -0.15506101578E+02  0.13500669095E+02  0.24372368062E+02  0.31886040474E+02  0.00000000000E+00 0.  1.
         11    1    3    3    0    0  0.11545373645E+02  0.16309230356E+01 -0.19467748727E+02  0.22692483410E+02  0.51100000000E-03 0. -1.
        -11    1    3    3    0    0  0.15308552300E+02 -0.39845209975E+01  0.64319226982E+01  0.17076235269E+02  0.51100000000E-03 0.  1.
         12    1    3    3    0    0 -0.11347824368E+02 -0.11147071133E+02 -0.11336542033E+02  0.19533240847E+02  0.00000000000E+00 0. -1.
</event>
<event>
 7    1  0.1184848E-011  0.5930193E+02  0.7816164E-02  0.1266605E+00
        -11   -1    0    0    0    0  0.00000000000E+00  0.00000000000E+00  0.45593999997E+02  0.45594000000E+02  0.51100000000E-03 0.  1.
         11   -1    0    0    0    0 -0.00000000000E+00 -0.00000000000E+00 -0.45593999997E+02  0.45594000000E+02  0.51100000000E-03 0. -1.
    9900012    2    1    2    0    0  0.25198956982E+02 -0.16342112939E+02 -0.10708372388E+02  0.59301932079E+02  0.49999978208E+02 0.  0.
        -12    1    1    2    0    0 -0.25198956982E+02  0.16342112939E+02  0.10708372388E+02  0.31886067921E+02  0.00000000000E+00 0.  1.
         11    1    3    3    0    0 -0.64828688143E+01 -0.10594394206E+02 -0.13402761762E+02  0.18273007409E+02  0.51100000000E-03 0. -1.
        -11    1    3    3    0    0  0.13226977651E+02 -0.88717624127E+01 -0.96362092087E+01  0.18614984133E+02  0.51100000000E-03 0.  1.
        -12    1    3    3    0    0  0.18454848146E+02  0.31240436799E+01  0.12330598583E+02  0.22413940537E+02  0.00000000000E+00 0.  1.
</event>
<event>
 7    1  0.1184848E-011  0.5930195E+02  0.7816164E-02  0.1266605E+00
        -11   -1    0    0    0    0  0.00000000000E+00  0.00000000000E+00  0.45593999997E+02  0.45594000000E+02  0.51100000000E-03 0.  1.
         11   -1    0    0    0    0 -0.00000000000E+00 -0.00000000000E+00 -0.45593999997E+02  0.45594000000E+02  0.51100000000E-03 0. -1.
    9900012    2    1    2    0    0 -0.33432121190E+01  0.28914116965E+02  0.13019870948E+02  0.59301948713E+02  0.50000008546E+02 0.  0.
        -12    1    1    2    0    0  0.33432121190E+01 -0.28914116965E+02 -0.13019870948E+02  0.31886051287E+02  0.00000000000E+00 0.  1.
         11    1    3    3    0    0 -0.62529514269E+01 -0.45731866676E+01  0.71787911771E+00  0.77800249700E+01  0.51100000000E-03 0.  1.
        -11    1    3    3    0    0 -0.50075260140E+01  0.37142122722E+02  0.17508014844E+02  0.41365966459E+02  0.51100000000E-03 0. -1.
         12    1    3    3    0    0  0.79172653220E+01 -0.36548190890E+01 -0.52060230132E+01  0.10155957285E+02  0.00000000000E+00 0. -1.
</event>
<event>
 7    1  0.1184848E-011  0.5930194E+02  0.7816164E-02  0.1266605E+00
        -11   -1    0    0    0    0  0.00000000000E+00  0.00000000000E+00  0.45593999997E+02  0.45594000000E+02  0.51100000000E-03 0.  1.
         11   -1    0    0    0    0 -0.00000000000E+00 -0.00000000000E+00 -0.45593999997E+02  0.45594000000E+02  0.51100000000E-03 0. -1.
    9900012    2    1    2    0    0  0.87155962225E+01  0.11797679081E+02 -0.28312084167E+02  0.59301937855E+02  0.49999988742E+02 0.  0.
        -12    1    1    2    0    0 -0.87155962225E+01 -0.11797679081E+02  0.28312084167E+02  0.31886062145E+02  0.00000000000E+00 0.  1.
         11    1    3    3    0    0 -0.61383645696E+01  0.11861680683E+02  0.61677197395E+01  0.14711211890E+02  0.51100000000E-03 0.  1.
        -11    1    3    3    0    0  0.10886326728E+02 -0.37045637075E+01 -0.20054391034E+01  0.11672946849E+02  0.51100000000E-03 0. -1.
        -12    1    3    3    0    0  0.39676340641E+01  0.36405621050E+01 -0.32474364804E+02  0.32917779116E+02  0.00000000000E+00 0.  1.
</event>
<event>
 7    1  0.1184848E-011  0.5930208E+02  0.7816164E-02  0.1266604E+00
        -11   -1    0    0    0    0  0.00000000000E+00  0.00000000000E+00  0.45593999997E+02  0.45594000000E+02  0.51100000000E-03 0.  1.
         11   -1    0    0    0    0 -0.00000000000E+00 -0.00000000000E+00 -0.45593999997E+02  0.45594000000E+02  0.51100000000E-03 0. -1.
    9900012    2    1    2    0    0  0.24529982651E+02  0.88989075519E+01 -0.18324889739E+02  0.59302075387E+02  0.50000239567E+02 0.  0.
        -12    1    1    2    0    0 -0.24529982651E+02 -0.88989075519E+01  0.18324889739E+02  0.31885924613E+02  0.00000000000E+00 0.  1.
         11    1    3    3    0    0  0.19802723680E+02  0.21292327310E+01 -0.67328037381E+01  0.21024084846E+02  0.51100000000E-03 0. -1.
        -11    1    3    3    0    0  0.36659881763E+01 -0.13933617788E+02 -0.98944137175E+01  0.17478117663E+02  0.51100000000E-03 0.  1.
        -12    1    3    3    0    0  0.10612707949E+01  0.20703292609E+02 -0.16976722833E+01  0.20799872878E+02  0.00000000000E+00 0.  1.
</event>
<event>
 7    1  0.1184848E-011  0.5930196E+02  0.7816164E-02  0.1266605E+00
        -11   -1    0    0    0    0  0.00000000000E+00  0.00000000000E+00  0.45593999997E+02  0.45594000000E+02  0.51100000000E-03 0.  1.
         11   -1    0    0    0    0 -0.00000000000E+00 -0.00000000000E+00 -0.45593999997E+02  0.45594000000E+02  0.51100000000E-03 0. -1.
    9900012    2    1    2    0    0  0.13905230286E+02  0.19663256034E+02 -0.20897854361E+02  0.59301962553E+02  0.50000033786E+02 0.  0.
        -12    1    1    2    0    0 -0.13905230286E+02 -0.19663256034E+02  0.20897854361E+02  0.31886037447E+02  0.00000000000E+00 0.  1.
         11    1    3    3    0    0  0.66057803358E+01  0.19369876840E+02 -0.10732853766E+02  0.23108929289E+02  0.51100000000E-03 0. -1.
        -11    1    3    3    0    0  0.16975712066E+02  0.98207759693E+01 -0.11181854889E+02  0.22575569092E+02  0.51100000000E-03 0.  1.
        -12    1    3    3    0    0 -0.96762621157E+01 -0.95273967756E+01  0.10168542939E+01  0.13617464173E+02  0.00000000000E+00 0.  1.
</event>
<event>
 7    1  0.1184848E-011  0.5930188E+02  0.7816164E-02  0.1266605E+00
        -11   -1    0    0    0    0  0.00000000000E+00  0.00000000000E+00  0.45593999997E+02  0.45594000000E+02  0.51100000000E-03 0.  1.
         11   -1    0    0    0    0 -0.00000000000E+00 -0.00000000000E+00 -0.45593999997E+02  0.45594000000E+02  0.51100000000E-03 0. -1.
    9900012    2    1    2    0    0 -0.71137378307E+01 -0.50600266756E+01 -0.30667822492E+02  0.59301882766E+02  0.49999888273E+02 0.  0.
        -12    1    1    2    0    0  0.71137378307E+01  0.50600266756E+01  0.30667822492E+02  0.31886117234E+02  0.00000000000E+00 0.  1.
         11    1    3    3    0    0  0.14509136647E+02  0.12178263645E+01 -0.18086131981E+02  0.23218663131E+02  0.51100000000E-03 0. -1.
        -11    1    3    3    0    0 -0.46957581442E+00  0.78629787488E+01 -0.43748751548E+00  0.78891274446E+01  0.51100000000E-03 0.  1.
         12    1    3    3    0    0 -0.21153298663E+02 -0.14140831789E+02 -0.12144202996E+02  0.28194092190E+02  0.00000000000E+00 0. -1.
</event>
<event>
 7    1  0.1184848E-011  0.5930197E+02  0.7816164E-02  0.1266605E+00
        -11   -1    0    0    0    0  0.00000000000E+00  0.00000000000E+00  0.45593999997E+02  0.45594000000E+02  0.51100000000E-03 0.  1.
         11   -1    0    0    0    0 -0.00000000000E+00 -0.00000000000E+00 -0.45593999997E+02  0.45594000000E+02  0.51100000000E-03 0. -1.
    9900012    2    1    2    0    0  0.59718149109E+01 -0.75990630777E+01 -0.30386023846E+02  0.59301972054E+02  0.50000051114E+02 0.  0.
        -12    1    1    2    0    0 -0.59718149109E+01  0.75990630777E+01  0.30386023846E+02  0.31886027946E+02  0.00000000000E+00 0.  1.
         11    1    3    3    0    0 -0.11205915883E+02  0.60177815927E+00  0.74162005783E+00  0.11246541170E+02  0.51100000000E-03 0. -1.
        -11    1    3    3    0    0 -0.62211489334E+01 -0.61385905678E+01 -0.20476745185E+02  0.22263918834E+02  0.51100000000E-03 0.  1.
         12    1    3    3    0    0  0.23398879727E+02 -0.20622506693E+01 -0.10650898719E+02  0.25791512050E+02  0.00000000000E+00 0. -1.
</event>
<event>
 7    1  0.1184848E-011  0.5930192E+02  0.7816164E-02  0.1266605E+00
        -11   -1    0    0    0    0  0.00000000000E+00  0.00000000000E+00  0.45593999997E+02  0.45594000000E+02  0.51100000000E-03 0.  1.
         11   -1    0    0    0    0 -0.00000000000E+00 -0.00000000000E+00 -0.45593999997E+02  0.45594000000E+02  0.51100000000E-03 0. -1.
    9900012    2    1    2    0    0  0.67269941924E+01  0.23187220900E+02 -0.20828407920E+02  0.59301917764E+02  0.49999952100E+02 0.  0.
        -12    1    1    2    0    0 -0.67269941924E+01 -0.23187220900E+02  0.20828407920E+02  0.31886082236E+02  0.00000000000E+00 0.  1.
         11    1    3    3    0    0  0.14577194305E+02  0.17426835299E+02 -0.20534884006E+02  0.30624673773E+02  0.51100000000E-03 0. -1.
        -11    1    3    3    0    0 -0.14909724581E+02  0.76970972947E+01 -0.75231341699E+01  0.18388657967E+02  0.51100000000E-03 0.  1.
        -12    1    3    3    0    0  0.70595244682E+01 -0.19367116943E+01  0.72296102557E+01  0.10288586023E+02  0.00000000000E+00 0.  1.
</event>
<event>
 7    1  0.1184848E-011  0.5930189E+02  0.7816164E-02  0.1266605E+00
        -11   -1    0    0    0    0  0.00000000000E+00  0.00000000000E+00  0.45593999997E+02  0.45594000000E+02  0.51100000000E-03 0.  1.
         11   -1    0    0    0    0 -0.00000000000E+00 -0.00000000000E+00 -0.45593999997E+02  0.45594000000E+02  0.51100000000E-03 0. -1.
    9900012    2    1    2    0    0  0.10563956955E+02 -0.25447841222E+02 -0.16047870475E+02  0.59301890859E+02  0.49999903033E+02 0.  0.
        -12    1    1    2    0    0 -0.10563956955E+02  0.25447841222E+02  0.16047870475E+02  0.31886109141E+02  0.00000000000E+00 0.  1.
         11    1    3    3    0    0  0.64152085136E+01 -0.85291286570E+01 -0.11972255920E+02  0.16038573752E+02  0.51100000000E-03 0. -1.
        -11    1    3    3    0    0  0.15414673465E+02  0.65499504704E+01  0.84435082293E+00  0.16769822234E+02  0.51100000000E-03 0.  1.
         12    1    3    3    0    0 -0.11265925024E+02 -0.23468663035E+02 -0.49199653784E+01  0.26493494873E+02  0.00000000000E+00 0. -1.
</event>
<event>
 7    1  0.1214160E-011  0.5930193E+02  0.7816164E-02  0.1266605E+00
        -11   -1    0    0    0    0  0.00000000000E+00  0.00000000000E+00  0.45593999997E+02  0.45594000000E+02  0.51100000000E-03 0. -1.
         11   -1    0    0    0    0 -0.00000000000E+00 -0.00000000000E+00 -0.45593999997E+02  0.45594000000E+02  0.51100000000E-03 0.  1.
    9900012    2    1    2    0    0 -0.79768039720E+01 -0.16289229319E+02  0.26225040547E+02  0.59301934939E+02  0.49999983424E+02 0.  0.
        -12    1    1    2    0    0  0.79768039720E+01  0.16289229319E+02 -0.26225040547E+02  0.31886065061E+02  0.00000000000E+00 0.  1.
         11    1    3    3    0    0 -0.16632794099E+02 -0.50064721140E+01  0.25456481524E+02  0.30817966422E+02  0.51100000000E-03 0. -1.
        -11    1    3    3    0    0  0.70282691848E+01 -0.51855944611E+01  0.12449223938E+02  0.15207568332E+02  0.51100000000E-03 0.  1.
        -12    1    3    3    0    0  0.16277209420E+01 -0.60971627434E+01 -0.11680664916E+02  0.13276400184E+02  0.00000000000E+00 0.  1.
</event>
<event>
 7    1  0.1184848E-011  0.5930198E+02  0.7816164E-02  0.1266605E+00
        -11   -1    0    0    0    0  0.00000000000E+00  0.00000000000E+00  0.45593999997E+02  0.45594000000E+02  0.51100000000E-03 0.  1.
         11   -1    0    0    0    0 -0.00000000000E+00 -0.00000000000E+00 -0.45593999997E+02  0.45594000000E+02  0.51100000000E-03 0. -1.
    9900012    2    1    2    0    0  0.25617079462E+02 -0.15155495352E+02 -0.11436536588E+02  0.59301981612E+02  0.50000068545E+02 0.  0.
        -12    1    1    2    0    0 -0.25617079462E+02  0.15155495352E+02  0.11436536588E+02  0.31886018388E+02  0.00000000000E+00 0.  1.
         11    1    3    3    0    0  0.29401254257E+02  0.13543907404E+01  0.33371936368E+01  0.29621022734E+02  0.51100000000E-03 0. -1.
        -11    1    3    3    0    0  0.67105519879E+00 -0.25242278251E+01  0.46509522125E+01  0.53341726572E+01  0.51100000000E-03 0.  1.
        -12    1    3    3    0    0 -0.44552299944E+01 -0.13985658267E+02 -0.19424682438E+02  0.24346786221E+02  0.00000000000E+00 0.  1.
</event>
<event>
 7    1  0.1184848E-011  0.5930194E+02  0.7816164E-02  0.1266605E+00
        -11   -1    0    0    0    0  0.00000000000E+00  0.00000000000E+00  0.45593999997E+02  0.45594000000E+02  0.51100000000E-03 0.  1.
         11   -1    0    0    0    0 -0.00000000000E+00 -0.00000000000E+00 -0.45593999997E+02  0.45594000000E+02  0.51100000000E-03 0. -1.
    9900012    2    1    2    0    0  0.91287564631E+01  0.22887324668E+02 -0.20237516839E+02  0.59301938581E+02  0.49999990067E+02 0.  0.
        -12    1    1    2    0    0 -0.91287564631E+01 -0.22887324668E+02  0.20237516839E+02  0.31886061419E+02  0.00000000000E+00 0.  1.
         11    1    3    3    0    0  0.94921810142E+01  0.27497887134E+01  0.94556106172E+01  0.13677405119E+02  0.51100000000E-03 0.  1.
        -11    1    3    3    0    0 -0.22312188844E+01  0.27098088371E+02 -0.21146855683E+02  0.34445235325E+02  0.51100000000E-03 0. -1.
         12    1    3    3    0    0  0.18677943333E+01 -0.69605524168E+01 -0.85462717730E+01  0.11179298137E+02  0.00000000000E+00 0. -1.
</event>
<event>
 7    1  0.1184848E-011  0.5930191E+02  0.7816164E-02  0.1266605E+00
        -11   -1    0    0    0    0  0.00000000000E+00  0.00000000000E+00  0.45593999997E+02  0.45594000000E+02  0.51100000000E-03 0. -1.
         11   -1    0    0    0    0 -0.00000000000E+00 -0.00000000000E+00 -0.45593999997E+02  0.45594000000E+02  0.51100000000E-03 0.  1.
    9900012    2    1    2    0    0 -0.15631570438E+02 -0.25809697355E+02  0.10307098701E+02  0.59301909685E+02  0.49999937368E+02 0.  0.
        -12    1    1    2    0    0  0.15631570438E+02  0.25809697355E+02 -0.10307098701E+02  0.31886090315E+02  0.00000000000E+00 0.  1.
         11    1    3    3    0    0 -0.11006003158E+02 -0.15005191829E+02  0.21077786590E+02  0.28116916174E+02  0.51100000000E-03 0. -1.
        -11    1    3    3    0    0 -0.21740062189E+00 -0.17956888740E+02 -0.13371896484E+02  0.22389835463E+02  0.51100000000E-03 0.  1.
         12    1    3    3    0    0 -0.44081666587E+01  0.71523832144E+01  0.26012085944E+01  0.87951580480E+01  0.00000000000E+00 0. -1.
</event>
<event>
 7    1  0.1184848E-011  0.5930197E+02  0.7816164E-02  0.1266605E+00
        -11   -1    0    0    0    0  0.00000000000E+00  0.00000000000E+00  0.45593999997E+02  0.45594000000E+02  0.51100000000E-03 0.  1.
         11   -1    0    0    0    0 -0.00000000000E+00 -0.00000000000E+00 -0.45593999997E+02  0.45594000000E+02  0.51100000000E-03 0. -1.
    9900012    2    1    2    0    0  0.14060185760E+02 -0.20067984223E+02 -0.20403578894E+02  0.59301970989E+02  0.50000049171E+02 0.  0.
        -12    1    1    2    0    0 -0.14060185760E+02  0.20067984223E+02  0.20403578894E+02  0.31886029011E+02  0.00000000000E+00 0.  1.
         11    1    3    3    0    0 -0.10657714141E+01 -0.16456642870E+02  0.10654741734E+02  0.19633656943E+02  0.51100000000E-03 0. -1.
        -11    1    3    3    0    0  0.59264893736E+01 -0.43597414369E+01 -0.94326807207E-01  0.73579562040E+01  0.51100000000E-03 0.  1.
         12    1    3    3    0    0  0.91994678007E+01  0.74840008368E+00 -0.30963993821E+02  0.32310357842E+02  0.00000000000E+00 0. -1.
</event>
<event>
 7    1  0.1184848E-011  0.5930194E+02  0.7816164E-02  0.1266605E+00
        -11   -1    0    0    0    0  0.00000000000E+00  0.00000000000E+00  0.45593999997E+02  0.45594000000E+02  0.51100000000E-03 0.  1.
         11   -1    0    0    0    0 -0.00000000000E+00 -0.00000000000E+00 -0.45593999997E+02  0.45594000000E+02  0.51100000000E-03 0. -1.
    9900012    2    1    2    0    0 -0.27654909888E+02  0.15790770438E+02 -0.16056845568E+01  0.59301941999E+02  0.49999996301E+02 0.  0.
        -12    1    1    2    0    0  0.27654909888E+02 -0.15790770438E+02  0.16056845568E+01  0.31886058001E+02  0.00000000000E+00 0.  1.
         11    1    3    3    0    0  0.19038892878E+01 -0.10465093868E+00  0.18410968016E+02  0.18509443259E+02  0.51100000000E-03 0.  1.
        -11    1    3    3    0    0 -0.16609477973E+02  0.31094087789E+01 -0.12872065713E+02  0.21242251704E+02  0.51100000000E-03 0. -1.
        -12    1    3    3    0    0 -0.12949321203E+02  0.12786012598E+02 -0.71445868598E+01  0.19550247036E+02  0.00000000000E+00 0.  1.
</event>
<event>
 7    1  0.1184848E-011  0.5930194E+02  0.7816164E-02  0.1266605E+00
        -11   -1    0    0    0    0  0.00000000000E+00  0.00000000000E+00  0.45593999997E+02  0.45594000000E+02  0.51100000000E-03 0.  1.
         11   -1    0    0    0    0 -0.00000000000E+00 -0.00000000000E+00 -0.45593999997E+02  0.45594000000E+02  0.51100000000E-03 0. -1.
    9900012    2    1    2    0    0  0.28391643369E+02 -0.49738685999E+01  0.13634370954E+02  0.59301939513E+02  0.49999991767E+02 0.  0.
        -12    1    1    2    0    0 -0.28391643369E+02  0.49738685999E+01 -0.13634370954E+02  0.31886060487E+02  0.00000000000E+00 0.  1.
         11    1    3    3    0    0 -0.55040560072E+01 -0.95736308073E+01  0.22705432271E+01  0.11274058993E+02  0.51100000000E-03 0. -1.
        -11    1    3    3    0    0  0.11918169607E+01 -0.46969585506E+00 -0.90523998401E+01  0.91425918092E+01  0.51100000000E-03 0.  1.
        -12    1    3    3    0    0  0.32703882416E+02  0.50694580624E+01  0.20416227567E+02  0.38885288711E+02  0.00000000000E+00 0.  1.
</event>
<event>
 7    1  0.1184848E-011  0.5930191E+02  0.7816164E-02  0.1266605E+00
        -11   -1    0    0    0    0  0.00000000000E+00  0.00000000000E+00  0.45593999997E+02  0.45594000000E+02  0.51100000000E-03 0.  1.
         11   -1    0    0    0    0 -0.00000000000E+00 -0.00000000000E+00 -0.45593999997E+02  0.45594000000E+02  0.51100000000E-03 0. -1.
    9900012    2    1    2    0    0  0.14476272725E+02 -0.28246779978E+02  0.30463027204E+01  0.59301905673E+02  0.49999930050E+02 0.  0.
        -12    1    1    2    0    0 -0.14476272725E+02  0.28246779978E+02 -0.30463027204E+01  0.31886094327E+02  0.00000000000E+00 0.  1.
         11    1    3    3    0    0  0.58384735030E+01 -0.11621030638E+02 -0.14745504343E+01  0.13088560853E+02  0.51100000000E-03 0. -1.
        -11    1    3    3    0    0  0.62000757833E+01 -0.78240164259E+01 -0.18734848911E+02  0.21228535907E+02  0.51100000000E-03 0.  1.
        -12    1    3    3    0    0  0.24377234390E+01 -0.88017329141E+01  0.23255702066E+02  0.24984808914E+02  0.00000000000E+00 0.  1.
</event>
<event>
 7    1  0.1184848E-011  0.5930195E+02  0.7816164E-02  0.1266605E+00
        -11   -1    0    0    0    0  0.00000000000E+00  0.00000000000E+00  0.45593999997E+02  0.45594000000E+02  0.51100000000E-03 0. -1.
         11   -1    0    0    0    0 -0.00000000000E+00 -0.00000000000E+00 -0.45593999997E+02  0.45594000000E+02  0.51100000000E-03 0.  1.
    9900012    2    1    2    0    0  0.20651237212E+02  0.78876957124E+01  0.22978921995E+02  0.59301949789E+02  0.50000010507E+02 0.  0.
        -12    1    1    2    0    0 -0.20651237212E+02 -0.78876957124E+01 -0.22978921995E+02  0.31886050211E+02  0.00000000000E+00 0.  1.
         11    1    3    3    0    0  0.16165239637E+02  0.21022248424E+02 -0.16763822586E+01  0.26571792545E+02  0.51100000000E-03 0. -1.
        -11    1    3    3    0    0 -0.34138121296E+01  0.20893954003E+01  0.25284651071E+01  0.47342182516E+01  0.51100000000E-03 0.  1.
        -12    1    3    3    0    0  0.78998097042E+01 -0.15223948112E+02  0.22126839146E+02  0.27995938992E+02  0.00000000000E+00 0.  1.
</event>
<event>
 7    1  0.1184848E-011  0.5930215E+02  0.7816164E-02  0.1266604E+00
        -11   -1    0    0    0    0  0.00000000000E+00  0.00000000000E+00  0.45593999997E+02  0.45594000000E+02  0.51100000000E-03 0. -1.
         11   -1    0    0    0    0 -0.00000000000E+00 -0.00000000000E+00 -0.45593999997E+02  0.45594000000E+02  0.51100000000E-03 0.  1.
    9900012    2    1    2    0    0  0.14840785024E+02 -0.14546669298E+02  0.24183733428E+02  0.59302149685E+02  0.50000375067E+02 0.  0.
        -12    1    1    2    0    0 -0.14840785024E+02  0.14546669298E+02 -0.24183733428E+02  0.31885850315E+02  0.00000000000E+00 0.  1.
         11    1    3    3    0    0 -0.15567401393E+01 -0.27066048032E+01  0.68144174858E+00  0.31958586546E+01  0.51100000000E-03 0. -1.
        -11    1    3    3    0    0  0.84201678758E+01  0.11550902708E+02 -0.77525053035E+01  0.16261116787E+02  0.51100000000E-03 0.  1.
         12    1    3    3    0    0  0.79773572876E+01 -0.23390967203E+02  0.31254796983E+02  0.39845174243E+02  0.00000000000E+00 0. -1.
</event>
<event>
 7    1  0.1184848E-011  0.5930195E+02  0.7816164E-02  0.1266605E+00
        -11   -1    0    0    0    0  0.00000000000E+00  0.00000000000E+00  0.45593999997E+02  0.45594000000E+02  0.51100000000E-03 0.  1.
         11   -1    0    0    0    0 -0.00000000000E+00 -0.00000000000E+00 -0.45593999997E+02  0.45594000000E+02  0.51100000000E-03 0. -1.
    9900012    2    1    2    0    0  0.23742963188E+01  0.18200172851E+02 -0.26073676106E+02  0.59301950378E+02  0.50000011581E+02 0.  0.
        -12    1    1    2    0    0 -0.23742963188E+01 -0.18200172851E+02  0.26073676106E+02  0.31886049622E+02  0.00000000000E+00 0.  1.
         11    1    3    3    0    0 -0.19835855466E+02  0.44568816679E+01 -0.16336036822E+02  0.26080472687E+02  0.51100000000E-03 0. -1.
        -11    1    3    3    0    0 -0.20244976059E+00  0.67150685957E+01  0.19364400937E+01  0.69916330458E+01  0.51100000000E-03 0.  1.
         12    1    3    3    0    0  0.22412601545E+02  0.70282225876E+01 -0.11674079379E+02  0.26229844645E+02  0.00000000000E+00 0. -1.
</event>
<event>
 7    1  0.1184848E-011  0.5930193E+02  0.7816164E-02  0.1266605E+00
        -11   -1    0    0    0    0  0.00000000000E+00  0.00000000000E+00  0.45593999997E+02  0.45594000000E+02  0.51100000000E-03 0.  1.
         11   -1    0    0    0    0 -0.00000000000E+00 -0.00000000000E+00 -0.45593999997E+02  0.45594000000E+02  0.51100000000E-03 0. -1.
    9900012    2    1    2    0    0 -0.22725330027E+02 -0.21963205750E+02  0.42306752275E+01  0.59301927107E+02  0.49999969140E+02 0.  0.
        -12    1    1    2    0    0  0.22725330027E+02  0.21963205750E+02 -0.42306752275E+01  0.31886072893E+02  0.00000000000E+00 0.  1.
         11    1    3    3    0    0 -0.18989317527E+02 -0.14359261313E+02 -0.17162169285E+02  0.29348298424E+02  0.51100000000E-03 0. -1.
        -11    1    3    3    0    0  0.63379092238E+01 -0.66378145616E+01  0.44056109819E+01  0.10180328279E+02  0.51100000000E-03 0.  1.
        -12    1    3    3    0    0 -0.10073921724E+02 -0.96612987599E+00  0.16987233530E+02  0.19773300404E+02  0.00000000000E+00 0.  1.
</event>
<event>
 7    1  0.1184848E-011  0.5930196E+02  0.7816164E-02  0.1266605E+00
        -11   -1    0    0    0    0  0.00000000000E+00  0.00000000000E+00  0.45593999997E+02  0.45594000000E+02  0.51100000000E-03 0.  1.
         11   -1    0    0    0    0 -0.00000000000E+00 -0.00000000000E+00 -0.45593999997E+02  0.45594000000E+02  0.51100000000E-03 0. -1.
    9900012    2    1    2    0    0  0.22924472158E+02 -0.18926052146E+02 -0.11532235504E+02  0.59301963412E+02  0.50000035353E+02 0.  0.
        -12    1    1    2    0    0 -0.22924472158E+02  0.18926052146E+02  0.11532235504E+02  0.31886036588E+02  0.00000000000E+00 0.  1.
         11    1    3    3    0    0  0.30692906397E+02 -0.18115467685E+02 -0.34063874001E+01  0.35802627668E+02  0.51100000000E-03 0. -1.
        -11    1    3    3    0    0  0.28416255374E+01 -0.51318224208E+01  0.37786526708E+01  0.69777255120E+01  0.51100000000E-03 0.  1.
         12    1    3    3    0    0 -0.10610059777E+02  0.43212379592E+01 -0.11904500775E+02  0.16521610232E+02  0.00000000000E+00 0. -1.
</event>
<event>
 7    1  0.1184848E-011  0.5930192E+02  0.7816164E-02  0.1266605E+00
        -11   -1    0    0    0    0  0.00000000000E+00  0.00000000000E+00  0.45593999997E+02  0.45594000000E+02  0.51100000000E-03 0.  1.
         11   -1    0    0    0    0 -0.00000000000E+00 -0.00000000000E+00 -0.45593999997E+02  0.45594000000E+02  0.51100000000E-03 0. -1.
    9900012    2    1    2    0    0 -0.40540023048E+01  0.27324901353E+02 -0.15925979760E+02  0.59301921534E+02  0.49999958977E+02 0.  0.
        -12    1    1    2    0    0  0.40540023048E+01 -0.27324901353E+02  0.15925979760E+02  0.31886078466E+02  0.00000000000E+00 0.  1.
         11    1    3    3    0    0  0.57865704119E+01 -0.43739329880E-01 -0.36036156538E+01  0.68170636129E+01  0.51100000000E-03 0. -1.
        -11    1    3    3    0    0  0.10212598950E+02 -0.55411430741E+01 -0.70427230921E+01  0.13586809512E+02  0.51100000000E-03 0.  1.
         12    1    3    3    0    0 -0.20053171667E+02  0.32909783757E+02 -0.52796410139E+01  0.38898048410E+02  0.00000000000E+00 0. -1.
</event>
