<event>
 7    1  0.3752192E-015  0.9000779E+02  0.7816164E-02  0.1186339E+00
        -11   -1    0    0    0    0  0.00000000000E+00  0.00000000000E+00  0.45593999997E+02  0.45594000000E+02  0.51100000000E-03 0.  1.
         11   -1    0    0    0    0 -0.00000000000E+00 -0.00000000000E+00 -0.45593999997E+02  0.45594000000E+02  0.51100000000E-03 0. -1.
    9900012    2    1    2    0    0  0.58441927543E+00 -0.90854624466E+00 -0.47527678369E+00  0.90007792311E+02  0.90000054369E+02 0.  0.
        -12    1    1    2    0    0 -0.58441927543E+00  0.90854624466E+00  0.47527678369E+00  0.11802076891E+01  0.00000000000E+00 0.  1.
         11    1    3    3    0    0 -0.31500969204E+02 -0.27425979941E+02  0.67857083545E+01  0.42314787896E+02  0.51100000000E-03 0. -1.
        -11    1    3    3    0    0  0.33845443437E+01  0.53465610788E+01  0.68619097043E+01  0.93341663171E+01  0.51100000000E-03 0.  1.
        -12    1    3    3    0    0  0.28700844136E+02  0.21170872617E+02 -0.14122894842E+02  0.38358838098E+02  0.00000000000E+00 0.  1.
</event>
<event>
 7    1  0.3752192E-015  0.9000767E+02  0.7816164E-02  0.1186339E+00
        -11   -1    0    0    0    0  0.00000000000E+00  0.00000000000E+00  0.45593999997E+02  0.45594000000E+02  0.51100000000E-03 0.  1.
         11   -1    0    0    0    0 -0.00000000000E+00 -0.00000000000E+00 -0.45593999997E+02  0.45594000000E+02  0.51100000000E-03 0. -1.
    9900012    2    1    2    0    0 -0.22929516192E+00 -0.11578464211E+01 -0.22197377464E-02  0.90007665499E+02  0.89999925884E+02 0.  0.
        -12    1    1    2    0    0  0.22929516192E+00  0.11578464211E+01  0.22197377464E-02  0.11803345006E+01  0.00000000000E+00 0.  1.
         11    1    3    3    0    0  0.38579071290E+01 -0.22055687299E+01  0.78867520701E+01  0.90525598211E+01  0.51100000000E-03 0. -1.
        -11    1    3    3    0    0 -0.38908383776E+02  0.10441379163E+02 -0.17048821166E+02  0.43744108521E+02  0.51100000000E-03 0.  1.
         12    1    3    3    0    0  0.34821181486E+02 -0.93936568546E+01  0.91598493581E+01  0.37210997157E+02  0.00000000000E+00 0. -1.
</event>
<event>
 7    1  0.3752192E-015  0.9000783E+02  0.7816164E-02  0.1186339E+00
        -11   -1    0    0    0    0  0.00000000000E+00  0.00000000000E+00  0.45593999997E+02  0.45594000000E+02  0.51100000000E-03 0.  1.
         11   -1    0    0    0    0 -0.00000000000E+00 -0.00000000000E+00 -0.45593999997E+02  0.45594000000E+02  0.51100000000E-03 0. -1.
    9900012    2    1    2    0    0  0.44593809892E+00 -0.89823075967E+00 -0.62219861915E+00  0.90007826111E+02  0.90000088616E+02 0.  0.
        -12    1    1    2    0    0 -0.44593809892E+00  0.89823075967E+00  0.62219861915E+00  0.11801738886E+01  0.00000000000E+00 0.  1.
         11    1    3    3    0    0  0.12828568873E+02 -0.27054186382E+01 -0.81522818746E+01  0.15438625890E+02  0.51100000000E-03 0. -1.
        -11    1    3    3    0    0  0.11172311610E+02 -0.28834239765E+02  0.16273539764E+02  0.34943697947E+02  0.51100000000E-03 0.  1.
         12    1    3    3    0    0 -0.23554942385E+02  0.30641427643E+02 -0.87434565089E+01  0.39625502274E+02  0.00000000000E+00 0. -1.
</event>
<event>
 7    1  0.3752192E-015  0.9000753E+02  0.7816164E-02  0.1186339E+00
        -11   -1    0    0    0    0  0.00000000000E+00  0.00000000000E+00  0.45593999997E+02  0.45594000000E+02  0.51100000000E-03 0. -1.
         11   -1    0    0    0    0 -0.00000000000E+00 -0.00000000000E+00 -0.45593999997E+02  0.45594000000E+02  0.51100000000E-03 0.  1.
    9900012    2    1    2    0    0  0.23144931633E+00  0.10407930154E+01  0.50664705333E+00  0.90007529702E+02  0.89999788294E+02 0.  0.
        -12    1    1    2    0    0 -0.23144931633E+00 -0.10407930154E+01 -0.50664705333E+00  0.11804702976E+01  0.00000000000E+00 0.  1.
         11    1    3    3    0    0  0.42663345575E+01 -0.21175949343E+02 -0.37192980643E+02  0.43010931756E+02  0.51100000000E-03 0. -1.
        -11    1    3    3    0    0  0.45530736489E+01  0.44134395101E+01  0.28948950373E+01  0.69706058201E+01  0.51100000000E-03 0.  1.
        -12    1    3    3    0    0 -0.85879588901E+01  0.17803302848E+02  0.34804732659E+02  0.40025992126E+02  0.00000000000E+00 0.  1.
</event>
<event>
 7    1  0.3752192E-015  0.9000774E+02  0.7816164E-02  0.1186339E+00
        -11   -1    0    0    0    0  0.00000000000E+00  0.00000000000E+00  0.45593999997E+02  0.45594000000E+02  0.51100000000E-03 0. -1.
         11   -1    0    0    0    0 -0.00000000000E+00 -0.00000000000E+00 -0.45593999997E+02  0.45594000000E+02  0.51100000000E-03 0.  1.
    9900012    2    1    2    0    0  0.24214417306E+00  0.10399403569E+01  0.50289268703E+00  0.90007741214E+02  0.90000002598E+02 0.  0.
        -12    1    1    2    0    0 -0.24214417306E+00 -0.10399403569E+01 -0.50289268703E+00  0.11802587857E+01  0.00000000000E+00 0.  1.
         11    1    3    3    0    0  0.26346872278E+02  0.25437082550E+02  0.19709612725E+01  0.36675435050E+02  0.51100000000E-03 0. -1.
        -11    1    3    3    0    0  0.91404283822E+01  0.45666433856E+00  0.37510366670E+01  0.98907153263E+01  0.51100000000E-03 0.  1.
        -12    1    3    3    0    0 -0.35245156487E+02 -0.24853806532E+02 -0.52191052525E+01  0.43441590838E+02  0.00000000000E+00 0.  1.
</event>
<event>
 7    1  0.3752192E-015  0.9000759E+02  0.7816164E-02  0.1186339E+00
        -11   -1    0    0    0    0  0.00000000000E+00  0.00000000000E+00  0.45593999997E+02  0.45594000000E+02  0.51100000000E-03 0. -1.
         11   -1    0    0    0    0 -0.00000000000E+00 -0.00000000000E+00 -0.45593999997E+02  0.45594000000E+02  0.51100000000E-03 0.  1.
    9900012    2    1    2    0    0  0.78617815639E-01 -0.56856874792E+00  0.10314656573E+01  0.90007587960E+02  0.89999847321E+02 0.  0.
        -12    1    1    2    0    0 -0.78617815639E-01  0.56856874792E+00 -0.10314656573E+01  0.11804120400E+01  0.00000000000E+00 0.  1.
         11    1    3    3    0    0  0.61635299864E+01 -0.13462529742E+02  0.31693424990E+01  0.15141781304E+02  0.51100000000E-03 0. -1.
        -11    1    3    3    0    0  0.30473734599E+02  0.68327406422E+01 -0.16258458145E+02  0.35208980482E+02  0.51100000000E-03 0.  1.
         12    1    3    3    0    0 -0.36558646770E+02  0.60612203514E+01  0.14120581304E+02  0.39656826173E+02  0.00000000000E+00 0. -1.
</event>
<event>
 7    1  0.3752192E-015  0.9000811E+02  0.7816164E-02  0.1186338E+00
        -11   -1    0    0    0    0  0.00000000000E+00  0.00000000000E+00  0.45593999997E+02  0.45594000000E+02  0.51100000000E-03 0.  1.
         11   -1    0    0    0    0 -0.00000000000E+00 -0.00000000000E+00 -0.45593999997E+02  0.45594000000E+02  0.51100000000E-03 0. -1.
    9900012    2    1    2    0    0  0.10990329598E+01  0.14168209958E+00  0.40520336400E+00  0.90008111433E+02  0.90000377703E+02 0.  0.
        -12    1    1    2    0    0 -0.10990329598E+01 -0.14168209958E+00 -0.40520336400E+00  0.11798885669E+01  0.00000000000E+00 0.  1.
         11    1    3    3    0    0  0.17266436505E+02  0.27792071100E+02 -0.16918546823E+02  0.36834308361E+02  0.51100000000E-03 0. -1.
        -11    1    3    3    0    0  0.86860296373E+01  0.43761598936E+01  0.29851508524E+01  0.10173937888E+02  0.51100000000E-03 0.  1.
        -12    1    3    3    0    0 -0.24853433182E+02 -0.32026548894E+02  0.14338599335E+02  0.42999865184E+02  0.00000000000E+00 0.  1.
</event>
<event>
 7    1  0.3752192E-015  0.9000776E+02  0.7816164E-02  0.1186339E+00
        -11   -1    0    0    0    0  0.00000000000E+00  0.00000000000E+00  0.45593999997E+02  0.45594000000E+02  0.51100000000E-03 0. -1.
         11   -1    0    0    0    0 -0.00000000000E+00 -0.00000000000E+00 -0.45593999997E+02  0.45594000000E+02  0.51100000000E-03 0.  1.
    9900012    2    1    2    0    0 -0.94658672692E+00 -0.68167853744E+00 -0.17961212625E+00  0.90007757408E+02  0.90000019006E+02 0.  0.
        -12    1    1    2    0    0  0.94658672692E+00  0.68167853744E+00  0.17961212625E+00  0.11802425920E+01  0.00000000000E+00 0.  1.
         11    1    3    3    0    0 -0.11779838772E+02  0.21656277873E+01 -0.28341970324E+01  0.12308014393E+02  0.51100000000E-03 0. -1.
        -11    1    3    3    0    0  0.92681206055E+01  0.19418643300E+02 -0.30746029525E+02  0.37527324698E+02  0.51100000000E-03 0.  1.
         12    1    3    3    0    0  0.15651314395E+01 -0.22265949624E+02  0.33400614431E+02  0.40172418318E+02  0.00000000000E+00 0. -1.
</event>
<event>
 7    1  0.3752192E-015  0.9000770E+02  0.7816164E-02  0.1186339E+00
        -11   -1    0    0    0    0  0.00000000000E+00  0.00000000000E+00  0.45593999997E+02  0.45594000000E+02  0.51100000000E-03 0.  1.
         11   -1    0    0    0    0 -0.00000000000E+00 -0.00000000000E+00 -0.45593999997E+02  0.45594000000E+02  0.51100000000E-03 0. -1.
    9900012    2    1    2    0    0  0.90889483685E+00 -0.66238741645E+00 -0.35813906614E+00  0.90007698977E+02  0.89999959804E+02 0.  0.
        -12    1    1    2    0    0 -0.90889483685E+00  0.66238741645E+00  0.35813906614E+00  0.11803010229E+01  0.00000000000E+00 0.  1.
         11    1    3    3    0    0  0.42431248626E+02 -0.12332639763E+02  0.12442284674E+01  0.44204671339E+02  0.51100000000E-03 0. -1.
        -11    1    3    3    0    0 -0.66847448444E+01  0.45612986621E+01  0.51770643597E+01  0.96069378454E+01  0.51100000000E-03 0.  1.
        -12    1    3    3    0    0 -0.34837608945E+02  0.71089536847E+01 -0.67794318932E+01  0.36196089792E+02  0.00000000000E+00 0.  1.
</event>
<event>
 7    1  0.4977443E-015  0.9000798E+02  0.7816164E-02  0.1186339E+00
        -11   -1    0    0    0    0  0.00000000000E+00  0.00000000000E+00  0.45593999997E+02  0.45594000000E+02  0.51100000000E-03 0.  1.
         11   -1    0    0    0    0 -0.00000000000E+00 -0.00000000000E+00 -0.45593999997E+02  0.45594000000E+02  0.51100000000E-03 0. -1.
    9900012    2    1    2    0    0 -0.67379558485E+00  0.93425836333E+00 -0.25614410818E+00  0.90007979244E+02  0.90000243770E+02 0.  0.
        -12    1    1    2    0    0  0.67379558485E+00 -0.93425836333E+00  0.25614410818E+00  0.11800207556E+01  0.00000000000E+00 0.  1.
         11    1    3    3    0    0  0.22247790033E+02 -0.27897361194E+02 -0.19902082357E+02  0.40857310305E+02  0.51100000000E-03 0. -1.
        -11    1    3    3    0    0 -0.92985170128E+01 -0.29140753290E+01  0.74540040930E+00  0.97729154141E+01  0.51100000000E-03 0.  1.
        -12    1    3    3    0    0 -0.13623068605E+02  0.31745694886E+02  0.18900537840E+02  0.39377753525E+02  0.00000000000E+00 0.  1.
</event>
<event>
 7    1  0.3752192E-015  0.9000788E+02  0.7816164E-02  0.1186339E+00
        -11   -1    0    0    0    0  0.00000000000E+00  0.00000000000E+00  0.45593999997E+02  0.45594000000E+02  0.51100000000E-03 0. -1.
         11   -1    0    0    0    0 -0.00000000000E+00 -0.00000000000E+00 -0.45593999997E+02  0.45594000000E+02  0.51100000000E-03 0.  1.
    9900012    2    1    2    0    0 -0.73945974859E+00  0.91970473173E+00 -0.46497423298E-02  0.90007881729E+02  0.90000144968E+02 0.  0.
        -12    1    1    2    0    0  0.73945974859E+00 -0.91970473173E+00  0.46497423298E-02  0.11801182710E+01  0.00000000000E+00 0.  1.
         11    1    3    3    0    0 -0.84741523577E+01 -0.32920300808E+01 -0.36382691460E+01  0.97921255544E+01  0.51100000000E-03 0. -1.
        -11    1    3    3    0    0  0.33065644074E+02  0.64771592087E+01 -0.24972280961E+02  0.41939304073E+02  0.51100000000E-03 0.  1.
         12    1    3    3    0    0 -0.25330951465E+02 -0.22654243961E+01  0.28605900365E+02  0.38276452102E+02  0.00000000000E+00 0. -1.
</event>
<event>
 7    1  0.3752192E-015  0.9000774E+02  0.7816164E-02  0.1186339E+00
        -11   -1    0    0    0    0  0.00000000000E+00  0.00000000000E+00  0.45593999997E+02  0.45594000000E+02  0.51100000000E-03 0.  1.
         11   -1    0    0    0    0 -0.00000000000E+00 -0.00000000000E+00 -0.45593999997E+02  0.45594000000E+02  0.51100000000E-03 0. -1.
    9900012    2    1    2    0    0 -0.99266145992E+00  0.30290404421E-01 -0.63774008689E+00  0.90007742951E+02  0.90000004358E+02 0.  0.
        -12    1    1    2    0    0  0.99266145992E+00 -0.30290404421E-01  0.63774008689E+00  0.11802570487E+01  0.00000000000E+00 0.  1.
         11    1    3    3    0    0  0.73032235765E+01  0.46588413552E+00 -0.73921360483E+01  0.10401817065E+02  0.51100000000E-03 0. -1.
        -11    1    3    3    0    0  0.49212562482E+01 -0.32132331940E+02  0.24729333890E+02  0.40844160829E+02  0.51100000000E-03 0.  1.
         12    1    3    3    0    0 -0.13217141285E+02  0.31696738209E+02 -0.17974937928E+02  0.38761765057E+02  0.00000000000E+00 0. -1.
</event>
<event>
 7    1  0.3752192E-015  0.9000771E+02  0.7816164E-02  0.1186339E+00
        -11   -1    0    0    0    0  0.00000000000E+00  0.00000000000E+00  0.45593999997E+02  0.45594000000E+02  0.51100000000E-03 0.  1.
         11   -1    0    0    0    0 -0.00000000000E+00 -0.00000000000E+00 -0.45593999997E+02  0.45594000000E+02  0.51100000000E-03 0. -1.
    9900012    2    1    2    0    0  0.74485292709E+00 -0.62814100825E+00 -0.66612468223E+00  0.90007708044E+02  0.89999968990E+02 0.  0.
        -12    1    1    2    0    0 -0.74485292709E+00  0.62814100825E+00  0.66612468223E+00  0.11802919561E+01  0.00000000000E+00 0.  1.
         11    1    3    3    0    0 -0.49826771847E+01  0.77005541912E+01  0.50226900253E+01  0.10457199536E+02  0.51100000000E-03 0. -1.
        -11    1    3    3    0    0  0.15130544579E+01 -0.65923000982E+00  0.36462763103E+02  0.36500096046E+02  0.51100000000E-03 0.  1.
         12    1    3    3    0    0  0.42144756539E+01 -0.76694651896E+01 -0.42151577810E+02  0.43050412463E+02  0.00000000000E+00 0. -1.
</event>
<event>
 7    1  0.3752192E-015  0.9000768E+02  0.7816164E-02  0.1186339E+00
        -11   -1    0    0    0    0  0.00000000000E+00  0.00000000000E+00  0.45593999997E+02  0.45594000000E+02  0.51100000000E-03 0.  1.
         11   -1    0    0    0    0 -0.00000000000E+00 -0.00000000000E+00 -0.45593999997E+02  0.45594000000E+02  0.51100000000E-03 0. -1.
    9900012    2    1    2    0    0 -0.84938626807E+00 -0.65107293166E+00 -0.49778894008E+00  0.90007683592E+02  0.89999944215E+02 0.  0.
        -12    1    1    2    0    0  0.84938626807E+00  0.65107293166E+00  0.49778894008E+00  0.11803164083E+01  0.00000000000E+00 0.  1.
         11    1    3    3    0    0  0.99779790413E+01  0.20931249575E+02 -0.45946017224E-01  0.23187914650E+02  0.51100000000E-03 0. -1.
        -11    1    3    3    0    0 -0.30063902453E+02 -0.85377157981E+01  0.18945420396E+02  0.36546679411E+02  0.51100000000E-03 0.  1.
         12    1    3    3    0    0  0.19236537144E+02 -0.13044606708E+02 -0.19397263319E+02  0.30273089530E+02  0.00000000000E+00 0. -1.
</event>
<event>
 7    1  0.3752192E-015  0.9000772E+02  0.7816164E-02  0.1186339E+00
        -11   -1    0    0    0    0  0.00000000000E+00  0.00000000000E+00  0.45593999997E+02  0.45594000000E+02  0.51100000000E-03 0.  1.
         11   -1    0    0    0    0 -0.00000000000E+00 -0.00000000000E+00 -0.45593999997E+02  0.45594000000E+02  0.51100000000E-03 0. -1.
    9900012    2    1    2    0    0  0.70478885076E+00  0.46951671281E+00 -0.82212622768E+00  0.90007718338E+02  0.89999979420E+02 0.  0.
        -12    1    1    2    0    0 -0.70478885076E+00 -0.46951671281E+00  0.82212622768E+00  0.11802816622E+01  0.00000000000E+00 0.  1.
         11    1    3    3    0    0 -0.29361712027E+02 -0.21355469917E+02  0.18356849978E+02  0.40683413942E+02  0.51100000000E-03 0. -1.
        -11    1    3    3    0    0  0.75454274514E+01 -0.99329890495E+00  0.50540537901E+01  0.91358403069E+01  0.51100000000E-03 0.  1.
        -12    1    3    3    0    0  0.22521073427E+02  0.22818285535E+02 -0.24233029996E+02  0.40188464089E+02  0.00000000000E+00 0.  1.
</event>
<event>
 7    1  0.3752192E-015  0.9000783E+02  0.7816164E-02  0.1186339E+00
        -11   -1    0    0    0    0  0.00000000000E+00  0.00000000000E+00  0.45593999997E+02  0.45594000000E+02  0.51100000000E-03 0.  1.
         11   -1    0    0    0    0 -0.00000000000E+00 -0.00000000000E+00 -0.45593999997E+02  0.45594000000E+02  0.51100000000E-03 0. -1.
    9900012    2    1    2    0    0  0.85340110657E+00 -0.34752847234E-01 -0.81443532573E+00  0.90007827933E+02  0.90000090461E+02 0.  0.
        -12    1    1    2    0    0 -0.85340110657E+00  0.34752847234E-01  0.81443532573E+00  0.11801720675E+01  0.00000000000E+00 0.  1.
         11    1    3    3    0    0  0.28228122547E+02 -0.12169132130E+02  0.19100915283E+02  0.36190601601E+02  0.51100000000E-03 0. -1.
        -11    1    3    3    0    0  0.63410282954E+01 -0.26186404244E+01  0.57483892948E+01  0.89504132453E+01  0.51100000000E-03 0.  1.
        -12    1    3    3    0    0 -0.33715749736E+02  0.14753019707E+02 -0.25663739903E+02  0.44866813087E+02  0.00000000000E+00 0.  1.
</event>
<event>
 7    1  0.3752192E-015  0.9000772E+02  0.7816164E-02  0.1186339E+00
        -11   -1    0    0    0    0  0.00000000000E+00  0.00000000000E+00  0.45593999997E+02  0.45594000000E+02  0.51100000000E-03 0.  1.
         11   -1    0    0    0    0 -0.00000000000E+00 -0.00000000000E+00 -0.45593999997E+02  0.45594000000E+02  0.51100000000E-03 0. -1.
    9900012    2    1    2    0    0 -0.62823282637E+00  0.98244101121E+00 -0.18220993018E+00  0.90007717287E+02  0.89999978355E+02 0.  0.
        -12    1    1    2    0    0  0.62823282637E+00 -0.98244101121E+00  0.18220993018E+00  0.11802827133E+01  0.00000000000E+00 0.  1.
         11    1    3    3    0    0  0.31607204499E+02  0.67527742891E+01 -0.13272155164E+02  0.34939453914E+02  0.51100000000E-03 0. -1.
        -11    1    3    3    0    0  0.91056641012E+01  0.29751829395E+00 -0.39671408382E+01  0.99367923673E+01  0.51100000000E-03 0.  1.
        -12    1    3    3    0    0 -0.41341101426E+02 -0.60678515719E+01  0.17057086072E+02  0.45131471006E+02  0.00000000000E+00 0.  1.
</event>
<event>
 7    1  0.3752192E-015  0.9000762E+02  0.7816164E-02  0.1186339E+00
        -11   -1    0    0    0    0  0.00000000000E+00  0.00000000000E+00  0.45593999997E+02  0.45594000000E+02  0.51100000000E-03 0. -1.
         11   -1    0    0    0    0 -0.00000000000E+00 -0.00000000000E+00 -0.45593999997E+02  0.45594000000E+02  0.51100000000E-03 0.  1.
    9900012    2    1    2    0    0  0.14384030161E+00 -0.11231031917E+01 -0.33352329281E+00  0.90007623535E+02  0.89999883366E+02 0.  0.
        -12    1    1    2    0    0 -0.14384030161E+00  0.11231031917E+01  0.33352329281E+00  0.11803764647E+01  0.00000000000E+00 0.  1.
         11    1    3    3    0    0  0.79306694927E+01 -0.57109474272E+01  0.13295227148E+01  0.98629645659E+01  0.51100000000E-03 0. -1.
        -11    1    3    3    0    0 -0.26226361346E+01 -0.39695876884E+00 -0.40531927639E+02  0.40618628177E+02  0.51100000000E-03 0.  1.
         12    1    3    3    0    0 -0.51641930566E+01  0.49848030043E+01  0.38868881632E+02  0.39526030793E+02  0.00000000000E+00 0. -1.
</event>
<event>
 7    1  0.3752192E-015  0.9000743E+02  0.7816164E-02  0.1186340E+00
        -11   -1    0    0    0    0  0.00000000000E+00  0.00000000000E+00  0.45593999997E+02  0.45594000000E+02  0.51100000000E-03 0. -1.
         11   -1    0    0    0    0 -0.00000000000E+00 -0.00000000000E+00 -0.45593999997E+02  0.45594000000E+02  0.51100000000E-03 0.  1.
    9900012    2    1    2    0    0 -0.78576391616E-01 -0.13154762808E+00  0.11705811811E+01  0.90007432624E+02  0.89999689934E+02 0.  0.
        -12    1    1    2    0    0  0.78576391616E-01  0.13154762808E+00 -0.11705811811E+01  0.11805673760E+01  0.00000000000E+00 0.  1.
         11    1    3    3    0    0  0.92801668757E+01 -0.32941578373E+01  0.19996720629E+01  0.10048465640E+02  0.51100000000E-03 0. -1.
        -11    1    3    3    0    0 -0.14490385983E+02 -0.93895504948E+00 -0.38797813207E+02  0.41426117757E+02  0.51100000000E-03 0.  1.
         12    1    3    3    0    0  0.51316427154E+01  0.41015652586E+01  0.37968722325E+02  0.38532849227E+02  0.00000000000E+00 0. -1.
</event>
<event>
 7    1  0.3752192E-015  0.9000778E+02  0.7816164E-02  0.1186339E+00
        -11   -1    0    0    0    0  0.00000000000E+00  0.00000000000E+00  0.45593999997E+02  0.45594000000E+02  0.51100000000E-03 0. -1.
         11   -1    0    0    0    0 -0.00000000000E+00 -0.00000000000E+00 -0.45593999997E+02  0.45594000000E+02  0.51100000000E-03 0.  1.
    9900012    2    1    2    0    0 -0.44245576223E-01  0.11404529888E+01 -0.30055539265E+00  0.90007777888E+02  0.90000039756E+02 0.  0.
        -12    1    1    2    0    0  0.44245576223E-01 -0.11404529888E+01  0.30055539265E+00  0.11802221124E+01  0.00000000000E+00 0.  1.
         11    1    3    3    0    0 -0.22465959496E+02  0.26290795549E+02  0.19774577550E+02  0.39836656288E+02  0.51100000000E-03 0. -1.
        -11    1    3    3    0    0  0.87253469751E+01  0.68952584767E+01 -0.52801544420E+01  0.12310820464E+02  0.51100000000E-03 0.  1.
        -12    1    3    3    0    0  0.13696366944E+02 -0.32045601037E+02 -0.14794978501E+02  0.37860301136E+02  0.00000000000E+00 0.  1.
</event>
<event>
 7    1  0.3752192E-015  0.9000805E+02  0.7816164E-02  0.1186338E+00
        -11   -1    0    0    0    0  0.00000000000E+00  0.00000000000E+00  0.45593999997E+02  0.45594000000E+02  0.51100000000E-03 0.  1.
         11   -1    0    0    0    0 -0.00000000000E+00 -0.00000000000E+00 -0.45593999997E+02  0.45594000000E+02  0.51100000000E-03 0. -1.
    9900012    2    1    2    0    0 -0.34277275574E+00  0.83138892161E-01 -0.11260032353E+01  0.90008047237E+02  0.90000312660E+02 0.  0.
        -12    1    1    2    0    0  0.34277275574E+00 -0.83138892161E-01  0.11260032353E+01  0.11799527632E+01  0.00000000000E+00 0.  1.
         11    1    3    3    0    0 -0.29147885312E+01  0.79251621601E+01 -0.24378182089E+01  0.87890355174E+01  0.51100000000E-03 0. -1.
        -11    1    3    3    0    0 -0.23740379360E+02  0.27816243697E+02  0.41967915173E+01  0.36809809628E+02  0.51100000000E-03 0.  1.
         12    1    3    3    0    0  0.26312395135E+02 -0.35658266965E+02 -0.28849765437E+01  0.44409202091E+02  0.00000000000E+00 0. -1.
</event>
<event>
 7    1  0.3752192E-015  0.9000779E+02  0.7816164E-02  0.1186339E+00
        -11   -1    0    0    0    0  0.00000000000E+00  0.00000000000E+00  0.45593999997E+02  0.45594000000E+02  0.51100000000E-03 0. -1.
         11   -1    0    0    0    0 -0.00000000000E+00 -0.00000000000E+00 -0.45593999997E+02  0.45594000000E+02  0.51100000000E-03 0.  1.
    9900012    2    1    2    0    0  0.67226882282E+00 -0.51352284185E+00  0.82295265461E+00  0.90007787243E+02  0.90000049235E+02 0.  0.
        -12    1    1    2    0    0 -0.67226882282E+00  0.51352284185E+00 -0.82295265461E+00  0.11802127567E+01  0.00000000000E+00 0.  1.
         11    1    3    3    0    0 -0.35550638769E+01  0.87548622306E+01  0.20489407928E+01  0.96687253803E+01  0.51100000000E-03 0. -1.
        -11    1    3    3    0    0 -0.24790697708E+02  0.38209624327E+01 -0.28822597451E+02  0.38208906957E+02  0.51100000000E-03 0.  1.
         12    1    3    3    0    0  0.29018030408E+02 -0.13089347505E+02  0.27596609312E+02  0.42130154906E+02  0.00000000000E+00 0. -1.
</event>
<event>
 7    1  0.3752192E-015  0.9000782E+02  0.7816164E-02  0.1186339E+00
        -11   -1    0    0    0    0  0.00000000000E+00  0.00000000000E+00  0.45593999997E+02  0.45594000000E+02  0.51100000000E-03 0. -1.
         11   -1    0    0    0    0 -0.00000000000E+00 -0.00000000000E+00 -0.45593999997E+02  0.45594000000E+02  0.51100000000E-03 0.  1.
    9900012    2    1    2    0    0  0.48945984553E+00 -0.19836530231E+00  0.10554225552E+01  0.90007815055E+02  0.90000077414E+02 0.  0.
        -12    1    1    2    0    0 -0.48945984553E+00  0.19836530231E+00 -0.10554225552E+01  0.11801849446E+01  0.00000000000E+00 0.  1.
         11    1    3    3    0    0  0.42504550982E+02  0.10609711754E+02  0.65303502394E+01  0.44292756882E+02  0.51100000000E-03 0. -1.
        -11    1    3    3    0    0 -0.62865411787E+01  0.86077242077E+00 -0.50783382455E+01  0.81271796306E+01  0.51100000000E-03 0.  1.
        -12    1    3    3    0    0 -0.35728549958E+02 -0.11668849477E+02 -0.39658943871E+00  0.37587878543E+02  0.00000000000E+00 0.  1.
</event>
<event>
 7    1  0.3752192E-015  0.9000780E+02  0.7816164E-02  0.1186339E+00
        -11   -1    0    0    0    0  0.00000000000E+00  0.00000000000E+00  0.45593999997E+02  0.45594000000E+02  0.51100000000E-03 0.  1.
         11   -1    0    0    0    0 -0.00000000000E+00 -0.00000000000E+00 -0.45593999997E+02  0.45594000000E+02  0.51100000000E-03 0. -1.
    9900012    2    1    2    0    0 -0.55303898847E+00  0.10369741217E+01  0.10820409877E+00  0.90007798501E+02  0.90000060641E+02 0.  0.
        -12    1    1    2    0    0  0.55303898847E+00 -0.10369741217E+01 -0.10820409877E+00  0.11802014992E+01  0.00000000000E+00 0.  1.
         11    1    3    3    0    0 -0.27584583126E+01  0.31808570594E+01 -0.32408428245E+01  0.53131917309E+01  0.51100000000E-03 0. -1.
        -11    1    3    3    0    0 -0.40775042799E+02 -0.18477935108E-01  0.75101727447E+01  0.41460911128E+02  0.51100000000E-03 0.  1.
         12    1    3    3    0    0  0.42980462123E+02 -0.21254050026E+01 -0.41611258215E+01  0.43233695642E+02  0.00000000000E+00 0. -1.
</event>
<event>
 7    1  0.3752192E-015  0.9000776E+02  0.7816164E-02  0.1186339E+00
        -11   -1    0    0    0    0  0.00000000000E+00  0.00000000000E+00  0.45593999997E+02  0.45594000000E+02  0.51100000000E-03 0.  1.
         11   -1    0    0    0    0 -0.00000000000E+00 -0.00000000000E+00 -0.45593999997E+02  0.45594000000E+02  0.51100000000E-03 0. -1.
    9900012    2    1    2    0    0  0.25543526348E+00  0.72997537889E+00  0.89154092761E+00  0.90007764238E+02  0.90000025926E+02 0.  0.
        -12    1    1    2    0    0 -0.25543526348E+00 -0.72997537889E+00 -0.89154092761E+00  0.11802357617E+01  0.00000000000E+00 0.  1.
         11    1    3    3    0    0 -0.19998174336E+02  0.27246050810E+02 -0.19501657924E+02  0.39020365497E+02  0.51100000000E-03 0. -1.
        -11    1    3    3    0    0  0.15314229100E+01  0.70406382562E+01  0.76362689775E+01  0.10498973633E+02  0.51100000000E-03 0.  1.
        -12    1    3    3    0    0  0.18722186690E+02 -0.33556713687E+02  0.12756929874E+02  0.40488425108E+02  0.00000000000E+00 0.  1.
</event>
<event>
 7    1  0.3752192E-015  0.9000794E+02  0.7816164E-02  0.1186339E+00
        -11   -1    0    0    0    0  0.00000000000E+00  0.00000000000E+00  0.45593999997E+02  0.45594000000E+02  0.51100000000E-03 0. -1.
         11   -1    0    0    0    0 -0.00000000000E+00 -0.00000000000E+00 -0.45593999997E+02  0.45594000000E+02  0.51100000000E-03 0.  1.
    9900012    2    1    2    0    0  0.11538120323E+00 -0.11118108100E+01  0.37830169817E+00  0.90007937174E+02  0.90000201144E+02 0.  0.
        -12    1    1    2    0    0 -0.11538120323E+00  0.11118108100E+01 -0.37830169817E+00  0.11800628263E+01  0.00000000000E+00 0.  1.
         11    1    3    3    0    0 -0.10098857251E+02 -0.86131663583E+01  0.38985572431E+01  0.13833737793E+02  0.51100000000E-03 0. -1.
        -11    1    3    3    0    0  0.12974490852E+02  0.29224677382E+01 -0.38528865768E+02  0.40759682631E+02  0.51100000000E-03 0.  1.
         12    1    3    3    0    0 -0.27602523983E+01  0.45788878102E+01  0.35008610223E+02  0.35414516750E+02  0.00000000000E+00 0. -1.
</event>
<event>
 7    1  0.3752192E-015  0.9000771E+02  0.7816164E-02  0.1186339E+00
        -11   -1    0    0    0    0  0.00000000000E+00  0.00000000000E+00  0.45593999997E+02  0.45594000000E+02  0.51100000000E-03 0. -1.
         11   -1    0    0    0    0 -0.00000000000E+00 -0.00000000000E+00 -0.45593999997E+02  0.45594000000E+02  0.51100000000E-03 0.  1.
    9900012    2    1    2    0    0  0.98047700787E+00  0.56903107817E-01  0.65460311210E+00  0.90007712594E+02  0.89999973600E+02 0.  0.
        -12    1    1    2    0    0 -0.98047700787E+00 -0.56903107817E-01 -0.65460311210E+00  0.11802874061E+01  0.00000000000E+00 0.  1.
         11    1    3    3    0    0  0.64018318388E+01 -0.34411318819E+01  0.36579565480E+02  0.37294630317E+02  0.51100000000E-03 0. -1.
        -11    1    3    3    0    0  0.52260845012E+01  0.19811065801E+01  0.67156320712E+01  0.87370737019E+01  0.51100000000E-03 0.  1.
        -12    1    3    3    0    0 -0.10647439332E+02  0.15169284097E+01 -0.42640594439E+02  0.43976008575E+02  0.00000000000E+00 0.  1.
</event>
<event>
 7    1  0.3752192E-015  0.9000812E+02  0.7816164E-02  0.1186338E+00
        -11   -1    0    0    0    0  0.00000000000E+00  0.00000000000E+00  0.45593999997E+02  0.45594000000E+02  0.51100000000E-03 0.  1.
         11   -1    0    0    0    0 -0.00000000000E+00 -0.00000000000E+00 -0.45593999997E+02  0.45594000000E+02  0.51100000000E-03 0. -1.
    9900012    2    1    2    0    0 -0.52330413357E+00 -0.85484430193E+00  0.62250524235E+00  0.90008119170E+02  0.90000385542E+02 0.  0.
        -12    1    1    2    0    0  0.52330413357E+00  0.85484430193E+00 -0.62250524235E+00  0.11798808302E+01  0.00000000000E+00 0.  1.
         11    1    3    3    0    0  0.16421115063E+02  0.35415879344E+02 -0.33225950511E+00  0.39039056421E+02  0.51100000000E-03 0. -1.
        -11    1    3    3    0    0 -0.70031330307E+01  0.32117433131E+01  0.62376107454E+01  0.99129690521E+01  0.51100000000E-03 0.  1.
        -12    1    3    3    0    0 -0.99412861661E+01 -0.39482466959E+02 -0.52828459979E+01  0.41056093697E+02  0.00000000000E+00 0.  1.
</event>
<event>
 7    1  0.3752192E-015  0.9000780E+02  0.7816164E-02  0.1186339E+00
        -11   -1    0    0    0    0  0.00000000000E+00  0.00000000000E+00  0.45593999997E+02  0.45594000000E+02  0.51100000000E-03 0. -1.
         11   -1    0    0    0    0 -0.00000000000E+00 -0.00000000000E+00 -0.45593999997E+02  0.45594000000E+02  0.51100000000E-03 0.  1.
    9900012    2    1    2    0    0 -0.78534854172E+00 -0.33593781438E+00  0.81439522067E+00  0.90007802507E+02  0.90000064700E+02 0.  0.
        -12    1    1    2    0    0  0.78534854172E+00  0.33593781438E+00 -0.81439522067E+00  0.11801974930E+01  0.00000000000E+00 0.  1.
         11    1    3    3    0    0  0.14600780255E+00  0.40934172788E+01 -0.10127413678E+02  0.10924371440E+02  0.51100000000E-03 0. -1.
        -11    1    3    3    0    0 -0.74019786606E+01  0.36304926816E+02  0.41606321194E+01  0.37284686657E+02  0.51100000000E-03 0.  1.
         12    1    3    3    0    0  0.64706223164E+01 -0.40734281909E+02  0.67811767789E+01  0.41798744411E+02  0.00000000000E+00 0. -1.
</event>
<event>
 7    1  0.3752192E-015  0.9000772E+02  0.7816164E-02  0.1186339E+00
        -11   -1    0    0    0    0  0.00000000000E+00  0.00000000000E+00  0.45593999997E+02  0.45594000000E+02  0.51100000000E-03 0. -1.
         11   -1    0    0    0    0 -0.00000000000E+00 -0.00000000000E+00 -0.45593999997E+02  0.45594000000E+02  0.51100000000E-03 0.  1.
    9900012    2    1    2    0    0 -0.37349747752E+00 -0.20359038510E-01  0.11194444583E+01  0.90007715818E+02  0.89999976866E+02 0.  0.
        -12    1    1    2    0    0  0.37349747752E+00  0.20359038510E-01 -0.11194444583E+01  0.11802841825E+01  0.00000000000E+00 0.  1.
         11    1    3    3    0    0  0.62274786310E+01 -0.34280039145E+01 -0.59119291687E+01  0.92457345676E+01  0.51100000000E-03 0. -1.
        -11    1    3    3    0    0 -0.24001290607E+02  0.17948157278E+02 -0.26685803471E+02  0.40128922333E+02  0.51100000000E-03 0.  1.
         12    1    3    3    0    0  0.17400314498E+02 -0.14540512402E+02  0.33717177098E+02  0.40633058917E+02  0.00000000000E+00 0. -1.
</event>
<event>
 7    1  0.3752192E-015  0.9000778E+02  0.7816164E-02  0.1186339E+00
        -11   -1    0    0    0    0  0.00000000000E+00  0.00000000000E+00  0.45593999997E+02  0.45594000000E+02  0.51100000000E-03 0. -1.
         11   -1    0    0    0    0 -0.00000000000E+00 -0.00000000000E+00 -0.45593999997E+02  0.45594000000E+02  0.51100000000E-03 0.  1.
    9900012    2    1    2    0    0  0.15961508419E+00  0.24445923784E+00  0.11435422591E+01  0.90007777058E+02  0.90000038915E+02 0.  0.
        -12    1    1    2    0    0 -0.15961508419E+00 -0.24445923784E+00 -0.11435422591E+01  0.11802229419E+01  0.00000000000E+00 0.  1.
         11    1    3    3    0    0 -0.37058245790E+02  0.53476205149E+00  0.60928171901E+01  0.37559578979E+02  0.51100000000E-03 0. -1.
        -11    1    3    3    0    0  0.51424534089E+00  0.92261931069E+01 -0.10655308068E+02  0.14103995101E+02  0.51100000000E-03 0.  1.
        -12    1    3    3    0    0  0.36703615534E+02 -0.95164959206E+01  0.57060331373E+01  0.38344202978E+02  0.00000000000E+00 0.  1.
</event>
<event>
 7    1  0.3752192E-015  0.9000774E+02  0.7816164E-02  0.1186339E+00
        -11   -1    0    0    0    0  0.00000000000E+00  0.00000000000E+00  0.45593999997E+02  0.45594000000E+02  0.51100000000E-03 0.  1.
         11   -1    0    0    0    0 -0.00000000000E+00 -0.00000000000E+00 -0.45593999997E+02  0.45594000000E+02  0.51100000000E-03 0. -1.
    9900012    2    1    2    0    0  0.50715275369E-01 -0.25241849416E+00 -0.11518377563E+01  0.90007738439E+02  0.89999999786E+02 0.  0.
        -12    1    1    2    0    0 -0.50715275369E-01  0.25241849416E+00  0.11518377563E+01  0.11802615609E+01  0.00000000000E+00 0.  1.
         11    1    3    3    0    0  0.15375180304E+02  0.26485810763E+02  0.14837145344E+02  0.34029916593E+02  0.51100000000E-03 0. -1.
        -11    1    3    3    0    0 -0.90860497816E+01  0.66098595352E+01  0.85397529829E+01  0.14112899241E+02  0.51100000000E-03 0.  1.
        -12    1    3    3    0    0 -0.62384152470E+01 -0.33348088792E+02 -0.24528736083E+02  0.41864922605E+02  0.00000000000E+00 0.  1.
</event>
<event>
 7    1  0.3752192E-015  0.9000845E+02  0.7816164E-02  0.1186338E+00
        -11   -1    0    0    0    0  0.00000000000E+00  0.00000000000E+00  0.45593999997E+02  0.45594000000E+02  0.51100000000E-03 0.  1.
         11   -1    0    0    0    0 -0.00000000000E+00 -0.00000000000E+00 -0.45593999997E+02  0.45594000000E+02  0.51100000000E-03 0. -1.
    9900012    2    1    2    0    0  0.95799062005E+00 -0.53288966313E+00  0.43545328597E+00  0.90008450516E+02  0.90000721260E+02 0.  0.
        -12    1    1    2    0    0 -0.95799062005E+00  0.53288966313E+00 -0.43545328597E+00  0.11795494841E+01  0.00000000000E+00 0.  1.
         11    1    3    3    0    0  0.22098343475E+01  0.78312584265E+01 -0.36082132955E+02  0.36988272401E+02  0.51100000000E-03 0. -1.
        -11    1    3    3    0    0 -0.13590020808E+02  0.86853688141E+01  0.93087250827E+01  0.18621940284E+02  0.51100000000E-03 0.  1.
        -12    1    3    3    0    0  0.12338177081E+02 -0.17049516904E+02  0.27208861158E+02  0.34398237831E+02  0.00000000000E+00 0.  1.
</event>
<event>
 7    1  0.3752192E-015  0.9000798E+02  0.7816164E-02  0.1186339E+00
        -11   -1    0    0    0    0  0.00000000000E+00  0.00000000000E+00  0.45593999997E+02  0.45594000000E+02  0.51100000000E-03 0. -1.
         11   -1    0    0    0    0 -0.00000000000E+00 -0.00000000000E+00 -0.45593999997E+02  0.45594000000E+02  0.51100000000E-03 0.  1.
    9900012    2    1    2    0    0 -0.75115685447E+00 -0.64366421314E+00  0.64335807694E+00  0.90007978875E+02  0.90000243396E+02 0.  0.
        -12    1    1    2    0    0  0.75115685447E+00  0.64366421314E+00 -0.64335807694E+00  0.11800211246E+01  0.00000000000E+00 0.  1.
         11    1    3    3    0    0  0.98621897290E+01  0.30049938597E+02 -0.18978556466E+02  0.36884240561E+02  0.51100000000E-03 0. -1.
        -11    1    3    3    0    0  0.78871256187E+01 -0.11032436478E+01 -0.58813499594E+01  0.99002108400E+01  0.51100000000E-03 0.  1.
        -12    1    3    3    0    0 -0.18500472202E+02 -0.29590359163E+02  0.25503264502E+02  0.43223527475E+02  0.00000000000E+00 0.  1.
</event>
<event>
 7    1  0.3752192E-015  0.9000755E+02  0.7816164E-02  0.1186339E+00
        -11   -1    0    0    0    0  0.00000000000E+00  0.00000000000E+00  0.45593999997E+02  0.45594000000E+02  0.51100000000E-03 0.  1.
         11   -1    0    0    0    0 -0.00000000000E+00 -0.00000000000E+00 -0.45593999997E+02  0.45594000000E+02  0.51100000000E-03 0. -1.
    9900012    2    1    2    0    0  0.18662615233E+00  0.77609374893E+00 -0.86966281155E+00  0.90007549140E+02  0.89999807988E+02 0.  0.
        -12    1    1    2    0    0 -0.18662615233E+00 -0.77609374893E+00  0.86966281155E+00  0.11804508603E+01  0.00000000000E+00 0.  1.
         11    1    3    3    0    0 -0.31911496163E+02 -0.16399071227E+02  0.59496423607E+01  0.36368549173E+02  0.51100000000E-03 0. -1.
        -11    1    3    3    0    0 -0.72934324942E+01 -0.41664405156E+01 -0.12783791907E+01  0.84963308395E+01  0.51100000000E-03 0.  1.
        -12    1    3    3    0    0  0.39391554809E+02  0.21341605491E+02 -0.55409259816E+01  0.45142669128E+02  0.00000000000E+00 0.  1.
</event>
<event>
 7    1  0.3752192E-015  0.9000795E+02  0.7816164E-02  0.1186339E+00
        -11   -1    0    0    0    0  0.00000000000E+00  0.00000000000E+00  0.45593999997E+02  0.45594000000E+02  0.51100000000E-03 0.  1.
         11   -1    0    0    0    0 -0.00000000000E+00 -0.00000000000E+00 -0.45593999997E+02  0.45594000000E+02  0.51100000000E-03 0. -1.
    9900012    2    1    2    0    0  0.64299259479E+00  0.86766259542E+00 -0.47564075704E+00  0.90007952549E+02  0.90000216723E+02 0.  0.
        -12    1    1    2    0    0 -0.64299259479E+00 -0.86766259542E+00  0.47564075704E+00  0.11800474508E+01  0.00000000000E+00 0.  1.
         11    1    3    3    0    0 -0.14559858149E+02 -0.20003699283E+02 -0.25724575102E+02  0.35691612723E+02  0.51100000000E-03 0. -1.
        -11    1    3    3    0    0  0.15949308627E+01  0.12751703372E+02 -0.95953114867E+01  0.16038071771E+02  0.51100000000E-03 0.  1.
        -12    1    3    3    0    0  0.13607919881E+02  0.81196585064E+01  0.34844245831E+02  0.38278268055E+02  0.00000000000E+00 0.  1.
</event>
<event>
 7    1  0.3752192E-015  0.9000791E+02  0.7816164E-02  0.1186339E+00
        -11   -1    0    0    0    0  0.00000000000E+00  0.00000000000E+00  0.45593999997E+02  0.45594000000E+02  0.51100000000E-03 0.  1.
         11   -1    0    0    0    0 -0.00000000000E+00 -0.00000000000E+00 -0.45593999997E+02  0.45594000000E+02  0.51100000000E-03 0. -1.
    9900012    2    1    2    0    0 -0.24331503154E+00 -0.77769563947E+00  0.85357377277E+00  0.90007914877E+02  0.90000178553E+02 0.  0.
        -12    1    1    2    0    0  0.24331503154E+00  0.77769563947E+00 -0.85357377277E+00  0.11800851231E+01  0.00000000000E+00 0.  1.
         11    1    3    3    0    0 -0.10996144816E+02 -0.29330448407E+01 -0.34581356392E+02  0.36405880885E+02  0.51100000000E-03 0. -1.
        -11    1    3    3    0    0  0.52426574123E+01 -0.34311766695E+01 -0.76044406424E+01  0.98532201754E+01  0.51100000000E-03 0.  1.
        -12    1    3    3    0    0  0.55101723717E+01  0.55865258707E+01  0.43039370807E+02  0.43748813816E+02  0.00000000000E+00 0.  1.
</event>
<event>
 7    1  0.3752192E-015  0.9000789E+02  0.7816164E-02  0.1186339E+00
        -11   -1    0    0    0    0  0.00000000000E+00  0.00000000000E+00  0.45593999997E+02  0.45594000000E+02  0.51100000000E-03 0. -1.
         11   -1    0    0    0    0 -0.00000000000E+00 -0.00000000000E+00 -0.45593999997E+02  0.45594000000E+02  0.51100000000E-03 0.  1.
    9900012    2    1    2    0    0  0.48437406439E+00 -0.10695555281E+01  0.11868384617E+00  0.90007892752E+02  0.90000156136E+02 0.  0.
        -12    1    1    2    0    0 -0.48437406439E+00  0.10695555281E+01 -0.11868384617E+00  0.11801072482E+01  0.00000000000E+00 0.  1.
         11    1    3    3    0    0 -0.30765744770E+02  0.16630889057E+02  0.22058591798E+02  0.41348506557E+02  0.51100000000E-03 0. -1.
        -11    1    3    3    0    0  0.90716914271E+01 -0.30778092482E+01  0.50159621411E+01  0.10813342295E+02  0.51100000000E-03 0.  1.
        -12    1    3    3    0    0  0.22178427407E+02 -0.14622635337E+02 -0.26955870093E+02  0.37846043901E+02  0.00000000000E+00 0.  1.
</event>
<event>
 7    1  0.4352051E-015  0.9000764E+02  0.7816164E-02  0.1186339E+00
        -11   -1    0    0    0    0  0.00000000000E+00  0.00000000000E+00  0.45593999997E+02  0.45594000000E+02  0.51100000000E-03 0. -1.
         11   -1    0    0    0    0 -0.00000000000E+00 -0.00000000000E+00 -0.45593999997E+02  0.45594000000E+02  0.51100000000E-03 0.  1.
    9900012    2    1    2    0    0  0.51993771305E+00  0.10551527351E+01 -0.97847824884E-01  0.90007637040E+02  0.89999897049E+02 0.  0.
        -12    1    1    2    0    0 -0.51993771305E+00 -0.10551527351E+01  0.97847824884E-01  0.11803629597E+01  0.00000000000E+00 0.  1.
         11    1    3    3    0    0 -0.21062635894E+02 -0.30513171326E+02  0.39188625211E+01  0.37283317166E+02  0.51100000000E-03 0. -1.
        -11    1    3    3    0    0  0.11508283193E+01 -0.60370794344E+01 -0.76036356958E+01  0.97768098055E+01  0.51100000000E-03 0.  1.
        -12    1    3    3    0    0  0.20431745288E+02  0.37605403496E+02  0.35869253498E+01  0.42947510068E+02  0.00000000000E+00 0.  1.
</event>
<event>
 7    1  0.3752192E-015  0.9000777E+02  0.7816164E-02  0.1186339E+00
        -11   -1    0    0    0    0  0.00000000000E+00  0.00000000000E+00  0.45593999997E+02  0.45594000000E+02  0.51100000000E-03 0.  1.
         11   -1    0    0    0    0 -0.00000000000E+00 -0.00000000000E+00 -0.45593999997E+02  0.45594000000E+02  0.51100000000E-03 0. -1.
    9900012    2    1    2    0    0  0.78450047206E+00 -0.21652705535E+00  0.85476550096E+00  0.90007767388E+02  0.90000029118E+02 0.  0.
        -12    1    1    2    0    0 -0.78450047206E+00  0.21652705535E+00 -0.85476550096E+00  0.11802326118E+01  0.00000000000E+00 0.  1.
         11    1    3    3    0    0 -0.11437768693E+02 -0.34804946036E+02 -0.56434697039E+01  0.37068255581E+02  0.51100000000E-03 0. -1.
        -11    1    3    3    0    0 -0.50801815089E+01 -0.62718166235E+01  0.21604216000E+01  0.83553186459E+01  0.51100000000E-03 0.  1.
        -12    1    3    3    0    0  0.17302450674E+02  0.40860235605E+02  0.43378136049E+01  0.44584193161E+02  0.00000000000E+00 0.  1.
</event>
<event>
 7    1  0.3752192E-015  0.9000778E+02  0.7816164E-02  0.1186339E+00
        -11   -1    0    0    0    0  0.00000000000E+00  0.00000000000E+00  0.45593999997E+02  0.45594000000E+02  0.51100000000E-03 0.  1.
         11   -1    0    0    0    0 -0.00000000000E+00 -0.00000000000E+00 -0.45593999997E+02  0.45594000000E+02  0.51100000000E-03 0. -1.
    9900012    2    1    2    0    0  0.74795766760E+00  0.66959183004E+00 -0.62059415164E+00  0.90007775025E+02  0.90000036855E+02 0.  0.
        -12    1    1    2    0    0 -0.74795766760E+00 -0.66959183004E+00  0.62059415164E+00  0.11802249753E+01  0.00000000000E+00 0.  1.
         11    1    3    3    0    0 -0.27815127487E+02 -0.70445355980E+00  0.29876342523E+02  0.40826136417E+02  0.51100000000E-03 0. -1.
        -11    1    3    3    0    0  0.36533622219E+01 -0.52418935127E+01  0.28828570185E+01  0.70096624721E+01  0.51100000000E-03 0.  1.
        -12    1    3    3    0    0  0.24909722933E+02  0.66159389025E+01 -0.33379793693E+02  0.42171976135E+02  0.00000000000E+00 0.  1.
</event>
<event>
 7    1  0.3752192E-015  0.9000765E+02  0.7816164E-02  0.1186339E+00
        -11   -1    0    0    0    0  0.00000000000E+00  0.00000000000E+00  0.45593999997E+02  0.45594000000E+02  0.51100000000E-03 0.  1.
         11   -1    0    0    0    0 -0.00000000000E+00 -0.00000000000E+00 -0.45593999997E+02  0.45594000000E+02  0.51100000000E-03 0. -1.
    9900012    2    1    2    0    0 -0.69438194700E+00 -0.43463176145E-01 -0.95350236920E+00  0.90007651702E+02  0.89999911905E+02 0.  0.
        -12    1    1    2    0    0  0.69438194700E+00  0.43463176145E-01  0.95350236920E+00  0.11803482978E+01  0.00000000000E+00 0.  1.
         11    1    3    3    0    0 -0.72225689184E+00  0.98624239648E+00  0.93852313353E+01  0.94645072011E+01  0.51100000000E-03 0. -1.
        -11    1    3    3    0    0 -0.19028362820E+01 -0.39720834983E+02  0.21945036365E+01  0.39826892474E+02  0.51100000000E-03 0.  1.
         12    1    3    3    0    0  0.19307112268E+01  0.38691129410E+02 -0.12533237341E+02  0.40716252027E+02  0.00000000000E+00 0. -1.
</event>
<event>
 7    1  0.3752192E-015  0.9000775E+02  0.7816164E-02  0.1186339E+00
        -11   -1    0    0    0    0  0.00000000000E+00  0.00000000000E+00  0.45593999997E+02  0.45594000000E+02  0.51100000000E-03 0.  1.
         11   -1    0    0    0    0 -0.00000000000E+00 -0.00000000000E+00 -0.45593999997E+02  0.45594000000E+02  0.51100000000E-03 0. -1.
    9900012    2    1    2    0    0  0.65074696630E+00 -0.90785317732E+00  0.38119903622E+00  0.90007753538E+02  0.90000015085E+02 0.  0.
        -12    1    1    2    0    0 -0.65074696630E+00  0.90785317732E+00 -0.38119903622E+00  0.11802464619E+01  0.00000000000E+00 0.  1.
         11    1    3    3    0    0  0.32403544868E+02 -0.15952776100E+02  0.26068868458E+01  0.36211554021E+02  0.51100000000E-03 0. -1.
        -11    1    3    3    0    0  0.98059629192E+01  0.42246114409E+01 -0.19335742720E+01  0.10850942831E+02  0.51100000000E-03 0.  1.
        -12    1    3    3    0    0 -0.41558760821E+02  0.10820311482E+02 -0.29211353754E+00  0.42945256686E+02  0.00000000000E+00 0.  1.
</event>
<event>
 7    1  0.3752192E-015  0.9000770E+02  0.7816164E-02  0.1186339E+00
        -11   -1    0    0    0    0  0.00000000000E+00  0.00000000000E+00  0.45593999997E+02  0.45594000000E+02  0.51100000000E-03 0.  1.
         11   -1    0    0    0    0 -0.00000000000E+00 -0.00000000000E+00 -0.45593999997E+02  0.45594000000E+02  0.51100000000E-03 0. -1.
    9900012    2    1    2    0    0 -0.73679382105E-01 -0.77473227349E+00 -0.88739176108E+00  0.90007702205E+02  0.89999963074E+02 0.  0.
        -12    1    1    2    0    0  0.73679382105E-01  0.77473227349E+00  0.88739176108E+00  0.11802977949E+01  0.00000000000E+00 0.  1.
         11    1    3    3    0    0 -0.11328760576E+02  0.19439984361E+02 -0.29972859314E+02  0.37478341797E+02  0.51100000000E-03 0. -1.
        -11    1    3    3    0    0 -0.31373271574E+00  0.67162377270E+01 -0.43942063615E+01  0.80321433772E+01  0.51100000000E-03 0.  1.
        -12    1    3    3    0    0  0.11568813909E+02 -0.26930954361E+02  0.33479673915E+02  0.44497217031E+02  0.00000000000E+00 0.  1.
</event>
<event>
 7    1  0.3752192E-015  0.9000796E+02  0.7816164E-02  0.1186339E+00
        -11   -1    0    0    0    0  0.00000000000E+00  0.00000000000E+00  0.45593999997E+02  0.45594000000E+02  0.51100000000E-03 0. -1.
         11   -1    0    0    0    0 -0.00000000000E+00 -0.00000000000E+00 -0.45593999997E+02  0.45594000000E+02  0.51100000000E-03 0.  1.
    9900012    2    1    2    0    0  0.41039188105E+00  0.55023028814E+00  0.95985066437E+00  0.90007962643E+02  0.90000226950E+02 0.  0.
        -12    1    1    2    0    0 -0.41039188105E+00 -0.55023028814E+00 -0.95985066437E+00  0.11800373570E+01  0.00000000000E+00 0.  1.
         11    1    3    3    0    0 -0.10650680309E+02  0.13010838933E+01  0.41057909905E+02  0.42436797433E+02  0.51100000000E-03 0. -1.
        -11    1    3    3    0    0  0.19923051014E+01 -0.60350089531E+01 -0.24601606164E+00  0.63601208200E+01  0.51100000000E-03 0.  1.
        -12    1    3    3    0    0  0.90687670885E+01  0.52841553480E+01 -0.39852043179E+02  0.41211044390E+02  0.00000000000E+00 0.  1.
</event>
<event>
 7    1  0.3752192E-015  0.9000766E+02  0.7816164E-02  0.1186339E+00
        -11   -1    0    0    0    0  0.00000000000E+00  0.00000000000E+00  0.45593999997E+02  0.45594000000E+02  0.51100000000E-03 0. -1.
         11   -1    0    0    0    0 -0.00000000000E+00 -0.00000000000E+00 -0.45593999997E+02  0.45594000000E+02  0.51100000000E-03 0.  1.
    9900012    2    1    2    0    0 -0.16872332150E+00  0.11634852284E+01 -0.10504281084E+00  0.90007661308E+02  0.89999921637E+02 0.  0.
        -12    1    1    2    0    0  0.16872332150E+00 -0.11634852284E+01  0.10504281084E+00  0.11803386920E+01  0.00000000000E+00 0.  1.
         11    1    3    3    0    0  0.10614480199E+02 -0.36556053619E+02 -0.38847300623E+01  0.38263603777E+02  0.51100000000E-03 0. -1.
        -11    1    3    3    0    0  0.17020554302E+01 -0.55150009514E+01 -0.25315530787E+01  0.63024589989E+01  0.51100000000E-03 0.  1.
        -12    1    3    3    0    0 -0.12485258951E+02  0.43234539798E+02  0.63112403301E+01  0.45441598532E+02  0.00000000000E+00 0.  1.
</event>
<event>
 7    1  0.3752192E-015  0.9000770E+02  0.7816164E-02  0.1186339E+00
        -11   -1    0    0    0    0  0.00000000000E+00  0.00000000000E+00  0.45593999997E+02  0.45594000000E+02  0.51100000000E-03 0.  1.
         11   -1    0    0    0    0 -0.00000000000E+00 -0.00000000000E+00 -0.45593999997E+02  0.45594000000E+02  0.51100000000E-03 0. -1.
    9900012    2    1    2    0    0  0.67065843999E+00  0.78060138735E+00  0.57791718876E+00  0.90007699383E+02  0.89999960215E+02 0.  0.
        -12    1    1    2    0    0 -0.67065843999E+00 -0.78060138735E+00 -0.57791718876E+00  0.11803006169E+01  0.00000000000E+00 0.  1.
         11    1    3    3    0    0  0.14993818902E+02 -0.35811362869E+02  0.83359548104E+01  0.39708392799E+02  0.51100000000E-03 0. -1.
        -11    1    3    3    0    0 -0.41518334909E+01 -0.22668455513E+01 -0.89396099067E+01  0.10113997016E+02  0.51100000000E-03 0.  1.
        -12    1    3    3    0    0 -0.10171326971E+02  0.38858809808E+02  0.11815722850E+01  0.40185309568E+02  0.00000000000E+00 0.  1.
</event>
<event>
 7    1  0.3752192E-015  0.9000805E+02  0.7816164E-02  0.1186338E+00
        -11   -1    0    0    0    0  0.00000000000E+00  0.00000000000E+00  0.45593999997E+02  0.45594000000E+02  0.51100000000E-03 0.  1.
         11   -1    0    0    0    0 -0.00000000000E+00 -0.00000000000E+00 -0.45593999997E+02  0.45594000000E+02  0.51100000000E-03 0. -1.
    9900012    2    1    2    0    0  0.10269300382E+01 -0.18253569991E+00  0.55171133674E+00  0.90008046618E+02  0.90000312033E+02 0.  0.
        -12    1    1    2    0    0 -0.10269300382E+01  0.18253569991E+00 -0.55171133674E+00  0.11799533822E+01  0.00000000000E+00 0.  1.
         11    1    3    3    0    0 -0.19657438310E+01  0.60045211579E+01  0.71145659879E+01  0.95150130111E+01  0.51100000000E-03 0. -1.
        -11    1    3    3    0    0 -0.58242848264E+01  0.32335894473E+02 -0.20338537923E+02  0.38641797192E+02  0.51100000000E-03 0.  1.
         12    1    3    3    0    0  0.88169586956E+01 -0.38522951330E+02  0.13775683272E+02  0.41851236415E+02  0.00000000000E+00 0. -1.
</event>
<event>
 7    1  0.3752192E-015  0.9000776E+02  0.7816164E-02  0.1186339E+00
        -11   -1    0    0    0    0  0.00000000000E+00  0.00000000000E+00  0.45593999997E+02  0.45594000000E+02  0.51100000000E-03 0. -1.
         11   -1    0    0    0    0 -0.00000000000E+00 -0.00000000000E+00 -0.45593999997E+02  0.45594000000E+02  0.51100000000E-03 0.  1.
    9900012    2    1    2    0    0 -0.55029782874E+00 -0.97780203617E+00  0.36613219495E+00  0.90007755404E+02  0.90000016975E+02 0.  0.
        -12    1    1    2    0    0  0.55029782874E+00  0.97780203617E+00 -0.36613219495E+00  0.11802445960E+01  0.00000000000E+00 0.  1.
         11    1    3    3    0    0 -0.19461099983E+01  0.89853307285E+01 -0.31737507517E+01  0.97260581184E+01  0.51100000000E-03 0. -1.
        -11    1    3    3    0    0  0.22740929042E+02  0.24558813988E+02 -0.13723660508E+02  0.36174909208E+02  0.51100000000E-03 0.  1.
         12    1    3    3    0    0 -0.21345116873E+02 -0.34521946753E+02  0.17263543455E+02  0.44106788078E+02  0.00000000000E+00 0. -1.
</event>
<event>
 7    1  0.3752192E-015  0.9000778E+02  0.7816164E-02  0.1186339E+00
        -11   -1    0    0    0    0  0.00000000000E+00  0.00000000000E+00  0.45593999997E+02  0.45594000000E+02  0.51100000000E-03 0.  1.
         11   -1    0    0    0    0 -0.00000000000E+00 -0.00000000000E+00 -0.45593999997E+02  0.45594000000E+02  0.51100000000E-03 0. -1.
    9900012    2    1    2    0    0  0.65494228617E+00 -0.91587265318E+00 -0.35374738012E+00  0.90007784204E+02  0.90000046156E+02 0.  0.
        -12    1    1    2    0    0 -0.65494228617E+00  0.91587265318E+00  0.35374738012E+00  0.11802157955E+01  0.00000000000E+00 0.  1.
         11    1    3    3    0    0  0.13126751408E+01  0.32517771608E+01  0.10128994784E+02  0.10718848181E+02  0.51100000000E-03 0. -1.
        -11    1    3    3    0    0 -0.21184547056E+02  0.28796392823E+02  0.74470681190E+01  0.36516791992E+02  0.51100000000E-03 0.  1.
         12    1    3    3    0    0  0.20526814201E+02 -0.32964042637E+02 -0.17929810284E+02  0.42772144031E+02  0.00000000000E+00 0. -1.
</event>
<event>
 7    1  0.3752192E-015  0.9000768E+02  0.7816164E-02  0.1186339E+00
        -11   -1    0    0    0    0  0.00000000000E+00  0.00000000000E+00  0.45593999997E+02  0.45594000000E+02  0.51100000000E-03 0. -1.
         11   -1    0    0    0    0 -0.00000000000E+00 -0.00000000000E+00 -0.45593999997E+02  0.45594000000E+02  0.51100000000E-03 0.  1.
    9900012    2    1    2    0    0 -0.69440599589E+00  0.92892976324E+00 -0.21919660645E+00  0.90007679135E+02  0.89999939700E+02 0.  0.
        -12    1    1    2    0    0  0.69440599589E+00 -0.92892976324E+00  0.21919660645E+00  0.11803208650E+01  0.00000000000E+00 0.  1.
         11    1    3    3    0    0 -0.21251569524E+02 -0.63828748212E+01  0.29991399363E+02  0.37307564036E+02  0.51100000000E-03 0. -1.
        -11    1    3    3    0    0  0.42923464918E+01  0.51008679101E+01  0.84125020506E+01  0.10733745053E+02  0.51100000000E-03 0.  1.
        -12    1    3    3    0    0  0.16264817036E+02  0.22109366743E+01 -0.38623098021E+02  0.41966370047E+02  0.00000000000E+00 0.  1.
</event>
<event>
 7    1  0.3752192E-015  0.9000795E+02  0.7816164E-02  0.1186339E+00
        -11   -1    0    0    0    0  0.00000000000E+00  0.00000000000E+00  0.45593999997E+02  0.45594000000E+02  0.51100000000E-03 0.  1.
         11   -1    0    0    0    0 -0.00000000000E+00 -0.00000000000E+00 -0.45593999997E+02  0.45594000000E+02  0.51100000000E-03 0. -1.
    9900012    2    1    2    0    0  0.11659098132E+01  0.10636892947E+00 -0.14786436750E+00  0.90007947496E+02  0.90000211602E+02 0.  0.
        -12    1    1    2    0    0 -0.11659098132E+01 -0.10636892947E+00  0.14786436750E+00  0.11800525042E+01  0.00000000000E+00 0.  1.
         11    1    3    3    0    0 -0.35898668014E+01 -0.64828698365E+01  0.77458081548E+01  0.10719714978E+02  0.51100000000E-03 0. -1.
        -11    1    3    3    0    0  0.22356087652E+02  0.14932331310E+02  0.27770497553E+02  0.38651904326E+02  0.51100000000E-03 0.  1.
         12    1    3    3    0    0 -0.17600311037E+02 -0.83430925437E+01 -0.35664170075E+02  0.40636328192E+02  0.00000000000E+00 0. -1.
</event>
<event>
 7    1  0.3752192E-015  0.9000770E+02  0.7816164E-02  0.1186339E+00
        -11   -1    0    0    0    0  0.00000000000E+00  0.00000000000E+00  0.45593999997E+02  0.45594000000E+02  0.51100000000E-03 0.  1.
         11   -1    0    0    0    0 -0.00000000000E+00 -0.00000000000E+00 -0.45593999997E+02  0.45594000000E+02  0.51100000000E-03 0. -1.
    9900012    2    1    2    0    0  0.56800256190E+00 -0.11916048713E+00 -0.10277517859E+01  0.90007703484E+02  0.89999964370E+02 0.  0.
        -12    1    1    2    0    0 -0.56800256190E+00  0.11916048713E+00  0.10277517859E+01  0.11802965159E+01  0.00000000000E+00 0.  1.
         11    1    3    3    0    0  0.36779317402E+01  0.21113708405E+01 -0.38512545456E+02  0.38745338126E+02  0.51100000000E-03 0. -1.
        -11    1    3    3    0    0  0.63617626421E+01  0.11162509462E+02  0.31777088200E+01  0.13235236115E+02  0.51100000000E-03 0.  1.
        -12    1    3    3    0    0 -0.94716918204E+01 -0.13393040790E+02  0.34307084851E+02  0.38027129243E+02  0.00000000000E+00 0.  1.
</event>
<event>
 7    1  0.3752192E-015  0.9000775E+02  0.7816164E-02  0.1186339E+00
        -11   -1    0    0    0    0  0.00000000000E+00  0.00000000000E+00  0.45593999997E+02  0.45594000000E+02  0.51100000000E-03 0.  1.
         11   -1    0    0    0    0 -0.00000000000E+00 -0.00000000000E+00 -0.45593999997E+02  0.45594000000E+02  0.51100000000E-03 0. -1.
    9900012    2    1    2    0    0  0.85306963790E+00  0.10091187480E+00  0.80937367212E+00  0.90007747165E+02  0.90000008628E+02 0.  0.
        -12    1    1    2    0    0 -0.85306963790E+00 -0.10091187480E+00 -0.80937367212E+00  0.11802528351E+01  0.00000000000E+00 0.  1.
         11    1    3    3    0    0  0.34893084542E+02  0.27469615111E+01 -0.23682056188E+02  0.42260063085E+02  0.51100000000E-03 0. -1.
        -11    1    3    3    0    0 -0.11488166593E+01 -0.66244799414E+01  0.88387985532E+01  0.11105308385E+02  0.51100000000E-03 0.  1.
        -12    1    3    3    0    0 -0.32891198245E+02  0.39784303051E+01  0.15652631307E+02  0.36642375694E+02  0.00000000000E+00 0.  1.
</event>
<event>
 7    1  0.3752192E-015  0.9000777E+02  0.7816164E-02  0.1186339E+00
        -11   -1    0    0    0    0  0.00000000000E+00  0.00000000000E+00  0.45593999997E+02  0.45594000000E+02  0.51100000000E-03 0.  1.
         11   -1    0    0    0    0 -0.00000000000E+00 -0.00000000000E+00 -0.45593999997E+02  0.45594000000E+02  0.51100000000E-03 0. -1.
    9900012    2    1    2    0    0  0.73014954328E+00  0.92276909729E+00  0.91182125561E-01  0.90007773182E+02  0.90000034988E+02 0.  0.
        -12    1    1    2    0    0 -0.73014954328E+00 -0.92276909729E+00 -0.91182125561E-01  0.11802268182E+01  0.00000000000E+00 0.  1.
         11    1    3    3    0    0 -0.10989402790E+02  0.35870208342E+01 -0.23669161766E+01  0.11799829855E+02  0.51100000000E-03 0. -1.
        -11    1    3    3    0    0 -0.29003949553E+02 -0.18438258062E+02 -0.11464000753E+01  0.34387682146E+02  0.51100000000E-03 0.  1.
         12    1    3    3    0    0  0.40723501886E+02  0.15774006325E+02  0.36044983775E+01  0.43820261181E+02  0.00000000000E+00 0. -1.
</event>
<event>
 7    1  0.3752192E-015  0.9000777E+02  0.7816164E-02  0.1186339E+00
        -11   -1    0    0    0    0  0.00000000000E+00  0.00000000000E+00  0.45593999997E+02  0.45594000000E+02  0.51100000000E-03 0.  1.
         11   -1    0    0    0    0 -0.00000000000E+00 -0.00000000000E+00 -0.45593999997E+02  0.45594000000E+02  0.51100000000E-03 0. -1.
    9900012    2    1    2    0    0 -0.69159164104E+00 -0.53786393062E+00 -0.79079276494E+00  0.90007767056E+02  0.90000028781E+02 0.  0.
        -12    1    1    2    0    0  0.69159164104E+00  0.53786393062E+00  0.79079276494E+00  0.11802329443E+01  0.00000000000E+00 0.  1.
         11    1    3    3    0    0  0.46820047586E+01  0.44184697807E+01  0.21675404799E+01  0.67928105932E+01  0.51100000000E-03 0. -1.
        -11    1    3    3    0    0 -0.37962818023E+02 -0.14498125300E+02  0.16748837521E+02  0.43953324653E+02  0.51100000000E-03 0.  1.
         12    1    3    3    0    0  0.32589221623E+02  0.95417915889E+01 -0.19707170766E+02  0.39261631810E+02  0.00000000000E+00 0. -1.
</event>
<event>
 7    1  0.3752192E-015  0.9000782E+02  0.7816164E-02  0.1186339E+00
        -11   -1    0    0    0    0  0.00000000000E+00  0.00000000000E+00  0.45593999997E+02  0.45594000000E+02  0.51100000000E-03 0.  1.
         11   -1    0    0    0    0 -0.00000000000E+00 -0.00000000000E+00 -0.45593999997E+02  0.45594000000E+02  0.51100000000E-03 0. -1.
    9900012    2    1    2    0    0  0.11265891868E+01 -0.53061506895E-01 -0.34757165128E+00  0.90007820026E+02  0.90000082450E+02 0.  0.
        -12    1    1    2    0    0 -0.11265891868E+01  0.53061506895E-01  0.34757165128E+00  0.11801799745E+01  0.00000000000E+00 0.  1.
         11    1    3    3    0    0  0.43761270184E+01  0.36126509908E+02 -0.15837556983E+01  0.36425039302E+02  0.51100000000E-03 0. -1.
        -11    1    3    3    0    0  0.51959904655E+01  0.61558837567E+01 -0.56879992201E+01  0.98613668998E+01  0.51100000000E-03 0.  1.
        -12    1    3    3    0    0 -0.84455282971E+01 -0.42335455171E+02  0.69241832671E+01  0.43721413823E+02  0.00000000000E+00 0.  1.
</event>
<event>
 7    1  0.3752192E-015  0.9000740E+02  0.7816164E-02  0.1186340E+00
        -11   -1    0    0    0    0  0.00000000000E+00  0.00000000000E+00  0.45593999997E+02  0.45594000000E+02  0.51100000000E-03 0. -1.
         11   -1    0    0    0    0 -0.00000000000E+00 -0.00000000000E+00 -0.45593999997E+02  0.45594000000E+02  0.51100000000E-03 0.  1.
    9900012    2    1    2    0    0 -0.16285398070E+00  0.11675734645E+01 -0.63864132248E-01  0.90007395138E+02  0.89999651953E+02 0.  0.
        -12    1    1    2    0    0  0.16285398070E+00 -0.11675734645E+01  0.63864132248E-01  0.11806048625E+01  0.00000000000E+00 0.  1.
         11    1    3    3    0    0  0.79117727869E+01  0.56191298127E+01  0.14619430671E+01  0.98136663014E+01  0.51100000000E-03 0. -1.
        -11    1    3    3    0    0  0.20381872862E+02  0.25001245267E+02  0.15566221812E+02  0.35816061593E+02  0.51100000000E-03 0.  1.
         12    1    3    3    0    0 -0.28456499630E+02 -0.29452801616E+02 -0.17092029011E+02  0.44377667243E+02  0.00000000000E+00 0. -1.
</event>
<event>
 7    1  0.3752192E-015  0.9000776E+02  0.7816164E-02  0.1186339E+00
        -11   -1    0    0    0    0  0.00000000000E+00  0.00000000000E+00  0.45593999997E+02  0.45594000000E+02  0.51100000000E-03 0.  1.
         11   -1    0    0    0    0 -0.00000000000E+00 -0.00000000000E+00 -0.45593999997E+02  0.45594000000E+02  0.51100000000E-03 0. -1.
    9900012    2    1    2    0    0  0.41553537082E-02  0.72754994660E+00 -0.92931343223E+00  0.90007758649E+02  0.90000020263E+02 0.  0.
        -12    1    1    2    0    0 -0.41553537082E-02 -0.72754994660E+00  0.92931343223E+00  0.11802413512E+01  0.00000000000E+00 0.  1.
         11    1    3    3    0    0  0.58450657846E+01  0.46018354200E+01  0.56620318533E+01  0.93488121292E+01  0.51100000000E-03 0. -1.
        -11    1    3    3    0    0 -0.49641758255E+01 -0.22062199276E+02  0.31302910976E+02  0.38616782807E+02  0.51100000000E-03 0.  1.
         12    1    3    3    0    0 -0.87673460541E+00  0.18187913803E+02 -0.37894256261E+02  0.42042163713E+02  0.00000000000E+00 0. -1.
</event>
<event>
 7    1  0.3752192E-015  0.9000775E+02  0.7816164E-02  0.1186339E+00
        -11   -1    0    0    0    0  0.00000000000E+00  0.00000000000E+00  0.45593999997E+02  0.45594000000E+02  0.51100000000E-03 0. -1.
         11   -1    0    0    0    0 -0.00000000000E+00 -0.00000000000E+00 -0.45593999997E+02  0.45594000000E+02  0.51100000000E-03 0.  1.
    9900012    2    1    2    0    0 -0.29755550909E+00 -0.89153015748E+00  0.71387375068E+00  0.90007753825E+02  0.90000015375E+02 0.  0.
        -12    1    1    2    0    0  0.29755550909E+00  0.89153015748E+00 -0.71387375068E+00  0.11802461754E+01  0.00000000000E+00 0.  1.
         11    1    3    3    0    0 -0.23590951446E+00  0.26142766572E+00  0.49054000461E+01  0.49180227324E+01  0.51100000000E-03 0. -1.
        -11    1    3    3    0    0  0.11010247855E+02 -0.38338660176E+02  0.13952127176E+02  0.42258020244E+02  0.51100000000E-03 0.  1.
         12    1    3    3    0    0 -0.11071893850E+02  0.37185702353E+02 -0.18143653471E+02  0.42831710848E+02  0.00000000000E+00 0. -1.
</event>
<event>
 7    1  0.4691270E-015  0.9000792E+02  0.7816164E-02  0.1186339E+00
        -11   -1    0    0    0    0  0.00000000000E+00  0.00000000000E+00  0.45593999997E+02  0.45594000000E+02  0.51100000000E-03 0. -1.
         11   -1    0    0    0    0 -0.00000000000E+00 -0.00000000000E+00 -0.45593999997E+02  0.45594000000E+02  0.51100000000E-03 0.  1.
    9900012    2    1    2    0    0 -0.66588070100E+00 -0.66709811288E+00  0.71004365391E+00  0.90007924159E+02  0.90000187958E+02 0.  0.
        -12    1    1    2    0    0  0.66588070100E+00  0.66709811288E+00 -0.71004365391E+00  0.11800758411E+01  0.00000000000E+00 0.  1.
         11    1    3    3    0    0  0.18989970581E+02  0.60183191125E+01  0.29177021110E+02  0.35328992467E+02  0.51100000000E-03 0. -1.
        -11    1    3    3    0    0  0.90394807022E+01  0.89952262436E+00  0.46522013993E+01  0.10206092810E+02  0.51100000000E-03 0.  1.
        -12    1    3    3    0    0 -0.28695331984E+02 -0.75849398498E+01 -0.33119178856E+02  0.44472838882E+02  0.00000000000E+00 0.  1.
</event>
<event>
 7    1  0.3752192E-015  0.9000777E+02  0.7816164E-02  0.1186339E+00
        -11   -1    0    0    0    0  0.00000000000E+00  0.00000000000E+00  0.45593999997E+02  0.45594000000E+02  0.51100000000E-03 0.  1.
         11   -1    0    0    0    0 -0.00000000000E+00 -0.00000000000E+00 -0.45593999997E+02  0.45594000000E+02  0.51100000000E-03 0. -1.
    9900012    2    1    2    0    0 -0.11547382400E+01  0.24238780379E+00  0.27588743441E-01  0.90007774009E+02  0.90000035826E+02 0.  0.
        -12    1    1    2    0    0  0.11547382400E+01 -0.24238780379E+00 -0.27588743441E-01  0.11802259907E+01  0.00000000000E+00 0.  1.
         11    1    3    3    0    0 -0.90503048498E+01 -0.12995941071E+02 -0.27253614833E+02  0.31520818896E+02  0.51100000000E-03 0. -1.
        -11    1    3    3    0    0 -0.33063284538E+01 -0.63644552714E+01 -0.11534530285E+02  0.13582469875E+02  0.51100000000E-03 0.  1.
        -12    1    3    3    0    0  0.11201895064E+02  0.19602784146E+02  0.38815733861E+02  0.44904485238E+02  0.00000000000E+00 0.  1.
</event>
<event>
 7    1  0.3752192E-015  0.9000777E+02  0.7816164E-02  0.1186339E+00
        -11   -1    0    0    0    0  0.00000000000E+00  0.00000000000E+00  0.45593999997E+02  0.45594000000E+02  0.51100000000E-03 0.  1.
         11   -1    0    0    0    0 -0.00000000000E+00 -0.00000000000E+00 -0.45593999997E+02  0.45594000000E+02  0.51100000000E-03 0. -1.
    9900012    2    1    2    0    0  0.84606958333E-01 -0.81730902031E+00  0.84722954717E+00  0.90007766855E+02  0.90000028577E+02 0.  0.
        -12    1    1    2    0    0 -0.84606958333E-01  0.81730902031E+00 -0.84722954717E+00  0.11802331455E+01  0.00000000000E+00 0.  1.
         11    1    3    3    0    0  0.74239702597E+01  0.59768583083E+01 -0.74713573871E+00  0.95601454867E+01  0.51100000000E-03 0. -1.
        -11    1    3    3    0    0  0.22310667493E+02  0.57729835172E+01  0.29777359395E+02  0.37653477336E+02  0.51100000000E-03 0.  1.
         12    1    3    3    0    0 -0.29650030795E+02 -0.12567150846E+02 -0.28182994109E+02  0.42794144032E+02  0.00000000000E+00 0. -1.
</event>
<event>
 7    1  0.3752192E-015  0.9000693E+02  0.7816164E-02  0.1186341E+00
        -11   -1    0    0    0    0  0.00000000000E+00  0.00000000000E+00  0.45593999997E+02  0.45594000000E+02  0.51100000000E-03 0. -1.
         11   -1    0    0    0    0 -0.00000000000E+00 -0.00000000000E+00 -0.45593999997E+02  0.45594000000E+02  0.51100000000E-03 0.  1.
    9900012    2    1    2    0    0 -0.11481159151E+01 -0.65322943760E-01  0.26923665391E+00  0.90006930308E+02  0.89999180984E+02 0.  0.
        -12    1    1    2    0    0  0.11481159151E+01  0.65322943760E-01 -0.26923665391E+00  0.11810696920E+01  0.00000000000E+00 0.  1.
         11    1    3    3    0    0  0.19688776659E+01  0.11520899398E+01 -0.83352938419E+01  0.86418119735E+01  0.51100000000E-03 0. -1.
        -11    1    3    3    0    0  0.10039872832E+01  0.20178278439E+02 -0.30509073507E+02  0.36592000188E+02  0.51100000000E-03 0.  1.
         12    1    3    3    0    0 -0.41209808643E+01 -0.21395691323E+02  0.39113604003E+02  0.44773118147E+02  0.00000000000E+00 0. -1.
</event>
<event>
 7    1  0.3752192E-015  0.9000764E+02  0.7816164E-02  0.1186339E+00
        -11   -1    0    0    0    0  0.00000000000E+00  0.00000000000E+00  0.45593999997E+02  0.45594000000E+02  0.51100000000E-03 0.  1.
         11   -1    0    0    0    0 -0.00000000000E+00 -0.00000000000E+00 -0.45593999997E+02  0.45594000000E+02  0.51100000000E-03 0. -1.
    9900012    2    1    2    0    0  0.80045290013E+00 -0.86477431266E+00 -0.68472393917E-01  0.90007640764E+02  0.89999900822E+02 0.  0.
        -12    1    1    2    0    0 -0.80045290013E+00  0.86477431266E+00  0.68472393917E-01  0.11803592360E+01  0.00000000000E+00 0.  1.
         11    1    3    3    0    0  0.98997053654E+01  0.28876590849E+02 -0.12153835274E+02  0.32856922825E+02  0.51100000000E-03 0. -1.
        -11    1    3    3    0    0 -0.15124587702E+00  0.12477844473E+02  0.48664935550E+01  0.13394112056E+02  0.51100000000E-03 0.  1.
        -12    1    3    3    0    0 -0.89480065882E+01 -0.42219209634E+02  0.72188693250E+01  0.43756605883E+02  0.00000000000E+00 0.  1.
</event>
<event>
 7    1  0.3752192E-015  0.9000767E+02  0.7816164E-02  0.1186339E+00
        -11   -1    0    0    0    0  0.00000000000E+00  0.00000000000E+00  0.45593999997E+02  0.45594000000E+02  0.51100000000E-03 0. -1.
         11   -1    0    0    0    0 -0.00000000000E+00 -0.00000000000E+00 -0.45593999997E+02  0.45594000000E+02  0.51100000000E-03 0.  1.
    9900012    2    1    2    0    0  0.54794958564E+00  0.85016171185E+00  0.60840992455E+00  0.90007666860E+02  0.89999927263E+02 0.  0.
        -12    1    1    2    0    0 -0.54794958564E+00 -0.85016171185E+00 -0.60840992455E+00  0.11803331398E+01  0.00000000000E+00 0.  1.
         11    1    3    3    0    0  0.12565631388E+02 -0.58915475362E+01  0.36303941539E+02  0.38866201204E+02  0.51100000000E-03 0. -1.
        -11    1    3    3    0    0  0.15707074432E+01 -0.35514813557E+01  0.53995835235E+01  0.66509882108E+01  0.51100000000E-03 0.  1.
        -12    1    3    3    0    0 -0.13588389245E+02  0.10293190604E+02 -0.41095115138E+02  0.44490477445E+02  0.00000000000E+00 0.  1.
</event>
<event>
 7    1  0.3752192E-015  0.9000736E+02  0.7816164E-02  0.1186340E+00
        -11   -1    0    0    0    0  0.00000000000E+00  0.00000000000E+00  0.45593999997E+02  0.45594000000E+02  0.51100000000E-03 0.  1.
         11   -1    0    0    0    0 -0.00000000000E+00 -0.00000000000E+00 -0.45593999997E+02  0.45594000000E+02  0.51100000000E-03 0. -1.
    9900012    2    1    2    0    0  0.41793385059E+00  0.55880225161E+00 -0.95235839705E+00  0.90007358151E+02  0.89999614477E+02 0.  0.
        -12    1    1    2    0    0 -0.41793385059E+00 -0.55880225161E+00  0.95235839705E+00  0.11806418493E+01  0.00000000000E+00 0.  1.
         11    1    3    3    0    0 -0.36738140133E+02 -0.79942944535E+00 -0.71399352981E+01  0.37434058078E+02  0.51100000000E-03 0. -1.
        -11    1    3    3    0    0 -0.38834132401E+01 -0.69582986043E+01  0.71245416272E+01  0.10689149242E+02  0.51100000000E-03 0.  1.
        -12    1    3    3    0    0  0.41039487224E+02  0.83165303013E+01 -0.93696472613E+00  0.41884150830E+02  0.00000000000E+00 0.  1.
</event>
<event>
 7    1  0.3752192E-015  0.9000776E+02  0.7816164E-02  0.1186339E+00
        -11   -1    0    0    0    0  0.00000000000E+00  0.00000000000E+00  0.45593999997E+02  0.45594000000E+02  0.51100000000E-03 0. -1.
         11   -1    0    0    0    0 -0.00000000000E+00 -0.00000000000E+00 -0.45593999997E+02  0.45594000000E+02  0.51100000000E-03 0.  1.
    9900012    2    1    2    0    0  0.31889131318E+00  0.33663167533E+00  0.10853312644E+01  0.90007764215E+02  0.90000025903E+02 0.  0.
        -12    1    1    2    0    0 -0.31889131318E+00 -0.33663167533E+00 -0.10853312644E+01  0.11802357849E+01  0.00000000000E+00 0.  1.
         11    1    3    3    0    0 -0.95815585970E+01 -0.27368959566E+01  0.13089836422E+02  0.16451160520E+02  0.51100000000E-03 0. -1.
        -11    1    3    3    0    0  0.23946257472E+02 -0.28953361692E+02 -0.72019392900E+01  0.38256872977E+02  0.51100000000E-03 0.  1.
         12    1    3    3    0    0 -0.14045807562E+02  0.32026889324E+02 -0.48025658675E+01  0.35299730718E+02  0.00000000000E+00 0. -1.
</event>
<event>
 7    1  0.3752192E-015  0.9000774E+02  0.7816164E-02  0.1186339E+00
        -11   -1    0    0    0    0  0.00000000000E+00  0.00000000000E+00  0.45593999997E+02  0.45594000000E+02  0.51100000000E-03 0.  1.
         11   -1    0    0    0    0 -0.00000000000E+00 -0.00000000000E+00 -0.45593999997E+02  0.45594000000E+02  0.51100000000E-03 0. -1.
    9900012    2    1    2    0    0 -0.57067703814E+00 -0.84036173898E+00  0.60093849596E+00  0.90007742736E+02  0.90000004140E+02 0.  0.
        -12    1    1    2    0    0  0.57067703814E+00  0.84036173898E+00 -0.60093849596E+00  0.11802572644E+01  0.00000000000E+00 0.  1.
         11    1    3    3    0    0 -0.31743813248E+01 -0.28238975536E+01 -0.60936464029E+01  0.74285678925E+01  0.51100000000E-03 0. -1.
        -11    1    3    3    0    0 -0.47977859081E+01 -0.23217229276E+02  0.36076463114E+02  0.43169082408E+02  0.51100000000E-03 0.  1.
         12    1    3    3    0    0  0.74014901948E+01  0.25200765091E+02 -0.29381878215E+02  0.39410092435E+02  0.00000000000E+00 0. -1.
</event>
<event>
 7    1  0.3752192E-015  0.9000771E+02  0.7816164E-02  0.1186339E+00
        -11   -1    0    0    0    0  0.00000000000E+00  0.00000000000E+00  0.45593999997E+02  0.45594000000E+02  0.51100000000E-03 0. -1.
         11   -1    0    0    0    0 -0.00000000000E+00 -0.00000000000E+00 -0.45593999997E+02  0.45594000000E+02  0.51100000000E-03 0.  1.
    9900012    2    1    2    0    0  0.23567469953E+00  0.50863223008E+00  0.10386732384E+01  0.90007707068E+02  0.89999968001E+02 0.  0.
        -12    1    1    2    0    0 -0.23567469953E+00 -0.50863223008E+00 -0.10386732384E+01  0.11802929321E+01  0.00000000000E+00 0.  1.
         11    1    3    3    0    0  0.96531312420E+01 -0.56688753928E+01 -0.44200293591E+01  0.12035603466E+02  0.51100000000E-03 0. -1.
        -11    1    3    3    0    0  0.12499489214E+02  0.31479167727E+02 -0.16765196416E+02  0.37792155833E+02  0.51100000000E-03 0.  1.
         12    1    3    3    0    0 -0.21916945756E+02 -0.25301660104E+02  0.22223899013E+02  0.40179947768E+02  0.00000000000E+00 0. -1.
</event>
<event>
 8    1  0.3752192E-015  0.9000773E+02  0.7816164E-02  0.1186339E+00
        -11   -1    0    0    0    0  0.00000000000E+00  0.00000000000E+00  0.45593999997E+02  0.45594000000E+02  0.51100000000E-03 0.  1.
         11   -1    0    0    0    0 -0.00000000000E+00 -0.00000000000E+00 -0.45593999997E+02  0.45594000000E+02  0.51100000000E-03 0. -1.
    9900012    2    1    2    0    0 -0.57166756360E+00 -0.89283537137E+00 -0.51871867144E+00  0.90007733986E+02  0.89999995275E+02 0.  0.
         23    2    3    3    0    0 -0.24074669290E+02 -0.16290000704E+01  0.14781173755E+02  0.61953861938E+02  0.55114014269E+02 0.  0.
        -12    1    1    2    0    0  0.57166756360E+00  0.89283537137E+00  0.51871867144E+00  0.11802660140E+01  0.00000000000E+00 0.  1.
         11    1    4    4    0    0 -0.18734814316E+02 -0.70984136185E+01 -0.18823929458E+02  0.27490381297E+02  0.51100000000E-03 0. -1.
        -11    1    4    4    0    0 -0.53398549739E+01  0.54694135482E+01  0.33605103213E+02  0.34463480641E+02  0.51100000000E-03 0.  1.
         12    1    3    3    0    0  0.23503001727E+02  0.73616469898E+00 -0.15299892426E+02  0.28053872048E+02  0.00000000000E+00 0. -1.
</event>
<event>
 7    1  0.3752192E-015  0.9000772E+02  0.7816164E-02  0.1186339E+00
        -11   -1    0    0    0    0  0.00000000000E+00  0.00000000000E+00  0.45593999997E+02  0.45594000000E+02  0.51100000000E-03 0. -1.
         11   -1    0    0    0    0 -0.00000000000E+00 -0.00000000000E+00 -0.45593999997E+02  0.45594000000E+02  0.51100000000E-03 0.  1.
    9900012    2    1    2    0    0  0.47077504111E-01 -0.94772763677E+00  0.70188876290E+00  0.90007723846E+02  0.89999985000E+02 0.  0.
        -12    1    1    2    0    0 -0.47077504111E-01  0.94772763677E+00 -0.70188876290E+00  0.11802761543E+01  0.00000000000E+00 0.  1.
         11    1    3    3    0    0 -0.25478381964E+02 -0.27576185260E+02  0.36388950569E+01  0.37720491758E+02  0.51100000000E-03 0. -1.
        -11    1    3    3    0    0  0.43067799278E+00 -0.55027138205E+01  0.83270011208E+01  0.99902097500E+01  0.51100000000E-03 0.  1.
        -12    1    3    3    0    0  0.25094781475E+02  0.32131171443E+02 -0.11264007415E+02  0.42297022338E+02  0.00000000000E+00 0.  1.
</event>
<event>
 7    1  0.3752192E-015  0.9000768E+02  0.7816164E-02  0.1186339E+00
        -11   -1    0    0    0    0  0.00000000000E+00  0.00000000000E+00  0.45593999997E+02  0.45594000000E+02  0.51100000000E-03 0.  1.
         11   -1    0    0    0    0 -0.00000000000E+00 -0.00000000000E+00 -0.45593999997E+02  0.45594000000E+02  0.51100000000E-03 0. -1.
    9900012    2    1    2    0    0  0.62955233813E-01 -0.62170149886E+00 -0.10013413535E+01  0.90007677747E+02  0.89999938293E+02 0.  0.
        -12    1    1    2    0    0 -0.62955233813E-01  0.62170149886E+00  0.10013413535E+01  0.11803222532E+01  0.00000000000E+00 0.  1.
         11    1    3    3    0    0  0.12015403059E+02 -0.16963623216E+02 -0.36736126605E+02  0.42209920890E+02  0.51100000000E-03 0. -1.
        -11    1    3    3    0    0  0.32696944116E+01  0.56013574272E+01 -0.10443593031E+01  0.65693830142E+01  0.51100000000E-03 0.  1.
        -12    1    3    3    0    0 -0.15222142236E+02  0.10740564290E+02  0.36779144555E+02  0.41228373843E+02  0.00000000000E+00 0.  1.
</event>
<event>
 7    1  0.3752192E-015  0.9000774E+02  0.7816164E-02  0.1186339E+00
        -11   -1    0    0    0    0  0.00000000000E+00  0.00000000000E+00  0.45593999997E+02  0.45594000000E+02  0.51100000000E-03 0.  1.
         11   -1    0    0    0    0 -0.00000000000E+00 -0.00000000000E+00 -0.45593999997E+02  0.45594000000E+02  0.51100000000E-03 0. -1.
    9900012    2    1    2    0    0 -0.88412327822E+00 -0.74625051667E+00 -0.23334483576E+00  0.90007740021E+02  0.90000001390E+02 0.  0.
        -12    1    1    2    0    0  0.88412327822E+00  0.74625051667E+00  0.23334483576E+00  0.11802599786E+01  0.00000000000E+00 0.  1.
         11    1    3    3    0    0  0.33942044594E+02  0.19704045251E+02  0.15772634053E+02  0.42297609575E+02  0.51100000000E-03 0. -1.
        -11    1    3    3    0    0 -0.10291562928E+02  0.31513998975E+01 -0.22725953705E+01  0.11000558113E+02  0.51100000000E-03 0.  1.
        -12    1    3    3    0    0 -0.24534604944E+02 -0.23601695665E+02 -0.13733383518E+02  0.36709572333E+02  0.00000000000E+00 0.  1.
</event>
<event>
 7    1  0.3752192E-015  0.9000775E+02  0.7816164E-02  0.1186339E+00
        -11   -1    0    0    0    0  0.00000000000E+00  0.00000000000E+00  0.45593999997E+02  0.45594000000E+02  0.51100000000E-03 0.  1.
         11   -1    0    0    0    0 -0.00000000000E+00 -0.00000000000E+00 -0.45593999997E+02  0.45594000000E+02  0.51100000000E-03 0. -1.
    9900012    2    1    2    0    0 -0.93928477526E+00  0.15300393164E+00 -0.69808436494E+00  0.90007750928E+02  0.90000012440E+02 0.  0.
        -12    1    1    2    0    0  0.93928477526E+00 -0.15300393164E+00  0.69808436494E+00  0.11802490723E+01  0.00000000000E+00 0.  1.
         11    1    3    3    0    0  0.67094788262E+01 -0.33392225329E+02  0.92901864488E+01  0.35303900395E+02  0.51100000000E-03 0. -1.
        -11    1    3    3    0    0  0.71632914445E+01 -0.37886109801E+00  0.10253918404E+02  0.12513957126E+02  0.51100000000E-03 0.  1.
        -12    1    3    3    0    0 -0.14812055046E+02  0.33924090359E+02 -0.20242189218E+02  0.42189893407E+02  0.00000000000E+00 0.  1.
</event>
<event>
 7    1  0.3752192E-015  0.9000776E+02  0.7816164E-02  0.1186339E+00
        -11   -1    0    0    0    0  0.00000000000E+00  0.00000000000E+00  0.45593999997E+02  0.45594000000E+02  0.51100000000E-03 0.  1.
         11   -1    0    0    0    0 -0.00000000000E+00 -0.00000000000E+00 -0.45593999997E+02  0.45594000000E+02  0.51100000000E-03 0. -1.
    9900012    2    1    2    0    0 -0.42087059798E+00  0.97702530266E+00 -0.51112798464E+00  0.90007761753E+02  0.90000023408E+02 0.  0.
        -12    1    1    2    0    0  0.42087059798E+00 -0.97702530266E+00  0.51112798464E+00  0.11802382467E+01  0.00000000000E+00 0.  1.
         11    1    3    3    0    0  0.64342709645E+01 -0.57327998127E+01 -0.11674557862E+01  0.86964239669E+01  0.51100000000E-03 0. -1.
        -11    1    3    3    0    0  0.16841099700E+02 -0.91606757027E+01  0.33015352427E+02  0.38177927060E+02  0.51100000000E-03 0.  1.
         12    1    3    3    0    0 -0.23696241262E+02  0.15870500818E+02 -0.32359024626E+02  0.43133410727E+02  0.00000000000E+00 0. -1.
</event>
<event>
 7    1  0.3752192E-015  0.9000775E+02  0.7816164E-02  0.1186339E+00
        -11   -1    0    0    0    0  0.00000000000E+00  0.00000000000E+00  0.45593999997E+02  0.45594000000E+02  0.51100000000E-03 0.  1.
         11   -1    0    0    0    0 -0.00000000000E+00 -0.00000000000E+00 -0.45593999997E+02  0.45594000000E+02  0.51100000000E-03 0. -1.
    9900012    2    1    2    0    0 -0.52617990627E+00  0.48000338042E+00 -0.94112300365E+00  0.90007753819E+02  0.90000015370E+02 0.  0.
        -12    1    1    2    0    0  0.52617990627E+00 -0.48000338042E+00  0.94112300365E+00  0.11802461807E+01  0.00000000000E+00 0.  1.
         11    1    3    3    0    0  0.12812365440E+02  0.32383176360E+02 -0.17014497070E+02  0.38759772060E+02  0.51100000000E-03 0. -1.
        -11    1    3    3    0    0 -0.13375183491E+02  0.30247700796E+01  0.52154426793E+01  0.14671251141E+02  0.51100000000E-03 0.  1.
        -12    1    3    3    0    0  0.36638144087E-01 -0.34927943059E+02  0.10857931387E+02  0.36576730618E+02  0.00000000000E+00 0.  1.
</event>
<event>
 7    1  0.6927564E-015  0.9000771E+02  0.7816164E-02  0.1186339E+00
        -11   -1    0    0    0    0  0.00000000000E+00  0.00000000000E+00  0.45593999997E+02  0.45594000000E+02  0.51100000000E-03 0.  1.
         11   -1    0    0    0    0 -0.00000000000E+00 -0.00000000000E+00 -0.45593999997E+02  0.45594000000E+02  0.51100000000E-03 0. -1.
    9900012    2    1    2    0    0  0.98686663302E+00 -0.55155683000E+00 -0.33904651063E+00  0.90007714770E+02  0.89999975805E+02 0.  0.
        -12    1    1    2    0    0 -0.98686663302E+00  0.55155683000E+00  0.33904651063E+00  0.11802852301E+01  0.00000000000E+00 0.  1.
         11    1    3    3    0    0 -0.62317685893E+01  0.90573520525E+01 -0.35288803275E+02  0.36961739716E+02  0.51100000000E-03 0. -1.
        -11    1    3    3    0    0  0.55100707067E+01 -0.24914315766E+01 -0.76898121666E+01  0.97827052451E+01  0.51100000000E-03 0.  1.
        -12    1    3    3    0    0  0.17085645157E+01 -0.71174773058E+01  0.42639568931E+02  0.43263269809E+02  0.00000000000E+00 0.  1.
</event>
<event>
 7    1  0.3752192E-015  0.9000752E+02  0.7816164E-02  0.1186339E+00
        -11   -1    0    0    0    0  0.00000000000E+00  0.00000000000E+00  0.45593999997E+02  0.45594000000E+02  0.51100000000E-03 0.  1.
         11   -1    0    0    0    0 -0.00000000000E+00 -0.00000000000E+00 -0.45593999997E+02  0.45594000000E+02  0.51100000000E-03 0. -1.
    9900012    2    1    2    0    0  0.57671514599E+00 -0.86717574938E+00 -0.55581798305E+00  0.90007522228E+02  0.89999780721E+02 0.  0.
        -12    1    1    2    0    0 -0.57671514599E+00  0.86717574938E+00  0.55581798305E+00  0.11804777720E+01  0.00000000000E+00 0.  1.
         11    1    3    3    0    0  0.62605646222E+01  0.84664896074E+00 -0.64680643478E+01  0.90414235892E+01  0.51100000000E-03 0. -1.
        -11    1    3    3    0    0 -0.39133891748E+02 -0.16035796278E+02 -0.59182872978E+01  0.42704032250E+02  0.51100000000E-03 0.  1.
         12    1    3    3    0    0  0.33450042272E+02  0.14321971568E+02  0.11830533663E+02  0.38262066389E+02  0.00000000000E+00 0. -1.
</event>
<event>
 7    1  0.3752192E-015  0.9000774E+02  0.7816164E-02  0.1186339E+00
        -11   -1    0    0    0    0  0.00000000000E+00  0.00000000000E+00  0.45593999997E+02  0.45594000000E+02  0.51100000000E-03 0.  1.
         11   -1    0    0    0    0 -0.00000000000E+00 -0.00000000000E+00 -0.45593999997E+02  0.45594000000E+02  0.51100000000E-03 0. -1.
    9900012    2    1    2    0    0  0.11554837383E+01  0.13857633356E+00  0.19663631766E+00  0.90007740744E+02  0.90000002122E+02 0.  0.
        -12    1    1    2    0    0 -0.11554837383E+01 -0.13857633356E+00 -0.19663631766E+00  0.11802592559E+01  0.00000000000E+00 0.  1.
         11    1    3    3    0    0  0.35711166723E+02 -0.73716542857E+01 -0.20199509808E+02  0.41685116198E+02  0.51100000000E-03 0. -1.
        -11    1    3    3    0    0 -0.54597187376E+00  0.78802229891E+01 -0.12637601126E+01  0.79995680838E+01  0.51100000000E-03 0.  1.
        -12    1    3    3    0    0 -0.34009711111E+02 -0.36999236986E+00  0.21659906239E+02  0.40323056463E+02  0.00000000000E+00 0.  1.
</event>
<event>
 7    1  0.3752192E-015  0.9000766E+02  0.7816164E-02  0.1186339E+00
        -11   -1    0    0    0    0  0.00000000000E+00  0.00000000000E+00  0.45593999997E+02  0.45594000000E+02  0.51100000000E-03 0.  1.
         11   -1    0    0    0    0 -0.00000000000E+00 -0.00000000000E+00 -0.45593999997E+02  0.45594000000E+02  0.51100000000E-03 0. -1.
    9900012    2    1    2    0    0 -0.70128579996E+00  0.93306698855E+00 -0.17546668731E+00  0.90007659229E+02  0.89999919530E+02 0.  0.
        -12    1    1    2    0    0  0.70128579996E+00 -0.93306698855E+00  0.17546668731E+00  0.11803407714E+01  0.00000000000E+00 0.  1.
         11    1    3    3    0    0 -0.47736820977E+01  0.78289267791E+01 -0.15147689411E+01  0.92937968823E+01  0.51100000000E-03 0. -1.
        -11    1    3    3    0    0  0.41651260567E+02 -0.11197107069E+01 -0.56783219895E+01  0.42051451816E+02  0.51100000000E-03 0.  1.
         12    1    3    3    0    0 -0.37578864270E+02 -0.57761490837E+01  0.70176242432E+01  0.38662410531E+02  0.00000000000E+00 0. -1.
</event>
<event>
 7    1  0.3752192E-015  0.9000794E+02  0.7816164E-02  0.1186339E+00
        -11   -1    0    0    0    0  0.00000000000E+00  0.00000000000E+00  0.45593999997E+02  0.45594000000E+02  0.51100000000E-03 0.  1.
         11   -1    0    0    0    0 -0.00000000000E+00 -0.00000000000E+00 -0.45593999997E+02  0.45594000000E+02  0.51100000000E-03 0. -1.
    9900012    2    1    2    0    0  0.86774585586E-01  0.28944155707E+00 -0.11407181204E+01  0.90007938953E+02  0.90000202947E+02 0.  0.
        -12    1    1    2    0    0 -0.86774585586E-01 -0.28944155707E+00  0.11407181204E+01  0.11800610467E+01  0.00000000000E+00 0.  1.
         11    1    3    3    0    0  0.81791159550E+00  0.25897313580E+02 -0.27747541743E+02  0.37964007995E+02  0.51100000000E-03 0. -1.
        -11    1    3    3    0    0  0.76267688088E+01  0.58405549028E+01 -0.60503022476E+00  0.96252660155E+01  0.51100000000E-03 0.  1.
        -12    1    3    3    0    0 -0.83579058187E+01 -0.31448426925E+02  0.27211853847E+02  0.42418664943E+02  0.00000000000E+00 0.  1.
</event>
<event>
 7    1  0.3752192E-015  0.9000774E+02  0.7816164E-02  0.1186339E+00
        -11   -1    0    0    0    0  0.00000000000E+00  0.00000000000E+00  0.45593999997E+02  0.45594000000E+02  0.51100000000E-03 0.  1.
         11   -1    0    0    0    0 -0.00000000000E+00 -0.00000000000E+00 -0.45593999997E+02  0.45594000000E+02  0.51100000000E-03 0. -1.
    9900012    2    1    2    0    0  0.28926739279E+00 -0.10029784508E+01 -0.55078361293E+00  0.90007744102E+02  0.90000005524E+02 0.  0.
        -12    1    1    2    0    0 -0.28926739279E+00  0.10029784508E+01  0.55078361293E+00  0.11802558984E+01  0.00000000000E+00 0.  1.
         11    1    3    3    0    0 -0.11027763247E+02  0.25114124781E+02 -0.19791664398E+02  0.33823672267E+02  0.51100000000E-03 0. -1.
        -11    1    3    3    0    0 -0.13833608159E+02  0.16745475871E+01 -0.25010460547E+00  0.13936835253E+02  0.51100000000E-03 0.  1.
        -12    1    3    3    0    0  0.25150638798E+02 -0.27791650819E+02  0.19490985391E+02  0.42247236581E+02  0.00000000000E+00 0.  1.
</event>
<event>
 7    1  0.3752192E-015  0.9000765E+02  0.7816164E-02  0.1186339E+00
        -11   -1    0    0    0    0  0.00000000000E+00  0.00000000000E+00  0.45593999997E+02  0.45594000000E+02  0.51100000000E-03 0. -1.
         11   -1    0    0    0    0 -0.00000000000E+00 -0.00000000000E+00 -0.45593999997E+02  0.45594000000E+02  0.51100000000E-03 0.  1.
    9900012    2    1    2    0    0 -0.21731547506E+00 -0.10764184674E+01  0.43280741742E+00  0.90007650478E+02  0.89999910665E+02 0.  0.
        -12    1    1    2    0    0  0.21731547506E+00  0.10764184674E+01 -0.43280741742E+00  0.11803495216E+01  0.00000000000E+00 0.  1.
         11    1    3    3    0    0 -0.91519352642E+01  0.14323917167E+02  0.33252172005E+02  0.37344872009E+02  0.51100000000E-03 0. -1.
        -11    1    3    3    0    0 -0.17934970129E+01 -0.70335383622E+01  0.73029180371E+01  0.10296596794E+02  0.51100000000E-03 0.  1.
        -12    1    3    3    0    0  0.10728116802E+02 -0.83667972719E+01 -0.40122282625E+02  0.42366181675E+02  0.00000000000E+00 0.  1.
</event>
<event>
 7    1  0.3752192E-015  0.9000755E+02  0.7816164E-02  0.1186339E+00
        -11   -1    0    0    0    0  0.00000000000E+00  0.00000000000E+00  0.45593999997E+02  0.45594000000E+02  0.51100000000E-03 0.  1.
         11   -1    0    0    0    0 -0.00000000000E+00 -0.00000000000E+00 -0.45593999997E+02  0.45594000000E+02  0.51100000000E-03 0. -1.
    9900012    2    1    2    0    0  0.55077840413E+00  0.22920760681E+00 -0.10186145484E+01  0.90007547301E+02  0.89999806125E+02 0.  0.
        -12    1    1    2    0    0 -0.55077840413E+00 -0.22920760681E+00  0.10186145484E+01  0.11804526994E+01  0.00000000000E+00 0.  1.
         11    1    3    3    0    0 -0.10449090106E+02 -0.13230094265E+02  0.52395750752E+01  0.17654235343E+02  0.51100000000E-03 0. -1.
        -11    1    3    3    0    0 -0.25215608109E+02 -0.77147005385E+01 -0.13749196142E+02  0.29738592628E+02  0.51100000000E-03 0.  1.
         12    1    3    3    0    0  0.36215476620E+02  0.21174002410E+02  0.74910065181E+01  0.42614719329E+02  0.00000000000E+00 0. -1.
</event>
<event>
 7    1  0.3752192E-015  0.9000780E+02  0.7816164E-02  0.1186339E+00
        -11   -1    0    0    0    0  0.00000000000E+00  0.00000000000E+00  0.45593999997E+02  0.45594000000E+02  0.51100000000E-03 0.  1.
         11   -1    0    0    0    0 -0.00000000000E+00 -0.00000000000E+00 -0.45593999997E+02  0.45594000000E+02  0.51100000000E-03 0. -1.
    9900012    2    1    2    0    0  0.14474521532E+00  0.11640926499E+01 -0.12969071990E+00  0.90007795544E+02  0.90000057645E+02 0.  0.
        -12    1    1    2    0    0 -0.14474521532E+00 -0.11640926499E+01  0.12969071990E+00  0.11802044559E+01  0.00000000000E+00 0.  1.
         11    1    3    3    0    0 -0.29884034822E+02 -0.16600157074E+02 -0.21166878045E+02  0.40207679348E+02  0.51100000000E-03 0. -1.
        -11    1    3    3    0    0 -0.40396648725E+01 -0.51168121071E-01  0.84169860011E+01  0.93363356872E+01  0.51100000000E-03 0.  1.
        -12    1    3    3    0    0  0.34068444910E+02  0.17815417845E+02  0.12620201324E+02  0.40463780509E+02  0.00000000000E+00 0.  1.
</event>
<event>
 7    1  0.3752192E-015  0.9000742E+02  0.7816164E-02  0.1186340E+00
        -11   -1    0    0    0    0  0.00000000000E+00  0.00000000000E+00  0.45593999997E+02  0.45594000000E+02  0.51100000000E-03 0. -1.
         11   -1    0    0    0    0 -0.00000000000E+00 -0.00000000000E+00 -0.45593999997E+02  0.45594000000E+02  0.51100000000E-03 0.  1.
    9900012    2    1    2    0    0 -0.10955073965E+01  0.15736105790E+00  0.41094728183E+00  0.90007416828E+02  0.89999673929E+02 0.  0.
        -12    1    1    2    0    0  0.10955073965E+01 -0.15736105790E+00 -0.41094728183E+00  0.11805831723E+01  0.00000000000E+00 0.  1.
         11    1    3    3    0    0 -0.18593859486E+02  0.31373252928E+02 -0.67292703439E+01  0.37084979297E+02  0.51100000000E-03 0. -1.
        -11    1    3    3    0    0 -0.21349179353E+01  0.42362017249E+01  0.11230262211E+02  0.12191065140E+02  0.51100000000E-03 0.  1.
        -12    1    3    3    0    0  0.19633270024E+02 -0.35452093595E+02 -0.40900445854E+01  0.40731372391E+02  0.00000000000E+00 0.  1.
</event>
<event>
 7    1  0.3752192E-015  0.9000766E+02  0.7816164E-02  0.1186339E+00
        -11   -1    0    0    0    0  0.00000000000E+00  0.00000000000E+00  0.45593999997E+02  0.45594000000E+02  0.51100000000E-03 0. -1.
         11   -1    0    0    0    0 -0.00000000000E+00 -0.00000000000E+00 -0.45593999997E+02  0.45594000000E+02  0.51100000000E-03 0.  1.
    9900012    2    1    2    0    0  0.66165005343E-02  0.32291971005E+00  0.11352853483E+01  0.90007663718E+02  0.89999924079E+02 0.  0.
        -12    1    1    2    0    0 -0.66165005343E-02 -0.32291971005E+00 -0.11352853483E+01  0.11803362823E+01  0.00000000000E+00 0.  1.
         11    1    3    3    0    0  0.17629109769E+02 -0.26149041164E+02  0.19487369285E+02  0.37071760505E+02  0.51100000000E-03 0. -1.
        -11    1    3    3    0    0 -0.84020695235E+01 -0.31729755220E+01  0.81416283043E+01  0.12122238145E+02  0.51100000000E-03 0.  1.
        -12    1    3    3    0    0 -0.92204237449E+01  0.29644936396E+02 -0.26493712241E+02  0.40813665068E+02  0.00000000000E+00 0.  1.
</event>
<event>
 7    1  0.3752192E-015  0.9000778E+02  0.7816164E-02  0.1186339E+00
        -11   -1    0    0    0    0  0.00000000000E+00  0.00000000000E+00  0.45593999997E+02  0.45594000000E+02  0.51100000000E-03 0.  1.
         11   -1    0    0    0    0 -0.00000000000E+00 -0.00000000000E+00 -0.45593999997E+02  0.45594000000E+02  0.51100000000E-03 0. -1.
    9900012    2    1    2    0    0 -0.11162695147E+00 -0.12716716884E+00 -0.11680261699E+01  0.90007780868E+02  0.90000042776E+02 0.  0.
        -12    1    1    2    0    0  0.11162695147E+00  0.12716716884E+00  0.11680261699E+01  0.11802191317E+01  0.00000000000E+00 0.  1.
         11    1    3    3    0    0  0.30634407419E+02  0.20185015055E+02  0.18847831082E+02  0.41244908625E+02  0.51100000000E-03 0. -1.
        -11    1    3    3    0    0 -0.73331686173E+01 -0.11125586300E+01  0.54458872990E+01  0.92016757936E+01  0.51100000000E-03 0.  1.
        -12    1    3    3    0    0 -0.23412865753E+02 -0.19199623594E+02 -0.25461744551E+02  0.39561196450E+02  0.00000000000E+00 0.  1.
</event>
<event>
 7    1  0.3752192E-015  0.9000762E+02  0.7816164E-02  0.1186339E+00
        -11   -1    0    0    0    0  0.00000000000E+00  0.00000000000E+00  0.45593999997E+02  0.45594000000E+02  0.51100000000E-03 0. -1.
         11   -1    0    0    0    0 -0.00000000000E+00 -0.00000000000E+00 -0.45593999997E+02  0.45594000000E+02  0.51100000000E-03 0.  1.
    9900012    2    1    2    0    0 -0.82070174513E+00 -0.79395246230E+00  0.29898822291E+00  0.90007616239E+02  0.89999875973E+02 0.  0.
        -12    1    1    2    0    0  0.82070174513E+00  0.79395246230E+00 -0.29898822291E+00  0.11803837615E+01  0.00000000000E+00 0.  1.
         11    1    3    3    0    0  0.42352195038E+01  0.29866885579E+01  0.61267905522E+01  0.80246467535E+01  0.51100000000E-03 0. -1.
        -11    1    3    3    0    0 -0.41210748667E+02  0.22046996278E+01  0.93529150684E+01  0.42316232425E+02  0.51100000000E-03 0.  1.
         12    1    3    3    0    0  0.36154827418E+02 -0.59853406480E+01 -0.15180717398E+02  0.39666737060E+02  0.00000000000E+00 0. -1.
</event>
<event>
 7    1  0.3752192E-015  0.9000727E+02  0.7816164E-02  0.1186340E+00
        -11   -1    0    0    0    0  0.00000000000E+00  0.00000000000E+00  0.45593999997E+02  0.45594000000E+02  0.51100000000E-03 0. -1.
         11   -1    0    0    0    0 -0.00000000000E+00 -0.00000000000E+00 -0.45593999997E+02  0.45594000000E+02  0.51100000000E-03 0.  1.
    9900012    2    1    2    0    0  0.18891567807E+00 -0.93198178761E+00  0.69988238669E+00  0.90007273723E+02  0.89999528935E+02 0.  0.
        -12    1    1    2    0    0 -0.18891567807E+00  0.93198178761E+00 -0.69988238669E+00  0.11807262769E+01  0.00000000000E+00 0.  1.
         11    1    3    3    0    0  0.26883311397E+01 -0.78681683349E+01 -0.69259987920E+01  0.10821490507E+02  0.51100000000E-03 0. -1.
        -11    1    3    3    0    0  0.37626923866E+02  0.31697980885E+01 -0.17723738541E+01  0.37801776795E+02  0.51100000000E-03 0.  1.
         12    1    3    3    0    0 -0.40126339327E+02  0.37663884588E+01  0.93982550328E+01  0.41384006421E+02  0.00000000000E+00 0. -1.
</event>
<event>
 7    1  0.3752192E-015  0.9000777E+02  0.7816164E-02  0.1186339E+00
        -11   -1    0    0    0    0  0.00000000000E+00  0.00000000000E+00  0.45593999997E+02  0.45594000000E+02  0.51100000000E-03 0. -1.
         11   -1    0    0    0    0 -0.00000000000E+00 -0.00000000000E+00 -0.45593999997E+02  0.45594000000E+02  0.51100000000E-03 0.  1.
    9900012    2    1    2    0    0  0.79294893435E+00  0.72946870180E+00  0.48170504569E+00  0.90007774449E+02  0.90000036272E+02 0.  0.
        -12    1    1    2    0    0 -0.79294893435E+00 -0.72946870180E+00 -0.48170504569E+00  0.11802255507E+01  0.00000000000E+00 0.  1.
         11    1    3    3    0    0  0.20375730399E+01 -0.80917257447E+01 -0.48663664544E+01  0.96596714307E+01  0.51100000000E-03 0. -1.
        -11    1    3    3    0    0 -0.28124887694E+02  0.11363203436E+02 -0.25302482852E+02  0.39501232118E+02  0.51100000000E-03 0.  1.
         12    1    3    3    0    0  0.26880263589E+02 -0.25420089896E+01  0.30650554352E+02  0.40846870900E+02  0.00000000000E+00 0. -1.
</event>
<event>
 7    1  0.3752192E-015  0.9000764E+02  0.7816164E-02  0.1186339E+00
        -11   -1    0    0    0    0  0.00000000000E+00  0.00000000000E+00  0.45593999997E+02  0.45594000000E+02  0.51100000000E-03 0. -1.
         11   -1    0    0    0    0 -0.00000000000E+00 -0.00000000000E+00 -0.45593999997E+02  0.45594000000E+02  0.51100000000E-03 0.  1.
    9900012    2    1    2    0    0 -0.14566487428E+00  0.50130672672E+00  0.10586437343E+01  0.90007638510E+02  0.89999898539E+02 0.  0.
        -12    1    1    2    0    0  0.14566487428E+00 -0.50130672672E+00 -0.10586437343E+01  0.11803614896E+01  0.00000000000E+00 0.  1.
         11    1    3    3    0    0 -0.41808650820E+01  0.35616765498E+02 -0.36537494227E+01  0.36046962459E+02  0.51100000000E-03 0. -1.
        -11    1    3    3    0    0  0.77037871821E+01  0.53721761729E+01 -0.69311861768E+01  0.11672615639E+02  0.51100000000E-03 0.  1.
        -12    1    3    3    0    0 -0.36685869745E+01 -0.40487634944E+02  0.11643579334E+02  0.42288060413E+02  0.00000000000E+00 0.  1.
</event>
<event>
 7    1  0.3752192E-015  0.9000776E+02  0.7816164E-02  0.1186339E+00
        -11   -1    0    0    0    0  0.00000000000E+00  0.00000000000E+00  0.45593999997E+02  0.45594000000E+02  0.51100000000E-03 0. -1.
         11   -1    0    0    0    0 -0.00000000000E+00 -0.00000000000E+00 -0.45593999997E+02  0.45594000000E+02  0.51100000000E-03 0.  1.
    9900012    2    1    2    0    0  0.94871112468E+00  0.64647038916E+00  0.27383321568E+00  0.90007762146E+02  0.90000023806E+02 0.  0.
        -12    1    1    2    0    0 -0.94871112468E+00 -0.64647038916E+00 -0.27383321568E+00  0.11802378541E+01  0.00000000000E+00 0.  1.
         11    1    3    3    0    0 -0.95359604660E+01  0.48295955388E+01  0.22775370435E+01  0.10929167870E+02  0.51100000000E-03 0. -1.
        -11    1    3    3    0    0 -0.31478639592E+02  0.11736364511E+02  0.38571278573E+01  0.33816038178E+02  0.51100000000E-03 0.  1.
         12    1    3    3    0    0  0.41963311183E+02 -0.15919489660E+02 -0.58608316851E+01  0.45262556098E+02  0.00000000000E+00 0. -1.
</event>
<event>
 7    1  0.3752192E-015  0.9000775E+02  0.7816164E-02  0.1186339E+00
        -11   -1    0    0    0    0  0.00000000000E+00  0.00000000000E+00  0.45593999997E+02  0.45594000000E+02  0.51100000000E-03 0.  1.
         11   -1    0    0    0    0 -0.00000000000E+00 -0.00000000000E+00 -0.45593999997E+02  0.45594000000E+02  0.51100000000E-03 0. -1.
    9900012    2    1    2    0    0  0.73513401763E+00 -0.36822656934E+00 -0.84674833376E+00  0.90007747666E+02  0.90000009136E+02 0.  0.
        -12    1    1    2    0    0 -0.73513401763E+00  0.36822656934E+00  0.84674833376E+00  0.11802523336E+01  0.00000000000E+00 0.  1.
         11    1    3    3    0    0 -0.33809274049E+02  0.20196426460E+01 -0.15684994661E+02  0.37325125934E+02  0.51100000000E-03 0. -1.
        -11    1    3    3    0    0 -0.48836775581E+01 -0.62225035592E+01 -0.39469535569E+01  0.88401526953E+01  0.51100000000E-03 0.  1.
        -12    1    3    3    0    0  0.39428085625E+02  0.38346343439E+01  0.18785199884E+02  0.43842469038E+02  0.00000000000E+00 0.  1.
</event>
<event>
 7    1  0.3752192E-015  0.9000768E+02  0.7816164E-02  0.1186339E+00
        -11   -1    0    0    0    0  0.00000000000E+00  0.00000000000E+00  0.45593999997E+02  0.45594000000E+02  0.51100000000E-03 0.  1.
         11   -1    0    0    0    0 -0.00000000000E+00 -0.00000000000E+00 -0.45593999997E+02  0.45594000000E+02  0.51100000000E-03 0. -1.
    9900012    2    1    2    0    0 -0.72064967101E+00 -0.93425296302E+00 -0.31343958759E-01  0.90007683521E+02  0.89999944143E+02 0.  0.
        -12    1    1    2    0    0  0.72064967101E+00  0.93425296302E+00  0.31343958759E-01  0.11803164792E+01  0.00000000000E+00 0.  1.
         11    1    3    3    0    0  0.30609485018E+01  0.26007659931E+00  0.95859395963E+01  0.10066145428E+02  0.51100000000E-03 0. -1.
        -11    1    3    3    0    0  0.17052926644E+02 -0.28251298372E+02  0.16552809110E+02  0.36917931368E+02  0.51100000000E-03 0.  1.
         12    1    3    3    0    0 -0.20834524817E+02  0.27056968809E+02 -0.26170092665E+02  0.43023606725E+02  0.00000000000E+00 0. -1.
</event>
<event>
 7    1  0.3752192E-015  0.9000784E+02  0.7816164E-02  0.1186339E+00
        -11   -1    0    0    0    0  0.00000000000E+00  0.00000000000E+00  0.45593999997E+02  0.45594000000E+02  0.51100000000E-03 0.  1.
         11   -1    0    0    0    0 -0.00000000000E+00 -0.00000000000E+00 -0.45593999997E+02  0.45594000000E+02  0.51100000000E-03 0. -1.
    9900012    2    1    2    0    0  0.40960399747E+00  0.43833355815E+00 -0.10163022746E+01  0.90007838123E+02  0.90000100786E+02 0.  0.
        -12    1    1    2    0    0 -0.40960399747E+00 -0.43833355815E+00  0.10163022746E+01  0.11801618772E+01  0.00000000000E+00 0.  1.
         11    1    3    3    0    0 -0.33418956772E+02 -0.18254090172E+02 -0.11152781230E+02  0.39678999599E+02  0.51100000000E-03 0. -1.
        -11    1    3    3    0    0  0.51083138644E+01 -0.37422728825E+01 -0.75215426913E+01  0.98322470261E+01  0.51100000000E-03 0.  1.
        -12    1    3    3    0    0  0.28720246905E+02  0.22434696613E+02  0.17658021647E+02  0.40496591497E+02  0.00000000000E+00 0.  1.
</event>
<event>
 7    1  0.3752192E-015  0.9000773E+02  0.7816164E-02  0.1186339E+00
        -11   -1    0    0    0    0  0.00000000000E+00  0.00000000000E+00  0.45593999997E+02  0.45594000000E+02  0.51100000000E-03 0.  1.
         11   -1    0    0    0    0 -0.00000000000E+00 -0.00000000000E+00 -0.45593999997E+02  0.45594000000E+02  0.51100000000E-03 0. -1.
    9900012    2    1    2    0    0  0.98306324944E+00 -0.50758102315E+00  0.41107013063E+00  0.90007732869E+02  0.89999994143E+02 0.  0.
        -12    1    1    2    0    0 -0.98306324944E+00  0.50758102315E+00 -0.41107013063E+00  0.11802671307E+01  0.00000000000E+00 0.  1.
         11    1    3    3    0    0 -0.70780741094E+01  0.63474429754E+01  0.58140586403E+01  0.11144166347E+02  0.51100000000E-03 0. -1.
        -11    1    3    3    0    0  0.13732866777E+02 -0.35760670114E+02  0.16946380755E+02  0.41887909686E+02  0.51100000000E-03 0.  1.
         12    1    3    3    0    0 -0.56717294179E+01  0.28905646116E+02 -0.22349369265E+02  0.36975656836E+02  0.00000000000E+00 0. -1.
</event>
<event>
 7    1  0.3752192E-015  0.9000775E+02  0.7816164E-02  0.1186339E+00
        -11   -1    0    0    0    0  0.00000000000E+00  0.00000000000E+00  0.45593999997E+02  0.45594000000E+02  0.51100000000E-03 0. -1.
         11   -1    0    0    0    0 -0.00000000000E+00 -0.00000000000E+00 -0.45593999997E+02  0.45594000000E+02  0.51100000000E-03 0.  1.
    9900012    2    1    2    0    0 -0.43645708824E-01  0.44319405032E-01  0.11786078298E+01  0.90007751902E+02  0.90000013427E+02 0.  0.
        -12    1    1    2    0    0  0.43645708824E-01 -0.44319405032E-01 -0.11786078298E+01  0.11802480985E+01  0.00000000000E+00 0.  1.
         11    1    3    3    0    0 -0.46634197913E+01  0.19403707514E+01 -0.56899085883E+01  0.76083889758E+01  0.51100000000E-03 0. -1.
        -11    1    3    3    0    0 -0.23445410170E+02  0.13525853091E+02 -0.25270157706E+02  0.37029945053E+02  0.51100000000E-03 0.  1.
         12    1    3    3    0    0  0.28065184253E+02 -0.15421904437E+02  0.32138674124E+02  0.45369417872E+02  0.00000000000E+00 0. -1.
</event>
<event>
 7    1  0.3752192E-015  0.9000759E+02  0.7816164E-02  0.1186339E+00
        -11   -1    0    0    0    0  0.00000000000E+00  0.00000000000E+00  0.45593999997E+02  0.45594000000E+02  0.51100000000E-03 0.  1.
         11   -1    0    0    0    0 -0.00000000000E+00 -0.00000000000E+00 -0.45593999997E+02  0.45594000000E+02  0.51100000000E-03 0. -1.
    9900012    2    1    2    0    0  0.20184441129E+00 -0.31628064879E+00  0.11191969303E+01  0.90007586350E+02  0.89999845690E+02 0.  0.
        -12    1    1    2    0    0 -0.20184441129E+00  0.31628064879E+00 -0.11191969303E+01  0.11804136495E+01  0.00000000000E+00 0.  1.
         11    1    3    3    0    0 -0.34315867955E+02 -0.17620018391E+02  0.71051815142E+01  0.39224067180E+02  0.51100000000E-03 0. -1.
        -11    1    3    3    0    0 -0.58401872026E+01  0.53741937902E+01  0.13913976583E+01  0.80576505981E+01  0.51100000000E-03 0.  1.
        -12    1    3    3    0    0  0.40357899569E+02  0.11929543952E+02 -0.73773822422E+01  0.42725868572E+02  0.00000000000E+00 0.  1.
</event>
<event>
 7    1  0.3752192E-015  0.9000777E+02  0.7816164E-02  0.1186339E+00
        -11   -1    0    0    0    0  0.00000000000E+00  0.00000000000E+00  0.45593999997E+02  0.45594000000E+02  0.51100000000E-03 0. -1.
         11   -1    0    0    0    0 -0.00000000000E+00 -0.00000000000E+00 -0.45593999997E+02  0.45594000000E+02  0.51100000000E-03 0.  1.
    9900012    2    1    2    0    0  0.99262043191E-01  0.56996390422E+00  0.10287057807E+01  0.90007768078E+02  0.90000029817E+02 0.  0.
        -12    1    1    2    0    0 -0.99262043191E-01 -0.56996390422E+00 -0.10287057807E+01  0.11802319216E+01  0.00000000000E+00 0.  1.
         11    1    3    3    0    0  0.59740816716E+01 -0.46042637722E+01  0.34813239223E+01  0.83071362825E+01  0.51100000000E-03 0. -1.
        -11    1    3    3    0    0  0.28722151603E+02 -0.49872337103E+01 -0.25645923225E+02  0.38827153786E+02  0.51100000000E-03 0.  1.
         12    1    3    3    0    0 -0.34596971232E+02  0.10161461387E+02  0.23193305084E+02  0.42873478010E+02  0.00000000000E+00 0. -1.
</event>
<event>
 7    1  0.3752192E-015  0.9000783E+02  0.7816164E-02  0.1186339E+00
        -11   -1    0    0    0    0  0.00000000000E+00  0.00000000000E+00  0.45593999997E+02  0.45594000000E+02  0.51100000000E-03 0.  1.
         11   -1    0    0    0    0 -0.00000000000E+00 -0.00000000000E+00 -0.45593999997E+02  0.45594000000E+02  0.51100000000E-03 0. -1.
    9900012    2    1    2    0    0  0.10045468576E+01 -0.16777679355E+00 -0.59627457091E+00  0.90007827637E+02  0.90000090162E+02 0.  0.
        -12    1    1    2    0    0 -0.10045468576E+01  0.16777679355E+00  0.59627457091E+00  0.11801723626E+01  0.00000000000E+00 0.  1.
         11    1    3    3    0    0  0.11417661754E+02 -0.29756918835E+02 -0.15152303060E+02  0.35290643331E+02  0.51100000000E-03 0. -1.
        -11    1    3    3    0    0  0.41778153043E+01 -0.90691962051E+01 -0.20350720098E+01  0.10190484722E+02  0.51100000000E-03 0.  1.
        -12    1    3    3    0    0 -0.14590930201E+02  0.38658338246E+02  0.16591100498E+02  0.44526699584E+02  0.00000000000E+00 0.  1.
</event>
<event>
 7    1  0.3752192E-015  0.9000764E+02  0.7816164E-02  0.1186339E+00
        -11   -1    0    0    0    0  0.00000000000E+00  0.00000000000E+00  0.45593999997E+02  0.45594000000E+02  0.51100000000E-03 0.  1.
         11   -1    0    0    0    0 -0.00000000000E+00 -0.00000000000E+00 -0.45593999997E+02  0.45594000000E+02  0.51100000000E-03 0. -1.
    9900012    2    1    2    0    0 -0.11180817892E+01 -0.32669522164E+00 -0.19083309255E+00  0.90007638223E+02  0.89999898248E+02 0.  0.
        -12    1    1    2    0    0  0.11180817892E+01  0.32669522164E+00  0.19083309255E+00  0.11803617769E+01  0.00000000000E+00 0.  1.
         11    1    3    3    0    0 -0.87811692530E+01  0.28778559566E+02 -0.25444090981E+02  0.39404519921E+02  0.51100000000E-03 0. -1.
        -11    1    3    3    0    0 -0.62807720616E+01 -0.28920128213E+01 -0.47525596160E+01  0.83903908737E+01  0.51100000000E-03 0.  1.
        -12    1    3    3    0    0  0.13943859525E+02 -0.26213241966E+02  0.30005817504E+02  0.42212727428E+02  0.00000000000E+00 0.  1.
</event>
<event>
 7    1  0.3752192E-015  0.9000783E+02  0.7816164E-02  0.1186339E+00
        -11   -1    0    0    0    0  0.00000000000E+00  0.00000000000E+00  0.45593999997E+02  0.45594000000E+02  0.51100000000E-03 0.  1.
         11   -1    0    0    0    0 -0.00000000000E+00 -0.00000000000E+00 -0.45593999997E+02  0.45594000000E+02  0.51100000000E-03 0. -1.
    9900012    2    1    2    0    0 -0.77803906264E+00 -0.74158811706E+00  0.48734710485E+00  0.90007828437E+02  0.90000090972E+02 0.  0.
        -12    1    1    2    0    0  0.77803906264E+00  0.74158811706E+00 -0.48734710485E+00  0.11801715634E+01  0.00000000000E+00 0.  1.
         11    1    3    3    0    0  0.63415687714E+01 -0.54452095825E+01  0.45035731427E+01  0.94946286495E+01  0.51100000000E-03 0. -1.
        -11    1    3    3    0    0  0.75383094267E+00 -0.37228164441E+02 -0.64012653424E+01  0.37782015390E+02  0.51100000000E-03 0.  1.
         12    1    3    3    0    0 -0.78734387767E+01  0.41931785906E+02  0.23850393046E+01  0.42731184397E+02  0.00000000000E+00 0. -1.
</event>
<event>
 7    1  0.3752192E-015  0.9000784E+02  0.7816164E-02  0.1186339E+00
        -11   -1    0    0    0    0  0.00000000000E+00  0.00000000000E+00  0.45593999997E+02  0.45594000000E+02  0.51100000000E-03 0. -1.
         11   -1    0    0    0    0 -0.00000000000E+00 -0.00000000000E+00 -0.45593999997E+02  0.45594000000E+02  0.51100000000E-03 0.  1.
    9900012    2    1    2    0    0  0.13741623541E+00 -0.99496457740E+00 -0.61962056913E+00  0.90007844340E+02  0.90000107085E+02 0.  0.
        -12    1    1    2    0    0 -0.13741623541E+00  0.99496457740E+00  0.61962056913E+00  0.11801556600E+01  0.00000000000E+00 0.  1.
         11    1    3    3    0    0  0.26767419062E+02  0.19823669683E+02 -0.98295456663E+01  0.34728843505E+02  0.51100000000E-03 0. -1.
        -11    1    3    3    0    0  0.40922878782E+01  0.87030261050E+01 -0.43649939032E+01  0.10561375644E+02  0.51100000000E-03 0.  1.
        -12    1    3    3    0    0 -0.30722290705E+02 -0.29521660365E+02  0.13574919000E+02  0.44717625191E+02  0.00000000000E+00 0.  1.
</event>
<event>
 7    1  0.3752192E-015  0.9000754E+02  0.7816164E-02  0.1186339E+00
        -11   -1    0    0    0    0  0.00000000000E+00  0.00000000000E+00  0.45593999997E+02  0.45594000000E+02  0.51100000000E-03 0.  1.
         11   -1    0    0    0    0 -0.00000000000E+00 -0.00000000000E+00 -0.45593999997E+02  0.45594000000E+02  0.51100000000E-03 0. -1.
    9900012    2    1    2    0    0 -0.89112210300E-01 -0.11770412269E+01 -0.11016815668E-01  0.90007538901E+02  0.89999797614E+02 0.  0.
        -12    1    1    2    0    0  0.89112210300E-01  0.11770412269E+01  0.11016815668E-01  0.11804610989E+01  0.00000000000E+00 0.  1.
         11    1    3    3    0    0 -0.51992387225E+01 -0.49533363353E+01  0.45091250133E+01  0.84793769106E+01  0.51100000000E-03 0. -1.
        -11    1    3    3    0    0 -0.23207510020E+02 -0.44740727114E+01  0.28650261437E+02  0.37140857941E+02  0.51100000000E-03 0.  1.
         12    1    3    3    0    0  0.28317636533E+02  0.82503678198E+01 -0.33170403266E+02  0.44387304049E+02  0.00000000000E+00 0. -1.
</event>
<event>
 7    1  0.3752192E-015  0.9000774E+02  0.7816164E-02  0.1186339E+00
        -11   -1    0    0    0    0  0.00000000000E+00  0.00000000000E+00  0.45593999997E+02  0.45594000000E+02  0.51100000000E-03 0.  1.
         11   -1    0    0    0    0 -0.00000000000E+00 -0.00000000000E+00 -0.45593999997E+02  0.45594000000E+02  0.51100000000E-03 0. -1.
    9900012    2    1    2    0    0 -0.10418307250E+01  0.50417005536E+00 -0.23112574180E+00  0.90007738244E+02  0.89999999589E+02 0.  0.
        -12    1    1    2    0    0  0.10418307250E+01 -0.50417005536E+00  0.23112574180E+00  0.11802617560E+01  0.00000000000E+00 0.  1.
         11    1    3    3    0    0 -0.13642608828E+02 -0.15054556884E+02  0.50054641505E+00  0.20322672206E+02  0.51100000000E-03 0. -1.
        -11    1    3    3    0    0 -0.45209553130E+01 -0.14085430709E+02  0.23482382713E+02  0.27753570821E+02  0.51100000000E-03 0.  1.
         12    1    3    3    0    0  0.17121733417E+02  0.29644157649E+02 -0.24214054869E+02  0.41931495217E+02  0.00000000000E+00 0. -1.
</event>
<event>
 7    1  0.3752192E-015  0.9000769E+02  0.7816164E-02  0.1186339E+00
        -11   -1    0    0    0    0  0.00000000000E+00  0.00000000000E+00  0.45593999997E+02  0.45594000000E+02  0.51100000000E-03 0.  1.
         11   -1    0    0    0    0 -0.00000000000E+00 -0.00000000000E+00 -0.45593999997E+02  0.45594000000E+02  0.51100000000E-03 0. -1.
    9900012    2    1    2    0    0 -0.87874165740E+00 -0.11220669916E+00 -0.77997508529E+00  0.90007687170E+02  0.89999947840E+02 0.  0.
        -12    1    1    2    0    0  0.87874165740E+00  0.11220669916E+00  0.77997508529E+00  0.11803128303E+01  0.00000000000E+00 0.  1.
         11    1    3    3    0    0  0.26579154428E+02  0.14670600836E+02 -0.31490918567E+02  0.43741924186E+02  0.51100000000E-03 0. -1.
        -11    1    3    3    0    0 -0.59640555605E+01  0.30024428199E+01  0.52154413185E+01  0.84726294634E+01  0.51100000000E-03 0.  1.
        -12    1    3    3    0    0 -0.21493840525E+02 -0.17785250355E+02  0.25495502164E+02  0.37793133520E+02  0.00000000000E+00 0.  1.
</event>
<event>
 7    1  0.3752192E-015  0.9000773E+02  0.7816164E-02  0.1186339E+00
        -11   -1    0    0    0    0  0.00000000000E+00  0.00000000000E+00  0.45593999997E+02  0.45594000000E+02  0.51100000000E-03 0.  1.
         11   -1    0    0    0    0 -0.00000000000E+00 -0.00000000000E+00 -0.45593999997E+02  0.45594000000E+02  0.51100000000E-03 0. -1.
    9900012    2    1    2    0    0  0.10976093654E+01  0.42576887746E+00 -0.83798168677E-01  0.90007725630E+02  0.89999986808E+02 0.  0.
        -12    1    1    2    0    0 -0.10976093654E+01 -0.42576887746E+00  0.83798168677E-01  0.11802743702E+01  0.00000000000E+00 0.  1.
         11    1    3    3    0    0  0.75088751285E+01  0.11002230351E+02 -0.40770976207E+02  0.42891779859E+02  0.51100000000E-03 0. -1.
        -11    1    3    3    0    0 -0.99825104382E+01 -0.20497064069E+01  0.74672936131E+01  0.12633775571E+02  0.51100000000E-03 0.  1.
        -12    1    3    3    0    0  0.35712446751E+01 -0.85267550670E+01  0.33219884425E+02  0.34482170200E+02  0.00000000000E+00 0.  1.
</event>
<event>
 7    1  0.3752192E-015  0.9000770E+02  0.7816164E-02  0.1186339E+00
        -11   -1    0    0    0    0  0.00000000000E+00  0.00000000000E+00  0.45593999997E+02  0.45594000000E+02  0.51100000000E-03 0.  1.
         11   -1    0    0    0    0 -0.00000000000E+00 -0.00000000000E+00 -0.45593999997E+02  0.45594000000E+02  0.51100000000E-03 0. -1.
    9900012    2    1    2    0    0  0.92233150051E+00  0.44021552130E+00  0.59044849670E+00  0.90007697272E+02  0.89999958076E+02 0.  0.
        -12    1    1    2    0    0 -0.92233150051E+00 -0.44021552130E+00 -0.59044849670E+00  0.11803027278E+01  0.00000000000E+00 0.  1.
         11    1    3    3    0    0 -0.37718874492E+01 -0.90506444778E+01  0.12623055959E+01  0.98860869950E+01  0.51100000000E-03 0. -1.
        -11    1    3    3    0    0 -0.18279281773E+02  0.27911906277E+02  0.24490588937E+02  0.41388351029E+02  0.51100000000E-03 0.  1.
         12    1    3    3    0    0  0.22973500723E+02 -0.18421046278E+02 -0.25162446036E+02  0.38733259248E+02  0.00000000000E+00 0. -1.
</event>
<event>
 7    1  0.3752192E-015  0.9000750E+02  0.7816164E-02  0.1186340E+00
        -11   -1    0    0    0    0  0.00000000000E+00  0.00000000000E+00  0.45593999997E+02  0.45594000000E+02  0.51100000000E-03 0. -1.
         11   -1    0    0    0    0 -0.00000000000E+00 -0.00000000000E+00 -0.45593999997E+02  0.45594000000E+02  0.51100000000E-03 0.  1.
    9900012    2    1    2    0    0  0.16372372402E+00 -0.85932037248E+00  0.79267973022E+00  0.90007500904E+02  0.89999759116E+02 0.  0.
        -12    1    1    2    0    0 -0.16372372402E+00  0.85932037248E+00 -0.79267973022E+00  0.11804990957E+01  0.00000000000E+00 0.  1.
         11    1    3    3    0    0 -0.95057423892E+01 -0.50409931006E+00  0.14574776867E+02  0.17407968735E+02  0.51100000000E-03 0. -1.
        -11    1    3    3    0    0 -0.65613117963E+01 -0.32486684133E+02  0.21945749691E+01  0.33215231716E+02  0.51100000000E-03 0.  1.
         12    1    3    3    0    0  0.16230777909E+02  0.32131463070E+02 -0.15976672106E+02  0.39384300453E+02  0.00000000000E+00 0. -1.
</event>
<event>
 7    1  0.3752192E-015  0.9000778E+02  0.7816164E-02  0.1186339E+00
        -11   -1    0    0    0    0  0.00000000000E+00  0.00000000000E+00  0.45593999997E+02  0.45594000000E+02  0.51100000000E-03 0.  1.
         11   -1    0    0    0    0 -0.00000000000E+00 -0.00000000000E+00 -0.45593999997E+02  0.45594000000E+02  0.51100000000E-03 0. -1.
    9900012    2    1    2    0    0 -0.10264740589E+01 -0.40350345776E-01 -0.58107267714E+00  0.90007778580E+02  0.90000040457E+02 0.  0.
        -12    1    1    2    0    0  0.10264740589E+01  0.40350345776E-01  0.58107267714E+00  0.11802214199E+01  0.00000000000E+00 0.  1.
         11    1    3    3    0    0 -0.78095620582E+01 -0.51565145151E+01 -0.30145884380E+01  0.98319197107E+01  0.51100000000E-03 0. -1.
        -11    1    3    3    0    0 -0.27879194809E+02  0.25673242542E+02 -0.75816641851E+01  0.38650310709E+02  0.51100000000E-03 0.  1.
         12    1    3    3    0    0  0.34662282808E+02 -0.20557078372E+02  0.10015179946E+02  0.41525548161E+02  0.00000000000E+00 0. -1.
</event>
<event>
 7    1  0.3752192E-015  0.9000774E+02  0.7816164E-02  0.1186339E+00
        -11   -1    0    0    0    0  0.00000000000E+00  0.00000000000E+00  0.45593999997E+02  0.45594000000E+02  0.51100000000E-03 0.  1.
         11   -1    0    0    0    0 -0.00000000000E+00 -0.00000000000E+00 -0.45593999997E+02  0.45594000000E+02  0.51100000000E-03 0. -1.
    9900012    2    1    2    0    0 -0.64105564650E+00  0.73925865127E+00 -0.65997059861E+00  0.90007738636E+02  0.89999999986E+02 0.  0.
        -12    1    1    2    0    0  0.64105564650E+00 -0.73925865127E+00  0.65997059861E+00  0.11802613636E+01  0.00000000000E+00 0.  1.
         11    1    3    3    0    0  0.43597031460E+01  0.69168839804E+01  0.24813186416E+01  0.85444273057E+01  0.51100000000E-03 0. -1.
        -11    1    3    3    0    0  0.36907102726E+02 -0.12591603811E+02 -0.83778671383E+00  0.39004930522E+02  0.51100000000E-03 0.  1.
         12    1    3    3    0    0 -0.41907861519E+02  0.64139784816E+01 -0.23035025264E+01  0.42458380809E+02  0.00000000000E+00 0. -1.
</event>
<event>
 7    1  0.3752192E-015  0.9000777E+02  0.7816164E-02  0.1186339E+00
        -11   -1    0    0    0    0  0.00000000000E+00  0.00000000000E+00  0.45593999997E+02  0.45594000000E+02  0.51100000000E-03 0. -1.
         11   -1    0    0    0    0 -0.00000000000E+00 -0.00000000000E+00 -0.45593999997E+02  0.45594000000E+02  0.51100000000E-03 0.  1.
    9900012    2    1    2    0    0 -0.37844943080E-02  0.11654438555E+01 -0.18619215033E+00  0.90007770692E+02  0.90000032465E+02 0.  0.
        -12    1    1    2    0    0  0.37844943080E-02 -0.11654438555E+01  0.18619215033E+00  0.11802293081E+01  0.00000000000E+00 0.  1.
         11    1    3    3    0    0 -0.47741872624E+00 -0.10226400948E+02  0.11783812907E+01  0.10305134046E+02  0.51100000000E-03 0. -1.
        -11    1    3    3    0    0 -0.29812776904E+01 -0.69818916601E+01 -0.37904654779E+02  0.38657440189E+02  0.51100000000E-03 0.  1.
         12    1    3    3    0    0  0.34549119223E+01  0.18373736463E+02  0.36540081338E+02  0.41045196457E+02  0.00000000000E+00 0. -1.
</event>
<event>
 7    1  0.3761341E-015  0.9000774E+02  0.7816164E-02  0.1186339E+00
        -11   -1    0    0    0    0  0.00000000000E+00  0.00000000000E+00  0.45593999997E+02  0.45594000000E+02  0.51100000000E-03 0. -1.
         11   -1    0    0    0    0 -0.00000000000E+00 -0.00000000000E+00 -0.45593999997E+02  0.45594000000E+02  0.51100000000E-03 0.  1.
    9900012    2    1    2    0    0  0.67115662750E+00 -0.22317949152E+00  0.94485531612E+00  0.90007740760E+02  0.90000002139E+02 0.  0.
        -12    1    1    2    0    0 -0.67115662750E+00  0.22317949152E+00 -0.94485531612E+00  0.11802592395E+01  0.00000000000E+00 0.  1.
         11    1    3    3    0    0 -0.39839707097E+02  0.86897933999E+01 -0.94478161882E+01  0.41856612403E+02  0.51100000000E-03 0. -1.
        -11    1    3    3    0    0  0.50638163818E+01  0.53248674098E+01  0.63979698935E+01  0.97432267910E+01  0.51100000000E-03 0.  1.
        -12    1    3    3    0    0  0.35447047343E+02 -0.14237840301E+02  0.39947016108E+01  0.38407901566E+02  0.00000000000E+00 0.  1.
</event>
<event>
 7    1  0.3752192E-015  0.9000771E+02  0.7816164E-02  0.1186339E+00
        -11   -1    0    0    0    0  0.00000000000E+00  0.00000000000E+00  0.45593999997E+02  0.45594000000E+02  0.51100000000E-03 0.  1.
         11   -1    0    0    0    0 -0.00000000000E+00 -0.00000000000E+00 -0.45593999997E+02  0.45594000000E+02  0.51100000000E-03 0. -1.
    9900012    2    1    2    0    0 -0.93752541404E+00  0.22197460409E+00 -0.68181252081E+00  0.90007705570E+02  0.89999966484E+02 0.  0.
        -12    1    1    2    0    0  0.93752541404E+00 -0.22197460409E+00  0.68181252081E+00  0.11802944295E+01  0.00000000000E+00 0.  1.
         11    1    3    3    0    0  0.15261867896E+01  0.75888914721E+01 -0.26412169149E+01  0.81790309294E+01  0.51100000000E-03 0. -1.
        -11    1    3    3    0    0 -0.36074519499E+02  0.10034109732E+02 -0.15022761957E+02  0.40345231345E+02  0.51100000000E-03 0.  1.
         12    1    3    3    0    0  0.33610807295E+02 -0.17401026600E+02  0.16982166351E+02  0.41483443296E+02  0.00000000000E+00 0. -1.
</event>
<event>
 7    1  0.3752192E-015  0.9000776E+02  0.7816164E-02  0.1186339E+00
        -11   -1    0    0    0    0  0.00000000000E+00  0.00000000000E+00  0.45593999997E+02  0.45594000000E+02  0.51100000000E-03 0. -1.
         11   -1    0    0    0    0 -0.00000000000E+00 -0.00000000000E+00 -0.45593999997E+02  0.45594000000E+02  0.51100000000E-03 0.  1.
    9900012    2    1    2    0    0  0.16201698963E+00 -0.11606648192E+01 -0.13987377235E+00  0.90007764007E+02  0.90000025692E+02 0.  0.
        -12    1    1    2    0    0 -0.16201698963E+00  0.11606648192E+01  0.13987377235E+00  0.11802359932E+01  0.00000000000E+00 0.  1.
         11    1    3    3    0    0  0.63568332570E+01 -0.85298181439E+01  0.52340609827E+01  0.11855906598E+02  0.51100000000E-03 0. -1.
        -11    1    3    3    0    0  0.32666851468E+02  0.15397699501E+02  0.65793410677E+01  0.36708310556E+02  0.51100000000E-03 0.  1.
         12    1    3    3    0    0 -0.38861667735E+02 -0.80285461762E+01 -0.11953275823E+02  0.41443546853E+02  0.00000000000E+00 0. -1.
</event>
<event>
 7    1  0.3752192E-015  0.9000772E+02  0.7816164E-02  0.1186339E+00
        -11   -1    0    0    0    0  0.00000000000E+00  0.00000000000E+00  0.45593999997E+02  0.45594000000E+02  0.51100000000E-03 0. -1.
         11   -1    0    0    0    0 -0.00000000000E+00 -0.00000000000E+00 -0.45593999997E+02  0.45594000000E+02  0.51100000000E-03 0.  1.
    9900012    2    1    2    0    0 -0.94244038735E+00  0.35421032108E+00  0.61595274219E+00  0.90007721806E+02  0.89999982934E+02 0.  0.
        -12    1    1    2    0    0  0.94244038735E+00 -0.35421032108E+00 -0.61595274219E+00  0.11802781943E+01  0.00000000000E+00 0.  1.
         11    1    3    3    0    0  0.52032644823E+01 -0.33359264239E+01  0.84147971534E+01  0.10440841813E+02  0.51100000000E-03 0. -1.
        -11    1    3    3    0    0  0.24676839122E+02  0.40369014898E+01  0.24438646488E+02  0.34964130264E+02  0.51100000000E-03 0.  1.
         12    1    3    3    0    0 -0.30822543991E+02 -0.34676474488E+00 -0.32237490899E+02  0.44602749729E+02  0.00000000000E+00 0. -1.
</event>
<event>
 7    1  0.3752192E-015  0.9000773E+02  0.7816164E-02  0.1186339E+00
        -11   -1    0    0    0    0  0.00000000000E+00  0.00000000000E+00  0.45593999997E+02  0.45594000000E+02  0.51100000000E-03 0.  1.
         11   -1    0    0    0    0 -0.00000000000E+00 -0.00000000000E+00 -0.45593999997E+02  0.45594000000E+02  0.51100000000E-03 0. -1.
    9900012    2    1    2    0    0  0.31499347445E+00 -0.99864832908E+00  0.54452927972E+00  0.90007732441E+02  0.89999993709E+02 0.  0.
        -12    1    1    2    0    0 -0.31499347445E+00  0.99864832908E+00 -0.54452927972E+00  0.11802675589E+01  0.00000000000E+00 0.  1.
         11    1    3    3    0    0  0.37174015820E+02 -0.13485656793E+02 -0.19437830948E+02  0.44063586594E+02  0.51100000000E-03 0. -1.
        -11    1    3    3    0    0 -0.90786723192E+01  0.30672421641E+01 -0.13447840375E+01  0.96767096650E+01  0.51100000000E-03 0.  1.
        -12    1    3    3    0    0 -0.27780350026E+02  0.94197662993E+01  0.21327144266E+02  0.36267436182E+02  0.00000000000E+00 0.  1.
</event>
<event>
 7    1  0.3752192E-015  0.9000766E+02  0.7816164E-02  0.1186339E+00
        -11   -1    0    0    0    0  0.00000000000E+00  0.00000000000E+00  0.45593999997E+02  0.45594000000E+02  0.51100000000E-03 0. -1.
         11   -1    0    0    0    0 -0.00000000000E+00 -0.00000000000E+00 -0.45593999997E+02  0.45594000000E+02  0.51100000000E-03 0.  1.
    9900012    2    1    2    0    0 -0.43991148060E-01 -0.10632000620E+01  0.51074647037E+00  0.90007664645E+02  0.89999925018E+02 0.  0.
        -12    1    1    2    0    0  0.43991148060E-01  0.10632000620E+01 -0.51074647037E+00  0.11803353548E+01  0.00000000000E+00 0.  1.
         11    1    3    3    0    0 -0.51942760180E+01 -0.86320817028E+01 -0.94839747206E+00  0.10118932548E+02  0.51100000000E-03 0. -1.
        -11    1    3    3    0    0 -0.23606352347E+02  0.28618162335E+02 -0.15763294375E+02  0.40308070363E+02  0.51100000000E-03 0.  1.
         12    1    3    3    0    0  0.28756637217E+02 -0.21049280694E+02  0.17222438318E+02  0.39580661735E+02  0.00000000000E+00 0. -1.
</event>
<event>
 7    1  0.3752192E-015  0.9000790E+02  0.7816164E-02  0.1186339E+00
        -11   -1    0    0    0    0  0.00000000000E+00  0.00000000000E+00  0.45593999997E+02  0.45594000000E+02  0.51100000000E-03 0.  1.
         11   -1    0    0    0    0 -0.00000000000E+00 -0.00000000000E+00 -0.45593999997E+02  0.45594000000E+02  0.51100000000E-03 0. -1.
    9900012    2    1    2    0    0  0.52455856452E+00 -0.10387983199E+01  0.19590957334E+00  0.90007896531E+02  0.90000159965E+02 0.  0.
        -12    1    1    2    0    0 -0.52455856452E+00  0.10387983199E+01 -0.19590957334E+00  0.11801034692E+01  0.00000000000E+00 0.  1.
         11    1    3    3    0    0 -0.35748203342E+02  0.17626864869E+02 -0.91151599401E+01  0.40886752724E+02  0.51100000000E-03 0. -1.
        -11    1    3    3    0    0  0.47881515425E+01  0.59410627526E+01  0.45370362280E+01  0.88773486932E+01  0.51100000000E-03 0.  1.
        -12    1    3    3    0    0  0.31484610364E+02 -0.24606725942E+02  0.47740332854E+01  0.40243795114E+02  0.00000000000E+00 0.  1.
</event>
<event>
 7    1  0.3752192E-015  0.9000784E+02  0.7816164E-02  0.1186339E+00
        -11   -1    0    0    0    0  0.00000000000E+00  0.00000000000E+00  0.45593999997E+02  0.45594000000E+02  0.51100000000E-03 0.  1.
         11   -1    0    0    0    0 -0.00000000000E+00 -0.00000000000E+00 -0.45593999997E+02  0.45594000000E+02  0.51100000000E-03 0. -1.
    9900012    2    1    2    0    0 -0.44119524109E+00  0.24880202908E+00 -0.10659374818E+01  0.90007839670E+02  0.90000102353E+02 0.  0.
        -12    1    1    2    0    0  0.44119524109E+00 -0.24880202908E+00  0.10659374818E+01  0.11801603305E+01  0.00000000000E+00 0.  1.
         11    1    3    3    0    0  0.45460181557E+01 -0.34908944697E+02 -0.92757656961E+01  0.36405226691E+02  0.51100000000E-03 0. -1.
        -11    1    3    3    0    0 -0.69020875888E+01 -0.65831279280E+01 -0.35776351637E+01  0.10187043733E+02  0.51100000000E-03 0.  1.
        -12    1    3    3    0    0  0.19148741920E+01  0.41740874654E+02  0.11787463378E+02  0.43415569245E+02  0.00000000000E+00 0.  1.
</event>
<event>
 7    1  0.3752192E-015  0.9000777E+02  0.7816164E-02  0.1186339E+00
        -11   -1    0    0    0    0  0.00000000000E+00  0.00000000000E+00  0.45593999997E+02  0.45594000000E+02  0.51100000000E-03 0.  1.
         11   -1    0    0    0    0 -0.00000000000E+00 -0.00000000000E+00 -0.45593999997E+02  0.45594000000E+02  0.51100000000E-03 0. -1.
    9900012    2    1    2    0    0 -0.82911638825E+00 -0.45421587136E+00  0.70654284141E+00  0.90007767468E+02  0.90000029198E+02 0.  0.
        -12    1    1    2    0    0  0.82911638825E+00  0.45421587136E+00 -0.70654284141E+00  0.11802325321E+01  0.00000000000E+00 0.  1.
         11    1    3    3    0    0 -0.70929974821E+01  0.11097187212E+01  0.58497784111E+01  0.92607773238E+01  0.51100000000E-03 0. -1.
        -11    1    3    3    0    0 -0.32050308959E+02  0.16512978438E+02  0.68901775325E+01  0.36706611229E+02  0.51100000000E-03 0.  1.
         12    1    3    3    0    0  0.38314190052E+02 -0.18076913031E+02 -0.12033413102E+02  0.44040378915E+02  0.00000000000E+00 0. -1.
</event>
<event>
 7    1  0.3752192E-015  0.9000773E+02  0.7816164E-02  0.1186339E+00
        -11   -1    0    0    0    0  0.00000000000E+00  0.00000000000E+00  0.45593999997E+02  0.45594000000E+02  0.51100000000E-03 0.  1.
         11   -1    0    0    0    0 -0.00000000000E+00 -0.00000000000E+00 -0.45593999997E+02  0.45594000000E+02  0.51100000000E-03 0. -1.
    9900012    2    1    2    0    0  0.65718659653E+00 -0.86649149519E-01  0.97654685192E+00  0.90007726281E+02  0.89999987468E+02 0.  0.
        -12    1    1    2    0    0 -0.65718659653E+00  0.86649149519E-01 -0.97654685192E+00  0.11802737190E+01  0.00000000000E+00 0.  1.
         11    1    3    3    0    0  0.11899664385E+02 -0.23106315596E+02  0.28245199480E+02  0.38383526763E+02  0.51100000000E-03 0. -1.
        -11    1    3    3    0    0  0.11989101661E+01 -0.91576383552E+01 -0.72191407584E+01  0.11722445111E+02  0.51100000000E-03 0.  1.
        -12    1    3    3    0    0 -0.12441387954E+02  0.32177304802E+02 -0.20049511869E+02  0.39901754407E+02  0.00000000000E+00 0.  1.
</event>
<event>
 7    1  0.3752192E-015  0.9000776E+02  0.7816164E-02  0.1186339E+00
        -11   -1    0    0    0    0  0.00000000000E+00  0.00000000000E+00  0.45593999997E+02  0.45594000000E+02  0.51100000000E-03 0. -1.
         11   -1    0    0    0    0 -0.00000000000E+00 -0.00000000000E+00 -0.45593999997E+02  0.45594000000E+02  0.51100000000E-03 0.  1.
    9900012    2    1    2    0    0 -0.95163186211E+00  0.65694887209E+00  0.23618387452E+00  0.90007759413E+02  0.90000021037E+02 0.  0.
        -12    1    1    2    0    0  0.95163186211E+00 -0.65694887209E+00 -0.23618387452E+00  0.11802405874E+01  0.00000000000E+00 0.  1.
         11    1    3    3    0    0 -0.82617208615E+01  0.57562032563E+01  0.35221127346E+00  0.10075413667E+02  0.51100000000E-03 0. -1.
        -11    1    3    3    0    0  0.76935795572E+01  0.26137131693E+02 -0.27264844732E+02  0.38544942315E+02  0.51100000000E-03 0.  1.
         12    1    3    3    0    0 -0.38349055780E+00 -0.31236386077E+02  0.27148817333E+02  0.41387403431E+02  0.00000000000E+00 0. -1.
</event>
<event>
 7    1  0.3752192E-015  0.9000780E+02  0.7816164E-02  0.1186339E+00
        -11   -1    0    0    0    0  0.00000000000E+00  0.00000000000E+00  0.45593999997E+02  0.45594000000E+02  0.51100000000E-03 0.  1.
         11   -1    0    0    0    0 -0.00000000000E+00 -0.00000000000E+00 -0.45593999997E+02  0.45594000000E+02  0.51100000000E-03 0. -1.
    9900012    2    1    2    0    0  0.59115394480E+00  0.51620122184E+00 -0.88144676121E+00  0.90007798712E+02  0.90000060855E+02 0.  0.
        -12    1    1    2    0    0 -0.59115394480E+00 -0.51620122184E+00  0.88144676121E+00  0.11802012882E+01  0.00000000000E+00 0.  1.
         11    1    3    3    0    0 -0.14633229632E+02 -0.27342241789E+02 -0.19449140192E+02  0.36605991996E+02  0.51100000000E-03 0. -1.
        -11    1    3    3    0    0  0.34513607721E+00 -0.18195227314E+01 -0.96530287170E+01  0.98290765361E+01  0.51100000000E-03 0.  1.
        -12    1    3    3    0    0  0.14879247500E+02  0.29677965742E+02  0.28220722148E+02  0.43572730180E+02  0.00000000000E+00 0.  1.
</event>
<event>
 7    1  0.3752192E-015  0.9000769E+02  0.7816164E-02  0.1186339E+00
        -11   -1    0    0    0    0  0.00000000000E+00  0.00000000000E+00  0.45593999997E+02  0.45594000000E+02  0.51100000000E-03 0. -1.
         11   -1    0    0    0    0 -0.00000000000E+00 -0.00000000000E+00 -0.45593999997E+02  0.45594000000E+02  0.51100000000E-03 0.  1.
    9900012    2    1    2    0    0 -0.93500587043E-01 -0.11765422846E+01 -0.12163244202E-01  0.90007685613E+02  0.89999946263E+02 0.  0.
        -12    1    1    2    0    0  0.93500587043E-01  0.11765422846E+01  0.12163244202E-01  0.11803143869E+01  0.00000000000E+00 0.  1.
         11    1    3    3    0    0  0.22377946876E+02 -0.27055444010E+02  0.12256038355E+02  0.37188439512E+02  0.51100000000E-03 0. -1.
        -11    1    3    3    0    0 -0.67335975222E+01 -0.19376463985E+01  0.11170195794E+02  0.13185942647E+02  0.51100000000E-03 0.  1.
        -12    1    3    3    0    0 -0.15737849940E+02  0.27816548124E+02 -0.23438397393E+02  0.39633303454E+02  0.00000000000E+00 0.  1.
</event>
<event>
 7    1  0.3752192E-015  0.9000769E+02  0.7816164E-02  0.1186339E+00
        -11   -1    0    0    0    0  0.00000000000E+00  0.00000000000E+00  0.45593999997E+02  0.45594000000E+02  0.51100000000E-03 0.  1.
         11   -1    0    0    0    0 -0.00000000000E+00 -0.00000000000E+00 -0.45593999997E+02  0.45594000000E+02  0.51100000000E-03 0. -1.
    9900012    2    1    2    0    0  0.66560051715E+00  0.23886427813E+00 -0.94501304877E+00  0.90007690780E+02  0.89999951499E+02 0.  0.
        -12    1    1    2    0    0 -0.66560051715E+00 -0.23886427813E+00  0.94501304877E+00  0.11803092197E+01  0.00000000000E+00 0.  1.
         11    1    3    3    0    0  0.75384499155E+01 -0.21014661112E+02 -0.26944600495E+02  0.34992223491E+02  0.51100000000E-03 0. -1.
        -11    1    3    3    0    0  0.35942524003E+01 -0.44977924005E+01 -0.87756311100E+01  0.10495736679E+02  0.51100000000E-03 0.  1.
        -12    1    3    3    0    0 -0.10467101799E+02  0.25751317790E+02  0.34775218556E+02  0.44519730610E+02  0.00000000000E+00 0.  1.
</event>
<event>
 7    1  0.3752192E-015  0.9000781E+02  0.7816164E-02  0.1186339E+00
        -11   -1    0    0    0    0  0.00000000000E+00  0.00000000000E+00  0.45593999997E+02  0.45594000000E+02  0.51100000000E-03 0.  1.
         11   -1    0    0    0    0 -0.00000000000E+00 -0.00000000000E+00 -0.45593999997E+02  0.45594000000E+02  0.51100000000E-03 0. -1.
    9900012    2    1    2    0    0 -0.36076755409E+00 -0.11226943512E+01  0.47555906367E-01  0.90007806203E+02  0.90000068445E+02 0.  0.
        -12    1    1    2    0    0  0.36076755409E+00  0.11226943512E+01 -0.47555906367E-01  0.11801937970E+01  0.00000000000E+00 0.  1.
         11    1    3    3    0    0  0.39131139528E+01  0.31394489845E+01 -0.77389727872E+01  0.92228141474E+01  0.51100000000E-03 0. -1.
        -11    1    3    3    0    0  0.35133554282E+02  0.39013568331E+01  0.17412964230E+02  0.39405564901E+02  0.51100000000E-03 0.  1.
         12    1    3    3    0    0 -0.39407435789E+02 -0.81635001688E+01 -0.96264355366E+01  0.41379427154E+02  0.00000000000E+00 0. -1.
</event>
<event>
 8    1  0.3752192E-015  0.9000777E+02  0.7816164E-02  0.1186339E+00
        -11   -1    0    0    0    0  0.00000000000E+00  0.00000000000E+00  0.45593999997E+02  0.45594000000E+02  0.51100000000E-03 0. -1.
         11   -1    0    0    0    0 -0.00000000000E+00 -0.00000000000E+00 -0.45593999997E+02  0.45594000000E+02  0.51100000000E-03 0.  1.
    9900012    2    1    2    0    0  0.77098392422E+00 -0.66952492364E+00 -0.59182366676E+00  0.90007773290E+02  0.90000035097E+02 0.  0.
         23    2    3    3    0    0  0.17793000565E+02  0.81301269285E+01  0.16677466952E+02  0.64212205421E+02  0.58841988308E+02 0.  0.
        -12    1    1    2    0    0 -0.77098392422E+00  0.66952492364E+00  0.59182366676E+00  0.11802267101E+01  0.00000000000E+00 0.  1.
         11    1    4    4    0    0 -0.17625796541E+02  0.66330408685E+01  0.21334208611E+02  0.28457237958E+02  0.51100000000E-03 0. -1.
        -11    1    4    4    0    0  0.35418797106E+02  0.14970860600E+01 -0.46567416593E+01  0.35754967462E+02  0.51100000000E-03 0.  1.
         12    1    3    3    0    0 -0.17022016640E+02 -0.87996518522E+01 -0.17269290619E+02  0.25795567869E+02  0.00000000000E+00 0. -1.
</event>
<event>
 7    1  0.3752192E-015  0.9000769E+02  0.7816164E-02  0.1186339E+00
        -11   -1    0    0    0    0  0.00000000000E+00  0.00000000000E+00  0.45593999997E+02  0.45594000000E+02  0.51100000000E-03 0.  1.
         11   -1    0    0    0    0 -0.00000000000E+00 -0.00000000000E+00 -0.45593999997E+02  0.45594000000E+02  0.51100000000E-03 0. -1.
    9900012    2    1    2    0    0 -0.11629035984E+01 -0.16396626245E+00  0.11785793904E+00  0.90007694866E+02  0.89999955639E+02 0.  0.
        -12    1    1    2    0    0  0.11629035984E+01  0.16396626245E+00 -0.11785793904E+00  0.11803051335E+01  0.00000000000E+00 0.  1.
         11    1    3    3    0    0  0.29087185124E+02  0.15810556027E+02 -0.18424658419E+02  0.37888072773E+02  0.51100000000E-03 0. -1.
        -11    1    3    3    0    0  0.73955791933E+01 -0.58033785729E+01  0.13302416695E+01  0.94943845311E+01  0.51100000000E-03 0.  1.
        -12    1    3    3    0    0 -0.37645667916E+02 -0.10171143716E+02  0.17212274688E+02  0.42625237563E+02  0.00000000000E+00 0.  1.
</event>
<event>
 7    1  0.3752192E-015  0.9000733E+02  0.7816164E-02  0.1186340E+00
        -11   -1    0    0    0    0  0.00000000000E+00  0.00000000000E+00  0.45593999997E+02  0.45594000000E+02  0.51100000000E-03 0.  1.
         11   -1    0    0    0    0 -0.00000000000E+00 -0.00000000000E+00 -0.45593999997E+02  0.45594000000E+02  0.51100000000E-03 0. -1.
    9900012    2    1    2    0    0 -0.42071529220E+00 -0.95066238102E+00 -0.55965246232E+00  0.90007334426E+02  0.89999590439E+02 0.  0.
        -12    1    1    2    0    0  0.42071529220E+00  0.95066238102E+00  0.55965246232E+00  0.11806655743E+01  0.00000000000E+00 0.  1.
         11    1    3    3    0    0  0.23607290381E+02  0.13596932739E+02  0.98746262152E+01  0.28977387429E+02  0.51100000000E-03 0. -1.
        -11    1    3    3    0    0  0.11693053617E+02  0.64427209954E+01 -0.14122951926E+02  0.19434349180E+02  0.51100000000E-03 0.  1.
        -12    1    3    3    0    0 -0.35721059290E+02 -0.20990316115E+02  0.36886732481E+01  0.41595597817E+02  0.00000000000E+00 0.  1.
</event>
<event>
 7    1  0.3752192E-015  0.9000772E+02  0.7816164E-02  0.1186339E+00
        -11   -1    0    0    0    0  0.00000000000E+00  0.00000000000E+00  0.45593999997E+02  0.45594000000E+02  0.51100000000E-03 0. -1.
         11   -1    0    0    0    0 -0.00000000000E+00 -0.00000000000E+00 -0.45593999997E+02  0.45594000000E+02  0.51100000000E-03 0.  1.
    9900012    2    1    2    0    0  0.92803064757E+00 -0.17754090883E+00 -0.70731827085E+00  0.90007720036E+02  0.89999981140E+02 0.  0.
        -12    1    1    2    0    0 -0.92803064757E+00  0.17754090883E+00  0.70731827085E+00  0.11802799640E+01  0.00000000000E+00 0.  1.
         11    1    3    3    0    0  0.32944115901E+02 -0.21992343952E+02  0.29926165470E+01  0.39723213856E+02  0.51100000000E-03 0. -1.
        -11    1    3    3    0    0 -0.44087663837E+01 -0.81370240733E+01 -0.22513517442E+01  0.95245454870E+01  0.51100000000E-03 0.  1.
        -12    1    3    3    0    0 -0.27607318870E+02  0.29951827116E+02 -0.14485830736E+01  0.40759960693E+02  0.00000000000E+00 0.  1.
</event>
<event>
 7    1  0.3752192E-015  0.9000770E+02  0.7816164E-02  0.1186339E+00
        -11   -1    0    0    0    0  0.00000000000E+00  0.00000000000E+00  0.45593999997E+02  0.45594000000E+02  0.51100000000E-03 0.  1.
         11   -1    0    0    0    0 -0.00000000000E+00 -0.00000000000E+00 -0.45593999997E+02  0.45594000000E+02  0.51100000000E-03 0. -1.
    9900012    2    1    2    0    0 -0.75083420078E+00 -0.23362250326E+00 -0.88021332047E+00  0.90007700478E+02  0.89999961325E+02 0.  0.
        -12    1    1    2    0    0  0.75083420078E+00  0.23362250326E+00  0.88021332047E+00  0.11802995216E+01  0.00000000000E+00 0.  1.
         11    1    3    3    0    0 -0.77918797798E+01  0.81939365834E+00  0.40115891843E+01  0.88021386330E+01  0.51100000000E-03 0. -1.
        -11    1    3    3    0    0  0.30264742484E+02  0.18716492066E+02  0.20895600271E+02  0.41266061405E+02  0.51100000000E-03 0.  1.
         12    1    3    3    0    0 -0.23223696905E+02 -0.19769508228E+02 -0.25787402776E+02  0.39939500441E+02  0.00000000000E+00 0. -1.
</event>
<event>
 7    1  0.3752192E-015  0.9000810E+02  0.7816164E-02  0.1186338E+00
        -11   -1    0    0    0    0  0.00000000000E+00  0.00000000000E+00  0.45593999997E+02  0.45594000000E+02  0.51100000000E-03 0.  1.
         11   -1    0    0    0    0 -0.00000000000E+00 -0.00000000000E+00 -0.45593999997E+02  0.45594000000E+02  0.51100000000E-03 0. -1.
    9900012    2    1    2    0    0 -0.65490598487E+00  0.27928102259E+00 -0.94088468236E+00  0.90008100121E+02  0.90000366242E+02 0.  0.
        -12    1    1    2    0    0  0.65490598487E+00 -0.27928102259E+00  0.94088468236E+00  0.11798998788E+01  0.00000000000E+00 0.  1.
         11    1    3    3    0    0 -0.23392963896E+01 -0.81502855600E+01  0.25765384746E+01  0.88621675159E+01  0.51100000000E-03 0. -1.
        -11    1    3    3    0    0 -0.22619685762E+02 -0.10704993229E+02  0.27609550889E+02  0.37263042878E+02  0.51100000000E-03 0.  1.
         12    1    3    3    0    0  0.24304076166E+02  0.19134559812E+02 -0.31126974046E+02  0.43882889727E+02  0.00000000000E+00 0. -1.
</event>
<event>
 7    1  0.3752192E-015  0.9000771E+02  0.7816164E-02  0.1186339E+00
        -11   -1    0    0    0    0  0.00000000000E+00  0.00000000000E+00  0.45593999997E+02  0.45594000000E+02  0.51100000000E-03 0. -1.
         11   -1    0    0    0    0 -0.00000000000E+00 -0.00000000000E+00 -0.45593999997E+02  0.45594000000E+02  0.51100000000E-03 0.  1.
    9900012    2    1    2    0    0 -0.92099654610E+00 -0.31713094656E+00  0.66654483515E+00  0.90007708217E+02  0.89999969166E+02 0.  0.
        -12    1    1    2    0    0  0.92099654610E+00  0.31713094656E+00 -0.66654483515E+00  0.11802917828E+01  0.00000000000E+00 0.  1.
         11    1    3    3    0    0 -0.10128343744E+01  0.48631354626E+01  0.35815198042E+02  0.36158046560E+02  0.51100000000E-03 0. -1.
        -11    1    3    3    0    0 -0.82074289860E+00  0.24634615472E+01  0.88292264217E+01  0.92031245328E+01  0.51100000000E-03 0.  1.
        -12    1    3    3    0    0  0.91258072686E+00 -0.76437279564E+01 -0.43977879628E+02  0.44646537125E+02  0.00000000000E+00 0.  1.
</event>
<event>
 7    1  0.3752192E-015  0.9000773E+02  0.7816164E-02  0.1186339E+00
        -11   -1    0    0    0    0  0.00000000000E+00  0.00000000000E+00  0.45593999997E+02  0.45594000000E+02  0.51100000000E-03 0.  1.
         11   -1    0    0    0    0 -0.00000000000E+00 -0.00000000000E+00 -0.45593999997E+02  0.45594000000E+02  0.51100000000E-03 0. -1.
    9900012    2    1    2    0    0 -0.46471023846E+00  0.76988551346E+00 -0.76443349273E+00  0.90007729745E+02  0.89999990978E+02 0.  0.
        -12    1    1    2    0    0  0.46471023846E+00 -0.76988551346E+00  0.76443349273E+00  0.11802702548E+01  0.00000000000E+00 0.  1.
         11    1    3    3    0    0 -0.25923015343E+02 -0.81714151274E+01 -0.28014097906E+02  0.39032863479E+02  0.51100000000E-03 0. -1.
        -11    1    3    3    0    0 -0.67256190830E+01 -0.45942918574E+01  0.57803637511E+01  0.99876961846E+01  0.51100000000E-03 0.  1.
        -12    1    3    3    0    0  0.32183924187E+02  0.13535592498E+02  0.21469300662E+02  0.40987170081E+02  0.00000000000E+00 0.  1.
</event>
<event>
 7    1  0.3752192E-015  0.9000789E+02  0.7816164E-02  0.1186339E+00
        -11   -1    0    0    0    0  0.00000000000E+00  0.00000000000E+00  0.45593999997E+02  0.45594000000E+02  0.51100000000E-03 0.  1.
         11   -1    0    0    0    0 -0.00000000000E+00 -0.00000000000E+00 -0.45593999997E+02  0.45594000000E+02  0.51100000000E-03 0. -1.
    9900012    2    1    2    0    0  0.53156325817E+00 -0.79387343539E+00 -0.69272082683E+00  0.90007891245E+02  0.90000154610E+02 0.  0.
        -12    1    1    2    0    0 -0.53156325817E+00  0.79387343539E+00  0.69272082683E+00  0.11801087546E+01  0.00000000000E+00 0.  1.
         11    1    3    3    0    0 -0.38996319390E+02 -0.33994610338E+01 -0.58962341475E+01  0.39585790869E+02  0.51100000000E-03 0. -1.
        -11    1    3    3    0    0  0.34891079899E+01 -0.38867392866E+01 -0.95962230964E+01  0.10925571602E+02  0.51100000000E-03 0.  1.
        -12    1    3    3    0    0  0.36038774658E+02  0.64923268850E+01  0.14799736417E+02  0.39496528775E+02  0.00000000000E+00 0.  1.
</event>
<event>
 7    1  0.3752192E-015  0.9000775E+02  0.7816164E-02  0.1186339E+00
        -11   -1    0    0    0    0  0.00000000000E+00  0.00000000000E+00  0.45593999997E+02  0.45594000000E+02  0.51100000000E-03 0.  1.
         11   -1    0    0    0    0 -0.00000000000E+00 -0.00000000000E+00 -0.45593999997E+02  0.45594000000E+02  0.51100000000E-03 0. -1.
    9900012    2    1    2    0    0 -0.53935273731E+00 -0.10000173910E+01 -0.31945514899E+00  0.90007750980E+02  0.90000012493E+02 0.  0.
        -12    1    1    2    0    0  0.53935273731E+00  0.10000173910E+01  0.31945514899E+00  0.11802490203E+01  0.00000000000E+00 0.  1.
         11    1    3    3    0    0  0.32977039306E+01  0.65736884108E+01  0.39759773052E+01  0.83604202244E+01  0.51100000000E-03 0. -1.
        -11    1    3    3    0    0 -0.26419091998E+01  0.35357447107E+02  0.91981157189E+01  0.36629688549E+02  0.51100000000E-03 0.  1.
         12    1    3    3    0    0 -0.11951474681E+01 -0.42931152909E+02 -0.13493548173E+02  0.45017642207E+02  0.00000000000E+00 0. -1.
</event>
<event>
 7    1  0.3752192E-015  0.9000768E+02  0.7816164E-02  0.1186339E+00
        -11   -1    0    0    0    0  0.00000000000E+00  0.00000000000E+00  0.45593999997E+02  0.45594000000E+02  0.51100000000E-03 0.  1.
         11   -1    0    0    0    0 -0.00000000000E+00 -0.00000000000E+00 -0.45593999997E+02  0.45594000000E+02  0.51100000000E-03 0. -1.
    9900012    2    1    2    0    0 -0.10032816636E+01  0.40949128583E+00 -0.46787226912E+00  0.90007677303E+02  0.89999937843E+02 0.  0.
        -12    1    1    2    0    0  0.10032816636E+01 -0.40949128583E+00  0.46787226912E+00  0.11803226973E+01  0.00000000000E+00 0.  1.
         11    1    3    3    0    0 -0.19210928281E+02  0.31525376172E+02  0.44427893208E+01  0.37183968123E+02  0.51100000000E-03 0. -1.
        -11    1    3    3    0    0 -0.96720857691E+01 -0.29995903718E+00  0.37444794793E+01  0.10375950336E+02  0.51100000000E-03 0.  1.
        -12    1    3    3    0    0  0.27879732387E+02 -0.30815925849E+02 -0.86551410693E+01  0.42447758843E+02  0.00000000000E+00 0.  1.
</event>
<event>
 7    1  0.3752192E-015  0.9000767E+02  0.7816164E-02  0.1186339E+00
        -11   -1    0    0    0    0  0.00000000000E+00  0.00000000000E+00  0.45593999997E+02  0.45594000000E+02  0.51100000000E-03 0.  1.
         11   -1    0    0    0    0 -0.00000000000E+00 -0.00000000000E+00 -0.45593999997E+02  0.45594000000E+02  0.51100000000E-03 0. -1.
    9900012    2    1    2    0    0 -0.57009403273E+00  0.74652245302E+00 -0.71476343913E+00  0.90007665406E+02  0.89999925790E+02 0.  0.
        -12    1    1    2    0    0  0.57009403273E+00 -0.74652245302E+00  0.71476343913E+00  0.11803345936E+01  0.00000000000E+00 0.  1.
         11    1    3    3    0    0 -0.21972698472E+01 -0.23903788411E+02 -0.36820241584E+01  0.24285312379E+02  0.51100000000E-03 0. -1.
        -11    1    3    3    0    0  0.24340914795E+02 -0.82025897257E+01  0.21182029141E+01  0.25773036202E+02  0.51100000000E-03 0.  1.
        -12    1    3    3    0    0 -0.22713738980E+02  0.32852900590E+02  0.84905780523E+00  0.39949316825E+02  0.00000000000E+00 0.  1.
</event>
<event>
 7    1  0.3752192E-015  0.9000777E+02  0.7816164E-02  0.1186339E+00
        -11   -1    0    0    0    0  0.00000000000E+00  0.00000000000E+00  0.45593999997E+02  0.45594000000E+02  0.51100000000E-03 0. -1.
         11   -1    0    0    0    0 -0.00000000000E+00 -0.00000000000E+00 -0.45593999997E+02  0.45594000000E+02  0.51100000000E-03 0.  1.
    9900012    2    1    2    0    0 -0.40367989879E+00 -0.10212920894E+01  0.43237074055E+00  0.90007771442E+02  0.90000033225E+02 0.  0.
        -12    1    1    2    0    0  0.40367989879E+00  0.10212920894E+01 -0.43237074055E+00  0.11802285583E+01  0.00000000000E+00 0.  1.
         11    1    3    3    0    0 -0.39127177075E+01 -0.16884662981E+02 -0.86725279654E+01  0.19380762251E+02  0.51100000000E-03 0. -1.
        -11    1    3    3    0    0 -0.30967873337E+02  0.12118479496E+02  0.13050262380E+02  0.35723606660E+02  0.51100000000E-03 0.  1.
         12    1    3    3    0    0  0.34476911146E+02  0.37448913957E+01 -0.39453636737E+01  0.34903402531E+02  0.00000000000E+00 0. -1.
</event>
<event>
 7    1  0.6160029E-015  0.9000760E+02  0.7816164E-02  0.1186339E+00
        -11   -1    0    0    0    0  0.00000000000E+00  0.00000000000E+00  0.45593999997E+02  0.45594000000E+02  0.51100000000E-03 0. -1.
         11   -1    0    0    0    0 -0.00000000000E+00 -0.00000000000E+00 -0.45593999997E+02  0.45594000000E+02  0.51100000000E-03 0.  1.
    9900012    2    1    2    0    0 -0.76286769058E+00  0.62447046778E+00  0.64916045010E+00  0.90007601860E+02  0.89999861405E+02 0.  0.
        -12    1    1    2    0    0  0.76286769058E+00 -0.62447046778E+00 -0.64916045010E+00  0.11803981398E+01  0.00000000000E+00 0.  1.
         11    1    3    3    0    0 -0.32046105255E+02 -0.14123108736E+02  0.19589264419E+02  0.40126728538E+02  0.51100000000E-03 0. -1.
        -11    1    3    3    0    0 -0.16170311635E+01 -0.55025099991E+01 -0.77856337254E+01  0.96699792576E+01  0.51100000000E-03 0.  1.
        -12    1    3    3    0    0  0.32900268728E+02  0.20250089203E+02 -0.11154470244E+02  0.40210894065E+02  0.00000000000E+00 0.  1.
</event>
<event>
 7    1  0.3752192E-015  0.9000772E+02  0.7816164E-02  0.1186339E+00
        -11   -1    0    0    0    0  0.00000000000E+00  0.00000000000E+00  0.45593999997E+02  0.45594000000E+02  0.51100000000E-03 0.  1.
         11   -1    0    0    0    0 -0.00000000000E+00 -0.00000000000E+00 -0.45593999997E+02  0.45594000000E+02  0.51100000000E-03 0. -1.
    9900012    2    1    2    0    0 -0.28091715782E+00  0.82271067269E+00  0.79830406988E+00  0.90007721775E+02  0.89999982902E+02 0.  0.
        -12    1    1    2    0    0  0.28091715782E+00 -0.82271067269E+00 -0.79830406988E+00  0.11802782250E+01  0.00000000000E+00 0.  1.
         11    1    3    3    0    0  0.30522473598E+01  0.65549402160E+01 -0.65742871107E+01  0.97726509431E+01  0.51100000000E-03 0. -1.
        -11    1    3    3    0    0 -0.20832944991E+02  0.31148387913E+02 -0.44482409488E+01  0.37736196343E+02  0.51100000000E-03 0.  1.
         12    1    3    3    0    0  0.17499780474E+02 -0.36880617457E+02  0.11820832129E+02  0.42498874489E+02  0.00000000000E+00 0. -1.
</event>
<event>
 7    1  0.3752192E-015  0.9000770E+02  0.7816164E-02  0.1186339E+00
        -11   -1    0    0    0    0  0.00000000000E+00  0.00000000000E+00  0.45593999997E+02  0.45594000000E+02  0.51100000000E-03 0.  1.
         11   -1    0    0    0    0 -0.00000000000E+00 -0.00000000000E+00 -0.45593999997E+02  0.45594000000E+02  0.51100000000E-03 0. -1.
    9900012    2    1    2    0    0  0.11285470502E+01  0.19200613623E+00 -0.28744238149E+00  0.90007700071E+02  0.89999960911E+02 0.  0.
        -12    1    1    2    0    0 -0.11285470502E+01 -0.19200613623E+00  0.28744238149E+00  0.11802999295E+01  0.00000000000E+00 0.  1.
         11    1    3    3    0    0 -0.33495210344E+02 -0.71251239245E+00 -0.13526803905E+02  0.36130474866E+02  0.51100000000E-03 0. -1.
        -11    1    3    3    0    0 -0.41315956710E+01  0.88242203353E+01 -0.42461935917E+01  0.10628598571E+02  0.51100000000E-03 0.  1.
        -12    1    3    3    0    0  0.38755353066E+02 -0.79197018066E+01  0.17485555115E+02  0.43248626633E+02  0.00000000000E+00 0.  1.
</event>
<event>
 7    1  0.3752192E-015  0.9000722E+02  0.7816164E-02  0.1186340E+00
        -11   -1    0    0    0    0  0.00000000000E+00  0.00000000000E+00  0.45593999997E+02  0.45594000000E+02  0.51100000000E-03 0. -1.
         11   -1    0    0    0    0 -0.00000000000E+00 -0.00000000000E+00 -0.45593999997E+02  0.45594000000E+02  0.51100000000E-03 0.  1.
    9900012    2    1    2    0    0  0.56040052519E-01  0.11429957906E+01  0.29097372084E+00  0.90007218237E+02  0.89999472717E+02 0.  0.
        -12    1    1    2    0    0 -0.56040052519E-01 -0.11429957906E+01 -0.29097372084E+00  0.11807817626E+01  0.00000000000E+00 0.  1.
         11    1    3    3    0    0 -0.34154019413E+02 -0.13442034661E+02  0.15371552932E+02  0.39792838272E+02  0.51100000000E-03 0. -1.
        -11    1    3    3    0    0 -0.28638505325E+01  0.22766827907E+01 -0.10213119820E+02  0.10848628536E+02  0.51100000000E-03 0.  1.
        -12    1    3    3    0    0  0.37073909998E+02  0.12308347661E+02 -0.48674593913E+01  0.39365751430E+02  0.00000000000E+00 0.  1.
</event>
<event>
 7    1  0.5780977E-015  0.9000778E+02  0.7816164E-02  0.1186339E+00
        -11   -1    0    0    0    0  0.00000000000E+00  0.00000000000E+00  0.45593999997E+02  0.45594000000E+02  0.51100000000E-03 0. -1.
         11   -1    0    0    0    0 -0.00000000000E+00 -0.00000000000E+00 -0.45593999997E+02  0.45594000000E+02  0.51100000000E-03 0.  1.
    9900012    2    1    2    0    0 -0.89092559574E+00  0.43332972033E+00  0.64139650290E+00  0.90007782843E+02  0.90000044777E+02 0.  0.
        -12    1    1    2    0    0  0.89092559574E+00 -0.43332972033E+00 -0.64139650290E+00  0.11802171570E+01  0.00000000000E+00 0.  1.
         11    1    3    3    0    0 -0.45230995279E+01  0.72201781056E+01  0.48393520956E+01  0.97984044712E+01  0.51100000000E-03 0. -1.
        -11    1    3    3    0    0 -0.28510111041E+02  0.11452019153E+02 -0.23345248923E+02  0.38587249471E+02  0.51100000000E-03 0.  1.
         12    1    3    3    0    0  0.32142284973E+02 -0.18238867538E+02  0.19147293330E+02  0.41622128901E+02  0.00000000000E+00 0. -1.
</event>
<event>
 7    1  0.3752192E-015  0.9000776E+02  0.7816164E-02  0.1186339E+00
        -11   -1    0    0    0    0  0.00000000000E+00  0.00000000000E+00  0.45593999997E+02  0.45594000000E+02  0.51100000000E-03 0.  1.
         11   -1    0    0    0    0 -0.00000000000E+00 -0.00000000000E+00 -0.45593999997E+02  0.45594000000E+02  0.51100000000E-03 0. -1.
    9900012    2    1    2    0    0 -0.17156378093E-01 -0.88618224776E-02 -0.11800770709E+01  0.90007764953E+02  0.90000026650E+02 0.  0.
        -12    1    1    2    0    0  0.17156378093E-01  0.88618224776E-02  0.11800770709E+01  0.11802350471E+01  0.00000000000E+00 0.  1.
         11    1    3    3    0    0  0.69418832880E+01  0.34634642748E+02 -0.13054941848E+02  0.37658727126E+02  0.51100000000E-03 0. -1.
        -11    1    3    3    0    0  0.40230714631E+01  0.55327278418E+01 -0.38257021541E+01  0.78378682434E+01  0.51100000000E-03 0.  1.
        -12    1    3    3    0    0 -0.10982111129E+02 -0.40176232412E+02  0.15700566931E+02  0.44511169583E+02  0.00000000000E+00 0.  1.
</event>
<event>
 7    1  0.3752192E-015  0.9000762E+02  0.7816164E-02  0.1186339E+00
        -11   -1    0    0    0    0  0.00000000000E+00  0.00000000000E+00  0.45593999997E+02  0.45594000000E+02  0.51100000000E-03 0. -1.
         11   -1    0    0    0    0 -0.00000000000E+00 -0.00000000000E+00 -0.45593999997E+02  0.45594000000E+02  0.51100000000E-03 0.  1.
    9900012    2    1    2    0    0  0.48508442059E-01 -0.90245821400E+00  0.75927831948E+00  0.90007624016E+02  0.89999883853E+02 0.  0.
        -12    1    1    2    0    0 -0.48508442059E-01  0.90245821400E+00 -0.75927831948E+00  0.11803759839E+01  0.00000000000E+00 0.  1.
         11    1    3    3    0    0  0.11018813446E+01  0.60922915144E+01 -0.75726799636E+01  0.97813925638E+01  0.51100000000E-03 0. -1.
        -11    1    3    3    0    0 -0.31622565034E+02 -0.23589845135E+02 -0.10289836884E+02  0.40771904005E+02  0.51100000000E-03 0.  1.
         12    1    3    3    0    0  0.30569192131E+02  0.16595095407E+02  0.18621795167E+02  0.39454327448E+02  0.00000000000E+00 0. -1.
</event>
<event>
 7    1  0.3752192E-015  0.9000775E+02  0.7816164E-02  0.1186339E+00
        -11   -1    0    0    0    0  0.00000000000E+00  0.00000000000E+00  0.45593999997E+02  0.45594000000E+02  0.51100000000E-03 0.  1.
         11   -1    0    0    0    0 -0.00000000000E+00 -0.00000000000E+00 -0.45593999997E+02  0.45594000000E+02  0.51100000000E-03 0. -1.
    9900012    2    1    2    0    0 -0.35421603330E+00 -0.10517639202E+01 -0.40164993499E+00  0.90007746208E+02  0.90000007658E+02 0.  0.
        -12    1    1    2    0    0  0.35421603330E+00  0.10517639202E+01  0.40164993499E+00  0.11802537915E+01  0.00000000000E+00 0.  1.
         11    1    3    3    0    0  0.61030444352E+01  0.24799016248E+01 -0.69176117811E+01  0.95525083859E+01  0.51100000000E-03 0. -1.
        -11    1    3    3    0    0 -0.16403169895E+02 -0.38839718297E+02 -0.38491838288E+01  0.42336791522E+02  0.51100000000E-03 0.  1.
         12    1    3    3    0    0  0.99459094262E+01  0.35308052752E+02  0.10365145675E+02  0.38118446300E+02  0.00000000000E+00 0. -1.
</event>
<event>
 7    1  0.3752192E-015  0.9000770E+02  0.7816164E-02  0.1186339E+00
        -11   -1    0    0    0    0  0.00000000000E+00  0.00000000000E+00  0.45593999997E+02  0.45594000000E+02  0.51100000000E-03 0.  1.
         11   -1    0    0    0    0 -0.00000000000E+00 -0.00000000000E+00 -0.45593999997E+02  0.45594000000E+02  0.51100000000E-03 0. -1.
    9900012    2    1    2    0    0  0.63358418999E+00 -0.34775643672E+00 -0.93313551246E+00  0.90007701161E+02  0.89999962016E+02 0.  0.
        -12    1    1    2    0    0 -0.63358418999E+00  0.34775643672E+00  0.93313551246E+00  0.11802988391E+01  0.00000000000E+00 0.  1.
         11    1    3    3    0    0 -0.69434369946E+01  0.82137358351E+00 -0.61270682558E+01  0.92966089266E+01  0.51100000000E-03 0. -1.
        -11    1    3    3    0    0  0.38197759194E+02 -0.18250452805E+02 -0.83028593689E+01  0.43140297970E+02  0.51100000000E-03 0.  1.
         12    1    3    3    0    0 -0.30620738009E+02  0.17081322785E+02  0.13496792112E+02  0.37570794264E+02  0.00000000000E+00 0. -1.
</event>
<event>
 7    1  0.3752192E-015  0.9000768E+02  0.7816164E-02  0.1186339E+00
        -11   -1    0    0    0    0  0.00000000000E+00  0.00000000000E+00  0.45593999997E+02  0.45594000000E+02  0.51100000000E-03 0.  1.
         11   -1    0    0    0    0 -0.00000000000E+00 -0.00000000000E+00 -0.45593999997E+02  0.45594000000E+02  0.51100000000E-03 0. -1.
    9900012    2    1    2    0    0 -0.79183651180E+00  0.85585792845E+00 -0.18347761787E+00  0.90007677209E+02  0.89999937748E+02 0.  0.
        -12    1    1    2    0    0  0.79183651180E+00 -0.85585792845E+00  0.18347761787E+00  0.11803227912E+01  0.00000000000E+00 0.  1.
         11    1    3    3    0    0 -0.11523186372E+02  0.35905459690E+02 -0.31161235304E+01  0.37837760053E+02  0.51100000000E-03 0. -1.
        -11    1    3    3    0    0 -0.17302563797E+01  0.71961927708E+01  0.33461887299E+01  0.81225585138E+01  0.51100000000E-03 0.  1.
        -12    1    3    3    0    0  0.12461606240E+02 -0.42245794532E+02 -0.41354281737E+00  0.44047358642E+02  0.00000000000E+00 0.  1.
</event>
<event>
 7    1  0.3752192E-015  0.9000779E+02  0.7816164E-02  0.1186339E+00
        -11   -1    0    0    0    0  0.00000000000E+00  0.00000000000E+00  0.45593999997E+02  0.45594000000E+02  0.51100000000E-03 0. -1.
         11   -1    0    0    0    0 -0.00000000000E+00 -0.00000000000E+00 -0.45593999997E+02  0.45594000000E+02  0.51100000000E-03 0.  1.
    9900012    2    1    2    0    0 -0.10537401789E+01 -0.14642991715E+00  0.51096645825E+00  0.90007789507E+02  0.90000051529E+02 0.  0.
        -12    1    1    2    0    0  0.10537401789E+01  0.14642991715E+00 -0.51096645825E+00  0.11802104925E+01  0.00000000000E+00 0.  1.
         11    1    3    3    0    0 -0.17695979003E+02 -0.26862230224E+01  0.30361304084E+02  0.35244464146E+02  0.51100000000E-03 0. -1.
        -11    1    3    3    0    0 -0.41479954739E+01  0.75498772946E+00  0.94048917992E+01  0.10306690203E+02  0.51100000000E-03 0.  1.
        -12    1    3    3    0    0  0.20790234298E+02  0.17848053758E+01 -0.39255229425E+02  0.44456635158E+02  0.00000000000E+00 0.  1.
</event>
<event>
 7    1  0.3752192E-015  0.9000775E+02  0.7816164E-02  0.1186339E+00
        -11   -1    0    0    0    0  0.00000000000E+00  0.00000000000E+00  0.45593999997E+02  0.45594000000E+02  0.51100000000E-03 0. -1.
         11   -1    0    0    0    0 -0.00000000000E+00 -0.00000000000E+00 -0.45593999997E+02  0.45594000000E+02  0.51100000000E-03 0.  1.
    9900012    2    1    2    0    0  0.10729837491E+01  0.70643296234E-01  0.48652991505E+00  0.90007747502E+02  0.90000008969E+02 0.  0.
        -12    1    1    2    0    0 -0.10729837491E+01 -0.70643296234E-01 -0.48652991505E+00  0.11802524982E+01  0.00000000000E+00 0.  1.
         11    1    3    3    0    0  0.29727934884E+02 -0.29171548200E+02 -0.59568604086E+01  0.42073905488E+02  0.51100000000E-03 0. -1.
        -11    1    3    3    0    0  0.41310737209E+01  0.30814050789E+01  0.27128978587E+01  0.58241430614E+01  0.51100000000E-03 0.  1.
        -12    1    3    3    0    0 -0.32786024856E+02  0.26160786417E+02  0.37304924650E+01  0.42109698952E+02  0.00000000000E+00 0.  1.
</event>
<event>
 7    1  0.3752192E-015  0.9000786E+02  0.7816164E-02  0.1186339E+00
        -11   -1    0    0    0    0  0.00000000000E+00  0.00000000000E+00  0.45593999997E+02  0.45594000000E+02  0.51100000000E-03 0.  1.
         11   -1    0    0    0    0 -0.00000000000E+00 -0.00000000000E+00 -0.45593999997E+02  0.45594000000E+02  0.51100000000E-03 0. -1.
    9900012    2    1    2    0    0 -0.80459699491E+00 -0.47617986525E+00 -0.72014584331E+00  0.90007858642E+02  0.90000121576E+02 0.  0.
        -12    1    1    2    0    0  0.80459699491E+00  0.47617986525E+00  0.72014584331E+00  0.11801413576E+01  0.00000000000E+00 0.  1.
         11    1    3    3    0    0  0.19374923492E+01 -0.19517842357E+02  0.30365665250E+02  0.36149324658E+02  0.51100000000E-03 0. -1.
        -11    1    3    3    0    0 -0.11573103136E+01 -0.82019743649E+01  0.41710131788E+01  0.92741092210E+01  0.51100000000E-03 0.  1.
        -12    1    3    3    0    0 -0.15847790305E+01  0.27243636857E+02 -0.35256824272E+02  0.44584424764E+02  0.00000000000E+00 0.  1.
</event>
<event>
 7    1  0.3752192E-015  0.9000771E+02  0.7816164E-02  0.1186339E+00
        -11   -1    0    0    0    0  0.00000000000E+00  0.00000000000E+00  0.45593999997E+02  0.45594000000E+02  0.51100000000E-03 0.  1.
         11   -1    0    0    0    0 -0.00000000000E+00 -0.00000000000E+00 -0.45593999997E+02  0.45594000000E+02  0.51100000000E-03 0. -1.
    9900012    2    1    2    0    0 -0.69836381889E+00 -0.85923076011E+00 -0.40878200183E+00  0.90007706711E+02  0.89999967640E+02 0.  0.
        -12    1    1    2    0    0  0.69836381889E+00  0.85923076011E+00  0.40878200183E+00  0.11802932888E+01  0.00000000000E+00 0.  1.
         11    1    3    3    0    0  0.34061804416E+02 -0.23293357121E+02 -0.29307442706E+01  0.41368783742E+02  0.51100000000E-03 0. -1.
        -11    1    3    3    0    0  0.37452234729E-01  0.11394380381E+02  0.40693388266E+01  0.12099290297E+02  0.51100000000E-03 0.  1.
        -12    1    3    3    0    0 -0.34797620469E+02  0.11039745980E+02 -0.15473765579E+01  0.36539632672E+02  0.00000000000E+00 0.  1.
</event>
<event>
 7    1  0.3752192E-015  0.9000654E+02  0.7816164E-02  0.1186341E+00
        -11   -1    0    0    0    0  0.00000000000E+00  0.00000000000E+00  0.45593999997E+02  0.45594000000E+02  0.51100000000E-03 0.  1.
         11   -1    0    0    0    0 -0.00000000000E+00 -0.00000000000E+00 -0.45593999997E+02  0.45594000000E+02  0.51100000000E-03 0. -1.
    9900012    2    1    2    0    0 -0.24616074923E-01  0.56127718161E+00 -0.10393367942E+01  0.90006535232E+02  0.89998780689E+02 0.  0.
        -12    1    1    2    0    0  0.24616074923E-01 -0.56127718161E+00  0.10393367942E+01  0.11814647677E+01  0.00000000000E+00 0.  1.
         11    1    3    3    0    0 -0.75490359238E+01  0.23246162421E+01  0.17529005850E+01  0.80910101207E+01  0.51100000000E-03 0. -1.
        -11    1    3    3    0    0  0.33594715377E+02  0.15564750478E+02  0.21027642485E+02  0.42579667771E+02  0.51100000000E-03 0.  1.
         12    1    3    3    0    0 -0.26070295528E+02 -0.17328089539E+02 -0.23819879864E+02  0.39335857341E+02  0.00000000000E+00 0. -1.
</event>
<event>
 7    1  0.3752192E-015  0.9000779E+02  0.7816164E-02  0.1186339E+00
        -11   -1    0    0    0    0  0.00000000000E+00  0.00000000000E+00  0.45593999997E+02  0.45594000000E+02  0.51100000000E-03 0. -1.
         11   -1    0    0    0    0 -0.00000000000E+00 -0.00000000000E+00 -0.45593999997E+02  0.45594000000E+02  0.51100000000E-03 0.  1.
    9900012    2    1    2    0    0 -0.72117494953E+00 -0.83489969731E+00 -0.41922499993E+00  0.90007787980E+02  0.90000049981E+02 0.  0.
        -12    1    1    2    0    0  0.72117494953E+00  0.83489969731E+00  0.41922499993E+00  0.11802120203E+01  0.00000000000E+00 0.  1.
         11    1    3    3    0    0 -0.13851924752E+01 -0.23894610453E+02  0.24780292357E+02  0.34451909330E+02  0.51100000000E-03 0. -1.
        -11    1    3    3    0    0  0.80476791954E+00 -0.89056900707E+01  0.60949842174E+01  0.10821635732E+02  0.51100000000E-03 0.  1.
        -12    1    3    3    0    0 -0.14075039386E+00  0.31965400827E+02 -0.31294501574E+02  0.44734242918E+02  0.00000000000E+00 0.  1.
</event>
<event>
 7    1  0.3752192E-015  0.9000797E+02  0.7816164E-02  0.1186339E+00
        -11   -1    0    0    0    0  0.00000000000E+00  0.00000000000E+00  0.45593999997E+02  0.45594000000E+02  0.51100000000E-03 0.  1.
         11   -1    0    0    0    0 -0.00000000000E+00 -0.00000000000E+00 -0.45593999997E+02  0.45594000000E+02  0.51100000000E-03 0. -1.
    9900012    2    1    2    0    0 -0.20231515158E-02  0.11086102913E+01 -0.40428615573E+00  0.90007971116E+02  0.90000235535E+02 0.  0.
        -12    1    1    2    0    0  0.20231515158E-02 -0.11086102913E+01  0.40428615573E+00  0.11800288839E+01  0.00000000000E+00 0.  1.
         11    1    3    3    0    0 -0.74808545204E+01 -0.49574059877E+01 -0.46718474461E+01  0.10117569733E+02  0.51100000000E-03 0. -1.
        -11    1    3    3    0    0 -0.88030767834E+01  0.37453143535E+01  0.39695034997E+02  0.40831572884E+02  0.51100000000E-03 0.  1.
         12    1    3    3    0    0  0.16281908152E+02  0.23207019254E+01 -0.35427473707E+02  0.39058828499E+02  0.00000000000E+00 0. -1.
</event>
<event>
 7    1  0.3752192E-015  0.9000789E+02  0.7816164E-02  0.1186339E+00
        -11   -1    0    0    0    0  0.00000000000E+00  0.00000000000E+00  0.45593999997E+02  0.45594000000E+02  0.51100000000E-03 0. -1.
         11   -1    0    0    0    0 -0.00000000000E+00 -0.00000000000E+00 -0.45593999997E+02  0.45594000000E+02  0.51100000000E-03 0.  1.
    9900012    2    1    2    0    0 -0.69217756900E+00  0.95055156595E+00 -0.10005696855E+00  0.90007885826E+02  0.90000149119E+02 0.  0.
        -12    1    1    2    0    0  0.69217756900E+00 -0.95055156595E+00  0.10005696855E+00  0.11801141739E+01  0.00000000000E+00 0.  1.
         11    1    3    3    0    0 -0.31051808193E+02 -0.20699640734E+02 -0.17972566708E+01  0.37362013468E+02  0.51100000000E-03 0. -1.
        -11    1    3    3    0    0 -0.39088442592E+01 -0.62667049176E+01 -0.34404003612E+01  0.81478223393E+01  0.51100000000E-03 0.  1.
        -12    1    3    3    0    0  0.34268474883E+02  0.27916897218E+02  0.51376000634E+01  0.44498050019E+02  0.00000000000E+00 0.  1.
</event>
<event>
 7    1  0.3752192E-015  0.9000777E+02  0.7816164E-02  0.1186339E+00
        -11   -1    0    0    0    0  0.00000000000E+00  0.00000000000E+00  0.45593999997E+02  0.45594000000E+02  0.51100000000E-03 0. -1.
         11   -1    0    0    0    0 -0.00000000000E+00 -0.00000000000E+00 -0.45593999997E+02  0.45594000000E+02  0.51100000000E-03 0.  1.
    9900012    2    1    2    0    0  0.11658900694E+01 -0.94559685741E-01  0.15718189884E+00  0.90007768100E+02  0.90000029839E+02 0.  0.
        -12    1    1    2    0    0 -0.11658900694E+01  0.94559685741E-01 -0.15718189884E+00  0.11802318998E+01  0.00000000000E+00 0.  1.
         11    1    3    3    0    0  0.17169509682E+02 -0.46454515410E+01  0.38338513377E+02  0.42263623731E+02  0.51100000000E-03 0. -1.
        -11    1    3    3    0    0 -0.78810893841E+01 -0.30991194072E+01 -0.54206842812E+00  0.84858676293E+01  0.51100000000E-03 0.  1.
        -12    1    3    3    0    0 -0.81225302282E+01  0.76500112625E+01 -0.37639263050E+02  0.39258276739E+02  0.00000000000E+00 0.  1.
</event>
<event>
 7    1  0.3752192E-015  0.9000793E+02  0.7816164E-02  0.1186339E+00
        -11   -1    0    0    0    0  0.00000000000E+00  0.00000000000E+00  0.45593999997E+02  0.45594000000E+02  0.51100000000E-03 0. -1.
         11   -1    0    0    0    0 -0.00000000000E+00 -0.00000000000E+00 -0.45593999997E+02  0.45594000000E+02  0.51100000000E-03 0.  1.
    9900012    2    1    2    0    0 -0.76311489821E+00  0.87517085969E+00  0.21046045773E+00  0.90007931364E+02  0.90000195258E+02 0.  0.
        -12    1    1    2    0    0  0.76311489821E+00 -0.87517085969E+00 -0.21046045773E+00  0.11800686360E+01  0.00000000000E+00 0.  1.
         11    1    3    3    0    0  0.52681652294E+01  0.40167753352E+02 -0.75783202536E+01  0.41214474549E+02  0.51100000000E-03 0. -1.
        -11    1    3    3    0    0  0.29788716574E+01 -0.17235597832E+00 -0.57080451617E+01  0.64408976676E+01  0.51100000000E-03 0.  1.
        -12    1    3    3    0    0 -0.90101517849E+01 -0.39120226514E+02  0.13496825873E+02  0.42352559147E+02  0.00000000000E+00 0.  1.
</event>
<event>
 7    1  0.3752192E-015  0.9000774E+02  0.7816164E-02  0.1186339E+00
        -11   -1    0    0    0    0  0.00000000000E+00  0.00000000000E+00  0.45593999997E+02  0.45594000000E+02  0.51100000000E-03 0. -1.
         11   -1    0    0    0    0 -0.00000000000E+00 -0.00000000000E+00 -0.45593999997E+02  0.45594000000E+02  0.51100000000E-03 0.  1.
    9900012    2    1    2    0    0 -0.55231774885E+00  0.51866779337E+00  0.90495454300E+00  0.90007739901E+02  0.90000001268E+02 0.  0.
        -12    1    1    2    0    0  0.55231774885E+00 -0.51866779337E+00 -0.90495454300E+00  0.11802600987E+01  0.00000000000E+00 0.  1.
         11    1    3    3    0    0  0.32264996243E+02 -0.11069864243E+02  0.83304386059E+01  0.35113645276E+02  0.51100000000E-03 0. -1.
        -11    1    3    3    0    0  0.97940746738E+01 -0.44638137891E+00  0.87965160031E+00  0.98436244469E+01  0.51100000000E-03 0.  1.
        -12    1    3    3    0    0 -0.42611388666E+02  0.12034913415E+02 -0.83051356632E+01  0.45050470179E+02  0.00000000000E+00 0.  1.
</event>
<event>
 7    1  0.3752192E-015  0.9000771E+02  0.7816164E-02  0.1186339E+00
        -11   -1    0    0    0    0  0.00000000000E+00  0.00000000000E+00  0.45593999997E+02  0.45594000000E+02  0.51100000000E-03 0.  1.
         11   -1    0    0    0    0 -0.00000000000E+00 -0.00000000000E+00 -0.45593999997E+02  0.45594000000E+02  0.51100000000E-03 0. -1.
    9900012    2    1    2    0    0  0.47442439930E-01 -0.26733849096E+00 -0.11486316876E+01  0.90007713845E+02  0.89999974868E+02 0.  0.
        -12    1    1    2    0    0 -0.47442439930E-01  0.26733849096E+00  0.11486316876E+01  0.11802861550E+01  0.00000000000E+00 0.  1.
         11    1    3    3    0    0  0.32046612727E+02 -0.73713518627E+01 -0.16578485340E+02  0.36826191657E+02  0.51100000000E-03 0. -1.
        -11    1    3    3    0    0  0.57501112127E+01 -0.82830280731E+01  0.21675887698E+01  0.10313620817E+02  0.51100000000E-03 0.  1.
        -12    1    3    3    0    0 -0.37749281499E+02  0.15387041445E+02  0.13262264882E+02  0.42867901371E+02  0.00000000000E+00 0.  1.
</event>
<event>
 7    1  0.3752192E-015  0.9000776E+02  0.7816164E-02  0.1186339E+00
        -11   -1    0    0    0    0  0.00000000000E+00  0.00000000000E+00  0.45593999997E+02  0.45594000000E+02  0.51100000000E-03 0. -1.
         11   -1    0    0    0    0 -0.00000000000E+00 -0.00000000000E+00 -0.45593999997E+02  0.45594000000E+02  0.51100000000E-03 0.  1.
    9900012    2    1    2    0    0  0.31498957805E+00 -0.13801982248E+00  0.11290235344E+01  0.90007761869E+02  0.90000023525E+02 0.  0.
        -12    1    1    2    0    0 -0.31498957805E+00  0.13801982248E+00 -0.11290235344E+01  0.11802381315E+01  0.00000000000E+00 0.  1.
         11    1    3    3    0    0  0.11815244395E+02 -0.44021189317E+00  0.38679361580E+02  0.40446097452E+02  0.51100000000E-03 0. -1.
        -11    1    3    3    0    0  0.46767223639E+01 -0.91184751495E+01 -0.37291348883E+01  0.10905263335E+02  0.51100000000E-03 0.  1.
        -12    1    3    3    0    0 -0.16176977180E+02  0.94206672202E+01 -0.33821203157E+02  0.38656401082E+02  0.00000000000E+00 0.  1.
</event>
<event>
 7    1  0.3752192E-015  0.9000771E+02  0.7816164E-02  0.1186339E+00
        -11   -1    0    0    0    0  0.00000000000E+00  0.00000000000E+00  0.45593999997E+02  0.45594000000E+02  0.51100000000E-03 0. -1.
         11   -1    0    0    0    0 -0.00000000000E+00 -0.00000000000E+00 -0.45593999997E+02  0.45594000000E+02  0.51100000000E-03 0.  1.
    9900012    2    1    2    0    0  0.97487954579E+00 -0.65531285588E+00 -0.11517672405E+00  0.90007707347E+02  0.89999968284E+02 0.  0.
        -12    1    1    2    0    0 -0.97487954579E+00  0.65531285588E+00  0.11517672405E+00  0.11802926525E+01  0.00000000000E+00 0.  1.
         11    1    3    3    0    0  0.32055870617E+02  0.70408966878E+01  0.23766582076E+02  0.40521642254E+02  0.51100000000E-03 0. -1.
        -11    1    3    3    0    0  0.20154642647E+01  0.61300664532E+01 -0.79482812163E+01  0.10237919001E+02  0.51100000000E-03 0.  1.
        -12    1    3    3    0    0 -0.33096455335E+02 -0.13826275997E+02 -0.15933477584E+02  0.39248146092E+02  0.00000000000E+00 0.  1.
</event>
<event>
 7    1  0.3752192E-015  0.9000787E+02  0.7816164E-02  0.1186339E+00
        -11   -1    0    0    0    0  0.00000000000E+00  0.00000000000E+00  0.45593999997E+02  0.45594000000E+02  0.51100000000E-03 0. -1.
         11   -1    0    0    0    0 -0.00000000000E+00 -0.00000000000E+00 -0.45593999997E+02  0.45594000000E+02  0.51100000000E-03 0.  1.
    9900012    2    1    2    0    0  0.90835373292E+00 -0.64352373333E+00  0.39175795009E+00  0.90007871367E+02  0.90000134469E+02 0.  0.
        -12    1    1    2    0    0 -0.90835373292E+00  0.64352373333E+00 -0.39175795009E+00  0.11801286332E+01  0.00000000000E+00 0.  1.
         11    1    3    3    0    0 -0.36616798848E+01  0.82748405529E+01  0.18630029950E+00  0.90507233864E+01  0.51100000000E-03 0. -1.
        -11    1    3    3    0    0  0.16788629528E+02  0.14953986537E+02 -0.31961836328E+02  0.39077343519E+02  0.51100000000E-03 0.  1.
         12    1    3    3    0    0 -0.12218595910E+02 -0.23872350823E+02  0.32167293978E+02  0.41879804462E+02  0.00000000000E+00 0. -1.
</event>
<event>
 7    1  0.3752192E-015  0.9000772E+02  0.7816164E-02  0.1186339E+00
        -11   -1    0    0    0    0  0.00000000000E+00  0.00000000000E+00  0.45593999997E+02  0.45594000000E+02  0.51100000000E-03 0.  1.
         11   -1    0    0    0    0 -0.00000000000E+00 -0.00000000000E+00 -0.45593999997E+02  0.45594000000E+02  0.51100000000E-03 0. -1.
    9900012    2    1    2    0    0 -0.71880593373E+00  0.93239594296E+00  0.83716407944E-01  0.90007723506E+02  0.89999984656E+02 0.  0.
        -12    1    1    2    0    0  0.71880593373E+00 -0.93239594296E+00 -0.83716407944E-01  0.11802764938E+01  0.00000000000E+00 0.  1.
         11    1    3    3    0    0 -0.25033107849E+01  0.16641649665E+02 -0.10122183796E+02  0.19638474318E+02  0.51100000000E-03 0. -1.
        -11    1    3    3    0    0  0.21145690124E+02  0.17116065403E+02 -0.76842447625E+01  0.28269197433E+02  0.51100000000E-03 0.  1.
         12    1    3    3    0    0 -0.19361185273E+02 -0.32825319125E+02  0.17890144967E+02  0.42100051755E+02  0.00000000000E+00 0. -1.
</event>
<event>
 7    1  0.3752192E-015  0.9000768E+02  0.7816164E-02  0.1186339E+00
        -11   -1    0    0    0    0  0.00000000000E+00  0.00000000000E+00  0.45593999997E+02  0.45594000000E+02  0.51100000000E-03 0. -1.
         11   -1    0    0    0    0 -0.00000000000E+00 -0.00000000000E+00 -0.45593999997E+02  0.45594000000E+02  0.51100000000E-03 0.  1.
    9900012    2    1    2    0    0 -0.10278537903E+01 -0.47421481414E+00 -0.33435610075E+00  0.90007679236E+02  0.89999939802E+02 0.  0.
        -12    1    1    2    0    0  0.10278537903E+01  0.47421481414E+00  0.33435610075E+00  0.11803207642E+01  0.00000000000E+00 0.  1.
         11    1    3    3    0    0 -0.20675494359E+01 -0.37697784203E+00 -0.10389550305E+02  0.10599982489E+02  0.51100000000E-03 0. -1.
        -11    1    3    3    0    0  0.34667162397E+02 -0.69143000963E+01 -0.13444473477E+02  0.37820279769E+02  0.51100000000E-03 0.  1.
         12    1    3    3    0    0 -0.33627466751E+02  0.68170631242E+01  0.23499667681E+02  0.41587416978E+02  0.00000000000E+00 0. -1.
</event>
<event>
 7    1  0.4507083E-015  0.9000760E+02  0.7816164E-02  0.1186339E+00
        -11   -1    0    0    0    0  0.00000000000E+00  0.00000000000E+00  0.45593999997E+02  0.45594000000E+02  0.51100000000E-03 0.  1.
         11   -1    0    0    0    0 -0.00000000000E+00 -0.00000000000E+00 -0.45593999997E+02  0.45594000000E+02  0.51100000000E-03 0. -1.
    9900012    2    1    2    0    0 -0.21023123748E+00 -0.75109945218E+00 -0.88599944925E+00  0.90007600667E+02  0.89999860196E+02 0.  0.
        -12    1    1    2    0    0  0.21023123748E+00  0.75109945218E+00  0.88599944925E+00  0.11803993326E+01  0.00000000000E+00 0.  1.
         11    1    3    3    0    0 -0.26206225372E+01 -0.51637499525E+01 -0.38101240326E+02  0.38538766076E+02  0.51100000000E-03 0. -1.
        -11    1    3    3    0    0  0.49187796381E+01 -0.67686457959E+01 -0.35754879610E+01  0.90990699227E+01  0.51100000000E-03 0.  1.
        -12    1    3    3    0    0 -0.25083883384E+01  0.11181296296E+02  0.40790728838E+02  0.42369764668E+02  0.00000000000E+00 0.  1.
</event>
<event>
 7    1  0.3752192E-015  0.9000756E+02  0.7816164E-02  0.1186339E+00
        -11   -1    0    0    0    0  0.00000000000E+00  0.00000000000E+00  0.45593999997E+02  0.45594000000E+02  0.51100000000E-03 0. -1.
         11   -1    0    0    0    0 -0.00000000000E+00 -0.00000000000E+00 -0.45593999997E+02  0.45594000000E+02  0.51100000000E-03 0.  1.
    9900012    2    1    2    0    0 -0.19406061920E+00 -0.21914547739E+00  0.11435744168E+01  0.90007556562E+02  0.89999815508E+02 0.  0.
        -12    1    1    2    0    0  0.19406061920E+00  0.21914547739E+00 -0.11435744168E+01  0.11804434383E+01  0.00000000000E+00 0.  1.
         11    1    3    3    0    0 -0.67360311794E+01 -0.30467028726E+02 -0.16829848148E+02  0.35452189557E+02  0.51100000000E-03 0. -1.
        -11    1    3    3    0    0 -0.98960234963E+00 -0.51146073793E+01 -0.83433871312E+01  0.98361898384E+01  0.51100000000E-03 0.  1.
        -12    1    3    3    0    0  0.75315729099E+01  0.35362490628E+02  0.26316809696E+02  0.44719177167E+02  0.00000000000E+00 0.  1.
</event>
<event>
 7    1  0.3752192E-015  0.9000780E+02  0.7816164E-02  0.1186339E+00
        -11   -1    0    0    0    0  0.00000000000E+00  0.00000000000E+00  0.45593999997E+02  0.45594000000E+02  0.51100000000E-03 0.  1.
         11   -1    0    0    0    0 -0.00000000000E+00 -0.00000000000E+00 -0.45593999997E+02  0.45594000000E+02  0.51100000000E-03 0. -1.
    9900012    2    1    2    0    0 -0.64273351215E+00  0.70293527092E+00  0.69688961497E+00  0.90007796840E+02  0.90000058959E+02 0.  0.
        -12    1    1    2    0    0  0.64273351215E+00 -0.70293527092E+00 -0.69688961497E+00  0.11802031597E+01  0.00000000000E+00 0.  1.
         11    1    3    3    0    0  0.11713190846E+02  0.29716368565E+01 -0.39106297698E+02  0.40930819504E+02  0.51100000000E-03 0. -1.
        -11    1    3    3    0    0 -0.95818753101E+01  0.14784314062E+00  0.49372035426E+00  0.95957257204E+01  0.51100000000E-03 0.  1.
        -12    1    3    3    0    0 -0.27740490477E+01 -0.24165447262E+01  0.39309466959E+02  0.39481251615E+02  0.00000000000E+00 0.  1.
</event>
<event>
 7    1  0.3752192E-015  0.9000806E+02  0.7816164E-02  0.1186338E+00
        -11   -1    0    0    0    0  0.00000000000E+00  0.00000000000E+00  0.45593999997E+02  0.45594000000E+02  0.51100000000E-03 0.  1.
         11   -1    0    0    0    0 -0.00000000000E+00 -0.00000000000E+00 -0.45593999997E+02  0.45594000000E+02  0.51100000000E-03 0. -1.
    9900012    2    1    2    0    0  0.26675291275E+00  0.10175590441E+01  0.53448594230E+00  0.90008059854E+02  0.90000325444E+02 0.  0.
        -12    1    1    2    0    0 -0.26675291275E+00 -0.10175590441E+01 -0.53448594230E+00  0.11799401456E+01  0.00000000000E+00 0.  1.
         11    1    3    3    0    0 -0.58993326927E+00 -0.79316828640E+01  0.83045122868E+00  0.79968283601E+01  0.51100000000E-03 0. -1.
        -11    1    3    3    0    0  0.38787320981E+02 -0.76556903649E+01 -0.67423606029E+01  0.40106424555E+02  0.51100000000E-03 0.  1.
         12    1    3    3    0    0 -0.37930634799E+02  0.16604932273E+02  0.64463953165E+01  0.41904806939E+02  0.00000000000E+00 0. -1.
</event>
<event>
 7    1  0.3752192E-015  0.9000779E+02  0.7816164E-02  0.1186339E+00
        -11   -1    0    0    0    0  0.00000000000E+00  0.00000000000E+00  0.45593999997E+02  0.45594000000E+02  0.51100000000E-03 0. -1.
         11   -1    0    0    0    0 -0.00000000000E+00 -0.00000000000E+00 -0.45593999997E+02  0.45594000000E+02  0.51100000000E-03 0.  1.
    9900012    2    1    2    0    0  0.21495637327E+00 -0.10112045393E+01  0.56933695778E+00  0.90007794326E+02  0.90000056411E+02 0.  0.
        -12    1    1    2    0    0 -0.21495637327E+00  0.10112045393E+01 -0.56933695778E+00  0.11802056745E+01  0.00000000000E+00 0.  1.
         11    1    3    3    0    0  0.31108306519E+01 -0.38236264390E+02 -0.10792890858E+01  0.38377780642E+02  0.51100000000E-03 0. -1.
        -11    1    3    3    0    0 -0.21957253489E-01 -0.31824546780E+01 -0.91651041151E+01  0.97019396824E+01  0.51100000000E-03 0.  1.
        -12    1    3    3    0    0 -0.28739170251E+01  0.40407514529E+02  0.10813730159E+02  0.41928074001E+02  0.00000000000E+00 0.  1.
</event>
<event>
 7    1  0.3752192E-015  0.9000773E+02  0.7816164E-02  0.1186339E+00
        -11   -1    0    0    0    0  0.00000000000E+00  0.00000000000E+00  0.45593999997E+02  0.45594000000E+02  0.51100000000E-03 0.  1.
         11   -1    0    0    0    0 -0.00000000000E+00 -0.00000000000E+00 -0.45593999997E+02  0.45594000000E+02  0.51100000000E-03 0. -1.
    9900012    2    1    2    0    0 -0.40438204250E+00 -0.10891156867E+01 -0.20820052412E+00  0.90007726611E+02  0.89999987802E+02 0.  0.
        -12    1    1    2    0    0  0.40438204250E+00  0.10891156867E+01  0.20820052412E+00  0.11802733893E+01  0.00000000000E+00 0.  1.
         11    1    3    3    0    0  0.19239202734E+02 -0.51989057041E+01 -0.32885083371E+01  0.20198758123E+02  0.51100000000E-03 0. -1.
        -11    1    3    3    0    0  0.52583302539E+01 -0.22621532126E+02  0.18953021059E+02  0.29976670267E+02  0.51100000000E-03 0.  1.
         12    1    3    3    0    0 -0.24901915030E+02  0.26731322144E+02 -0.15872713246E+02  0.39832298220E+02  0.00000000000E+00 0. -1.
</event>
<event>
 7    1  0.3752192E-015  0.9000767E+02  0.7816164E-02  0.1186339E+00
        -11   -1    0    0    0    0  0.00000000000E+00  0.00000000000E+00  0.45593999997E+02  0.45594000000E+02  0.51100000000E-03 0.  1.
         11   -1    0    0    0    0 -0.00000000000E+00 -0.00000000000E+00 -0.45593999997E+02  0.45594000000E+02  0.51100000000E-03 0. -1.
    9900012    2    1    2    0    0  0.11286170973E+01 -0.34423835870E+00  0.30218276293E-01  0.90007665410E+02  0.89999925793E+02 0.  0.
        -12    1    1    2    0    0 -0.11286170973E+01  0.34423835870E+00 -0.30218276293E-01  0.11803345899E+01  0.00000000000E+00 0.  1.
         11    1    3    3    0    0 -0.29060750412E+02  0.45813845305E+01 -0.25171143573E+02  0.38718248511E+02  0.51100000000E-03 0. -1.
        -11    1    3    3    0    0  0.12763716536E+02 -0.24983918029E+01 -0.68701855436E+01  0.14708972468E+02  0.51100000000E-03 0.  1.
        -12    1    3    3    0    0  0.17425650974E+02 -0.24272310864E+01  0.32071547393E+02  0.36580444431E+02  0.00000000000E+00 0.  1.
</event>
<event>
 7    1  0.3752192E-015  0.9000761E+02  0.7816164E-02  0.1186339E+00
        -11   -1    0    0    0    0  0.00000000000E+00  0.00000000000E+00  0.45593999997E+02  0.45594000000E+02  0.51100000000E-03 0.  1.
         11   -1    0    0    0    0 -0.00000000000E+00 -0.00000000000E+00 -0.45593999997E+02  0.45594000000E+02  0.51100000000E-03 0. -1.
    9900012    2    1    2    0    0 -0.63814155074E+00  0.66728831833E+00 -0.73540941010E+00  0.90007607972E+02  0.89999867597E+02 0.  0.
        -12    1    1    2    0    0  0.63814155074E+00 -0.66728831833E+00  0.73540941010E+00  0.11803920277E+01  0.00000000000E+00 0.  1.
         11    1    3    3    0    0 -0.24705998174E+01  0.11198379046E+01  0.90742531284E+01  0.94710068361E+01  0.51100000000E-03 0. -1.
        -11    1    3    3    0    0  0.16134271226E+02 -0.36980735665E+02 -0.11474605949E+01  0.40363426322E+02  0.51100000000E-03 0.  1.
         12    1    3    3    0    0 -0.14301812959E+02  0.36528186079E+02 -0.86622019436E+01  0.40173174814E+02  0.00000000000E+00 0. -1.
</event>
<event>
 7    1  0.3752192E-015  0.9000782E+02  0.7816164E-02  0.1186339E+00
        -11   -1    0    0    0    0  0.00000000000E+00  0.00000000000E+00  0.45593999997E+02  0.45594000000E+02  0.51100000000E-03 0.  1.
         11   -1    0    0    0    0 -0.00000000000E+00 -0.00000000000E+00 -0.45593999997E+02  0.45594000000E+02  0.51100000000E-03 0. -1.
    9900012    2    1    2    0    0  0.11187398358E+01 -0.51456828298E-01  0.37228019236E+00  0.90007822400E+02  0.90000084856E+02 0.  0.
        -12    1    1    2    0    0 -0.11187398358E+01  0.51456828298E-01 -0.37228019236E+00  0.11801775997E+01  0.00000000000E+00 0.  1.
         11    1    3    3    0    0 -0.70678523933E+01 -0.55478688125E+01  0.32202294901E+01  0.95448029862E+01  0.51100000000E-03 0. -1.
        -11    1    3    3    0    0 -0.20160649844E+02  0.17804393911E+02  0.26561734139E+02  0.37801771987E+02  0.51100000000E-03 0.  1.
         12    1    3    3    0    0  0.28347242073E+02 -0.12307981926E+02 -0.29409683436E+02  0.42661247427E+02  0.00000000000E+00 0. -1.
</event>
<event>
 7    1  0.3752192E-015  0.9000775E+02  0.7816164E-02  0.1186339E+00
        -11   -1    0    0    0    0  0.00000000000E+00  0.00000000000E+00  0.45593999997E+02  0.45594000000E+02  0.51100000000E-03 0.  1.
         11   -1    0    0    0    0 -0.00000000000E+00 -0.00000000000E+00 -0.45593999997E+02  0.45594000000E+02  0.51100000000E-03 0. -1.
    9900012    2    1    2    0    0  0.33849567590E+00 -0.56549444775E+00 -0.97909719084E+00  0.90007748077E+02  0.90000009551E+02 0.  0.
        -12    1    1    2    0    0 -0.33849567590E+00  0.56549444775E+00  0.97909719084E+00  0.11802519232E+01  0.00000000000E+00 0.  1.
         11    1    3    3    0    0  0.20465349674E+01 -0.58169927881E+01  0.46120028928E+01  0.77004078732E+01  0.51100000000E-03 0. -1.
        -11    1    3    3    0    0 -0.31662208950E+02 -0.21322190904E+02  0.97972623989E+01  0.39409613692E+02  0.51100000000E-03 0.  1.
         12    1    3    3    0    0  0.29954169658E+02  0.26573689245E+02 -0.15388362482E+02  0.42897726512E+02  0.00000000000E+00 0. -1.
</event>
<event>
 7    1  0.3752192E-015  0.9000775E+02  0.7816164E-02  0.1186339E+00
        -11   -1    0    0    0    0  0.00000000000E+00  0.00000000000E+00  0.45593999997E+02  0.45594000000E+02  0.51100000000E-03 0. -1.
         11   -1    0    0    0    0 -0.00000000000E+00 -0.00000000000E+00 -0.45593999997E+02  0.45594000000E+02  0.51100000000E-03 0.  1.
    9900012    2    1    2    0    0 -0.25181255227E+00 -0.10618548109E+01 -0.44950546862E+00  0.90007745634E+02  0.90000007077E+02 0.  0.
        -12    1    1    2    0    0  0.25181255227E+00  0.10618548109E+01  0.44950546862E+00  0.11802543655E+01  0.00000000000E+00 0.  1.
         11    1    3    3    0    0 -0.73203872820E+00  0.31486059167E+01 -0.10314143229E+02  0.10808845948E+02  0.51100000000E-03 0. -1.
        -11    1    3    3    0    0  0.15395172173E+02 -0.20165743294E+02 -0.26558628688E+02  0.36729134034E+02  0.51100000000E-03 0.  1.
         12    1    3    3    0    0 -0.14914945997E+02  0.15955282567E+02  0.36423266448E+02  0.42469765653E+02  0.00000000000E+00 0. -1.
</event>
<event>
 7    1  0.3752192E-015  0.9000774E+02  0.7816164E-02  0.1186339E+00
        -11   -1    0    0    0    0  0.00000000000E+00  0.00000000000E+00  0.45593999997E+02  0.45594000000E+02  0.51100000000E-03 0. -1.
         11   -1    0    0    0    0 -0.00000000000E+00 -0.00000000000E+00 -0.45593999997E+02  0.45594000000E+02  0.51100000000E-03 0.  1.
    9900012    2    1    2    0    0 -0.10037330912E+01 -0.61017995829E+00  0.11497749563E+00  0.90007737519E+02  0.89999998854E+02 0.  0.
        -12    1    1    2    0    0  0.10037330912E+01  0.61017995829E+00 -0.11497749563E+00  0.11802624811E+01  0.00000000000E+00 0.  1.
         11    1    3    3    0    0  0.29440959416E+02 -0.63867827013E+01  0.24567582584E+02  0.38873219559E+02  0.51100000000E-03 0. -1.
        -11    1    3    3    0    0 -0.26837288381E+01  0.60035387649E+00  0.77973875087E+01  0.82681362758E+01  0.51100000000E-03 0.  1.
        -12    1    3    3    0    0 -0.27760963669E+02  0.51762488665E+01 -0.32249992597E+02  0.42866381684E+02  0.00000000000E+00 0.  1.
</event>
<event>
 7    1  0.3752192E-015  0.9000775E+02  0.7816164E-02  0.1186339E+00
        -11   -1    0    0    0    0  0.00000000000E+00  0.00000000000E+00  0.45593999997E+02  0.45594000000E+02  0.51100000000E-03 0.  1.
         11   -1    0    0    0    0 -0.00000000000E+00 -0.00000000000E+00 -0.45593999997E+02  0.45594000000E+02  0.51100000000E-03 0. -1.
    9900012    2    1    2    0    0 -0.47971260956E+00  0.86350684228E+00 -0.64592350250E+00  0.90007751964E+02  0.90000013490E+02 0.  0.
        -12    1    1    2    0    0  0.47971260956E+00 -0.86350684228E+00  0.64592350250E+00  0.11802480356E+01  0.00000000000E+00 0.  1.
         11    1    3    3    0    0  0.43681999082E+01 -0.82587384050E+01 -0.87182161681E+01  0.12778701964E+02  0.51100000000E-03 0. -1.
        -11    1    3    3    0    0 -0.15102446132E+02 -0.19401423284E+01  0.39519449439E+02  0.42351327201E+02  0.51100000000E-03 0.  1.
         12    1    3    3    0    0  0.10254533614E+02  0.11062387576E+02 -0.31447156774E+02  0.34877722799E+02  0.00000000000E+00 0. -1.
</event>
<event>
 7    1  0.3752192E-015  0.9000782E+02  0.7816164E-02  0.1186339E+00
        -11   -1    0    0    0    0  0.00000000000E+00  0.00000000000E+00  0.45593999997E+02  0.45594000000E+02  0.51100000000E-03 0.  1.
         11   -1    0    0    0    0 -0.00000000000E+00 -0.00000000000E+00 -0.45593999997E+02  0.45594000000E+02  0.51100000000E-03 0. -1.
    9900012    2    1    2    0    0  0.30822958607E+00  0.98344122973E+00  0.57503525921E+00  0.90007818794E+02  0.90000081202E+02 0.  0.
        -12    1    1    2    0    0 -0.30822958607E+00 -0.98344122973E+00 -0.57503525921E+00  0.11801812062E+01  0.00000000000E+00 0.  1.
         11    1    3    3    0    0 -0.11095570166E+01 -0.63113249897E+01 -0.54777333414E+01  0.84302729920E+01  0.51100000000E-03 0. -1.
        -11    1    3    3    0    0 -0.31667023405E+01 -0.25733502418E+02  0.30647367864E+02  0.40143521366E+02  0.51100000000E-03 0.  1.
         12    1    3    3    0    0  0.45844889431E+01  0.33028268637E+02 -0.24594599263E+02  0.41434024436E+02  0.00000000000E+00 0. -1.
</event>
<event>
 7    1  0.3752192E-015  0.9000764E+02  0.7816164E-02  0.1186339E+00
        -11   -1    0    0    0    0  0.00000000000E+00  0.00000000000E+00  0.45593999997E+02  0.45594000000E+02  0.51100000000E-03 0.  1.
         11   -1    0    0    0    0 -0.00000000000E+00 -0.00000000000E+00 -0.45593999997E+02  0.45594000000E+02  0.51100000000E-03 0. -1.
    9900012    2    1    2    0    0 -0.32837343095E+00  0.74388710976E-01 -0.11313209957E+01  0.90007639891E+02  0.89999899938E+02 0.  0.
        -12    1    1    2    0    0  0.32837343095E+00 -0.74388710976E-01  0.11313209957E+01  0.11803601085E+01  0.00000000000E+00 0.  1.
         11    1    3    3    0    0  0.36803078852E+02 -0.10862064089E+01 -0.96142920174E+00  0.36831654914E+02  0.51100000000E-03 0. -1.
        -11    1    3    3    0    0  0.29461952235E+01 -0.51055842490E+01 -0.98438791106E+01  0.11473840378E+02  0.51100000000E-03 0.  1.
        -12    1    3    3    0    0 -0.40077647507E+02  0.62661793689E+01  0.96739873166E+01  0.41702144599E+02  0.00000000000E+00 0.  1.
</event>
<event>
 7    1  0.3752192E-015  0.9000771E+02  0.7816164E-02  0.1186339E+00
        -11   -1    0    0    0    0  0.00000000000E+00  0.00000000000E+00  0.45593999997E+02  0.45594000000E+02  0.51100000000E-03 0. -1.
         11   -1    0    0    0    0 -0.00000000000E+00 -0.00000000000E+00 -0.45593999997E+02  0.45594000000E+02  0.51100000000E-03 0.  1.
    9900012    2    1    2    0    0 -0.62323356537E+00  0.91696230492E+00 -0.40477932209E+00  0.90007709254E+02  0.89999970216E+02 0.  0.
        -12    1    1    2    0    0  0.62323356537E+00 -0.91696230492E+00  0.40477932209E+00  0.11802907461E+01  0.00000000000E+00 0.  1.
         11    1    3    3    0    0 -0.37116666938E+01  0.71418492744E+01 -0.43196211371E+01  0.91346377998E+01  0.51100000000E-03 0. -1.
        -11    1    3    3    0    0 -0.35052615700E+01  0.28259387963E+02  0.26686159371E+02  0.39026029377E+02  0.51100000000E-03 0.  1.
         12    1    3    3    0    0  0.65936946985E+01 -0.34484274932E+02 -0.22771317556E+02  0.41847042077E+02  0.00000000000E+00 0. -1.
</event>
<event>
 7    1  0.3752192E-015  0.9000777E+02  0.7816164E-02  0.1186339E+00
        -11   -1    0    0    0    0  0.00000000000E+00  0.00000000000E+00  0.45593999997E+02  0.45594000000E+02  0.51100000000E-03 0.  1.
         11   -1    0    0    0    0 -0.00000000000E+00 -0.00000000000E+00 -0.45593999997E+02  0.45594000000E+02  0.51100000000E-03 0. -1.
    9900012    2    1    2    0    0  0.33835404080E+00  0.10736439234E+01  0.35462582800E+00  0.90007765189E+02  0.90000026889E+02 0.  0.
        -12    1    1    2    0    0 -0.33835404080E+00 -0.10736439234E+01 -0.35462582800E+00  0.11802348110E+01  0.00000000000E+00 0.  1.
         11    1    3    3    0    0  0.30351198095E+01  0.24522839884E+01  0.89764881849E+01  0.97879001534E+01  0.51100000000E-03 0. -1.
        -11    1    3    3    0    0 -0.34601342444E+02  0.11386905718E+02  0.14059342381E+02  0.39045865712E+02  0.51100000000E-03 0.  1.
         12    1    3    3    0    0  0.31904576675E+02 -0.12765545783E+02 -0.22681204738E+02  0.41173999324E+02  0.00000000000E+00 0. -1.
</event>
<event>
 7    1  0.3752192E-015  0.9000773E+02  0.7816164E-02  0.1186339E+00
        -11   -1    0    0    0    0  0.00000000000E+00  0.00000000000E+00  0.45593999997E+02  0.45594000000E+02  0.51100000000E-03 0. -1.
         11   -1    0    0    0    0 -0.00000000000E+00 -0.00000000000E+00 -0.45593999997E+02  0.45594000000E+02  0.51100000000E-03 0.  1.
    9900012    2    1    2    0    0 -0.78482954126E+00 -0.20973550903E+00  0.85620293273E+00  0.90007733143E+02  0.89999994420E+02 0.  0.
        -12    1    1    2    0    0  0.78482954126E+00  0.20973550903E+00 -0.85620293273E+00  0.11802668574E+01  0.00000000000E+00 0.  1.
         11    1    3    3    0    0  0.53181175162E+01  0.32975361657E+02  0.20866634552E+02  0.39383667784E+02  0.51100000000E-03 0. -1.
        -11    1    3    3    0    0 -0.15922212302E+02 -0.58006584228E+01 -0.10860211463E+02  0.20127311694E+02  0.51100000000E-03 0.  1.
        -12    1    3    3    0    0  0.98192652444E+01 -0.27384438743E+02 -0.91502201557E+01  0.30496753665E+02  0.00000000000E+00 0.  1.
</event>
<event>
 7    1  0.3752192E-015  0.9000774E+02  0.7816164E-02  0.1186339E+00
        -11   -1    0    0    0    0  0.00000000000E+00  0.00000000000E+00  0.45593999997E+02  0.45594000000E+02  0.51100000000E-03 0.  1.
         11   -1    0    0    0    0 -0.00000000000E+00 -0.00000000000E+00 -0.45593999997E+02  0.45594000000E+02  0.51100000000E-03 0. -1.
    9900012    2    1    2    0    0 -0.42216787339E-01 -0.84882244270E+00 -0.81898027556E+00  0.90007741347E+02  0.90000002733E+02 0.  0.
        -12    1    1    2    0    0  0.42216787339E-01  0.84882244270E+00  0.81898027556E+00  0.11802586531E+01  0.00000000000E+00 0.  1.
         11    1    3    3    0    0 -0.31981463247E+02  0.20973832719E+02  0.11516139388E+02  0.39941671435E+02  0.51100000000E-03 0. -1.
        -11    1    3    3    0    0 -0.22775260157E+00  0.46942120326E+01 -0.64267279898E+01  0.79618044921E+01  0.51100000000E-03 0.  1.
        -12    1    3    3    0    0  0.32166999061E+02 -0.26516867194E+02 -0.59083916736E+01  0.42104265420E+02  0.00000000000E+00 0.  1.
</event>
<event>
 7    1  0.3752192E-015  0.9000786E+02  0.7816164E-02  0.1186339E+00
        -11   -1    0    0    0    0  0.00000000000E+00  0.00000000000E+00  0.45593999997E+02  0.45594000000E+02  0.51100000000E-03 0.  1.
         11   -1    0    0    0    0 -0.00000000000E+00 -0.00000000000E+00 -0.45593999997E+02  0.45594000000E+02  0.51100000000E-03 0. -1.
    9900012    2    1    2    0    0  0.44393110622E+00  0.93645423342E+00 -0.56454620740E+00  0.90007858577E+02  0.90000121510E+02 0.  0.
        -12    1    1    2    0    0 -0.44393110622E+00 -0.93645423342E+00  0.56454620740E+00  0.11801414232E+01  0.00000000000E+00 0.  1.
         11    1    3    3    0    0  0.19706089346E+02  0.22846234377E+02 -0.22676952382E+02  0.37742874189E+02  0.51100000000E-03 0. -1.
        -11    1    3    3    0    0  0.22393889617E+01 -0.11897040201E+02 -0.75639722258E+01  0.14274736585E+02  0.51100000000E-03 0.  1.
        -12    1    3    3    0    0 -0.21501547201E+02 -0.10012739942E+02  0.29676378400E+02  0.37990247803E+02  0.00000000000E+00 0.  1.
</event>
<event>
 7    1  0.3752192E-015  0.9000770E+02  0.7816164E-02  0.1186339E+00
        -11   -1    0    0    0    0  0.00000000000E+00  0.00000000000E+00  0.45593999997E+02  0.45594000000E+02  0.51100000000E-03 0.  1.
         11   -1    0    0    0    0 -0.00000000000E+00 -0.00000000000E+00 -0.45593999997E+02  0.45594000000E+02  0.51100000000E-03 0. -1.
    9900012    2    1    2    0    0 -0.34592918801E+00 -0.93180041444E+00  0.63653975070E+00  0.90007702635E+02  0.89999963510E+02 0.  0.
        -12    1    1    2    0    0  0.34592918801E+00  0.93180041444E+00 -0.63653975070E+00  0.11802973649E+01  0.00000000000E+00 0.  1.
         11    1    3    3    0    0 -0.73832754611E+01 -0.21963323449E+02  0.14338673927E+02  0.27248814721E+02  0.51100000000E-03 0. -1.
        -11    1    3    3    0    0 -0.13666538141E+02  0.88018579925E+01  0.17158542984E+02  0.23636043799E+02  0.51100000000E-03 0.  1.
         12    1    3    3    0    0  0.20703884414E+02  0.12229665042E+02 -0.30860677160E+02  0.39122844115E+02  0.00000000000E+00 0. -1.
</event>
<event>
 7    1  0.3752192E-015  0.9000779E+02  0.7816164E-02  0.1186339E+00
        -11   -1    0    0    0    0  0.00000000000E+00  0.00000000000E+00  0.45593999997E+02  0.45594000000E+02  0.51100000000E-03 0.  1.
         11   -1    0    0    0    0 -0.00000000000E+00 -0.00000000000E+00 -0.45593999997E+02  0.45594000000E+02  0.51100000000E-03 0. -1.
    9900012    2    1    2    0    0 -0.96016154021E+00 -0.55294960601E+00 -0.40648552158E+00  0.90007790726E+02  0.90000052764E+02 0.  0.
        -12    1    1    2    0    0  0.96016154021E+00  0.55294960601E+00  0.40648552158E+00  0.11802092735E+01  0.00000000000E+00 0.  1.
         11    1    3    3    0    0 -0.69257248688E+01  0.54820700240E+01 -0.39462138369E+01  0.96742627943E+01  0.51100000000E-03 0. -1.
        -11    1    3    3    0    0  0.30746923909E+02 -0.19743440089E+02 -0.21615263382E+02  0.42454638943E+02  0.51100000000E-03 0.  1.
         12    1    3    3    0    0 -0.24781360581E+02  0.13708420459E+02  0.25154991698E+02  0.37878888989E+02  0.00000000000E+00 0. -1.
</event>
<event>
 7    1  0.3752192E-015  0.9000846E+02  0.7816164E-02  0.1186338E+00
        -11   -1    0    0    0    0  0.00000000000E+00  0.00000000000E+00  0.45593999997E+02  0.45594000000E+02  0.51100000000E-03 0. -1.
         11   -1    0    0    0    0 -0.00000000000E+00 -0.00000000000E+00 -0.45593999997E+02  0.45594000000E+02  0.51100000000E-03 0.  1.
    9900012    2    1    2    0    0 -0.55792266753E+00  0.66583101247E+00  0.79794495233E+00  0.90008455687E+02  0.90000726499E+02 0.  0.
        -12    1    1    2    0    0  0.55792266753E+00 -0.66583101247E+00 -0.79794495233E+00  0.11795443133E+01  0.00000000000E+00 0.  1.
         11    1    3    3    0    0 -0.29520439754E+01  0.20143019398E+00  0.90551004913E+01  0.95262785454E+01  0.51100000000E-03 0. -1.
        -11    1    3    3    0    0  0.23178113625E+01  0.40031596903E+02 -0.18075360863E+00  0.40099048271E+02  0.51100000000E-03 0.  1.
         12    1    3    3    0    0  0.76309945324E-01 -0.39567196085E+02 -0.80764019303E+01  0.40383128870E+02  0.00000000000E+00 0. -1.
</event>
<event>
 7    1  0.3752192E-015  0.9000769E+02  0.7816164E-02  0.1186339E+00
        -11   -1    0    0    0    0  0.00000000000E+00  0.00000000000E+00  0.45593999997E+02  0.45594000000E+02  0.51100000000E-03 0. -1.
         11   -1    0    0    0    0 -0.00000000000E+00 -0.00000000000E+00 -0.45593999997E+02  0.45594000000E+02  0.51100000000E-03 0.  1.
    9900012    2    1    2    0    0  0.56320083753E+00  0.92223064296E+00  0.47480206049E+00  0.90007685830E+02  0.89999946483E+02 0.  0.
        -12    1    1    2    0    0 -0.56320083753E+00 -0.92223064296E+00 -0.47480206049E+00  0.11803141696E+01  0.00000000000E+00 0.  1.
         11    1    3    3    0    0  0.81682995617E+01  0.22871313007E+02 -0.31514179239E+02  0.39786449575E+02  0.51100000000E-03 0. -1.
        -11    1    3    3    0    0 -0.56174255339E+01 -0.99883420117E+01 -0.40836143273E+01  0.12165457328E+02  0.51100000000E-03 0.  1.
        -12    1    3    3    0    0 -0.19876731902E+01 -0.11960740353E+02  0.36072595627E+02  0.38055778927E+02  0.00000000000E+00 0.  1.
</event>
<event>
 8    1  0.3752192E-015  0.9000771E+02  0.7816164E-02  0.1186339E+00
        -11   -1    0    0    0    0  0.00000000000E+00  0.00000000000E+00  0.45593999997E+02  0.45594000000E+02  0.51100000000E-03 0.  1.
         11   -1    0    0    0    0 -0.00000000000E+00 -0.00000000000E+00 -0.45593999997E+02  0.45594000000E+02  0.51100000000E-03 0. -1.
    9900012    2    1    2    0    0  0.46446936508E+00 -0.68719921574E+00 -0.83971067317E+00  0.90007708270E+02  0.89999969219E+02 0.  0.
         23    2    3    3    0    0  0.65933572744E+01  0.22520048746E+02 -0.16966454218E+02  0.61090386777E+02  0.53791726429E+02 0.  0.
        -12    1    1    2    0    0 -0.46446936508E+00  0.68719921574E+00  0.83971067317E+00  0.11802917300E+01  0.00000000000E+00 0.  1.
         11    1    4    4    0    0  0.21121044493E+02  0.27225206351E+02 -0.26162880680E+02  0.43264381506E+02  0.51100000000E-03 0. -1.
        -11    1    4    4    0    0 -0.14527687219E+02 -0.47051576050E+01  0.91964264619E+01  0.17826005272E+02  0.51100000000E-03 0.  1.
        -12    1    3    3    0    0 -0.61288879093E+01 -0.23207247961E+02  0.16126743545E+02  0.28917321493E+02  0.00000000000E+00 0.  1.
</event>
<event>
 7    1  0.3752192E-015  0.9000779E+02  0.7816164E-02  0.1186339E+00
        -11   -1    0    0    0    0  0.00000000000E+00  0.00000000000E+00  0.45593999997E+02  0.45594000000E+02  0.51100000000E-03 0.  1.
         11   -1    0    0    0    0 -0.00000000000E+00 -0.00000000000E+00 -0.45593999997E+02  0.45594000000E+02  0.51100000000E-03 0. -1.
    9900012    2    1    2    0    0 -0.45226155216E+00 -0.46917582326E+00 -0.98398819223E+00  0.90007788482E+02  0.90000050490E+02 0.  0.
        -12    1    1    2    0    0  0.45226155216E+00  0.46917582326E+00  0.98398819223E+00  0.11802115180E+01  0.00000000000E+00 0.  1.
         11    1    3    3    0    0 -0.18719630345E+01  0.62253026032E+01  0.58731576728E+01  0.87608572306E+01  0.51100000000E-03 0. -1.
        -11    1    3    3    0    0 -0.19515060180E+02  0.10795925581E+02  0.28753111471E+02  0.36388610890E+02  0.51100000000E-03 0.  1.
         12    1    3    3    0    0  0.20934761662E+02 -0.17490404007E+02 -0.35610257336E+02  0.44858320362E+02  0.00000000000E+00 0. -1.
</event>
<event>
 7    1  0.3752192E-015  0.9000777E+02  0.7816164E-02  0.1186339E+00
        -11   -1    0    0    0    0  0.00000000000E+00  0.00000000000E+00  0.45593999997E+02  0.45594000000E+02  0.51100000000E-03 0. -1.
         11   -1    0    0    0    0 -0.00000000000E+00 -0.00000000000E+00 -0.45593999997E+02  0.45594000000E+02  0.51100000000E-03 0.  1.
    9900012    2    1    2    0    0  0.49304867081E-01  0.11009100183E+01  0.42249794369E+00  0.90007771907E+02  0.90000033696E+02 0.  0.
        -12    1    1    2    0    0 -0.49304867081E-01 -0.11009100183E+01 -0.42249794369E+00  0.11802280927E+01  0.00000000000E+00 0.  1.
         11    1    3    3    0    0 -0.26353063024E+02 -0.70022689700E+01  0.24883771687E+02  0.36915007722E+02  0.51100000000E-03 0. -1.
        -11    1    3    3    0    0  0.65601980470E+01 -0.64695504155E+01  0.81030001550E+01  0.12269877455E+02  0.51100000000E-03 0.  1.
        -12    1    3    3    0    0  0.19842169844E+02  0.14572729404E+02 -0.32564273899E+02  0.40822886730E+02  0.00000000000E+00 0.  1.
</event>
<event>
 7    1  0.3752192E-015  0.9000771E+02  0.7816164E-02  0.1186339E+00
        -11   -1    0    0    0    0  0.00000000000E+00  0.00000000000E+00  0.45593999997E+02  0.45594000000E+02  0.51100000000E-03 0. -1.
         11   -1    0    0    0    0 -0.00000000000E+00 -0.00000000000E+00 -0.45593999997E+02  0.45594000000E+02  0.51100000000E-03 0.  1.
    9900012    2    1    2    0    0 -0.35087615768E+00  0.69088840168E+00  0.89030152760E+00  0.90007712886E+02  0.89999973896E+02 0.  0.
        -12    1    1    2    0    0  0.35087615768E+00 -0.69088840168E+00 -0.89030152760E+00  0.11802871141E+01  0.00000000000E+00 0.  1.
         11    1    3    3    0    0 -0.64062705996E+01 -0.90036365801E+01 -0.55416373317E+00  0.11064035085E+02  0.51100000000E-03 0. -1.
        -11    1    3    3    0    0 -0.85883871146E+01 -0.25498704186E+02 -0.21510061090E+02  0.34447453270E+02  0.51100000000E-03 0.  1.
         12    1    3    3    0    0  0.14643781557E+02  0.35193229168E+02  0.22954526350E+02  0.44496224531E+02  0.00000000000E+00 0. -1.
</event>
<event>
 7    1  0.3752192E-015  0.9000770E+02  0.7816164E-02  0.1186339E+00
        -11   -1    0    0    0    0  0.00000000000E+00  0.00000000000E+00  0.45593999997E+02  0.45594000000E+02  0.51100000000E-03 0. -1.
         11   -1    0    0    0    0 -0.00000000000E+00 -0.00000000000E+00 -0.45593999997E+02  0.45594000000E+02  0.51100000000E-03 0.  1.
    9900012    2    1    2    0    0 -0.75415588940E+00  0.81154136933E+00  0.40712346867E+00  0.90007703419E+02  0.89999964304E+02 0.  0.
        -12    1    1    2    0    0  0.75415588940E+00 -0.81154136933E+00 -0.40712346867E+00  0.11802965807E+01  0.00000000000E+00 0.  1.
         11    1    3    3    0    0  0.69464440570E+01  0.14063572030E+02  0.89098208334E+01  0.18039458163E+02  0.51100000000E-03 0. -1.
        -11    1    3    3    0    0 -0.14410387370E+02 -0.12063879596E+02 -0.37625971145E+02  0.42058413664E+02  0.51100000000E-03 0.  1.
         12    1    3    3    0    0  0.67097874235E+01 -0.11881510643E+01  0.29123273780E+02  0.29909831592E+02  0.00000000000E+00 0. -1.
</event>
<event>
 7    1  0.3752192E-015  0.9000769E+02  0.7816164E-02  0.1186339E+00
        -11   -1    0    0    0    0  0.00000000000E+00  0.00000000000E+00  0.45593999997E+02  0.45594000000E+02  0.51100000000E-03 0. -1.
         11   -1    0    0    0    0 -0.00000000000E+00 -0.00000000000E+00 -0.45593999997E+02  0.45594000000E+02  0.51100000000E-03 0.  1.
    9900012    2    1    2    0    0  0.92468929308E+00  0.60993613520E+00  0.40749595097E+00  0.90007692698E+02  0.89999953441E+02 0.  0.
        -12    1    1    2    0    0 -0.92468929308E+00 -0.60993613520E+00 -0.40749595097E+00  0.11803073023E+01  0.00000000000E+00 0.  1.
         11    1    3    3    0    0 -0.47934833369E+01 -0.81488884443E+01 -0.59384783707E+00  0.94728306695E+01  0.51100000000E-03 0. -1.
        -11    1    3    3    0    0 -0.17371103033E+02 -0.28925806205E+02  0.10486279477E+02  0.35332980949E+02  0.51100000000E-03 0.  1.
         12    1    3    3    0    0  0.23089275663E+02  0.37684630785E+02 -0.94849356885E+01  0.45201881079E+02  0.00000000000E+00 0. -1.
</event>
<event>
 7    1  0.3752192E-015  0.9000775E+02  0.7816164E-02  0.1186339E+00
        -11   -1    0    0    0    0  0.00000000000E+00  0.00000000000E+00  0.45593999997E+02  0.45594000000E+02  0.51100000000E-03 0.  1.
         11   -1    0    0    0    0 -0.00000000000E+00 -0.00000000000E+00 -0.45593999997E+02  0.45594000000E+02  0.51100000000E-03 0. -1.
    9900012    2    1    2    0    0 -0.42425305277E+00  0.32680591691E+00 -0.10517641362E+01  0.90007745554E+02  0.90000006995E+02 0.  0.
        -12    1    1    2    0    0  0.42425305277E+00 -0.32680591691E+00  0.10517641362E+01  0.11802544464E+01  0.00000000000E+00 0.  1.
         11    1    3    3    0    0  0.42702067970E+01 -0.34979400798E+02  0.20198551548E+01  0.35296925664E+02  0.51100000000E-03 0. -1.
        -11    1    3    3    0    0  0.45623040680E+00 -0.76887144327E+01  0.68260500931E+01  0.10291716861E+02  0.51100000000E-03 0.  1.
        -12    1    3    3    0    0 -0.51506902566E+01  0.42994921147E+02 -0.98976693841E+01  0.44419103028E+02  0.00000000000E+00 0.  1.
</event>
<event>
 7    1  0.3752192E-015  0.9000732E+02  0.7816164E-02  0.1186340E+00
        -11   -1    0    0    0    0  0.00000000000E+00  0.00000000000E+00  0.45593999997E+02  0.45594000000E+02  0.51100000000E-03 0.  1.
         11   -1    0    0    0    0 -0.00000000000E+00 -0.00000000000E+00 -0.45593999997E+02  0.45594000000E+02  0.51100000000E-03 0. -1.
    9900012    2    1    2    0    0  0.59081251277E-01  0.42451776040E+00 -0.11001330549E+01  0.90007322795E+02  0.89999578655E+02 0.  0.
        -12    1    1    2    0    0 -0.59081251277E-01 -0.42451776040E+00  0.11001330549E+01  0.11806772046E+01  0.00000000000E+00 0.  1.
         11    1    3    3    0    0  0.20904321225E+02  0.26515666495E+02 -0.23046760979E+02  0.40880611633E+02  0.51100000000E-03 0. -1.
        -11    1    3    3    0    0  0.56381652650E+01 -0.10807600021E+02  0.13605662340E+01  0.12265572409E+02  0.51100000000E-03 0.  1.
        -12    1    3    3    0    0 -0.26483405239E+02 -0.15283548714E+02  0.20586061690E+02  0.36861138754E+02  0.00000000000E+00 0.  1.
</event>
<event>
 7    1  0.3752192E-015  0.9000775E+02  0.7816164E-02  0.1186339E+00
        -11   -1    0    0    0    0  0.00000000000E+00  0.00000000000E+00  0.45593999997E+02  0.45594000000E+02  0.51100000000E-03 0. -1.
         11   -1    0    0    0    0 -0.00000000000E+00 -0.00000000000E+00 -0.45593999997E+02  0.45594000000E+02  0.51100000000E-03 0.  1.
    9900012    2    1    2    0    0  0.10631965857E+01 -0.13414030246E+00  0.49457319361E+00  0.90007752888E+02  0.90000014427E+02 0.  0.
        -12    1    1    2    0    0 -0.10631965857E+01  0.13414030246E+00 -0.49457319361E+00  0.11802471116E+01  0.00000000000E+00 0.  1.
         11    1    3    3    0    0  0.10159403469E+02  0.18382108785E+01  0.32147097258E+02  0.33764306012E+02  0.51100000000E-03 0. -1.
        -11    1    3    3    0    0  0.64278080869E+01  0.14316998834E+01  0.98236036171E+01  0.11826650821E+02  0.51100000000E-03 0.  1.
        -12    1    3    3    0    0 -0.15524014970E+02 -0.34040510643E+01 -0.41476127681E+02  0.44416796056E+02  0.00000000000E+00 0.  1.
</event>
<event>
 7    1  0.3752192E-015  0.9000790E+02  0.7816164E-02  0.1186339E+00
        -11   -1    0    0    0    0  0.00000000000E+00  0.00000000000E+00  0.45593999997E+02  0.45594000000E+02  0.51100000000E-03 0.  1.
         11   -1    0    0    0    0 -0.00000000000E+00 -0.00000000000E+00 -0.45593999997E+02  0.45594000000E+02  0.51100000000E-03 0. -1.
    9900012    2    1    2    0    0 -0.10826203970E+01 -0.38348971178E+00 -0.27109703180E+00  0.90007904714E+02  0.90000168256E+02 0.  0.
        -12    1    1    2    0    0  0.10826203970E+01  0.38348971178E+00  0.27109703180E+00  0.11800952859E+01  0.00000000000E+00 0.  1.
         11    1    3    3    0    0  0.26629178759E+02 -0.17551275203E+02 -0.23832315483E+02  0.39813812730E+02  0.51100000000E-03 0. -1.
        -11    1    3    3    0    0 -0.79956780658E+01  0.77195118994E+00 -0.67491946322E+01  0.10491825619E+02  0.51100000000E-03 0.  1.
        -12    1    3    3    0    0 -0.19716121090E+02  0.16395834301E+02  0.30310413083E+02  0.39702266365E+02  0.00000000000E+00 0.  1.
</event>
<event>
 7    1  0.3752192E-015  0.9000774E+02  0.7816164E-02  0.1186339E+00
        -11   -1    0    0    0    0  0.00000000000E+00  0.00000000000E+00  0.45593999997E+02  0.45594000000E+02  0.51100000000E-03 0.  1.
         11   -1    0    0    0    0 -0.00000000000E+00 -0.00000000000E+00 -0.45593999997E+02  0.45594000000E+02  0.51100000000E-03 0. -1.
    9900012    2    1    2    0    0 -0.26962512671E+00  0.34397600175E+00 -0.10963590731E+01  0.90007737141E+02  0.89999998471E+02 0.  0.
        -12    1    1    2    0    0  0.26962512671E+00 -0.34397600175E+00  0.10963590731E+01  0.11802628588E+01  0.00000000000E+00 0.  1.
         11    1    3    3    0    0 -0.54565538200E+01 -0.13087846394E+00  0.80305013753E+01  0.97097920350E+01  0.51100000000E-03 0. -1.
        -11    1    3    3    0    0 -0.25864268629E+02  0.11791534907E+02  0.21186362472E+02  0.35452258634E+02  0.51100000000E-03 0.  1.
         12    1    3    3    0    0  0.31051197323E+02 -0.11316680441E+02 -0.30313222920E+02  0.44845686472E+02  0.00000000000E+00 0. -1.
</event>
<event>
 7    1  0.3752192E-015  0.9000776E+02  0.7816164E-02  0.1186339E+00
        -11   -1    0    0    0    0  0.00000000000E+00  0.00000000000E+00  0.45593999997E+02  0.45594000000E+02  0.51100000000E-03 0.  1.
         11   -1    0    0    0    0 -0.00000000000E+00 -0.00000000000E+00 -0.45593999997E+02  0.45594000000E+02  0.51100000000E-03 0. -1.
    9900012    2    1    2    0    0 -0.57520099497E+00 -0.65087284152E+00 -0.79904844917E+00  0.90007758472E+02  0.90000020084E+02 0.  0.
        -12    1    1    2    0    0  0.57520099497E+00  0.65087284152E+00  0.79904844917E+00  0.11802415281E+01  0.00000000000E+00 0.  1.
         11    1    3    3    0    0  0.15666892589E+02  0.33203501730E+02  0.17547082478E+01  0.36755993414E+02  0.51100000000E-03 0. -1.
        -11    1    3    3    0    0 -0.52378583462E+01  0.81302610358E+01 -0.18294410403E+01  0.98429243290E+01  0.51100000000E-03 0.  1.
        -12    1    3    3    0    0 -0.11004235238E+02 -0.41984635608E+02 -0.72431565670E+00  0.43408840729E+02  0.00000000000E+00 0.  1.
</event>
<event>
 7    1  0.3752192E-015  0.9000772E+02  0.7816164E-02  0.1186339E+00
        -11   -1    0    0    0    0  0.00000000000E+00  0.00000000000E+00  0.45593999997E+02  0.45594000000E+02  0.51100000000E-03 0. -1.
         11   -1    0    0    0    0 -0.00000000000E+00 -0.00000000000E+00 -0.45593999997E+02  0.45594000000E+02  0.51100000000E-03 0.  1.
    9900012    2    1    2    0    0 -0.46947286670E+00 -0.55361143878E+00 -0.93068892434E+00  0.90007715174E+02  0.89999976214E+02 0.  0.
        -12    1    1    2    0    0  0.46947286670E+00  0.55361143878E+00  0.93068892434E+00  0.11802848265E+01  0.00000000000E+00 0.  1.
         11    1    3    3    0    0  0.16781541178E+02  0.17747270636E+01  0.31191938592E+02  0.35464162388E+02  0.51100000000E-03 0. -1.
        -11    1    3    3    0    0  0.67829904554E+01 -0.16109351850E+01  0.61818328289E+01  0.93176783092E+01  0.51100000000E-03 0.  1.
        -12    1    3    3    0    0 -0.24034004500E+02 -0.71740331736E+00 -0.38304460346E+02  0.45225874477E+02  0.00000000000E+00 0.  1.
</event>
<event>
 7    1  0.3752192E-015  0.9000768E+02  0.7816164E-02  0.1186339E+00
        -11   -1    0    0    0    0  0.00000000000E+00  0.00000000000E+00  0.45593999997E+02  0.45594000000E+02  0.51100000000E-03 0.  1.
         11   -1    0    0    0    0 -0.00000000000E+00 -0.00000000000E+00 -0.45593999997E+02  0.45594000000E+02  0.51100000000E-03 0. -1.
    9900012    2    1    2    0    0 -0.93408764045E-01  0.11696871389E+01  0.12752007735E+00  0.90007680310E+02  0.89999940890E+02 0.  0.
        -12    1    1    2    0    0  0.93408764045E-01 -0.11696871389E+01 -0.12752007735E+00  0.11803196898E+01  0.00000000000E+00 0.  1.
         11    1    3    3    0    0  0.43988631992E+01 -0.15096453811E+02 -0.16893963891E+02  0.23079404917E+02  0.51100000000E-03 0. -1.
        -11    1    3    3    0    0 -0.26255885984E+02 -0.98006778585E+01  0.17364093516E+02  0.32968721224E+02  0.51100000000E-03 0.  1.
         12    1    3    3    0    0  0.21763614021E+02  0.26066818809E+02 -0.34260954803E+00  0.33959554169E+02  0.00000000000E+00 0. -1.
</event>
<event>
 7    1  0.3752192E-015  0.9000773E+02  0.7816164E-02  0.1186339E+00
        -11   -1    0    0    0    0  0.00000000000E+00  0.00000000000E+00  0.45593999997E+02  0.45594000000E+02  0.51100000000E-03 0. -1.
         11   -1    0    0    0    0 -0.00000000000E+00 -0.00000000000E+00 -0.45593999997E+02  0.45594000000E+02  0.51100000000E-03 0.  1.
    9900012    2    1    2    0    0 -0.51478653338E+00  0.88112596602E+00  0.59299673635E+00  0.90007731695E+02  0.89999992953E+02 0.  0.
        -12    1    1    2    0    0  0.51478653338E+00 -0.88112596602E+00 -0.59299673635E+00  0.11802683052E+01  0.00000000000E+00 0.  1.
         11    1    3    3    0    0 -0.27597508376E+02  0.25488131808E+02  0.44734692498E+01  0.37832251572E+02  0.51100000000E-03 0. -1.
        -11    1    3    3    0    0  0.33319608166E+01  0.91421354893E+01  0.33243636382E+01  0.10282606579E+02  0.51100000000E-03 0.  1.
        -12    1    3    3    0    0  0.23750761026E+02 -0.33749141331E+02 -0.72048361517E+01  0.41892873545E+02  0.00000000000E+00 0.  1.
</event>
<event>
 7    1  0.3752192E-015  0.9000769E+02  0.7816164E-02  0.1186339E+00
        -11   -1    0    0    0    0  0.00000000000E+00  0.00000000000E+00  0.45593999997E+02  0.45594000000E+02  0.51100000000E-03 0.  1.
         11   -1    0    0    0    0 -0.00000000000E+00 -0.00000000000E+00 -0.45593999997E+02  0.45594000000E+02  0.51100000000E-03 0. -1.
    9900012    2    1    2    0    0  0.43319422892E+00 -0.97941322186E+00 -0.49621039438E+00  0.90007689763E+02  0.89999950468E+02 0.  0.
        -12    1    1    2    0    0 -0.43319422892E+00  0.97941322186E+00  0.49621039438E+00  0.11803102366E+01  0.00000000000E+00 0.  1.
         11    1    3    3    0    0  0.16118267488E+02 -0.36619924232E+02 -0.16024760634E+02  0.43100004074E+02  0.51100000000E-03 0. -1.
        -11    1    3    3    0    0  0.45365625292E+01  0.47757605730E+01  0.57280490597E+01  0.87291944029E+01  0.51100000000E-03 0.  1.
        -12    1    3    3    0    0 -0.20221635789E+02  0.30864750437E+02  0.98005011804E+01  0.38178491286E+02  0.00000000000E+00 0.  1.
</event>
<event>
 7    1  0.3752192E-015  0.9000772E+02  0.7816164E-02  0.1186339E+00
        -11   -1    0    0    0    0  0.00000000000E+00  0.00000000000E+00  0.45593999997E+02  0.45594000000E+02  0.51100000000E-03 0. -1.
         11   -1    0    0    0    0 -0.00000000000E+00 -0.00000000000E+00 -0.45593999997E+02  0.45594000000E+02  0.51100000000E-03 0.  1.
    9900012    2    1    2    0    0 -0.55162135781E+00  0.10429982763E+01  0.30529863975E-01  0.90007718847E+02  0.89999979936E+02 0.  0.
        -12    1    1    2    0    0  0.55162135781E+00 -0.10429982763E+01 -0.30529863975E-01  0.11802811527E+01  0.00000000000E+00 0.  1.
         11    1    3    3    0    0 -0.61209237818E+00 -0.11134943220E+02  0.27404475860E+01  0.11483539125E+02  0.51100000000E-03 0. -1.
        -11    1    3    3    0    0  0.18994711313E+02 -0.11864639824E+02 -0.30056552505E+02  0.37482863881E+02  0.51100000000E-03 0.  1.
         12    1    3    3    0    0 -0.18934240293E+02  0.24042581320E+02  0.27346634783E+02  0.41041315841E+02  0.00000000000E+00 0. -1.
</event>
<event>
 7    1  0.4440057E-015  0.9000770E+02  0.7816164E-02  0.1186339E+00
        -11   -1    0    0    0    0  0.00000000000E+00  0.00000000000E+00  0.45593999997E+02  0.45594000000E+02  0.51100000000E-03 0. -1.
         11   -1    0    0    0    0 -0.00000000000E+00 -0.00000000000E+00 -0.45593999997E+02  0.45594000000E+02  0.51100000000E-03 0.  1.
    9900012    2    1    2    0    0  0.10507905974E+01 -0.13275607052E+00  0.52088995399E+00  0.90007698599E+02  0.89999959420E+02 0.  0.
        -12    1    1    2    0    0 -0.10507905974E+01  0.13275607052E+00 -0.52088995399E+00  0.11803014013E+01  0.00000000000E+00 0.  1.
         11    1    3    3    0    0  0.24583203958E+02  0.29227947639E+02  0.16299993544E+02  0.41524650870E+02  0.51100000000E-03 0. -1.
        -11    1    3    3    0    0  0.10394219549E+01 -0.76436745544E+01  0.54258342917E+01  0.94311100469E+01  0.51100000000E-03 0.  1.
        -12    1    3    3    0    0 -0.24571835316E+02 -0.21717029156E+02 -0.21204937882E+02  0.39051937682E+02  0.00000000000E+00 0.  1.
</event>
<event>
 7    1  0.3752192E-015  0.9000772E+02  0.7816164E-02  0.1186339E+00
        -11   -1    0    0    0    0  0.00000000000E+00  0.00000000000E+00  0.45593999997E+02  0.45594000000E+02  0.51100000000E-03 0.  1.
         11   -1    0    0    0    0 -0.00000000000E+00 -0.00000000000E+00 -0.45593999997E+02  0.45594000000E+02  0.51100000000E-03 0. -1.
    9900012    2    1    2    0    0  0.10986802180E+01  0.72288932540E-01 -0.42513368952E+00  0.90007719285E+02  0.89999980380E+02 0.  0.
        -12    1    1    2    0    0 -0.10986802180E+01 -0.72288932540E-01  0.42513368952E+00  0.11802807146E+01  0.00000000000E+00 0.  1.
         11    1    3    3    0    0  0.39373737110E+02  0.13530398030E+02  0.85963064851E+00  0.41642548072E+02  0.51100000000E-03 0. -1.
        -11    1    3    3    0    0  0.28033305545E+01 -0.48783617658E+01  0.26442147095E+01  0.62168277608E+01  0.51100000000E-03 0.  1.
        -12    1    3    3    0    0 -0.41078387446E+02 -0.85797473316E+01 -0.39289790476E+01  0.42148343453E+02  0.00000000000E+00 0.  1.
</event>
<event>
 7    1  0.3752192E-015  0.9000781E+02  0.7816164E-02  0.1186339E+00
        -11   -1    0    0    0    0  0.00000000000E+00  0.00000000000E+00  0.45593999997E+02  0.45594000000E+02  0.51100000000E-03 0.  1.
         11   -1    0    0    0    0 -0.00000000000E+00 -0.00000000000E+00 -0.45593999997E+02  0.45594000000E+02  0.51100000000E-03 0. -1.
    9900012    2    1    2    0    0  0.11327142523E+01  0.27908143284E+00  0.17868332186E+00  0.90007806900E+02  0.90000069151E+02 0.  0.
        -12    1    1    2    0    0 -0.11327142523E+01 -0.27908143284E+00 -0.17868332186E+00  0.11801930999E+01  0.00000000000E+00 0.  1.
         11    1    3    3    0    0 -0.19984605072E+02  0.34057922790E+02 -0.16297634327E+02  0.42719309797E+02  0.51100000000E-03 0. -1.
        -11    1    3    3    0    0  0.18496921537E+00 -0.28302154952E+01  0.86656502929E+01  0.91179947697E+01  0.51100000000E-03 0.  1.
        -12    1    3    3    0    0  0.20932350109E+02 -0.30948625862E+02  0.78106673555E+01  0.38170502333E+02  0.00000000000E+00 0.  1.
</event>
<event>
 7    1  0.3752192E-015  0.9000772E+02  0.7816164E-02  0.1186339E+00
        -11   -1    0    0    0    0  0.00000000000E+00  0.00000000000E+00  0.45593999997E+02  0.45594000000E+02  0.51100000000E-03 0.  1.
         11   -1    0    0    0    0 -0.00000000000E+00 -0.00000000000E+00 -0.45593999997E+02  0.45594000000E+02  0.51100000000E-03 0. -1.
    9900012    2    1    2    0    0 -0.10947890972E+01  0.43126967821E+00  0.92271884349E-01  0.90007715795E+02  0.89999976844E+02 0.  0.
        -12    1    1    2    0    0  0.10947890972E+01 -0.43126967821E+00 -0.92271884349E-01  0.11802842045E+01  0.00000000000E+00 0.  1.
         11    1    3    3    0    0 -0.11469293270E+02  0.96474035069E+01  0.14237005339E+02  0.20671463514E+02  0.51100000000E-03 0. -1.
        -11    1    3    3    0    0 -0.32268002270E+01 -0.49584290976E+01  0.26037618142E+02  0.26701232511E+02  0.51100000000E-03 0.  1.
         12    1    3    3    0    0  0.13601304400E+02 -0.42577047311E+01 -0.40182351597E+02  0.42635019770E+02  0.00000000000E+00 0. -1.
</event>
<event>
 7    1  0.3752192E-015  0.9000710E+02  0.7816164E-02  0.1186340E+00
        -11   -1    0    0    0    0  0.00000000000E+00  0.00000000000E+00  0.45593999997E+02  0.45594000000E+02  0.51100000000E-03 0.  1.
         11   -1    0    0    0    0 -0.00000000000E+00 -0.00000000000E+00 -0.45593999997E+02  0.45594000000E+02  0.51100000000E-03 0. -1.
    9900012    2    1    2    0    0  0.85073601797E+00  0.62353502320E+00 -0.53102152397E+00  0.90007097144E+02  0.89999350024E+02 0.  0.
        -12    1    1    2    0    0 -0.85073601797E+00 -0.62353502320E+00  0.53102152397E+00  0.11809028564E+01  0.00000000000E+00 0.  1.
         11    1    3    3    0    0  0.54803632539E-02  0.22079405244E+02 -0.33155733003E+02  0.39834693386E+02  0.51100000000E-03 0. -1.
        -11    1    3    3    0    0  0.11605339585E+02  0.58955272988E+00  0.35905734658E+01  0.12162388638E+02  0.51100000000E-03 0.  1.
        -12    1    3    3    0    0 -0.10760083930E+02 -0.22045422950E+02  0.29034138013E+02  0.38010015120E+02  0.00000000000E+00 0.  1.
</event>
<event>
 7    1  0.3752192E-015  0.9000769E+02  0.7816164E-02  0.1186339E+00
        -11   -1    0    0    0    0  0.00000000000E+00  0.00000000000E+00  0.45593999997E+02  0.45594000000E+02  0.51100000000E-03 0.  1.
         11   -1    0    0    0    0 -0.00000000000E+00 -0.00000000000E+00 -0.45593999997E+02  0.45594000000E+02  0.51100000000E-03 0. -1.
    9900012    2    1    2    0    0  0.65797358748E+00 -0.26942644594E-02 -0.97989167231E+00  0.90007693180E+02  0.89999953930E+02 0.  0.
        -12    1    1    2    0    0 -0.65797358748E+00  0.26942644594E-02  0.97989167231E+00  0.11803068204E+01  0.00000000000E+00 0.  1.
         11    1    3    3    0    0  0.25727051549E+01  0.32248505934E+02 -0.19139208028E+02  0.37588485352E+02  0.51100000000E-03 0. -1.
        -11    1    3    3    0    0  0.88259506473E+01  0.31208526787E+00 -0.58205912501E+01  0.10577054638E+02  0.51100000000E-03 0.  1.
        -12    1    3    3    0    0 -0.10740682215E+02 -0.32563285467E+02  0.23979907606E+02  0.41842153190E+02  0.00000000000E+00 0.  1.
</event>
<event>
 7    1  0.3752192E-015  0.9000752E+02  0.7816164E-02  0.1186339E+00
        -11   -1    0    0    0    0  0.00000000000E+00  0.00000000000E+00  0.45593999997E+02  0.45594000000E+02  0.51100000000E-03 0. -1.
         11   -1    0    0    0    0 -0.00000000000E+00 -0.00000000000E+00 -0.45593999997E+02  0.45594000000E+02  0.51100000000E-03 0.  1.
    9900012    2    1    2    0    0  0.18829147003E+00  0.11495060905E+01 -0.19160840954E+00  0.90007520558E+02  0.89999779029E+02 0.  0.
        -12    1    1    2    0    0 -0.18829147003E+00 -0.11495060905E+01  0.19160840954E+00  0.11804794417E+01  0.00000000000E+00 0.  1.
         11    1    3    3    0    0 -0.38101843820E+02  0.12132896455E+02  0.85074608080E-01  0.39987059367E+02  0.51100000000E-03 0. -1.
        -11    1    3    3    0    0 -0.85810671001E+00 -0.93048015960E+01  0.48063511943E+01  0.10507934713E+02  0.51100000000E-03 0.  1.
        -12    1    3    3    0    0  0.39148242000E+02 -0.16785887682E+01 -0.50830342119E+01  0.39512526479E+02  0.00000000000E+00 0.  1.
</event>
<event>
 7    1  0.3752192E-015  0.9000694E+02  0.7816164E-02  0.1186341E+00
        -11   -1    0    0    0    0  0.00000000000E+00  0.00000000000E+00  0.45593999997E+02  0.45594000000E+02  0.51100000000E-03 0. -1.
         11   -1    0    0    0    0 -0.00000000000E+00 -0.00000000000E+00 -0.45593999997E+02  0.45594000000E+02  0.51100000000E-03 0.  1.
    9900012    2    1    2    0    0  0.28885599647E+00  0.24370698658E+00  0.11189643612E+01  0.90006936021E+02  0.89999186772E+02 0.  0.
        -12    1    1    2    0    0 -0.28885599647E+00 -0.24370698658E+00 -0.11189643612E+01  0.11810639794E+01  0.00000000000E+00 0.  1.
         11    1    3    3    0    0 -0.10216088420E+02 -0.28055709012E+02 -0.16023247773E+02  0.33885627340E+02  0.51100000000E-03 0. -1.
        -11    1    3    3    0    0 -0.31390790584E+01 -0.93801136029E+01 -0.41680316666E+01  0.10733724273E+02  0.51100000000E-03 0.  1.
        -12    1    3    3    0    0  0.13644023475E+02  0.37679529601E+02  0.21310243800E+02  0.45387584408E+02  0.00000000000E+00 0.  1.
</event>
<event>
 7    1  0.3752192E-015  0.9000766E+02  0.7816164E-02  0.1186339E+00
        -11   -1    0    0    0    0  0.00000000000E+00  0.00000000000E+00  0.45593999997E+02  0.45594000000E+02  0.51100000000E-03 0.  1.
         11   -1    0    0    0    0 -0.00000000000E+00 -0.00000000000E+00 -0.45593999997E+02  0.45594000000E+02  0.51100000000E-03 0. -1.
    9900012    2    1    2    0    0  0.75488153573E+00  0.23777530537E+00 -0.87567775854E+00  0.90007663283E+02  0.89999923638E+02 0.  0.
        -12    1    1    2    0    0 -0.75488153573E+00 -0.23777530537E+00  0.87567775854E+00  0.11803367171E+01  0.00000000000E+00 0.  1.
         11    1    3    3    0    0 -0.35495781577E+02  0.19590604636E+01 -0.21821129993E+02  0.41712709599E+02  0.51100000000E-03 0. -1.
        -11    1    3    3    0    0  0.26615397398E+01 -0.84536245713E+01  0.17752957203E+01  0.90387630422E+01  0.51100000000E-03 0.  1.
        -12    1    3    3    0    0  0.33589123373E+02  0.67323394130E+01  0.19170156514E+02  0.39256190642E+02  0.00000000000E+00 0.  1.
</event>
<event>
 7    1  0.3752192E-015  0.9000773E+02  0.7816164E-02  0.1186339E+00
        -11   -1    0    0    0    0  0.00000000000E+00  0.00000000000E+00  0.45593999997E+02  0.45594000000E+02  0.51100000000E-03 0. -1.
         11   -1    0    0    0    0 -0.00000000000E+00 -0.00000000000E+00 -0.45593999997E+02  0.45594000000E+02  0.51100000000E-03 0.  1.
    9900012    2    1    2    0    0  0.24609065447E+00 -0.38865177705E+00  0.10869326282E+01  0.90007731661E+02  0.89999992919E+02 0.  0.
        -12    1    1    2    0    0 -0.24609065447E+00  0.38865177705E+00 -0.10869326282E+01  0.11802683391E+01  0.00000000000E+00 0.  1.
         11    1    3    3    0    0  0.74638738553E+01  0.68172233258E+00 -0.65005165054E+01  0.99212334599E+01  0.51100000000E-03 0. -1.
        -11    1    3    3    0    0 -0.29082794029E+02  0.10785443450E+02  0.32469758782E+02  0.44904564741E+02  0.51100000000E-03 0.  1.
         12    1    3    3    0    0  0.21865010829E+02 -0.11855817559E+02 -0.24882309648E+02  0.35181933460E+02  0.00000000000E+00 0. -1.
</event>
<event>
 7    1  0.3752192E-015  0.9000775E+02  0.7816164E-02  0.1186339E+00
        -11   -1    0    0    0    0  0.00000000000E+00  0.00000000000E+00  0.45593999997E+02  0.45594000000E+02  0.51100000000E-03 0. -1.
         11   -1    0    0    0    0 -0.00000000000E+00 -0.00000000000E+00 -0.45593999997E+02  0.45594000000E+02  0.51100000000E-03 0.  1.
    9900012    2    1    2    0    0 -0.10667678822E+00  0.52513936136E+00  0.10515896090E+01  0.90007749183E+02  0.90000010672E+02 0.  0.
        -12    1    1    2    0    0  0.10667678822E+00 -0.52513936136E+00 -0.10515896090E+01  0.11802508173E+01  0.00000000000E+00 0.  1.
         11    1    3    3    0    0 -0.52756418506E+01  0.50864565983E+01 -0.41645290411E+01  0.84289821483E+01  0.51100000000E-03 0. -1.
        -11    1    3    3    0    0  0.29402299749E+01  0.30609926921E+02 -0.21358347943E+02  0.37440507549E+02  0.51100000000E-03 0.  1.
         12    1    3    3    0    0  0.22287350875E+01 -0.35171244158E+02  0.26574466593E+02  0.44138259485E+02  0.00000000000E+00 0. -1.
</event>
<event>
 7    1  0.3752192E-015  0.9000771E+02  0.7816164E-02  0.1186339E+00
        -11   -1    0    0    0    0  0.00000000000E+00  0.00000000000E+00  0.45593999997E+02  0.45594000000E+02  0.51100000000E-03 0.  1.
         11   -1    0    0    0    0 -0.00000000000E+00 -0.00000000000E+00 -0.45593999997E+02  0.45594000000E+02  0.51100000000E-03 0. -1.
    9900012    2    1    2    0    0  0.47217401120E-01 -0.10696110793E+01 -0.49677472966E+00  0.90007710851E+02  0.89999971834E+02 0.  0.
        -12    1    1    2    0    0 -0.47217401120E-01  0.10696110793E+01  0.49677472966E+00  0.11802891493E+01  0.00000000000E+00 0.  1.
         11    1    3    3    0    0 -0.65900213904E+01 -0.52405139581E+01 -0.49672233424E+01  0.97757187186E+01  0.51100000000E-03 0. -1.
        -11    1    3    3    0    0 -0.35953963810E+02 -0.47882792109E+01 -0.14925587771E+01  0.36302105496E+02  0.51100000000E-03 0.  1.
         12    1    3    3    0    0  0.42591202602E+02  0.89591820897E+01  0.59630073898E+01  0.43929886636E+02  0.00000000000E+00 0. -1.
</event>
<event>
 7    1  0.3752192E-015  0.9000770E+02  0.7816164E-02  0.1186339E+00
        -11   -1    0    0    0    0  0.00000000000E+00  0.00000000000E+00  0.45593999997E+02  0.45594000000E+02  0.51100000000E-03 0. -1.
         11   -1    0    0    0    0 -0.00000000000E+00 -0.00000000000E+00 -0.45593999997E+02  0.45594000000E+02  0.51100000000E-03 0.  1.
    9900012    2    1    2    0    0  0.96846970781E+00 -0.10552394638E+00 -0.66636771118E+00  0.90007697156E+02  0.89999957958E+02 0.  0.
        -12    1    1    2    0    0 -0.96846970781E+00  0.10552394638E+00  0.66636771118E+00  0.11803028445E+01  0.00000000000E+00 0.  1.
         11    1    3    3    0    0 -0.33829834198E+02 -0.15484950254E+02 -0.17346249448E+01  0.37245809028E+02  0.51100000000E-03 0. -1.
        -11    1    3    3    0    0 -0.96962135491E+00 -0.63784804370E+01  0.80515649026E+01  0.10317600298E+02  0.51100000000E-03 0.  1.
        -12    1    3    3    0    0  0.35767925261E+02  0.21757906745E+02 -0.69833076690E+01  0.42444287830E+02  0.00000000000E+00 0.  1.
</event>
<event>
 7    1  0.3752192E-015  0.9000751E+02  0.7816164E-02  0.1186340E+00
        -11   -1    0    0    0    0  0.00000000000E+00  0.00000000000E+00  0.45593999997E+02  0.45594000000E+02  0.51100000000E-03 0.  1.
         11   -1    0    0    0    0 -0.00000000000E+00 -0.00000000000E+00 -0.45593999997E+02  0.45594000000E+02  0.51100000000E-03 0. -1.
    9900012    2    1    2    0    0 -0.47918615944E+00  0.16954269897E+00 -0.10654556522E+01  0.90007508641E+02  0.89999766955E+02 0.  0.
        -12    1    1    2    0    0  0.47918615944E+00 -0.16954269897E+00  0.10654556522E+01  0.11804913592E+01  0.00000000000E+00 0.  1.
         11    1    3    3    0    0  0.16428953551E+02  0.39961379532E+02 -0.42356901910E+01  0.43413862308E+02  0.51100000000E-03 0. -1.
        -11    1    3    3    0    0 -0.74954215817E+01 -0.37733378672E+01 -0.28903608936E+01  0.88754498311E+01  0.51100000000E-03 0.  1.
        -12    1    3    3    0    0 -0.94127181286E+01 -0.36018498966E+02  0.60605954323E+01  0.37718196501E+02  0.00000000000E+00 0.  1.
</event>
<event>
 7    1  0.3752192E-015  0.9000792E+02  0.7816164E-02  0.1186339E+00
        -11   -1    0    0    0    0  0.00000000000E+00  0.00000000000E+00  0.45593999997E+02  0.45594000000E+02  0.51100000000E-03 0.  1.
         11   -1    0    0    0    0 -0.00000000000E+00 -0.00000000000E+00 -0.45593999997E+02  0.45594000000E+02  0.51100000000E-03 0. -1.
    9900012    2    1    2    0    0  0.10557318779E+01 -0.49754640128E+00 -0.17453946083E+00  0.90007921086E+02  0.90000184844E+02 0.  0.
        -12    1    1    2    0    0 -0.10557318779E+01  0.49754640128E+00  0.17453946083E+00  0.11800789138E+01  0.00000000000E+00 0.  1.
         11    1    3    3    0    0 -0.74372827478E+01 -0.27086991051E+01  0.44269969802E+01  0.90690974213E+01  0.51100000000E-03 0. -1.
        -11    1    3    3    0    0 -0.79452416055E-01 -0.30903840699E+02  0.21723526522E+02  0.37775194076E+02  0.51100000000E-03 0.  1.
         12    1    3    3    0    0  0.85724670417E+01  0.33114993403E+02 -0.26325062963E+02  0.43163629589E+02  0.00000000000E+00 0. -1.
</event>
<event>
 7    1  0.3752192E-015  0.9000778E+02  0.7816164E-02  0.1186339E+00
        -11   -1    0    0    0    0  0.00000000000E+00  0.00000000000E+00  0.45593999997E+02  0.45594000000E+02  0.51100000000E-03 0.  1.
         11   -1    0    0    0    0 -0.00000000000E+00 -0.00000000000E+00 -0.45593999997E+02  0.45594000000E+02  0.51100000000E-03 0. -1.
    9900012    2    1    2    0    0  0.56815919585E+00 -0.36458811701E-01 -0.10338187158E+01  0.90007781692E+02  0.90000043611E+02 0.  0.
        -12    1    1    2    0    0 -0.56815919585E+00  0.36458811701E-01  0.10338187158E+01  0.11802183077E+01  0.00000000000E+00 0.  1.
         11    1    3    3    0    0 -0.83360818825E+01 -0.19099675947E+02 -0.30634998650E+02  0.37051194650E+02  0.51100000000E-03 0. -1.
        -11    1    3    3    0    0  0.82220787572E+00 -0.96108068971E+00 -0.88053891321E+01  0.88957619073E+01  0.51100000000E-03 0.  1.
        -12    1    3    3    0    0  0.80820332027E+01  0.20024297825E+02  0.38406569067E+02  0.44060825135E+02  0.00000000000E+00 0.  1.
</event>
<event>
 7    1  0.3752192E-015  0.9000776E+02  0.7816164E-02  0.1186339E+00
        -11   -1    0    0    0    0  0.00000000000E+00  0.00000000000E+00  0.45593999997E+02  0.45594000000E+02  0.51100000000E-03 0. -1.
         11   -1    0    0    0    0 -0.00000000000E+00 -0.00000000000E+00 -0.45593999997E+02  0.45594000000E+02  0.51100000000E-03 0.  1.
    9900012    2    1    2    0    0  0.82219269170E+00 -0.61808709629E-01  0.84448102740E+00  0.90007758777E+02  0.90000020393E+02 0.  0.
        -12    1    1    2    0    0 -0.82219269170E+00  0.61808709629E-01 -0.84448102740E+00  0.11802412230E+01  0.00000000000E+00 0.  1.
         11    1    3    3    0    0  0.73913209310E+01  0.17314354976E+01  0.86533186169E+01  0.11511273489E+02  0.51100000000E-03 0. -1.
        -11    1    3    3    0    0 -0.25116804623E+02  0.23335207296E+02 -0.25384405805E+02  0.42658572789E+02  0.51100000000E-03 0.  1.
         12    1    3    3    0    0  0.18547676384E+02 -0.25128451504E+02  0.17575568216E+02  0.35837912499E+02  0.00000000000E+00 0. -1.
</event>
<event>
 7    1  0.3752192E-015  0.9000770E+02  0.7816164E-02  0.1186339E+00
        -11   -1    0    0    0    0  0.00000000000E+00  0.00000000000E+00  0.45593999997E+02  0.45594000000E+02  0.51100000000E-03 0. -1.
         11   -1    0    0    0    0 -0.00000000000E+00 -0.00000000000E+00 -0.45593999997E+02  0.45594000000E+02  0.51100000000E-03 0.  1.
    9900012    2    1    2    0    0 -0.14032793237E+00  0.11268497166E+01 -0.32191717404E+00  0.90007697971E+02  0.89999958784E+02 0.  0.
        -12    1    1    2    0    0  0.14032793237E+00 -0.11268497166E+01  0.32191717404E+00  0.11803020288E+01  0.00000000000E+00 0.  1.
         11    1    3    3    0    0  0.17659998927E+01 -0.35758813371E+01  0.11112353460E+02  0.11806357721E+02  0.51100000000E-03 0. -1.
        -11    1    3    3    0    0 -0.37073756712E+02  0.14803722209E+02 -0.18061700408E+00  0.39920499130E+02  0.51100000000E-03 0.  1.
         12    1    3    3    0    0  0.35167428887E+02 -0.10100991156E+02 -0.11253653630E+02  0.38280841120E+02  0.00000000000E+00 0. -1.
</event>
<event>
 7    1  0.3752192E-015  0.9000773E+02  0.7816164E-02  0.1186339E+00
        -11   -1    0    0    0    0  0.00000000000E+00  0.00000000000E+00  0.45593999997E+02  0.45594000000E+02  0.51100000000E-03 0.  1.
         11   -1    0    0    0    0 -0.00000000000E+00 -0.00000000000E+00 -0.45593999997E+02  0.45594000000E+02  0.51100000000E-03 0. -1.
    9900012    2    1    2    0    0  0.25384949227E+00  0.10945368022E-01 -0.11525966245E+01  0.90007729546E+02  0.89999990776E+02 0.  0.
        -12    1    1    2    0    0 -0.25384949227E+00 -0.10945368022E-01  0.11525966245E+01  0.11802704540E+01  0.00000000000E+00 0.  1.
         11    1    3    3    0    0  0.19103847355E+02 -0.24778081765E+02  0.19982635534E+02  0.37124332221E+02  0.51100000000E-03 0. -1.
        -11    1    3    3    0    0  0.63021852160E+01 -0.53560284777E+01 -0.79401850367E+01  0.11465213397E+02  0.51100000000E-03 0.  1.
        -12    1    3    3    0    0 -0.25152183078E+02  0.30145055611E+02 -0.13195047121E+02  0.41418183929E+02  0.00000000000E+00 0.  1.
</event>
<event>
 7    1  0.3752192E-015  0.9000776E+02  0.7816164E-02  0.1186339E+00
        -11   -1    0    0    0    0  0.00000000000E+00  0.00000000000E+00  0.45593999997E+02  0.45594000000E+02  0.51100000000E-03 0. -1.
         11   -1    0    0    0    0 -0.00000000000E+00 -0.00000000000E+00 -0.45593999997E+02  0.45594000000E+02  0.51100000000E-03 0.  1.
    9900012    2    1    2    0    0 -0.16062370583E+00  0.76719540386E+00  0.88236651375E+00  0.90007762978E+02  0.90000024650E+02 0.  0.
        -12    1    1    2    0    0  0.16062370583E+00 -0.76719540386E+00 -0.88236651375E+00  0.11802370216E+01  0.00000000000E+00 0.  1.
         11    1    3    3    0    0  0.10602062413E+02  0.26978921903E+01  0.20173938134E+01  0.11124397860E+02  0.51100000000E-03 0. -1.
        -11    1    3    3    0    0  0.13888247827E+02 -0.48855730595E+01 -0.34374868410E+02  0.37394970654E+02  0.51100000000E-03 0.  1.
         12    1    3    3    0    0 -0.24650933946E+02  0.29548762730E+01  0.33239841110E+02  0.41488394464E+02  0.00000000000E+00 0. -1.
</event>
<event>
 7    1  0.3752192E-015  0.9000785E+02  0.7816164E-02  0.1186339E+00
        -11   -1    0    0    0    0  0.00000000000E+00  0.00000000000E+00  0.45593999997E+02  0.45594000000E+02  0.51100000000E-03 0. -1.
         11   -1    0    0    0    0 -0.00000000000E+00 -0.00000000000E+00 -0.45593999997E+02  0.45594000000E+02  0.51100000000E-03 0.  1.
    9900012    2    1    2    0    0 -0.75788360701E+00  0.75171587093E+00  0.50327539850E+00  0.90007851518E+02  0.90000114358E+02 0.  0.
        -12    1    1    2    0    0  0.75788360701E+00 -0.75171587093E+00 -0.50327539850E+00  0.11801484818E+01  0.00000000000E+00 0.  1.
         11    1    3    3    0    0  0.16352068588E+02  0.29229001545E+02  0.12707220384E+02  0.35821754963E+02  0.51100000000E-03 0. -1.
        -11    1    3    3    0    0 -0.96266382386E+01  0.63048346483E+01  0.72852831833E+01  0.13619781755E+02  0.51100000000E-03 0.  1.
        -12    1    3    3    0    0 -0.74833139566E+01 -0.34782120323E+02 -0.19489228169E+02  0.40566314801E+02  0.00000000000E+00 0.  1.
</event>
<event>
 7    1  0.3752192E-015  0.9000770E+02  0.7816164E-02  0.1186339E+00
        -11   -1    0    0    0    0  0.00000000000E+00  0.00000000000E+00  0.45593999997E+02  0.45594000000E+02  0.51100000000E-03 0. -1.
         11   -1    0    0    0    0 -0.00000000000E+00 -0.00000000000E+00 -0.45593999997E+02  0.45594000000E+02  0.51100000000E-03 0.  1.
    9900012    2    1    2    0    0  0.58907263023E+00 -0.68867000553E+00  0.75619109775E+00  0.90007704310E+02  0.89999965207E+02 0.  0.
        -12    1    1    2    0    0 -0.58907263023E+00  0.68867000553E+00 -0.75619109775E+00  0.11802956903E+01  0.00000000000E+00 0.  1.
         11    1    3    3    0    0  0.20551396422E+01 -0.78927286519E+01  0.34714105798E+01  0.88639413466E+01  0.51100000000E-03 0. -1.
        -11    1    3    3    0    0  0.18660203212E+02 -0.89700665259E+01 -0.34474006741E+02  0.40213460663E+02  0.51100000000E-03 0.  1.
         12    1    3    3    0    0 -0.20126270224E+02  0.16174125172E+02  0.31758787259E+02  0.40930302300E+02  0.00000000000E+00 0. -1.
</event>
<event>
 7    1  0.3752192E-015  0.9000786E+02  0.7816164E-02  0.1186339E+00
        -11   -1    0    0    0    0  0.00000000000E+00  0.00000000000E+00  0.45593999997E+02  0.45594000000E+02  0.51100000000E-03 0.  1.
         11   -1    0    0    0    0 -0.00000000000E+00 -0.00000000000E+00 -0.45593999997E+02  0.45594000000E+02  0.51100000000E-03 0. -1.
    9900012    2    1    2    0    0  0.83768044789E+00 -0.57754628659E+00  0.59788007924E+00  0.90007860671E+02  0.90000123632E+02 0.  0.
        -12    1    1    2    0    0 -0.83768044789E+00  0.57754628659E+00 -0.59788007924E+00  0.11801393287E+01  0.00000000000E+00 0.  1.
         11    1    3    3    0    0 -0.69229072757E+01 -0.96069099018E+01 -0.51766900009E+01  0.12923524389E+02  0.51100000000E-03 0. -1.
        -11    1    3    3    0    0 -0.33351013128E+02  0.12460504575E+02  0.20403850905E+01  0.35661147240E+02  0.51100000000E-03 0.  1.
         12    1    3    3    0    0  0.41111600851E+02 -0.34311409599E+01  0.37341849896E+01  0.41423189042E+02  0.00000000000E+00 0. -1.
</event>
<event>
 7    1  0.3752192E-015  0.9000776E+02  0.7816164E-02  0.1186339E+00
        -11   -1    0    0    0    0  0.00000000000E+00  0.00000000000E+00  0.45593999997E+02  0.45594000000E+02  0.51100000000E-03 0.  1.
         11   -1    0    0    0    0 -0.00000000000E+00 -0.00000000000E+00 -0.45593999997E+02  0.45594000000E+02  0.51100000000E-03 0. -1.
    9900012    2    1    2    0    0 -0.50260569467E+00  0.38206574839E+00 -0.99718117817E+00  0.90007763997E+02  0.90000025682E+02 0.  0.
        -12    1    1    2    0    0  0.50260569467E+00 -0.38206574839E+00  0.99718117817E+00  0.11802360029E+01  0.00000000000E+00 0.  1.
         11    1    3    3    0    0 -0.37851621133E+02  0.85213770259E+01 -0.95845018583E+00  0.38810793805E+02  0.51100000000E-03 0. -1.
        -11    1    3    3    0    0 -0.81529772740E+00 -0.23754636839E+01  0.10815037359E+02  0.11102818175E+02  0.51100000000E-03 0.  1.
        -12    1    3    3    0    0  0.38164313165E+02 -0.57638475936E+01 -0.10853768351E+02  0.40094152016E+02  0.00000000000E+00 0.  1.
</event>
<event>
 7    1  0.3752192E-015  0.9000720E+02  0.7816164E-02  0.1186340E+00
        -11   -1    0    0    0    0  0.00000000000E+00  0.00000000000E+00  0.45593999997E+02  0.45594000000E+02  0.51100000000E-03 0. -1.
         11   -1    0    0    0    0 -0.00000000000E+00 -0.00000000000E+00 -0.45593999997E+02  0.45594000000E+02  0.51100000000E-03 0.  1.
    9900012    2    1    2    0    0  0.31084609481E+00  0.10124535739E+01  0.52211625282E+00  0.90007198190E+02  0.89999452404E+02 0.  0.
        -12    1    1    2    0    0 -0.31084609481E+00 -0.10124535739E+01 -0.52211625282E+00  0.11808018104E+01  0.00000000000E+00 0.  1.
         11    1    3    3    0    0  0.99522508849E+01  0.55675090944E+01  0.72795746924E+01  0.13529104300E+02  0.51100000000E-03 0. -1.
        -11    1    3    3    0    0 -0.57913538403E+01 -0.21739649979E+02 -0.35935709049E+02  0.42397256346E+02  0.51100000000E-03 0.  1.
         12    1    3    3    0    0 -0.38500509498E+01  0.17184594459E+02  0.29178250610E+02  0.34080837544E+02  0.00000000000E+00 0. -1.
</event>
<event>
 7    1  0.3752192E-015  0.9000785E+02  0.7816164E-02  0.1186339E+00
        -11   -1    0    0    0    0  0.00000000000E+00  0.00000000000E+00  0.45593999997E+02  0.45594000000E+02  0.51100000000E-03 0.  1.
         11   -1    0    0    0    0 -0.00000000000E+00 -0.00000000000E+00 -0.45593999997E+02  0.45594000000E+02  0.51100000000E-03 0. -1.
    9900012    2    1    2    0    0  0.10279644119E+01 -0.56709872023E+00  0.12012819617E+00  0.90007854850E+02  0.90000117734E+02 0.  0.
        -12    1    1    2    0    0 -0.10279644119E+01  0.56709872023E+00 -0.12012819617E+00  0.11801451496E+01  0.00000000000E+00 0.  1.
         11    1    3    3    0    0  0.15239989116E+01 -0.36521854063E+01  0.78689178911E+01  0.88080020414E+01  0.51100000000E-03 0. -1.
        -11    1    3    3    0    0 -0.19126480082E+01 -0.22524809478E+02  0.28760592925E+02  0.36581374634E+02  0.51100000000E-03 0.  1.
         12    1    3    3    0    0  0.14166135085E+01  0.25609896164E+02 -0.36509382620E+02  0.44618478175E+02  0.00000000000E+00 0. -1.
</event>
<event>
 7    1  0.3752192E-015  0.9000772E+02  0.7816164E-02  0.1186339E+00
        -11   -1    0    0    0    0  0.00000000000E+00  0.00000000000E+00  0.45593999997E+02  0.45594000000E+02  0.51100000000E-03 0. -1.
         11   -1    0    0    0    0 -0.00000000000E+00 -0.00000000000E+00 -0.45593999997E+02  0.45594000000E+02  0.51100000000E-03 0.  1.
    9900012    2    1    2    0    0 -0.11283753429E+01 -0.33371314710E+00 -0.92050142249E-01  0.90007716726E+02  0.89999977786E+02 0.  0.
        -12    1    1    2    0    0  0.11283753429E+01  0.33371314710E+00  0.92050142249E-01  0.11802832744E+01  0.00000000000E+00 0.  1.
         11    1    3    3    0    0 -0.33500445874E+02 -0.17314248849E+02 -0.30343730807E+01  0.37832135906E+02  0.51100000000E-03 0. -1.
        -11    1    3    3    0    0 -0.14261589841E+01 -0.52383285813E+01  0.97496311332E+01  0.11159270732E+02  0.51100000000E-03 0.  1.
        -12    1    3    3    0    0  0.33798229515E+02  0.22218864283E+02 -0.68073081948E+01  0.41016310088E+02  0.00000000000E+00 0.  1.
</event>
<event>
 7    1  0.3752192E-015  0.9000777E+02  0.7816164E-02  0.1186339E+00
        -11   -1    0    0    0    0  0.00000000000E+00  0.00000000000E+00  0.45593999997E+02  0.45594000000E+02  0.51100000000E-03 0. -1.
         11   -1    0    0    0    0 -0.00000000000E+00 -0.00000000000E+00 -0.45593999997E+02  0.45594000000E+02  0.51100000000E-03 0.  1.
    9900012    2    1    2    0    0 -0.31335443499E-01  0.18367775667E+00  0.11654322869E+01  0.90007766191E+02  0.90000027905E+02 0.  0.
        -12    1    1    2    0    0  0.31335443499E-01 -0.18367775667E+00 -0.11654322869E+01  0.11802338089E+01  0.00000000000E+00 0.  1.
         11    1    3    3    0    0 -0.38333780854E+02  0.72417326904E+01  0.36522842138E+01  0.39182402009E+02  0.51100000000E-03 0. -1.
        -11    1    3    3    0    0  0.30287069168E+00  0.78116580215E+01 -0.60207569802E+01  0.98672816204E+01  0.51100000000E-03 0.  1.
        -12    1    3    3    0    0  0.37999574719E+02 -0.14869712955E+02  0.35339050533E+01  0.40958082562E+02  0.00000000000E+00 0.  1.
</event>
<event>
 7    1  0.3752192E-015  0.9000773E+02  0.7816164E-02  0.1186339E+00
        -11   -1    0    0    0    0  0.00000000000E+00  0.00000000000E+00  0.45593999997E+02  0.45594000000E+02  0.51100000000E-03 0.  1.
         11   -1    0    0    0    0 -0.00000000000E+00 -0.00000000000E+00 -0.45593999997E+02  0.45594000000E+02  0.51100000000E-03 0. -1.
    9900012    2    1    2    0    0 -0.20874558741E+00  0.43052653961E+00 -0.10789433045E+01  0.90007726101E+02  0.89999987286E+02 0.  0.
        -12    1    1    2    0    0  0.20874558741E+00 -0.43052653961E+00  0.10789433045E+01  0.11802738987E+01  0.00000000000E+00 0.  1.
         11    1    3    3    0    0 -0.39375934516E+01 -0.16269959884E+01  0.77703029716E+01  0.88616796753E+01  0.51100000000E-03 0. -1.
        -11    1    3    3    0    0 -0.66849912644E+01 -0.37112824730E+02  0.55851537861E+01  0.38121448172E+02  0.51100000000E-03 0.  1.
         12    1    3    3    0    0  0.10413839129E+02  0.39170347258E+02 -0.14434400062E+02  0.43024598254E+02  0.00000000000E+00 0. -1.
</event>
<event>
 7    1  0.3752192E-015  0.9000772E+02  0.7816164E-02  0.1186339E+00
        -11   -1    0    0    0    0  0.00000000000E+00  0.00000000000E+00  0.45593999997E+02  0.45594000000E+02  0.51100000000E-03 0.  1.
         11   -1    0    0    0    0 -0.00000000000E+00 -0.00000000000E+00 -0.45593999997E+02  0.45594000000E+02  0.51100000000E-03 0. -1.
    9900012    2    1    2    0    0 -0.83128586498E-01 -0.88326847012E+00 -0.77845443953E+00  0.90007718310E+02  0.89999979392E+02 0.  0.
        -12    1    1    2    0    0  0.83128586498E-01  0.88326847012E+00  0.77845443953E+00  0.11802816895E+01  0.00000000000E+00 0.  1.
         11    1    3    3    0    0  0.34183839827E+02 -0.12817192572E+02 -0.57273783975E+01  0.36954271665E+02  0.51100000000E-03 0. -1.
        -11    1    3    3    0    0  0.13578146547E+01 -0.76854439081E+01 -0.71889373164E+01  0.10610868423E+02  0.51100000000E-03 0.  1.
        -12    1    3    3    0    0 -0.35624783068E+02  0.19619368010E+02  0.12137861274E+02  0.42442578222E+02  0.00000000000E+00 0.  1.
</event>
<event>
 7    1  0.3752192E-015  0.9000765E+02  0.7816164E-02  0.1186339E+00
        -11   -1    0    0    0    0  0.00000000000E+00  0.00000000000E+00  0.45593999997E+02  0.45594000000E+02  0.51100000000E-03 0. -1.
         11   -1    0    0    0    0 -0.00000000000E+00 -0.00000000000E+00 -0.45593999997E+02  0.45594000000E+02  0.51100000000E-03 0.  1.
    9900012    2    1    2    0    0 -0.21325198330E+00  0.10778314426E+01  0.43130356606E+00  0.90007652681E+02  0.89999912896E+02 0.  0.
        -12    1    1    2    0    0  0.21325198330E+00 -0.10778314426E+01 -0.43130356606E+00  0.11803473189E+01  0.00000000000E+00 0.  1.
         11    1    3    3    0    0 -0.11165064736E+02  0.72052816396E+01  0.38493114451E+02  0.40722163676E+02  0.51100000000E-03 0. -1.
        -11    1    3    3    0    0  0.84009945993E+01 -0.90673041850E+00  0.20989389483E+01  0.87065731077E+01  0.51100000000E-03 0.  1.
        -12    1    3    3    0    0  0.25508181534E+01 -0.52207197785E+01 -0.40160749833E+02  0.40578915897E+02  0.00000000000E+00 0.  1.
</event>
<event>
 7    1  0.4650967E-015  0.9000779E+02  0.7816164E-02  0.1186339E+00
        -11   -1    0    0    0    0  0.00000000000E+00  0.00000000000E+00  0.45593999997E+02  0.45594000000E+02  0.51100000000E-03 0. -1.
         11   -1    0    0    0    0 -0.00000000000E+00 -0.00000000000E+00 -0.45593999997E+02  0.45594000000E+02  0.51100000000E-03 0.  1.
    9900012    2    1    2    0    0 -0.57225092691E+00  0.98122534799E+00  0.32035110690E+00  0.90007788520E+02  0.90000050528E+02 0.  0.
        -12    1    1    2    0    0  0.57225092691E+00 -0.98122534799E+00 -0.32035110690E+00  0.11802114804E+01  0.00000000000E+00 0.  1.
         11    1    3    3    0    0 -0.10420786916E+02 -0.31745750925E+02  0.12045920154E+02  0.35517456191E+02  0.51100000000E-03 0. -1.
        -11    1    3    3    0    0  0.53464632348E+01 -0.88029580961E+01  0.20557298198E+01  0.10502512353E+02  0.51100000000E-03 0.  1.
        -12    1    3    3    0    0  0.45020727542E+01  0.41529934369E+02 -0.13781298866E+02  0.43987819975E+02  0.00000000000E+00 0.  1.
</event>
<event>
 7    1  0.3752192E-015  0.9000771E+02  0.7816164E-02  0.1186339E+00
        -11   -1    0    0    0    0  0.00000000000E+00  0.00000000000E+00  0.45593999997E+02  0.45594000000E+02  0.51100000000E-03 0.  1.
         11   -1    0    0    0    0 -0.00000000000E+00 -0.00000000000E+00 -0.45593999997E+02  0.45594000000E+02  0.51100000000E-03 0. -1.
    9900012    2    1    2    0    0  0.18235304461E+00  0.11556469830E+01 -0.15590090722E+00  0.90007712885E+02  0.89999973895E+02 0.  0.
        -12    1    1    2    0    0 -0.18235304461E+00 -0.11556469830E+01  0.15590090722E+00  0.11802871155E+01  0.00000000000E+00 0.  1.
         11    1    3    3    0    0  0.94695144054E+00  0.99360054621E+01  0.96598070045E+01  0.13890024953E+02  0.51100000000E-03 0. -1.
        -11    1    3    3    0    0  0.82792734304E+01  0.18053308940E+02  0.24556837656E+02  0.31583328010E+02  0.51100000000E-03 0.  1.
         12    1    3    3    0    0 -0.90438718263E+01 -0.26833667419E+02 -0.34372545568E+02  0.44534359922E+02  0.00000000000E+00 0. -1.
</event>
<event>
 7    1  0.3752192E-015  0.9000771E+02  0.7816164E-02  0.1186339E+00
        -11   -1    0    0    0    0  0.00000000000E+00  0.00000000000E+00  0.45593999997E+02  0.45594000000E+02  0.51100000000E-03 0.  1.
         11   -1    0    0    0    0 -0.00000000000E+00 -0.00000000000E+00 -0.45593999997E+02  0.45594000000E+02  0.51100000000E-03 0. -1.
    9900012    2    1    2    0    0 -0.11695743079E+01 -0.15407463252E+00  0.37998208162E-01  0.90007708969E+02  0.89999969927E+02 0.  0.
        -12    1    1    2    0    0  0.11695743079E+01  0.15407463252E+00 -0.37998208162E-01  0.11802910310E+01  0.00000000000E+00 0.  1.
         11    1    3    3    0    0  0.27002960818E+02 -0.85482859863E+01  0.23082457381E+02  0.36538102376E+02  0.51100000000E-03 0. -1.
        -11    1    3    3    0    0  0.40920859802E+01  0.12801040058E+02  0.23313852515E+00  0.13441210811E+02  0.51100000000E-03 0.  1.
        -12    1    3    3    0    0 -0.32264621106E+02 -0.44068287043E+01 -0.23277597698E+02  0.40028395782E+02  0.00000000000E+00 0.  1.
</event>
<event>
 7    1  0.3752192E-015  0.9000767E+02  0.7816164E-02  0.1186339E+00
        -11   -1    0    0    0    0  0.00000000000E+00  0.00000000000E+00  0.45593999997E+02  0.45594000000E+02  0.51100000000E-03 0.  1.
         11   -1    0    0    0    0 -0.00000000000E+00 -0.00000000000E+00 -0.45593999997E+02  0.45594000000E+02  0.51100000000E-03 0. -1.
    9900012    2    1    2    0    0  0.44279516893E+00  0.10036503203E+01  0.43564417701E+00  0.90007674885E+02  0.89999935394E+02 0.  0.
        -12    1    1    2    0    0 -0.44279516893E+00 -0.10036503203E+01 -0.43564417701E+00  0.11803251146E+01  0.00000000000E+00 0.  1.
         11    1    3    3    0    0  0.62296073979E+01  0.67923032468E+01  0.13417872200E+01  0.93136343568E+01  0.51100000000E-03 0. -1.
        -11    1    3    3    0    0  0.23399649392E+02 -0.23371416037E+02 -0.22820888798E+02  0.40181583406E+02  0.51100000000E-03 0.  1.
         12    1    3    3    0    0 -0.29186461621E+02  0.17582763110E+02  0.21914745755E+02  0.40512457122E+02  0.00000000000E+00 0. -1.
</event>
<event>
 7    1  0.3752192E-015  0.9000762E+02  0.7816164E-02  0.1186339E+00
        -11   -1    0    0    0    0  0.00000000000E+00  0.00000000000E+00  0.45593999997E+02  0.45594000000E+02  0.51100000000E-03 0.  1.
         11   -1    0    0    0    0 -0.00000000000E+00 -0.00000000000E+00 -0.45593999997E+02  0.45594000000E+02  0.51100000000E-03 0. -1.
    9900012    2    1    2    0    0  0.73740439042E+00  0.51498001232E+00 -0.76440957330E+00  0.90007622245E+02  0.89999882059E+02 0.  0.
        -12    1    1    2    0    0 -0.73740439042E+00 -0.51498001232E+00  0.76440957330E+00  0.11803777547E+01  0.00000000000E+00 0.  1.
         11    1    3    3    0    0 -0.20651206834E+02 -0.24394583093E+01 -0.36363055531E+02  0.41889081016E+02  0.51100000000E-03 0. -1.
        -11    1    3    3    0    0  0.36239095219E+01  0.73099057981E+01  0.71271519755E-01  0.81591986672E+01  0.51100000000E-03 0.  1.
        -12    1    3    3    0    0  0.17764701702E+02 -0.43554674765E+01  0.35527374438E+02  0.39959342562E+02  0.00000000000E+00 0.  1.
</event>
<event>
 7    1  0.3752192E-015  0.9000773E+02  0.7816164E-02  0.1186339E+00
        -11   -1    0    0    0    0  0.00000000000E+00  0.00000000000E+00  0.45593999997E+02  0.45594000000E+02  0.51100000000E-03 0. -1.
         11   -1    0    0    0    0 -0.00000000000E+00 -0.00000000000E+00 -0.45593999997E+02  0.45594000000E+02  0.51100000000E-03 0.  1.
    9900012    2    1    2    0    0 -0.10664259243E+01  0.18224637745E+00  0.47175177239E+00  0.90007734043E+02  0.89999995332E+02 0.  0.
        -12    1    1    2    0    0  0.10664259243E+01 -0.18224637745E+00 -0.47175177239E+00  0.11802659569E+01  0.00000000000E+00 0.  1.
         11    1    3    3    0    0 -0.81746602867E+01 -0.45035712638E+01  0.86654779734E+00  0.93732667879E+01  0.51100000000E-03 0. -1.
        -11    1    3    3    0    0 -0.33650948978E+02  0.11721058025E+02 -0.12127014782E+02  0.37640856209E+02  0.51100000000E-03 0.  1.
         12    1    3    3    0    0  0.40759183340E+02 -0.70352403839E+01  0.11732218757E+02  0.42993611046E+02  0.00000000000E+00 0. -1.
</event>
<event>
 7    1  0.3752192E-015  0.9000676E+02  0.7816164E-02  0.1186341E+00
        -11   -1    0    0    0    0  0.00000000000E+00  0.00000000000E+00  0.45593999997E+02  0.45594000000E+02  0.51100000000E-03 0.  1.
         11   -1    0    0    0    0 -0.00000000000E+00 -0.00000000000E+00 -0.45593999997E+02  0.45594000000E+02  0.51100000000E-03 0. -1.
    9900012    2    1    2    0    0  0.13391208799E+00 -0.47864202386E+00 -0.10715833252E+01  0.90006762743E+02  0.89999011206E+02 0.  0.
        -12    1    1    2    0    0 -0.13391208799E+00  0.47864202386E+00  0.10715833252E+01  0.11812372569E+01  0.00000000000E+00 0.  1.
         11    1    3    3    0    0 -0.25995418135E+02 -0.17194054654E+02 -0.18259192428E+02  0.36121951606E+02  0.51100000000E-03 0. -1.
        -11    1    3    3    0    0 -0.10583847297E+02  0.36696393568E+01 -0.23548667360E+00  0.11204442460E+02  0.51100000000E-03 0.  1.
        -12    1    3    3    0    0  0.36713177520E+02  0.13045773273E+02  0.17423095776E+02  0.42680368676E+02  0.00000000000E+00 0.  1.
</event>
<event>
 7    1  0.3752192E-015  0.9000770E+02  0.7816164E-02  0.1186339E+00
        -11   -1    0    0    0    0  0.00000000000E+00  0.00000000000E+00  0.45593999997E+02  0.45594000000E+02  0.51100000000E-03 0.  1.
         11   -1    0    0    0    0 -0.00000000000E+00 -0.00000000000E+00 -0.45593999997E+02  0.45594000000E+02  0.51100000000E-03 0. -1.
    9900012    2    1    2    0    0 -0.10180761390E+01  0.54145381107E+00  0.25191472094E+00  0.90007698225E+02  0.89999959041E+02 0.  0.
        -12    1    1    2    0    0  0.10180761390E+01 -0.54145381107E+00 -0.25191472094E+00  0.11803017753E+01  0.00000000000E+00 0.  1.
         11    1    3    3    0    0  0.53093670761E+01  0.37080593446E+02 -0.34544277221E+01  0.37617720029E+02  0.51100000000E-03 0. -1.
        -11    1    3    3    0    0 -0.34786522607E+01  0.70151369445E+01  0.38876604203E+01  0.87422578151E+01  0.51100000000E-03 0.  1.
        -12    1    3    3    0    0 -0.28487909543E+01 -0.43554276579E+02 -0.18131797731E+00  0.43647720381E+02  0.00000000000E+00 0.  1.
</event>
<event>
 7    1  0.3752192E-015  0.9000775E+02  0.7816164E-02  0.1186339E+00
        -11   -1    0    0    0    0  0.00000000000E+00  0.00000000000E+00  0.45593999997E+02  0.45594000000E+02  0.51100000000E-03 0.  1.
         11   -1    0    0    0    0 -0.00000000000E+00 -0.00000000000E+00 -0.45593999997E+02  0.45594000000E+02  0.51100000000E-03 0. -1.
    9900012    2    1    2    0    0  0.71664325267E+00  0.92824719077E+00 -0.13330610375E+00  0.90007749638E+02  0.90000011134E+02 0.  0.
        -12    1    1    2    0    0 -0.71664325267E+00 -0.92824719077E+00  0.13330610375E+00  0.11802503616E+01  0.00000000000E+00 0.  1.
         11    1    3    3    0    0  0.30238755820E+02 -0.20739343078E+02  0.10032725780E+02  0.38015237625E+02  0.51100000000E-03 0. -1.
        -11    1    3    3    0    0 -0.73269894630E+01  0.13324193370E+01  0.12335908759E+02  0.14409537156E+02  0.51100000000E-03 0.  1.
        -12    1    3    3    0    0 -0.22195123104E+02  0.20335170931E+02 -0.22501940643E+02  0.37582974857E+02  0.00000000000E+00 0.  1.
</event>
<event>
 7    1  0.3752192E-015  0.9000771E+02  0.7816164E-02  0.1186339E+00
        -11   -1    0    0    0    0  0.00000000000E+00  0.00000000000E+00  0.45593999997E+02  0.45594000000E+02  0.51100000000E-03 0. -1.
         11   -1    0    0    0    0 -0.00000000000E+00 -0.00000000000E+00 -0.45593999997E+02  0.45594000000E+02  0.51100000000E-03 0.  1.
    9900012    2    1    2    0    0 -0.10579707327E+01 -0.47310317662E+00 -0.22352573036E+00  0.90007706630E+02  0.89999967558E+02 0.  0.
        -12    1    1    2    0    0  0.10579707327E+01  0.47310317662E+00  0.22352573036E+00  0.11802933699E+01  0.00000000000E+00 0.  1.
         11    1    3    3    0    0  0.30449835539E+01 -0.43476610487E+01  0.41722705707E+01  0.67514386181E+01  0.51100000000E-03 0. -1.
        -11    1    3    3    0    0  0.38568025854E+02  0.10413992656E+02 -0.30633664725E+01  0.40066545592E+02  0.51100000000E-03 0.  1.
         12    1    3    3    0    0 -0.42670980140E+02 -0.65394347842E+01 -0.13324298286E+01  0.43189722420E+02  0.00000000000E+00 0. -1.
</event>
<event>
 7    1  0.5839326E-015  0.9000757E+02  0.7816164E-02  0.1186339E+00
        -11   -1    0    0    0    0  0.00000000000E+00  0.00000000000E+00  0.45593999997E+02  0.45594000000E+02  0.51100000000E-03 0. -1.
         11   -1    0    0    0    0 -0.00000000000E+00 -0.00000000000E+00 -0.45593999997E+02  0.45594000000E+02  0.51100000000E-03 0.  1.
    9900012    2    1    2    0    0  0.59103349383E+00  0.60988939757E+00  0.81983464699E+00  0.90007570198E+02  0.89999829325E+02 0.  0.
        -12    1    1    2    0    0 -0.59103349383E+00 -0.60988939757E+00 -0.81983464699E+00  0.11804298016E+01  0.00000000000E+00 0.  1.
         11    1    3    3    0    0  0.57231854317E+01 -0.28646828104E+02  0.30293040392E+02  0.42084010127E+02  0.51100000000E-03 0. -1.
        -11    1    3    3    0    0 -0.32406542757E+01  0.85948553995E+01  0.27588502114E+01  0.95908620167E+01  0.51100000000E-03 0.  1.
        -12    1    3    3    0    0 -0.18914976621E+01  0.20661862102E+02 -0.32232055957E+02  0.38332698055E+02  0.00000000000E+00 0.  1.
</event>
<event>
 7    1  0.3752192E-015  0.9000774E+02  0.7816164E-02  0.1186339E+00
        -11   -1    0    0    0    0  0.00000000000E+00  0.00000000000E+00  0.45593999997E+02  0.45594000000E+02  0.51100000000E-03 0.  1.
         11   -1    0    0    0    0 -0.00000000000E+00 -0.00000000000E+00 -0.45593999997E+02  0.45594000000E+02  0.51100000000E-03 0. -1.
    9900012    2    1    2    0    0  0.55818491467E+00  0.95152760136E+00  0.41957642649E+00  0.90007737507E+02  0.89999998842E+02 0.  0.
        -12    1    1    2    0    0 -0.55818491467E+00 -0.95152760136E+00 -0.41957642649E+00  0.11802624932E+01  0.00000000000E+00 0.  1.
         11    1    3    3    0    0 -0.66476914513E+00  0.36809797149E+01 -0.75975649785E+01  0.84684428050E+01  0.51100000000E-03 0. -1.
        -11    1    3    3    0    0 -0.21205075426E+02 -0.15681973856E+02 -0.27158649378E+02  0.37857255106E+02  0.51100000000E-03 0.  1.
         12    1    3    3    0    0  0.22428029486E+02  0.12952521742E+02  0.35175790783E+02  0.43682039596E+02  0.00000000000E+00 0. -1.
</event>
<event>
 7    1  0.3752192E-015  0.9000760E+02  0.7816164E-02  0.1186339E+00
        -11   -1    0    0    0    0  0.00000000000E+00  0.00000000000E+00  0.45593999997E+02  0.45594000000E+02  0.51100000000E-03 0. -1.
         11   -1    0    0    0    0 -0.00000000000E+00 -0.00000000000E+00 -0.45593999997E+02  0.45594000000E+02  0.51100000000E-03 0.  1.
    9900012    2    1    2    0    0 -0.67508649179E+00  0.90942155251E+00 -0.33250113025E+00  0.90007599079E+02  0.89999858587E+02 0.  0.
        -12    1    1    2    0    0  0.67508649179E+00 -0.90942155251E+00  0.33250113025E+00  0.11804009205E+01  0.00000000000E+00 0.  1.
         11    1    3    3    0    0 -0.18411021617E+02  0.14695342128E+02 -0.25566550629E+02  0.34764454671E+02  0.51100000000E-03 0. -1.
        -11    1    3    3    0    0 -0.73436640673E+01 -0.70883036941E+01 -0.80742875657E+01  0.13014129673E+02  0.51100000000E-03 0.  1.
        -12    1    3    3    0    0  0.25079599192E+02 -0.66976168818E+01  0.33308337064E+02  0.42229014735E+02  0.00000000000E+00 0.  1.
</event>
<event>
 7    1  0.3752192E-015  0.9000777E+02  0.7816164E-02  0.1186339E+00
        -11   -1    0    0    0    0  0.00000000000E+00  0.00000000000E+00  0.45593999997E+02  0.45594000000E+02  0.51100000000E-03 0. -1.
         11   -1    0    0    0    0 -0.00000000000E+00 -0.00000000000E+00 -0.45593999997E+02  0.45594000000E+02  0.51100000000E-03 0.  1.
    9900012    2    1    2    0    0 -0.79903612793E+00 -0.51354101750E+00  0.70054224416E+00  0.90007770130E+02  0.90000031896E+02 0.  0.
        -12    1    1    2    0    0  0.79903612793E+00  0.51354101750E+00 -0.70054224416E+00  0.11802298701E+01  0.00000000000E+00 0.  1.
         11    1    3    3    0    0  0.77736064902E+01  0.57092798053E+01 -0.11652278313E+01  0.97150702478E+01  0.51100000000E-03 0. -1.
        -11    1    3    3    0    0 -0.29632332813E+02  0.16400330861E+02 -0.22733380023E+02  0.40790348955E+02  0.51100000000E-03 0.  1.
         12    1    3    3    0    0  0.21059690195E+02 -0.22623151684E+02  0.24599150098E+02  0.39502350927E+02  0.00000000000E+00 0. -1.
</event>
<event>
 7    1  0.3752192E-015  0.9000772E+02  0.7816164E-02  0.1186339E+00
        -11   -1    0    0    0    0  0.00000000000E+00  0.00000000000E+00  0.45593999997E+02  0.45594000000E+02  0.51100000000E-03 0. -1.
         11   -1    0    0    0    0 -0.00000000000E+00 -0.00000000000E+00 -0.45593999997E+02  0.45594000000E+02  0.51100000000E-03 0.  1.
    9900012    2    1    2    0    0  0.22289951275E+00 -0.11344078055E+01 -0.23769618495E+00  0.90007718365E+02  0.89999979447E+02 0.  0.
        -12    1    1    2    0    0 -0.22289951275E+00  0.11344078055E+01  0.23769618495E+00  0.11802816352E+01  0.00000000000E+00 0.  1.
         11    1    3    3    0    0 -0.39602226218E+02  0.21744087042E+01 -0.57047392590E+01  0.40070043984E+02  0.51100000000E-03 0. -1.
        -11    1    3    3    0    0 -0.32576913937E+01  0.40520500460E+01  0.33384813887E+01  0.61787637142E+01  0.51100000000E-03 0.  1.
        -12    1    3    3    0    0  0.43082817125E+02 -0.73608665557E+01  0.21285616853E+01  0.43758910666E+02  0.00000000000E+00 0.  1.
</event>
<event>
 7    1  0.3752192E-015  0.9000773E+02  0.7816164E-02  0.1186339E+00
        -11   -1    0    0    0    0  0.00000000000E+00  0.00000000000E+00  0.45593999997E+02  0.45594000000E+02  0.51100000000E-03 0.  1.
         11   -1    0    0    0    0 -0.00000000000E+00 -0.00000000000E+00 -0.45593999997E+02  0.45594000000E+02  0.51100000000E-03 0. -1.
    9900012    2    1    2    0    0 -0.22141680852E-01 -0.55036062529E+00 -0.10438620875E+01  0.90007730908E+02  0.89999992156E+02 0.  0.
        -12    1    1    2    0    0  0.22141680852E-01  0.55036062529E+00  0.10438620875E+01  0.11802690920E+01  0.00000000000E+00 0.  1.
         11    1    3    3    0    0  0.65768518561E+01 -0.33915746430E+01  0.89451914559E+01  0.11609229489E+02  0.51100000000E-03 0. -1.
        -11    1    3    3    0    0  0.26449654454E+01  0.11735165495E+02  0.32162333754E+02  0.34338399266E+02  0.51100000000E-03 0.  1.
         12    1    3    3    0    0 -0.92439589824E+01 -0.88939514770E+01 -0.42151387298E+02  0.44060102152E+02  0.00000000000E+00 0. -1.
</event>
<event>
 7    1  0.3752192E-015  0.9000780E+02  0.7816164E-02  0.1186339E+00
        -11   -1    0    0    0    0  0.00000000000E+00  0.00000000000E+00  0.45593999997E+02  0.45594000000E+02  0.51100000000E-03 0.  1.
         11   -1    0    0    0    0 -0.00000000000E+00 -0.00000000000E+00 -0.45593999997E+02  0.45594000000E+02  0.51100000000E-03 0. -1.
    9900012    2    1    2    0    0  0.10596002641E+01 -0.44512045488E+00 -0.26832037803E+00  0.90007796304E+02  0.90000058415E+02 0.  0.
        -12    1    1    2    0    0 -0.10596002641E+01  0.44512045488E+00  0.26832037803E+00  0.11802036961E+01  0.00000000000E+00 0.  1.
         11    1    3    3    0    0 -0.37662678572E+01  0.82310958383E+01  0.35425942726E+01  0.97203748237E+01  0.51100000000E-03 0. -1.
        -11    1    3    3    0    0  0.30428325817E+02  0.10800081229E+02  0.21977525633E+02  0.39058115671E+02  0.51100000000E-03 0.  1.
         12    1    3    3    0    0 -0.25602457695E+02 -0.19476297522E+02 -0.25788440284E+02  0.41229305809E+02  0.00000000000E+00 0. -1.
</event>
<event>
 7    1  0.3752192E-015  0.9000773E+02  0.7816164E-02  0.1186339E+00
        -11   -1    0    0    0    0  0.00000000000E+00  0.00000000000E+00  0.45593999997E+02  0.45594000000E+02  0.51100000000E-03 0.  1.
         11   -1    0    0    0    0 -0.00000000000E+00 -0.00000000000E+00 -0.45593999997E+02  0.45594000000E+02  0.51100000000E-03 0. -1.
    9900012    2    1    2    0    0 -0.56801032760E+00 -0.28692391539E+00 -0.99402075548E+00  0.90007729553E+02  0.89999990783E+02 0.  0.
        -12    1    1    2    0    0  0.56801032760E+00  0.28692391539E+00  0.99402075548E+00  0.11802704469E+01  0.00000000000E+00 0.  1.
         11    1    3    3    0    0 -0.57811981127E+01 -0.37820300401E+00  0.50646230793E+01  0.76951735735E+01  0.51100000000E-03 0. -1.
        -11    1    3    3    0    0  0.13863675207E+01 -0.25280437847E+02  0.29237053332E+02  0.38675933607E+02  0.51100000000E-03 0.  1.
         12    1    3    3    0    0  0.38268202644E+01  0.25371716936E+02 -0.35295697166E+02  0.43636622372E+02  0.00000000000E+00 0. -1.
</event>
<event>
 7    1  0.3752192E-015  0.9000776E+02  0.7816164E-02  0.1186339E+00
        -11   -1    0    0    0    0  0.00000000000E+00  0.00000000000E+00  0.45593999997E+02  0.45594000000E+02  0.51100000000E-03 0. -1.
         11   -1    0    0    0    0 -0.00000000000E+00 -0.00000000000E+00 -0.45593999997E+02  0.45594000000E+02  0.51100000000E-03 0.  1.
    9900012    2    1    2    0    0 -0.10292185507E+01 -0.42866860684E+00  0.38718413129E+00  0.90007763095E+02  0.90000024768E+02 0.  0.
        -12    1    1    2    0    0  0.10292185507E+01  0.42866860684E+00 -0.38718413129E+00  0.11802369046E+01  0.00000000000E+00 0.  1.
         11    1    3    3    0    0  0.18090098949E+02 -0.22715876096E+01  0.34846943314E+02  0.39328377145E+02  0.51100000000E-03 0. -1.
        -11    1    3    3    0    0  0.13256611646E+01  0.99171559773E+01 -0.24061121363E+00  0.10008259300E+02  0.51100000000E-03 0.  1.
        -12    1    3    3    0    0 -0.20444978664E+02 -0.80742369745E+01 -0.34219147969E+02  0.40671126651E+02  0.00000000000E+00 0.  1.
</event>
<event>
 7    1  0.3752192E-015  0.9000772E+02  0.7816164E-02  0.1186339E+00
        -11   -1    0    0    0    0  0.00000000000E+00  0.00000000000E+00  0.45593999997E+02  0.45594000000E+02  0.51100000000E-03 0.  1.
         11   -1    0    0    0    0 -0.00000000000E+00 -0.00000000000E+00 -0.45593999997E+02  0.45594000000E+02  0.51100000000E-03 0. -1.
    9900012    2    1    2    0    0  0.10895638319E+01 -0.40819926277E+00 -0.19822410682E+00  0.90007716653E+02  0.89999977713E+02 0.  0.
        -12    1    1    2    0    0 -0.10895638319E+01  0.40819926277E+00  0.19822410682E+00  0.11802833467E+01  0.00000000000E+00 0.  1.
         11    1    3    3    0    0 -0.41884084661E+00 -0.38877797029E+01 -0.37127050095E+02  0.37332400240E+02  0.51100000000E-03 0. -1.
        -11    1    3    3    0    0  0.11572777191E+02  0.36265975026E+01 -0.21536954436E+01  0.12317458572E+02  0.51100000000E-03 0.  1.
        -12    1    3    3    0    0 -0.10064372512E+02 -0.14701706247E+00  0.39082521432E+02  0.40357857841E+02  0.00000000000E+00 0.  1.
</event>
<event>
 7    1  0.3752192E-015  0.9000765E+02  0.7816164E-02  0.1186339E+00
        -11   -1    0    0    0    0  0.00000000000E+00  0.00000000000E+00  0.45593999997E+02  0.45594000000E+02  0.51100000000E-03 0.  1.
         11   -1    0    0    0    0 -0.00000000000E+00 -0.00000000000E+00 -0.45593999997E+02  0.45594000000E+02  0.51100000000E-03 0. -1.
    9900012    2    1    2    0    0  0.19551399578E+00  0.10452887049E+00 -0.11593469632E+01  0.90007645228E+02  0.89999905345E+02 0.  0.
        -12    1    1    2    0    0 -0.19551399578E+00 -0.10452887049E+00  0.11593469632E+01  0.11803547723E+01  0.00000000000E+00 0.  1.
         11    1    3    3    0    0 -0.56392024600E+01  0.35147569953E+00  0.77663668529E+01  0.96041966821E+01  0.51100000000E-03 0. -1.
        -11    1    3    3    0    0  0.13472483144E+02  0.24617570832E+02  0.25048042313E+02  0.37615648602E+02  0.51100000000E-03 0.  1.
         12    1    3    3    0    0 -0.76377666882E+01 -0.24864517661E+02 -0.33973756129E+02  0.42787799944E+02  0.00000000000E+00 0. -1.
</event>
<event>
 7    1  0.3752192E-015  0.9000826E+02  0.7816164E-02  0.1186338E+00
        -11   -1    0    0    0    0  0.00000000000E+00  0.00000000000E+00  0.45593999997E+02  0.45594000000E+02  0.51100000000E-03 0.  1.
         11   -1    0    0    0    0 -0.00000000000E+00 -0.00000000000E+00 -0.45593999997E+02  0.45594000000E+02  0.51100000000E-03 0. -1.
    9900012    2    1    2    0    0  0.70174605125E+00  0.84949524257E+00 -0.42155267509E+00  0.90008255814E+02  0.90000523989E+02 0.  0.
        -12    1    1    2    0    0 -0.70174605125E+00 -0.84949524257E+00  0.42155267509E+00  0.11797441865E+01  0.00000000000E+00 0.  1.
         11    1    3    3    0    0  0.24615281628E+02  0.17352185487E+02 -0.21193513556E+02  0.36826287457E+02  0.51100000000E-03 0. -1.
        -11    1    3    3    0    0  0.56636223614E+01  0.68019792578E+01 -0.21369671450E+01  0.91055021232E+01  0.51100000000E-03 0.  1.
        -12    1    3    3    0    0 -0.29577157938E+02 -0.23304669502E+02  0.22908928026E+02  0.44076466233E+02  0.00000000000E+00 0.  1.
</event>
<event>
 8    1  0.3752192E-015  0.9000780E+02  0.7816164E-02  0.1186339E+00
        -11   -1    0    0    0    0  0.00000000000E+00  0.00000000000E+00  0.45593999997E+02  0.45594000000E+02  0.51100000000E-03 0. -1.
         11   -1    0    0    0    0 -0.00000000000E+00 -0.00000000000E+00 -0.45593999997E+02  0.45594000000E+02  0.51100000000E-03 0.  1.
    9900012    2    1    2    0    0  0.41592582169E+00 -0.10746362546E+01  0.25500190132E+00  0.90007803686E+02  0.90000065895E+02 0.  0.
         23    2    3    3    0    0  0.13778203394E+02 -0.24069194495E+02 -0.58063410663E+01  0.62730706165E+02  0.55966622973E+02 0.  0.
        -12    1    1    2    0    0 -0.41592582169E+00  0.10746362546E+01 -0.25500190132E+00  0.11801963136E+01  0.00000000000E+00 0.  1.
         11    1    4    4    0    0  0.16588206887E+02 -0.11002523905E+02  0.23334395133E+02  0.30671128712E+02  0.51100000000E-03 0. -1.
        -11    1    4    4    0    0 -0.28100034925E+01 -0.13066670590E+02 -0.29140736200E+02  0.32059577453E+02  0.51100000000E-03 0.  1.
        -12    1    3    3    0    0 -0.13362277573E+02  0.22994558240E+02  0.60613429676E+01  0.27277097521E+02  0.00000000000E+00 0.  1.
</event>
<event>
 7    1  0.3752192E-015  0.9000776E+02  0.7816164E-02  0.1186339E+00
        -11   -1    0    0    0    0  0.00000000000E+00  0.00000000000E+00  0.45593999997E+02  0.45594000000E+02  0.51100000000E-03 0.  1.
         11   -1    0    0    0    0 -0.00000000000E+00 -0.00000000000E+00 -0.45593999997E+02  0.45594000000E+02  0.51100000000E-03 0. -1.
    9900012    2    1    2    0    0  0.31262005470E+00 -0.10750297747E+01 -0.37357382806E+00  0.90007755229E+02  0.90000016798E+02 0.  0.
        -12    1    1    2    0    0 -0.31262005470E+00  0.10750297747E+01  0.37357382806E+00  0.11802447712E+01  0.00000000000E+00 0.  1.
         11    1    3    3    0    0  0.67960246468E+01 -0.25004891408E+02 -0.21431765591E+02  0.33626643037E+02  0.51100000000E-03 0. -1.
        -11    1    3    3    0    0  0.52353134652E-01 -0.82249629776E+01 -0.87798385285E+01  0.12030724071E+02  0.51100000000E-03 0.  1.
        -12    1    3    3    0    0 -0.65357577267E+01  0.32154824611E+02  0.29838030291E+02  0.44350388121E+02  0.00000000000E+00 0.  1.
</event>
<event>
 7    1  0.3752192E-015  0.9000778E+02  0.7816164E-02  0.1186339E+00
        -11   -1    0    0    0    0  0.00000000000E+00  0.00000000000E+00  0.45593999997E+02  0.45594000000E+02  0.51100000000E-03 0.  1.
         11   -1    0    0    0    0 -0.00000000000E+00 -0.00000000000E+00 -0.45593999997E+02  0.45594000000E+02  0.51100000000E-03 0. -1.
    9900012    2    1    2    0    0 -0.75951323349E+00 -0.90232822080E+00 -0.43043596500E-01  0.90007784206E+02  0.90000046157E+02 0.  0.
        -12    1    1    2    0    0  0.75951323349E+00  0.90232822080E+00  0.43043596500E-01  0.11802157943E+01  0.00000000000E+00 0.  1.
         11    1    3    3    0    0 -0.84980597552E+01  0.70909852383E+01 -0.26379796113E+01  0.11377962381E+02  0.51100000000E-03 0. -1.
        -11    1    3    3    0    0 -0.33931007683E+02 -0.45895556429E+01  0.11042514426E+02  0.35976581668E+02  0.51100000000E-03 0.  1.
         12    1    3    3    0    0  0.41669554205E+02 -0.34037578162E+01 -0.84475784116E+01  0.42653240157E+02  0.00000000000E+00 0. -1.
</event>
<event>
 7    1  0.3752192E-015  0.9000770E+02  0.7816164E-02  0.1186339E+00
        -11   -1    0    0    0    0  0.00000000000E+00  0.00000000000E+00  0.45593999997E+02  0.45594000000E+02  0.51100000000E-03 0. -1.
         11   -1    0    0    0    0 -0.00000000000E+00 -0.00000000000E+00 -0.45593999997E+02  0.45594000000E+02  0.51100000000E-03 0.  1.
    9900012    2    1    2    0    0  0.70083476868E+00 -0.71134978277E+00  0.62921850486E+00  0.90007701812E+02  0.89999962676E+02 0.  0.
        -12    1    1    2    0    0 -0.70083476868E+00  0.71134978277E+00 -0.62921850486E+00  0.11802981883E+01  0.00000000000E+00 0.  1.
         11    1    3    3    0    0  0.54018751184E+01 -0.32801944866E+02 -0.19912210793E+02  0.38751051350E+02  0.51100000000E-03 0. -1.
        -11    1    3    3    0    0  0.13783241471E+01  0.33115498818E+01 -0.89268065972E+01  0.96204997978E+01  0.51100000000E-03 0.  1.
        -12    1    3    3    0    0 -0.60793644968E+01  0.28779045202E+02  0.29468235895E+02  0.41636150664E+02  0.00000000000E+00 0.  1.
</event>
<event>
 7    1  0.3752192E-015  0.9000772E+02  0.7816164E-02  0.1186339E+00
        -11   -1    0    0    0    0  0.00000000000E+00  0.00000000000E+00  0.45593999997E+02  0.45594000000E+02  0.51100000000E-03 0. -1.
         11   -1    0    0    0    0 -0.00000000000E+00 -0.00000000000E+00 -0.45593999997E+02  0.45594000000E+02  0.51100000000E-03 0.  1.
    9900012    2    1    2    0    0  0.96604670048E+00  0.67796068345E+00  0.13364786919E-01  0.90007722264E+02  0.89999983398E+02 0.  0.
        -12    1    1    2    0    0 -0.96604670048E+00 -0.67796068345E+00 -0.13364786919E-01  0.11802777357E+01  0.00000000000E+00 0.  1.
         11    1    3    3    0    0 -0.34461448507E+02  0.13081536456E+01  0.18257855936E+02  0.39021173775E+02  0.51100000000E-03 0. -1.
        -11    1    3    3    0    0  0.17394476665E+01 -0.59251530665E+01  0.64141790314E+01  0.89036402642E+01  0.51100000000E-03 0.  1.
        -12    1    3    3    0    0  0.33688047541E+02  0.52949601043E+01 -0.24658670180E+02  0.42082908225E+02  0.00000000000E+00 0.  1.
</event>
<event>
 7    1  0.3752192E-015  0.9000775E+02  0.7816164E-02  0.1186339E+00
        -11   -1    0    0    0    0  0.00000000000E+00  0.00000000000E+00  0.45593999997E+02  0.45594000000E+02  0.51100000000E-03 0.  1.
         11   -1    0    0    0    0 -0.00000000000E+00 -0.00000000000E+00 -0.45593999997E+02  0.45594000000E+02  0.51100000000E-03 0. -1.
    9900012    2    1    2    0    0  0.64485207444E+00  0.79109708917E+00  0.59272026845E+00  0.90007751671E+02  0.90000013193E+02 0.  0.
        -12    1    1    2    0    0 -0.64485207444E+00 -0.79109708917E+00 -0.59272026845E+00  0.11802483294E+01  0.00000000000E+00 0.  1.
         11    1    3    3    0    0 -0.84900949667E+01 -0.57697427174E+01  0.33652645841E+00  0.10270583912E+02  0.51100000000E-03 0. -1.
        -11    1    3    3    0    0 -0.31786167940E+02  0.10397451496E+02  0.14203400490E+02  0.36334612365E+02  0.51100000000E-03 0.  1.
         12    1    3    3    0    0  0.40921114981E+02 -0.38366116892E+01 -0.13947206680E+02  0.43402555394E+02  0.00000000000E+00 0. -1.
</event>
<event>
 7    1  0.3752192E-015  0.9000775E+02  0.7816164E-02  0.1186339E+00
        -11   -1    0    0    0    0  0.00000000000E+00  0.00000000000E+00  0.45593999997E+02  0.45594000000E+02  0.51100000000E-03 0. -1.
         11   -1    0    0    0    0 -0.00000000000E+00 -0.00000000000E+00 -0.45593999997E+02  0.45594000000E+02  0.51100000000E-03 0.  1.
    9900012    2    1    2    0    0 -0.34905110711E+00 -0.11036320048E+01  0.23054510170E+00  0.90007749467E+02  0.90000010960E+02 0.  0.
        -12    1    1    2    0    0  0.34905110711E+00  0.11036320048E+01 -0.23054510170E+00  0.11802505333E+01  0.00000000000E+00 0.  1.
         11    1    3    3    0    0  0.22015136776E+02  0.14258113431E+02  0.21447450418E+02  0.33881457696E+02  0.51100000000E-03 0. -1.
        -11    1    3    3    0    0  0.55925031391E+01 -0.48652229838E+01  0.10312288115E+02  0.12699991042E+02  0.51100000000E-03 0.  1.
        -12    1    3    3    0    0 -0.27956691023E+02 -0.10496522452E+02 -0.31529193432E+02  0.43426300729E+02  0.00000000000E+00 0.  1.
</event>
<event>
 7    1  0.3752192E-015  0.9000768E+02  0.7816164E-02  0.1186339E+00
        -11   -1    0    0    0    0  0.00000000000E+00  0.00000000000E+00  0.45593999997E+02  0.45594000000E+02  0.51100000000E-03 0.  1.
         11   -1    0    0    0    0 -0.00000000000E+00 -0.00000000000E+00 -0.45593999997E+02  0.45594000000E+02  0.51100000000E-03 0. -1.
    9900012    2    1    2    0    0  0.62151537959E-01 -0.92712785625E-01 -0.11750321508E+01  0.90007678421E+02  0.89999938976E+02 0.  0.
        -12    1    1    2    0    0 -0.62151537959E-01  0.92712785625E-01  0.11750321508E+01  0.11803215789E+01  0.00000000000E+00 0.  1.
         11    1    3    3    0    0  0.16147759325E+02 -0.22000859301E+01 -0.11818110316E+01  0.16339742559E+02  0.51100000000E-03 0. -1.
        -11    1    3    3    0    0  0.27279030949E+02 -0.35834127153E+01 -0.91273861690E+01  0.28987851848E+02  0.51100000000E-03 0.  1.
         12    1    3    3    0    0 -0.43364638736E+02  0.56907858598E+01  0.91341650498E+01  0.44680084015E+02  0.00000000000E+00 0. -1.
</event>
<event>
 7    1  0.3752192E-015  0.9000766E+02  0.7816164E-02  0.1186339E+00
        -11   -1    0    0    0    0  0.00000000000E+00  0.00000000000E+00  0.45593999997E+02  0.45594000000E+02  0.51100000000E-03 0.  1.
         11   -1    0    0    0    0 -0.00000000000E+00 -0.00000000000E+00 -0.45593999997E+02  0.45594000000E+02  0.51100000000E-03 0. -1.
    9900012    2    1    2    0    0  0.31788407762E+00  0.11789712231E+00 -0.11305990924E+01  0.90007659233E+02  0.89999919535E+02 0.  0.
        -12    1    1    2    0    0 -0.31788407762E+00 -0.11789712231E+00  0.11305990924E+01  0.11803407669E+01  0.00000000000E+00 0.  1.
         11    1    3    3    0    0 -0.61437677904E+01  0.31345313313E+01 -0.71621435945E+01  0.99432122806E+01  0.51100000000E-03 0. -1.
        -11    1    3    3    0    0  0.16833117607E+02 -0.38883484726E+02  0.54839140938E+01  0.42724144776E+02  0.51100000000E-03 0.  1.
         12    1    3    3    0    0 -0.10371465739E+02  0.35866850517E+02  0.54763040826E+00  0.37340302176E+02  0.00000000000E+00 0. -1.
</event>
<event>
 7    1  0.3752192E-015  0.9000774E+02  0.7816164E-02  0.1186339E+00
        -11   -1    0    0    0    0  0.00000000000E+00  0.00000000000E+00  0.45593999997E+02  0.45594000000E+02  0.51100000000E-03 0.  1.
         11   -1    0    0    0    0 -0.00000000000E+00 -0.00000000000E+00 -0.45593999997E+02  0.45594000000E+02  0.51100000000E-03 0. -1.
    9900012    2    1    2    0    0  0.40719323869E+00 -0.75914625810E+00 -0.80677980668E+00  0.90007744506E+02  0.90000005933E+02 0.  0.
        -12    1    1    2    0    0 -0.40719323869E+00  0.75914625810E+00  0.80677980668E+00  0.11802554941E+01  0.00000000000E+00 0.  1.
         11    1    3    3    0    0 -0.27528102719E+02 -0.17393187164E+02 -0.14465367199E+02  0.35630973148E+02  0.51100000000E-03 0. -1.
        -11    1    3    3    0    0 -0.74169302543E+01 -0.64377804825E+01 -0.54567182430E+00  0.98363423049E+01  0.51100000000E-03 0.  1.
        -12    1    3    3    0    0  0.35352226212E+02  0.23071821388E+02  0.14204259216E+02  0.44540429053E+02  0.00000000000E+00 0.  1.
</event>
<event>
 7    1  0.3752192E-015  0.9000775E+02  0.7816164E-02  0.1186339E+00
        -11   -1    0    0    0    0  0.00000000000E+00  0.00000000000E+00  0.45593999997E+02  0.45594000000E+02  0.51100000000E-03 0. -1.
         11   -1    0    0    0    0 -0.00000000000E+00 -0.00000000000E+00 -0.45593999997E+02  0.45594000000E+02  0.51100000000E-03 0.  1.
    9900012    2    1    2    0    0 -0.11092096955E+00 -0.53492170139E+00  0.10462105671E+01  0.90007745265E+02  0.90000006703E+02 0.  0.
        -12    1    1    2    0    0  0.11092096955E+00  0.53492170139E+00 -0.10462105671E+01  0.11802547347E+01  0.00000000000E+00 0.  1.
         11    1    3    3    0    0  0.32828208783E+01  0.36815334661E+02  0.46151578043E+00  0.36964290554E+02  0.51100000000E-03 0. -1.
        -11    1    3    3    0    0 -0.89408264808E+01  0.48793329108E+01  0.22000451204E+01  0.10420483031E+02  0.51100000000E-03 0.  1.
        -12    1    3    3    0    0  0.55470846330E+01 -0.42229589273E+02 -0.16153503338E+01  0.42622971680E+02  0.00000000000E+00 0.  1.
</event>
<event>
 7    1  0.3752192E-015  0.9000815E+02  0.7816164E-02  0.1186338E+00
        -11   -1    0    0    0    0  0.00000000000E+00  0.00000000000E+00  0.45593999997E+02  0.45594000000E+02  0.51100000000E-03 0.  1.
         11   -1    0    0    0    0 -0.00000000000E+00 -0.00000000000E+00 -0.45593999997E+02  0.45594000000E+02  0.51100000000E-03 0. -1.
    9900012    2    1    2    0    0 -0.85306562475E+00  0.43294840030E+00  0.69056071406E+00  0.90008152816E+02  0.90000419632E+02 0.  0.
        -12    1    1    2    0    0  0.85306562475E+00 -0.43294840030E+00 -0.69056071406E+00  0.11798471839E+01  0.00000000000E+00 0.  1.
         11    1    3    3    0    0  0.44828003634E+00 -0.38914094256E+01 -0.12314579075E+02  0.12922572514E+02  0.51100000000E-03 0. -1.
        -11    1    3    3    0    0  0.13574540554E+02 -0.32102943610E+02  0.14401804444E+02  0.37713115904E+02  0.51100000000E-03 0.  1.
         12    1    3    3    0    0 -0.14875886215E+02  0.36427301436E+02 -0.13966646548E+01  0.39372464398E+02  0.00000000000E+00 0. -1.
</event>
<event>
 7    1  0.3752192E-015  0.9000765E+02  0.7816164E-02  0.1186339E+00
        -11   -1    0    0    0    0  0.00000000000E+00  0.00000000000E+00  0.45593999997E+02  0.45594000000E+02  0.51100000000E-03 0.  1.
         11   -1    0    0    0    0 -0.00000000000E+00 -0.00000000000E+00 -0.45593999997E+02  0.45594000000E+02  0.51100000000E-03 0. -1.
    9900012    2    1    2    0    0 -0.86425318377E+00 -0.38434813299E+00 -0.70609379036E+00  0.90007650266E+02  0.89999910450E+02 0.  0.
        -12    1    1    2    0    0  0.86425318377E+00  0.38434813299E+00  0.70609379036E+00  0.11803497337E+01  0.00000000000E+00 0.  1.
         11    1    3    3    0    0 -0.15931319833E+02  0.24171090049E+02 -0.20262235397E+02  0.35335629743E+02  0.51100000000E-03 0. -1.
        -11    1    3    3    0    0 -0.39417106570E+01  0.81746450092E+01 -0.41839306753E+01  0.99933567977E+01  0.51100000000E-03 0.  1.
        -12    1    3    3    0    0  0.19008777306E+02 -0.32730083191E+02  0.23740072282E+02  0.44678663726E+02  0.00000000000E+00 0.  1.
</event>
<event>
 7    1  0.3752192E-015  0.9000772E+02  0.7816164E-02  0.1186339E+00
        -11   -1    0    0    0    0  0.00000000000E+00  0.00000000000E+00  0.45593999997E+02  0.45594000000E+02  0.51100000000E-03 0.  1.
         11   -1    0    0    0    0 -0.00000000000E+00 -0.00000000000E+00 -0.45593999997E+02  0.45594000000E+02  0.51100000000E-03 0. -1.
    9900012    2    1    2    0    0 -0.14480265503E+00 -0.10510667278E+01  0.51706244052E+00  0.90007719253E+02  0.89999980347E+02 0.  0.
        -12    1    1    2    0    0  0.14480265503E+00  0.10510667278E+01 -0.51706244052E+00  0.11802807474E+01  0.00000000000E+00 0.  1.
         11    1    3    3    0    0 -0.56213471232E+01 -0.14486908446E+00 -0.74232323988E+01  0.93126210080E+01  0.51100000000E-03 0. -1.
        -11    1    3    3    0    0  0.83279467311E+01 -0.32478840114E+02  0.27569668028E+02  0.43408712804E+02  0.51100000000E-03 0.  1.
         12    1    3    3    0    0 -0.28514022630E+01  0.31572642471E+02 -0.19629373188E+02  0.37286385440E+02  0.00000000000E+00 0. -1.
</event>
<event>
 7    1  0.3752192E-015  0.9000764E+02  0.7816164E-02  0.1186339E+00
        -11   -1    0    0    0    0  0.00000000000E+00  0.00000000000E+00  0.45593999997E+02  0.45594000000E+02  0.51100000000E-03 0.  1.
         11   -1    0    0    0    0 -0.00000000000E+00 -0.00000000000E+00 -0.45593999997E+02  0.45594000000E+02  0.51100000000E-03 0. -1.
    9900012    2    1    2    0    0 -0.92003941107E+00  0.51696117037E+00 -0.52871473558E+00  0.90007635378E+02  0.89999895365E+02 0.  0.
        -12    1    1    2    0    0  0.92003941107E+00 -0.51696117037E+00  0.52871473558E+00  0.11803646221E+01  0.00000000000E+00 0.  1.
         11    1    3    3    0    0 -0.11062547298E+02 -0.24418269484E+02  0.21155613180E+02  0.34149550607E+02  0.51100000000E-03 0. -1.
        -11    1    3    3    0    0 -0.39709662612E+00 -0.10044594154E+02  0.43953203220E+01  0.10971344422E+02  0.51100000000E-03 0.  1.
        -12    1    3    3    0    0  0.10539604513E+02  0.34979824808E+02 -0.26079648238E+02  0.44886740349E+02  0.00000000000E+00 0.  1.
</event>
<event>
 7    1  0.3752192E-015  0.9000774E+02  0.7816164E-02  0.1186339E+00
        -11   -1    0    0    0    0  0.00000000000E+00  0.00000000000E+00  0.45593999997E+02  0.45594000000E+02  0.51100000000E-03 0. -1.
         11   -1    0    0    0    0 -0.00000000000E+00 -0.00000000000E+00 -0.45593999997E+02  0.45594000000E+02  0.51100000000E-03 0.  1.
    9900012    2    1    2    0    0  0.46543817055E+00  0.92079383950E+00 -0.57316267833E+00  0.90007741790E+02  0.90000003182E+02 0.  0.
        -12    1    1    2    0    0 -0.46543817055E+00 -0.92079383950E+00  0.57316267833E+00  0.11802582096E+01  0.00000000000E+00 0.  1.
         11    1    3    3    0    0  0.25590397994E+02 -0.87002411266E+01  0.17289537377E+02  0.32085678552E+02  0.51100000000E-03 0. -1.
        -11    1    3    3    0    0  0.12354797935E+02  0.10267942707E+02  0.72559870201E+00  0.16080987942E+02  0.51100000000E-03 0.  1.
        -12    1    3    3    0    0 -0.37479757759E+02 -0.64690774086E+00 -0.18588298757E+02  0.41841075297E+02  0.00000000000E+00 0.  1.
</event>
<event>
 7    1  0.3752192E-015  0.9000774E+02  0.7816164E-02  0.1186339E+00
        -11   -1    0    0    0    0  0.00000000000E+00  0.00000000000E+00  0.45593999997E+02  0.45594000000E+02  0.51100000000E-03 0.  1.
         11   -1    0    0    0    0 -0.00000000000E+00 -0.00000000000E+00 -0.45593999997E+02  0.45594000000E+02  0.51100000000E-03 0. -1.
    9900012    2    1    2    0    0 -0.75400668504E+00  0.58330332952E+00 -0.69587519151E+00  0.90007741072E+02  0.90000002454E+02 0.  0.
        -12    1    1    2    0    0  0.75400668504E+00 -0.58330332952E+00  0.69587519151E+00  0.11802589282E+01  0.00000000000E+00 0.  1.
         11    1    3    3    0    0  0.68245961688E+01  0.85464192982E+00  0.76525686544E+01  0.10289185243E+02  0.51100000000E-03 0. -1.
        -11    1    3    3    0    0  0.34556118219E+02  0.35096752875E+01  0.55827995714E+01  0.35179692697E+02  0.51100000000E-03 0.  1.
         12    1    3    3    0    0 -0.42134721073E+02 -0.37810138878E+01 -0.13931243417E+02  0.44538863131E+02  0.00000000000E+00 0. -1.
</event>
<event>
 7    1  0.3752192E-015  0.9000773E+02  0.7816164E-02  0.1186339E+00
        -11   -1    0    0    0    0  0.00000000000E+00  0.00000000000E+00  0.45593999997E+02  0.45594000000E+02  0.51100000000E-03 0.  1.
         11   -1    0    0    0    0 -0.00000000000E+00 -0.00000000000E+00 -0.45593999997E+02  0.45594000000E+02  0.51100000000E-03 0. -1.
    9900012    2    1    2    0    0 -0.54543980562E-01 -0.11784487095E+01 -0.36282979964E-01  0.90007731869E+02  0.89999993130E+02 0.  0.
        -12    1    1    2    0    0  0.54543980562E-01  0.11784487095E+01  0.36282979964E-01  0.11802681311E+01  0.00000000000E+00 0.  1.
         11    1    3    3    0    0 -0.17458368683E+02 -0.11479444605E+02 -0.33382731266E+02  0.39382471133E+02  0.51100000000E-03 0. -1.
        -11    1    3    3    0    0 -0.13320665493E+01 -0.88910545177E+01  0.17133028317E+01  0.91520849309E+01  0.51100000000E-03 0.  1.
        -12    1    3    3    0    0  0.18735891252E+02  0.19192050413E+02  0.31633145454E+02  0.41473175805E+02  0.00000000000E+00 0.  1.
</event>
<event>
 7    1  0.3752192E-015  0.9000822E+02  0.7816164E-02  0.1186338E+00
        -11   -1    0    0    0    0  0.00000000000E+00  0.00000000000E+00  0.45593999997E+02  0.45594000000E+02  0.51100000000E-03 0. -1.
         11   -1    0    0    0    0 -0.00000000000E+00 -0.00000000000E+00 -0.45593999997E+02  0.45594000000E+02  0.51100000000E-03 0.  1.
    9900012    2    1    2    0    0  0.40370315037E+00 -0.11024636291E+01  0.11612559438E+00  0.90008217206E+02  0.90000484872E+02 0.  0.
        -12    1    1    2    0    0 -0.40370315037E+00  0.11024636291E+01 -0.11612559438E+00  0.11797827939E+01  0.00000000000E+00 0.  1.
         11    1    3    3    0    0 -0.85974694709E+00  0.10667326401E+02 -0.11317415032E+02  0.15576100302E+02  0.51100000000E-03 0. -1.
        -11    1    3    3    0    0  0.24141590793E+01  0.10427085975E+02 -0.27550789224E+02  0.29556695910E+02  0.51100000000E-03 0.  1.
         12    1    3    3    0    0 -0.11507089819E+01 -0.22196876005E+02  0.38984329850E+02  0.44875420994E+02  0.00000000000E+00 0. -1.
</event>
<event>
 7    1  0.3752192E-015  0.9000863E+02  0.7816164E-02  0.1186337E+00
        -11   -1    0    0    0    0  0.00000000000E+00  0.00000000000E+00  0.45593999997E+02  0.45594000000E+02  0.51100000000E-03 0. -1.
         11   -1    0    0    0    0 -0.00000000000E+00 -0.00000000000E+00 -0.45593999997E+02  0.45594000000E+02  0.51100000000E-03 0.  1.
    9900012    2    1    2    0    0  0.10769532874E+01  0.39768781921E+00 -0.27004324413E+00  0.90008632653E+02  0.90000905800E+02 0.  0.
        -12    1    1    2    0    0 -0.10769532874E+01 -0.39768781921E+00  0.27004324413E+00  0.11793673467E+01  0.00000000000E+00 0.  1.
         11    1    3    3    0    0 -0.47848975633E+01 -0.68318633722E-01 -0.56484361712E+01  0.74030225968E+01  0.51100000000E-03 0. -1.
        -11    1    3    3    0    0 -0.15776783967E+02  0.78793565995E+01 -0.33293533360E+02  0.37675596035E+02  0.51100000000E-03 0.  1.
         12    1    3    3    0    0  0.21638634818E+02 -0.74133501465E+01  0.38671926287E+02  0.44930014021E+02  0.00000000000E+00 0. -1.
</event>
<event>
 7    1  0.3752192E-015  0.9000785E+02  0.7816164E-02  0.1186339E+00
        -11   -1    0    0    0    0  0.00000000000E+00  0.00000000000E+00  0.45593999997E+02  0.45594000000E+02  0.51100000000E-03 0.  1.
         11   -1    0    0    0    0 -0.00000000000E+00 -0.00000000000E+00 -0.45593999997E+02  0.45594000000E+02  0.51100000000E-03 0. -1.
    9900012    2    1    2    0    0 -0.29759545401E+00  0.16038614705E+00 -0.11306946795E+01  0.90007848642E+02  0.90000111444E+02 0.  0.
        -12    1    1    2    0    0  0.29759545401E+00 -0.16038614705E+00  0.11306946795E+01  0.11801513584E+01  0.00000000000E+00 0.  1.
         11    1    3    3    0    0 -0.35836525806E+02  0.26285671410E+01  0.67189940542E+01  0.36555585461E+02  0.51100000000E-03 0. -1.
        -11    1    3    3    0    0 -0.18730524072E+01  0.23626917629E+01  0.10912492520E+02  0.11321357293E+02  0.51100000000E-03 0.  1.
        -12    1    3    3    0    0  0.37411982759E+02 -0.48308727569E+01 -0.18762181254E+02  0.42130905888E+02  0.00000000000E+00 0.  1.
</event>
<event>
 7    1  0.3752192E-015  0.9000768E+02  0.7816164E-02  0.1186339E+00
        -11   -1    0    0    0    0  0.00000000000E+00  0.00000000000E+00  0.45593999997E+02  0.45594000000E+02  0.51100000000E-03 0. -1.
         11   -1    0    0    0    0 -0.00000000000E+00 -0.00000000000E+00 -0.45593999997E+02  0.45594000000E+02  0.51100000000E-03 0.  1.
    9900012    2    1    2    0    0 -0.72775783671E+00 -0.78383701689E+00  0.49912399174E+00  0.90007679409E+02  0.89999939977E+02 0.  0.
        -12    1    1    2    0    0  0.72775783671E+00  0.78383701689E+00 -0.49912399174E+00  0.11803205908E+01  0.00000000000E+00 0.  1.
         11    1    3    3    0    0 -0.41826552152E+01  0.69244888952E+00 -0.45469627966E+01  0.62168288579E+01  0.51100000000E-03 0. -1.
        -11    1    3    3    0    0  0.10322439555E+02  0.19114564629E+02 -0.33281391564E+02  0.39743809128E+02  0.51100000000E-03 0.  1.
         12    1    3    3    0    0 -0.68675421762E+01 -0.20590850536E+02  0.38327478352E+02  0.44047041423E+02  0.00000000000E+00 0. -1.
</event>
<event>
 7    1  0.3752192E-015  0.9000792E+02  0.7816164E-02  0.1186339E+00
        -11   -1    0    0    0    0  0.00000000000E+00  0.00000000000E+00  0.45593999997E+02  0.45594000000E+02  0.51100000000E-03 0.  1.
         11   -1    0    0    0    0 -0.00000000000E+00 -0.00000000000E+00 -0.45593999997E+02  0.45594000000E+02  0.51100000000E-03 0. -1.
    9900012    2    1    2    0    0 -0.43374396909E-02 -0.48072327177E+00 -0.10777152776E+01  0.90007922080E+02  0.90000185851E+02 0.  0.
        -12    1    1    2    0    0  0.43374396909E-02  0.48072327177E+00  0.10777152776E+01  0.11800779199E+01  0.00000000000E+00 0.  1.
         11    1    3    3    0    0  0.44011273044E+01  0.22576160124E+01  0.92873111243E+01  0.10522399906E+02  0.51100000000E-03 0. -1.
        -11    1    3    3    0    0  0.30980820643E+02  0.11711924478E+02  0.11967577140E+02  0.35216520634E+02  0.51100000000E-03 0.  1.
         12    1    3    3    0    0 -0.35386285387E+02 -0.14450263763E+02 -0.22332603542E+02  0.44269001539E+02  0.00000000000E+00 0. -1.
</event>
<event>
 7    1  0.3752192E-015  0.9000775E+02  0.7816164E-02  0.1186339E+00
        -11   -1    0    0    0    0  0.00000000000E+00  0.00000000000E+00  0.45593999997E+02  0.45594000000E+02  0.51100000000E-03 0. -1.
         11   -1    0    0    0    0 -0.00000000000E+00 -0.00000000000E+00 -0.45593999997E+02  0.45594000000E+02  0.51100000000E-03 0.  1.
    9900012    2    1    2    0    0  0.62422317715E+00 -0.66660094742E+00  0.74765493456E+00  0.90007746087E+02  0.90000007535E+02 0.  0.
        -12    1    1    2    0    0 -0.62422317715E+00  0.66660094742E+00 -0.74765493456E+00  0.11802539130E+01  0.00000000000E+00 0.  1.
         11    1    3    3    0    0  0.65599934746E+01 -0.13654356714E+02 -0.57207355775E+01  0.16192646092E+02  0.51100000000E-03 0. -1.
        -11    1    3    3    0    0  0.87390199572E+01 -0.26549511775E+02 -0.82578181286E+01  0.29145130053E+02  0.51100000000E-03 0.  1.
         12    1    3    3    0    0 -0.14674790255E+02  0.39537267542E+02  0.14726208641E+02  0.44669969942E+02  0.00000000000E+00 0. -1.
</event>
<event>
 7    1  0.3752192E-015  0.9000776E+02  0.7816164E-02  0.1186339E+00
        -11   -1    0    0    0    0  0.00000000000E+00  0.00000000000E+00  0.45593999997E+02  0.45594000000E+02  0.51100000000E-03 0. -1.
         11   -1    0    0    0    0 -0.00000000000E+00 -0.00000000000E+00 -0.45593999997E+02  0.45594000000E+02  0.51100000000E-03 0.  1.
    9900012    2    1    2    0    0  0.31409996156E-01 -0.93747469185E-01  0.11760932702E+01  0.90007758264E+02  0.90000019873E+02 0.  0.
        -12    1    1    2    0    0 -0.31409996156E-01  0.93747469185E-01 -0.11760932702E+01  0.11802417363E+01  0.00000000000E+00 0.  1.
         11    1    3    3    0    0 -0.41552884613E+01  0.29193997324E+01 -0.77541795642E+01  0.92691217475E+01  0.51100000000E-03 0. -1.
        -11    1    3    3    0    0 -0.13099151820E+01  0.37753243546E+02 -0.30372088987E+01  0.37897861604E+02  0.51100000000E-03 0.  1.
         12    1    3    3    0    0  0.54966136394E+01 -0.40766390747E+02  0.11967481733E+02  0.42840774912E+02  0.00000000000E+00 0. -1.
</event>
<event>
 7    1  0.3752192E-015  0.9000791E+02  0.7816164E-02  0.1186339E+00
        -11   -1    0    0    0    0  0.00000000000E+00  0.00000000000E+00  0.45593999997E+02  0.45594000000E+02  0.51100000000E-03 0. -1.
         11   -1    0    0    0    0 -0.00000000000E+00 -0.00000000000E+00 -0.45593999997E+02  0.45594000000E+02  0.51100000000E-03 0.  1.
    9900012    2    1    2    0    0 -0.22362826166E+00 -0.67866285630E+00  0.93916358266E+00  0.90007906314E+02  0.90000169878E+02 0.  0.
        -12    1    1    2    0    0  0.22362826166E+00  0.67866285630E+00 -0.93916358266E+00  0.11800936857E+01  0.00000000000E+00 0.  1.
         11    1    3    3    0    0 -0.96858188461E+01 -0.54131916975E+01 -0.39758417151E+01  0.11786647050E+02  0.51100000000E-03 0. -1.
        -11    1    3    3    0    0  0.23963997516E+02  0.32902635994E+02 -0.11826809486E+02  0.42387852684E+02  0.51100000000E-03 0.  1.
         12    1    3    3    0    0 -0.14501806931E+02 -0.28168107153E+02  0.16741814784E+02  0.35833406580E+02  0.00000000000E+00 0. -1.
</event>
<event>
 7    1  0.3752192E-015  0.9000772E+02  0.7816164E-02  0.1186339E+00
        -11   -1    0    0    0    0  0.00000000000E+00  0.00000000000E+00  0.45593999997E+02  0.45594000000E+02  0.51100000000E-03 0. -1.
         11   -1    0    0    0    0 -0.00000000000E+00 -0.00000000000E+00 -0.45593999997E+02  0.45594000000E+02  0.51100000000E-03 0.  1.
    9900012    2    1    2    0    0 -0.62091379851E+00 -0.83003415088E+00  0.56441607915E+00  0.90007722004E+02  0.89999983135E+02 0.  0.
        -12    1    1    2    0    0  0.62091379851E+00  0.83003415088E+00 -0.56441607915E+00  0.11802779957E+01  0.00000000000E+00 0.  1.
         11    1    3    3    0    0  0.38663523040E+02 -0.54732842594E+01  0.10684248404E+02  0.40484293482E+02  0.51100000000E-03 0. -1.
        -11    1    3    3    0    0 -0.34113032358E+01  0.89207190813E+01 -0.93829644748E+01  0.13388660922E+02  0.51100000000E-03 0.  1.
        -12    1    3    3    0    0 -0.35873133603E+02 -0.42774689727E+01 -0.73686785012E+00  0.36134767601E+02  0.00000000000E+00 0.  1.
</event>
<event>
 7    1  0.3752192E-015  0.9000791E+02  0.7816164E-02  0.1186339E+00
        -11   -1    0    0    0    0  0.00000000000E+00  0.00000000000E+00  0.45593999997E+02  0.45594000000E+02  0.51100000000E-03 0. -1.
         11   -1    0    0    0    0 -0.00000000000E+00 -0.00000000000E+00 -0.45593999997E+02  0.45594000000E+02  0.51100000000E-03 0.  1.
    9900012    2    1    2    0    0  0.88277262775E+00  0.29118375487E+00  0.72700089115E+00  0.90007912805E+02  0.90000176454E+02 0.  0.
        -12    1    1    2    0    0 -0.88277262775E+00 -0.29118375487E+00 -0.72700089115E+00  0.11800871947E+01  0.00000000000E+00 0.  1.
         11    1    3    3    0    0  0.94496593654E+01 -0.25755312225E+01 -0.22429582766E+01  0.10047899546E+02  0.51100000000E-03 0. -1.
        -11    1    3    3    0    0  0.16378580558E+02  0.71941214121E+01 -0.32075031638E+02  0.36726297647E+02  0.51100000000E-03 0.  1.
         12    1    3    3    0    0 -0.24945467295E+02 -0.43274064347E+01  0.35044990806E+02  0.43233715612E+02  0.00000000000E+00 0. -1.
</event>
<event>
 7    1  0.3752192E-015  0.9000741E+02  0.7816164E-02  0.1186340E+00
        -11   -1    0    0    0    0  0.00000000000E+00  0.00000000000E+00  0.45593999997E+02  0.45594000000E+02  0.51100000000E-03 0.  1.
         11   -1    0    0    0    0 -0.00000000000E+00 -0.00000000000E+00 -0.45593999997E+02  0.45594000000E+02  0.51100000000E-03 0. -1.
    9900012    2    1    2    0    0  0.35326610271E+00  0.67884805830E+00 -0.89898431092E+00  0.90007405058E+02  0.89999662004E+02 0.  0.
        -12    1    1    2    0    0 -0.35326610271E+00 -0.67884805830E+00  0.89898431092E+00  0.11805949419E+01  0.00000000000E+00 0.  1.
         11    1    3    3    0    0 -0.20502230423E+01 -0.62854920679E+01  0.61469120356E+01  0.90274776595E+01  0.51100000000E-03 0. -1.
        -11    1    3    3    0    0  0.38695853549E+02  0.17448197422E+02  0.53217704701E+00  0.42451052847E+02  0.51100000000E-03 0.  1.
         12    1    3    3    0    0 -0.36292364404E+02 -0.10483857296E+02 -0.75780733935E+01  0.38528874551E+02  0.00000000000E+00 0. -1.
</event>
<event>
 7    1  0.3752192E-015  0.9000773E+02  0.7816164E-02  0.1186339E+00
        -11   -1    0    0    0    0  0.00000000000E+00  0.00000000000E+00  0.45593999997E+02  0.45594000000E+02  0.51100000000E-03 0.  1.
         11   -1    0    0    0    0 -0.00000000000E+00 -0.00000000000E+00 -0.45593999997E+02  0.45594000000E+02  0.51100000000E-03 0. -1.
    9900012    2    1    2    0    0  0.11099402276E+00 -0.76778463617E+00 -0.88950387510E+00  0.90007733054E+02  0.89999994330E+02 0.  0.
        -12    1    1    2    0    0 -0.11099402276E+00  0.76778463617E+00  0.88950387510E+00  0.11802669463E+01  0.00000000000E+00 0.  1.
         11    1    3    3    0    0 -0.20772168547E+02  0.26431721438E+02  0.14302863648E+02  0.36533420222E+02  0.51100000000E-03 0. -1.
        -11    1    3    3    0    0  0.23951534979E+01  0.81391619421E+01  0.38047436084E+01  0.92983219768E+01  0.51100000000E-03 0.  1.
        -12    1    3    3    0    0  0.18488009072E+02 -0.35338668017E+02 -0.18997111131E+02  0.44175990855E+02  0.00000000000E+00 0.  1.
</event>
<event>
 7    1  0.3752192E-015  0.9000775E+02  0.7816164E-02  0.1186339E+00
        -11   -1    0    0    0    0  0.00000000000E+00  0.00000000000E+00  0.45593999997E+02  0.45594000000E+02  0.51100000000E-03 0. -1.
         11   -1    0    0    0    0 -0.00000000000E+00 -0.00000000000E+00 -0.45593999997E+02  0.45594000000E+02  0.51100000000E-03 0.  1.
    9900012    2    1    2    0    0 -0.70203150716E+00  0.53276297468E+00 -0.78505338556E+00  0.90007748568E+02  0.90000010049E+02 0.  0.
        -12    1    1    2    0    0  0.70203150716E+00 -0.53276297468E+00  0.78505338556E+00  0.11802514319E+01  0.00000000000E+00 0.  1.
         11    1    3    3    0    0 -0.20627253813E+02 -0.43603272570E-01  0.24164232848E+02  0.31770987560E+02  0.51100000000E-03 0. -1.
        -11    1    3    3    0    0 -0.95895430698E+01 -0.41668405498E+00  0.90573100798E+01  0.13197265930E+02  0.51100000000E-03 0.  1.
        -12    1    3    3    0    0  0.29514765376E+02  0.99305030222E+00 -0.34006596313E+02  0.45039495078E+02  0.00000000000E+00 0.  1.
</event>
<event>
 7    1  0.3752192E-015  0.9000789E+02  0.7816164E-02  0.1186339E+00
        -11   -1    0    0    0    0  0.00000000000E+00  0.00000000000E+00  0.45593999997E+02  0.45594000000E+02  0.51100000000E-03 0.  1.
         11   -1    0    0    0    0 -0.00000000000E+00 -0.00000000000E+00 -0.45593999997E+02  0.45594000000E+02  0.51100000000E-03 0. -1.
    9900012    2    1    2    0    0 -0.26372677030E+00  0.62645949758E+00 -0.96470059198E+00  0.90007893842E+02  0.90000157241E+02 0.  0.
        -12    1    1    2    0    0  0.26372677030E+00 -0.62645949758E+00  0.96470059198E+00  0.11801061578E+01  0.00000000000E+00 0.  1.
         11    1    3    3    0    0 -0.81054664059E+01  0.76108414867E+01 -0.53152709559E+01  0.12323781862E+02  0.51100000000E-03 0. -1.
        -11    1    3    3    0    0  0.13863486908E+02 -0.38614871835E+02  0.15130161160E+02  0.43729010657E+02  0.51100000000E-03 0.  1.
         12    1    3    3    0    0 -0.60217472719E+01  0.31630489846E+02 -0.10779590797E+02  0.33955101323E+02  0.00000000000E+00 0. -1.
</event>
<event>
 7    1  0.3752192E-015  0.9000774E+02  0.7816164E-02  0.1186339E+00
        -11   -1    0    0    0    0  0.00000000000E+00  0.00000000000E+00  0.45593999997E+02  0.45594000000E+02  0.51100000000E-03 0. -1.
         11   -1    0    0    0    0 -0.00000000000E+00 -0.00000000000E+00 -0.45593999997E+02  0.45594000000E+02  0.51100000000E-03 0.  1.
    9900012    2    1    2    0    0  0.26147155523E+00 -0.19803740396E+00  0.11337706592E+01  0.90007736430E+02  0.89999997751E+02 0.  0.
        -12    1    1    2    0    0 -0.26147155523E+00  0.19803740396E+00 -0.11337706592E+01  0.11802635702E+01  0.00000000000E+00 0.  1.
         11    1    3    3    0    0  0.10359735925E+02 -0.24829350755E+02 -0.30303410586E+02  0.40523048760E+02  0.51100000000E-03 0. -1.
        -11    1    3    3    0    0  0.39557873716E+01 -0.42748556598E+01  0.70124319824E+01  0.91157472108E+01  0.51100000000E-03 0.  1.
        -12    1    3    3    0    0 -0.14054051742E+02  0.28906169011E+02  0.24424749263E+02  0.40368940459E+02  0.00000000000E+00 0.  1.
</event>
<event>
 7    1  0.3752192E-015  0.9000778E+02  0.7816164E-02  0.1186339E+00
        -11   -1    0    0    0    0  0.00000000000E+00  0.00000000000E+00  0.45593999997E+02  0.45594000000E+02  0.51100000000E-03 0. -1.
         11   -1    0    0    0    0 -0.00000000000E+00 -0.00000000000E+00 -0.45593999997E+02  0.45594000000E+02  0.51100000000E-03 0.  1.
    9900012    2    1    2    0    0 -0.55435495782E+00 -0.10418965663E+01 -0.76719817626E-02  0.90007781065E+02  0.90000042976E+02 0.  0.
        -12    1    1    2    0    0  0.55435495782E+00  0.10418965663E+01  0.76719817626E-02  0.11802189345E+01  0.00000000000E+00 0.  1.
         11    1    3    3    0    0  0.37117731268E+02 -0.48564478253E+01 -0.16187746581E+02  0.40784239598E+02  0.51100000000E-03 0. -1.
        -11    1    3    3    0    0 -0.37651312908E+01 -0.77501643113E+01 -0.22930147176E+01  0.89162311121E+01  0.51100000000E-03 0.  1.
        -12    1    3    3    0    0 -0.33906954935E+02  0.11564715570E+02  0.18473089317E+02  0.40307310355E+02  0.00000000000E+00 0.  1.
</event>
<event>
 7    1  0.3752192E-015  0.9000783E+02  0.7816164E-02  0.1186339E+00
        -11   -1    0    0    0    0  0.00000000000E+00  0.00000000000E+00  0.45593999997E+02  0.45594000000E+02  0.51100000000E-03 0.  1.
         11   -1    0    0    0    0 -0.00000000000E+00 -0.00000000000E+00 -0.45593999997E+02  0.45594000000E+02  0.51100000000E-03 0. -1.
    9900012    2    1    2    0    0 -0.11203596855E+01  0.34760627543E+00  0.12945064031E+00  0.90007833310E+02  0.90000095910E+02 0.  0.
        -12    1    1    2    0    0  0.11203596855E+01 -0.34760627543E+00 -0.12945064031E+00  0.11801666898E+01  0.00000000000E+00 0.  1.
         11    1    3    3    0    0 -0.16228917903E+02  0.37442846967E+02 -0.56608658547E+01  0.41199392809E+02  0.51100000000E-03 0. -1.
        -11    1    3    3    0    0  0.89615725596E+01  0.15038858666E+01 -0.98469338257E+00  0.91400807852E+01  0.51100000000E-03 0.  1.
        -12    1    3    3    0    0  0.61469856580E+01 -0.38599126558E+02  0.67750098776E+01  0.39668359716E+02  0.00000000000E+00 0.  1.
</event>
<event>
 7    1  0.3752192E-015  0.9000774E+02  0.7816164E-02  0.1186339E+00
        -11   -1    0    0    0    0  0.00000000000E+00  0.00000000000E+00  0.45593999997E+02  0.45594000000E+02  0.51100000000E-03 0. -1.
         11   -1    0    0    0    0 -0.00000000000E+00 -0.00000000000E+00 -0.45593999997E+02  0.45594000000E+02  0.51100000000E-03 0.  1.
    9900012    2    1    2    0    0 -0.10071119050E+01  0.58840270046E+00  0.18030758385E+00  0.90007744540E+02  0.90000005967E+02 0.  0.
        -12    1    1    2    0    0  0.10071119050E+01 -0.58840270046E+00 -0.18030758385E+00  0.11802554604E+01  0.00000000000E+00 0.  1.
         11    1    3    3    0    0  0.61923205500E+01 -0.40831709280E+00  0.34432214706E+02  0.34986982814E+02  0.51100000000E-03 0. -1.
        -11    1    3    3    0    0  0.78240260218E+01  0.35459927051E+01  0.69766304170E+01  0.11066292048E+02  0.51100000000E-03 0.  1.
        -12    1    3    3    0    0 -0.15023458477E+02 -0.25492729118E+01 -0.41228537539E+02  0.43954469677E+02  0.00000000000E+00 0.  1.
</event>
<event>
 7    1  0.3752192E-015  0.9000772E+02  0.7816164E-02  0.1186339E+00
        -11   -1    0    0    0    0  0.00000000000E+00  0.00000000000E+00  0.45593999997E+02  0.45594000000E+02  0.51100000000E-03 0.  1.
         11   -1    0    0    0    0 -0.00000000000E+00 -0.00000000000E+00 -0.45593999997E+02  0.45594000000E+02  0.51100000000E-03 0. -1.
    9900012    2    1    2    0    0  0.56967864574E-01 -0.98437388127E+00 -0.64871178017E+00  0.90007718572E+02  0.89999979657E+02 0.  0.
        -12    1    1    2    0    0 -0.56967864574E-01  0.98437388127E+00  0.64871178017E+00  0.11802814281E+01  0.00000000000E+00 0.  1.
         11    1    3    3    0    0  0.11504984492E+02 -0.12580904788E+02  0.16109265311E+01  0.17124220215E+02  0.51100000000E-03 0. -1.
        -11    1    3    3    0    0  0.26561450714E+02  0.11540534000E+02  0.13229877536E+02  0.31839036557E+02  0.51100000000E-03 0.  1.
         12    1    3    3    0    0 -0.38009467341E+02  0.55996906542E-01 -0.15489515847E+02  0.41044461799E+02  0.00000000000E+00 0. -1.
</event>
<event>
 7    1  0.3752192E-015  0.9000773E+02  0.7816164E-02  0.1186339E+00
        -11   -1    0    0    0    0  0.00000000000E+00  0.00000000000E+00  0.45593999997E+02  0.45594000000E+02  0.51100000000E-03 0.  1.
         11   -1    0    0    0    0 -0.00000000000E+00 -0.00000000000E+00 -0.45593999997E+02  0.45594000000E+02  0.51100000000E-03 0. -1.
    9900012    2    1    2    0    0  0.69930274043E+00  0.94998476421E+00 -0.39248209480E-01  0.90007730625E+02  0.89999991870E+02 0.  0.
        -12    1    1    2    0    0 -0.69930274043E+00 -0.94998476421E+00  0.39248209480E-01  0.11802693747E+01  0.00000000000E+00 0.  1.
         11    1    3    3    0    0 -0.35600604697E+02 -0.13499565162E+02 -0.12324796512E+02  0.40019269404E+02  0.51100000000E-03 0. -1.
        -11    1    3    3    0    0 -0.28687424339E+01  0.10544872668E+01  0.77670817025E+01  0.83468068734E+01  0.51100000000E-03 0.  1.
        -12    1    3    3    0    0  0.39168649871E+02  0.13395062659E+02  0.45184666001E+01  0.41641654347E+02  0.00000000000E+00 0.  1.
</event>
<event>
 7    1  0.3752192E-015  0.9000777E+02  0.7816164E-02  0.1186339E+00
        -11   -1    0    0    0    0  0.00000000000E+00  0.00000000000E+00  0.45593999997E+02  0.45594000000E+02  0.51100000000E-03 0. -1.
         11   -1    0    0    0    0 -0.00000000000E+00 -0.00000000000E+00 -0.45593999997E+02  0.45594000000E+02  0.51100000000E-03 0.  1.
    9900012    2    1    2    0    0  0.10306518275E+01 -0.46382057440E+00  0.33996223306E+00  0.90007768228E+02  0.90000029969E+02 0.  0.
        -12    1    1    2    0    0 -0.10306518275E+01  0.46382057440E+00 -0.33996223306E+00  0.11802317716E+01  0.00000000000E+00 0.  1.
         11    1    3    3    0    0  0.20997885504E+02  0.34716490525E+02  0.51162983558E+01  0.40894038920E+02  0.51100000000E-03 0. -1.
        -11    1    3    3    0    0 -0.10986453389E+02  0.55126304682E+00  0.31199059879E+01  0.11434153342E+02  0.51100000000E-03 0.  1.
        -12    1    3    3    0    0 -0.89807802879E+01 -0.35731574147E+02 -0.78962421107E+01  0.37679575967E+02  0.00000000000E+00 0.  1.
</event>
<event>
 7    1  0.3752192E-015  0.9000757E+02  0.7816164E-02  0.1186339E+00
        -11   -1    0    0    0    0  0.00000000000E+00  0.00000000000E+00  0.45593999997E+02  0.45594000000E+02  0.51100000000E-03 0.  1.
         11   -1    0    0    0    0 -0.00000000000E+00 -0.00000000000E+00 -0.45593999997E+02  0.45594000000E+02  0.51100000000E-03 0. -1.
    9900012    2    1    2    0    0 -0.17759455336E+00  0.49547115912E+00 -0.10565927106E+01  0.90007568024E+02  0.89999827121E+02 0.  0.
        -12    1    1    2    0    0  0.17759455336E+00 -0.49547115912E+00  0.10565927106E+01  0.11804319764E+01  0.00000000000E+00 0.  1.
         11    1    3    3    0    0 -0.41164153771E+01  0.22865081807E+02 -0.31923807767E+02  0.39482734761E+02  0.51100000000E-03 0. -1.
        -11    1    3    3    0    0  0.74734475367E+01  0.60084844115E+01  0.18157346058E+01  0.97596718914E+01  0.51100000000E-03 0.  1.
        -12    1    3    3    0    0 -0.35346267130E+01 -0.28378095060E+02  0.29051480451E+02  0.40765161371E+02  0.00000000000E+00 0.  1.
</event>
<event>
 7    1  0.3752192E-015  0.9000866E+02  0.7816164E-02  0.1186337E+00
        -11   -1    0    0    0    0  0.00000000000E+00  0.00000000000E+00  0.45593999997E+02  0.45594000000E+02  0.51100000000E-03 0. -1.
         11   -1    0    0    0    0 -0.00000000000E+00 -0.00000000000E+00 -0.45593999997E+02  0.45594000000E+02  0.51100000000E-03 0.  1.
    9900012    2    1    2    0    0  0.49704473061E+00  0.89882774495E+00  0.57956427605E+00  0.90008661402E+02  0.90000934927E+02 0.  0.
        -12    1    1    2    0    0 -0.49704473061E+00 -0.89882774495E+00 -0.57956427605E+00  0.11793385983E+01  0.00000000000E+00 0.  1.
         11    1    3    3    0    0 -0.19380697730E+01  0.73875170696E+01  0.61420720240E+01  0.98008454690E+01  0.51100000000E-03 0. -1.
        -11    1    3    3    0    0 -0.17958880165E+02  0.29198807606E+02 -0.15954890059E+02  0.37810716199E+02  0.51100000000E-03 0.  1.
         12    1    3    3    0    0  0.20393994669E+02 -0.35687496931E+02  0.10392382311E+02  0.42397099734E+02  0.00000000000E+00 0. -1.
</event>
<event>
 7    1  0.3752192E-015  0.9000759E+02  0.7816164E-02  0.1186339E+00
        -11   -1    0    0    0    0  0.00000000000E+00  0.00000000000E+00  0.45593999997E+02  0.45594000000E+02  0.51100000000E-03 0. -1.
         11   -1    0    0    0    0 -0.00000000000E+00 -0.00000000000E+00 -0.45593999997E+02  0.45594000000E+02  0.51100000000E-03 0.  1.
    9900012    2    1    2    0    0 -0.32288804644E+00  0.63272713989E-01  0.11336259252E+01  0.90007589959E+02  0.89999849346E+02 0.  0.
        -12    1    1    2    0    0  0.32288804644E+00 -0.63272713989E-01 -0.11336259252E+01  0.11804100411E+01  0.00000000000E+00 0.  1.
         11    1    3    3    0    0 -0.71803798669E+01 -0.27466543394E+02 -0.24391493299E+02  0.37428783131E+02  0.51100000000E-03 0. -1.
        -11    1    3    3    0    0  0.37441840096E+01 -0.81030546411E+01  0.52953075113E+00  0.89419691059E+01  0.51100000000E-03 0.  1.
        -12    1    3    3    0    0  0.31133078109E+01  0.35632870749E+02  0.24995588473E+02  0.43636837722E+02  0.00000000000E+00 0.  1.
</event>
<event>
 7    1  0.3752192E-015  0.9000769E+02  0.7816164E-02  0.1186339E+00
        -11   -1    0    0    0    0  0.00000000000E+00  0.00000000000E+00  0.45593999997E+02  0.45594000000E+02  0.51100000000E-03 0. -1.
         11   -1    0    0    0    0 -0.00000000000E+00 -0.00000000000E+00 -0.45593999997E+02  0.45594000000E+02  0.51100000000E-03 0.  1.
    9900012    2    1    2    0    0  0.26331579080E+00  0.11423325600E+01  0.13741260091E+00  0.90007686014E+02  0.89999946669E+02 0.  0.
        -12    1    1    2    0    0 -0.26331579080E+00 -0.11423325600E+01 -0.13741260091E+00  0.11803139862E+01  0.00000000000E+00 0.  1.
         11    1    3    3    0    0 -0.10215199110E+01 -0.81188531032E+01 -0.54411429487E+01  0.98267652607E+01  0.51100000000E-03 0. -1.
        -11    1    3    3    0    0  0.30163563331E+02  0.27338471595E+02 -0.11174142995E+02  0.42214855844E+02  0.51100000000E-03 0.  1.
         12    1    3    3    0    0 -0.28878727630E+02 -0.18077285932E+02  0.16752698544E+02  0.37966064909E+02  0.00000000000E+00 0. -1.
</event>
<event>
 7    1  0.3752192E-015  0.9000772E+02  0.7816164E-02  0.1186339E+00
        -11   -1    0    0    0    0  0.00000000000E+00  0.00000000000E+00  0.45593999997E+02  0.45594000000E+02  0.51100000000E-03 0.  1.
         11   -1    0    0    0    0 -0.00000000000E+00 -0.00000000000E+00 -0.45593999997E+02  0.45594000000E+02  0.51100000000E-03 0. -1.
    9900012    2    1    2    0    0 -0.43430046385E+00  0.10763301485E+01 -0.21439134150E+00  0.90007717352E+02  0.89999978421E+02 0.  0.
        -12    1    1    2    0    0  0.43430046385E+00 -0.10763301485E+01  0.21439134150E+00  0.11802826478E+01  0.00000000000E+00 0.  1.
         11    1    3    3    0    0  0.11449853746E+02 -0.13609946958E+02 -0.12012965034E+02  0.21462551949E+02  0.51100000000E-03 0. -1.
        -11    1    3    3    0    0  0.13441390378E+02 -0.17016653627E+02  0.17110218923E+02  0.27622401557E+02  0.51100000000E-03 0.  1.
         12    1    3    3    0    0 -0.25325544588E+02  0.31702930733E+02 -0.53116452303E+01  0.40922763846E+02  0.00000000000E+00 0. -1.
</event>
<event>
 7    1  0.3752192E-015  0.9000776E+02  0.7816164E-02  0.1186339E+00
        -11   -1    0    0    0    0  0.00000000000E+00  0.00000000000E+00  0.45593999997E+02  0.45594000000E+02  0.51100000000E-03 0. -1.
         11   -1    0    0    0    0 -0.00000000000E+00 -0.00000000000E+00 -0.45593999997E+02  0.45594000000E+02  0.51100000000E-03 0.  1.
    9900012    2    1    2    0    0 -0.63632978063E+00 -0.97909794895E+00 -0.17149444346E+00  0.90007763275E+02  0.90000024950E+02 0.  0.
        -12    1    1    2    0    0  0.63632978063E+00  0.97909794895E+00  0.17149444346E+00  0.11802367252E+01  0.00000000000E+00 0.  1.
         11    1    3    3    0    0  0.23997344253E+02  0.93644456873E+00  0.17199796328E+02  0.29539506658E+02  0.51100000000E-03 0. -1.
        -11    1    3    3    0    0 -0.15859948120E+02  0.13213873168E+02  0.13726139223E+02  0.24790145153E+02  0.51100000000E-03 0.  1.
        -12    1    3    3    0    0 -0.87737259134E+01 -0.15129415685E+02 -0.31097429994E+02  0.35678111464E+02  0.00000000000E+00 0.  1.
</event>
<event>
 7    1  0.3752192E-015  0.9000770E+02  0.7816164E-02  0.1186339E+00
        -11   -1    0    0    0    0  0.00000000000E+00  0.00000000000E+00  0.45593999997E+02  0.45594000000E+02  0.51100000000E-03 0. -1.
         11   -1    0    0    0    0 -0.00000000000E+00 -0.00000000000E+00 -0.45593999997E+02  0.45594000000E+02  0.51100000000E-03 0.  1.
    9900012    2    1    2    0    0  0.36420559683E+00  0.11158605238E+01  0.12380437637E+00  0.90007695824E+02  0.89999956608E+02 0.  0.
        -12    1    1    2    0    0 -0.36420559683E+00 -0.11158605238E+01 -0.12380437637E+00  0.11803041765E+01  0.00000000000E+00 0.  1.
         11    1    3    3    0    0 -0.54297177446E+01 -0.58363761978E+01 -0.69622503705E+01  0.10583858105E+02  0.51100000000E-03 0. -1.
        -11    1    3    3    0    0  0.10414645136E+02  0.23397721038E+02 -0.29488027088E+02  0.39057162274E+02  0.51100000000E-03 0.  1.
         12    1    3    3    0    0 -0.46207217946E+01 -0.16445484317E+02  0.36574081835E+02  0.40366675444E+02  0.00000000000E+00 0. -1.
</event>
<event>
 7    1  0.3752192E-015  0.9000766E+02  0.7816164E-02  0.1186339E+00
        -11   -1    0    0    0    0  0.00000000000E+00  0.00000000000E+00  0.45593999997E+02  0.45594000000E+02  0.51100000000E-03 0.  1.
         11   -1    0    0    0    0 -0.00000000000E+00 -0.00000000000E+00 -0.45593999997E+02  0.45594000000E+02  0.51100000000E-03 0. -1.
    9900012    2    1    2    0    0  0.37306591457E+00  0.77683788208E+00  0.80655939886E+00  0.90007663889E+02  0.89999924252E+02 0.  0.
        -12    1    1    2    0    0 -0.37306591457E+00 -0.77683788208E+00 -0.80655939886E+00  0.11803361113E+01  0.00000000000E+00 0.  1.
         11    1    3    3    0    0  0.45285815651E+01  0.53843062574E+00  0.52836867944E+01  0.69796350143E+01  0.51100000000E-03 0. -1.
        -11    1    3    3    0    0  0.21207905101E+02 -0.33649306512E+02 -0.79349690496E+01  0.40558782053E+02  0.51100000000E-03 0.  1.
         12    1    3    3    0    0 -0.25363420752E+02  0.33887713769E+02  0.34578416540E+01  0.42469246822E+02  0.00000000000E+00 0. -1.
</event>
<event>
 7    1  0.3752192E-015  0.9000764E+02  0.7816164E-02  0.1186339E+00
        -11   -1    0    0    0    0  0.00000000000E+00  0.00000000000E+00  0.45593999997E+02  0.45594000000E+02  0.51100000000E-03 0. -1.
         11   -1    0    0    0    0 -0.00000000000E+00 -0.00000000000E+00 -0.45593999997E+02  0.45594000000E+02  0.51100000000E-03 0.  1.
    9900012    2    1    2    0    0  0.71367038805E+00 -0.50289642465E+00 -0.79436701321E+00  0.90007640229E+02  0.89999900280E+02 0.  0.
        -12    1    1    2    0    0 -0.71367038805E+00  0.50289642465E+00  0.79436701321E+00  0.11803597707E+01  0.00000000000E+00 0.  1.
         11    1    3    3    0    0  0.35436282759E+02  0.98966631799E+01  0.15349355224E+02  0.39865734459E+02  0.51100000000E-03 0. -1.
        -11    1    3    3    0    0  0.44864452206E+01 -0.48892647487E+01 -0.67146040156E+01  0.94402864283E+01  0.51100000000E-03 0.  1.
        -12    1    3    3    0    0 -0.39209057592E+02 -0.55102948559E+01 -0.94291182217E+01  0.40701619342E+02  0.00000000000E+00 0.  1.
</event>
<event>
 7    1  0.4771382E-015  0.9000783E+02  0.7816164E-02  0.1186339E+00
        -11   -1    0    0    0    0  0.00000000000E+00  0.00000000000E+00  0.45593999997E+02  0.45594000000E+02  0.51100000000E-03 0. -1.
         11   -1    0    0    0    0 -0.00000000000E+00 -0.00000000000E+00 -0.45593999997E+02  0.45594000000E+02  0.51100000000E-03 0.  1.
    9900012    2    1    2    0    0  0.13572979215E+00  0.10115115898E+01  0.59264774684E+00  0.90007826443E+02  0.90000088952E+02 0.  0.
        -12    1    1    2    0    0 -0.13572979215E+00 -0.10115115898E+01 -0.59264774684E+00  0.11801735570E+01  0.00000000000E+00 0.  1.
         11    1    3    3    0    0 -0.90762162017E+01 -0.41726214054E+01  0.37025505781E+02  0.38349400889E+02  0.51100000000E-03 0. -1.
        -11    1    3    3    0    0  0.50677267640E+01  0.73263733688E+01  0.48294894238E+01  0.10133191484E+02  0.51100000000E-03 0.  1.
        -12    1    3    3    0    0  0.41442192298E+01 -0.21422403736E+01 -0.41262347458E+02  0.41525234070E+02  0.00000000000E+00 0.  1.
</event>
<event>
 7    1  0.3752192E-015  0.9000768E+02  0.7816164E-02  0.1186339E+00
        -11   -1    0    0    0    0  0.00000000000E+00  0.00000000000E+00  0.45593999997E+02  0.45594000000E+02  0.51100000000E-03 0.  1.
         11   -1    0    0    0    0 -0.00000000000E+00 -0.00000000000E+00 -0.45593999997E+02  0.45594000000E+02  0.51100000000E-03 0. -1.
    9900012    2    1    2    0    0  0.51725638746E+00 -0.10295692410E+01 -0.25610909191E+00  0.90007678493E+02  0.89999939049E+02 0.  0.
        -12    1    1    2    0    0 -0.51725638746E+00  0.10295692410E+01  0.25610909191E+00  0.11803215068E+01  0.00000000000E+00 0.  1.
         11    1    3    3    0    0  0.52201527242E+01  0.28544499446E+02 -0.20351749943E+02  0.35443365657E+02  0.51100000000E-03 0. -1.
        -11    1    3    3    0    0 -0.62131272307E+01  0.67148588458E+01 -0.49921223636E+01  0.10421783209E+02  0.51100000000E-03 0.  1.
        -12    1    3    3    0    0  0.15102308939E+01 -0.36288927532E+02  0.25087763215E+02  0.44142529628E+02  0.00000000000E+00 0.  1.
</event>
<event>
 7    1  0.3752192E-015  0.9000771E+02  0.7816164E-02  0.1186339E+00
        -11   -1    0    0    0    0  0.00000000000E+00  0.00000000000E+00  0.45593999997E+02  0.45594000000E+02  0.51100000000E-03 0.  1.
         11   -1    0    0    0    0 -0.00000000000E+00 -0.00000000000E+00 -0.45593999997E+02  0.45594000000E+02  0.51100000000E-03 0. -1.
    9900012    2    1    2    0    0  0.17314987244E+00 -0.53411928935E+00 -0.10381809871E+01  0.90007710182E+02  0.89999971156E+02 0.  0.
        -12    1    1    2    0    0 -0.17314987244E+00  0.53411928935E+00  0.10381809871E+01  0.11802898185E+01  0.00000000000E+00 0.  1.
         11    1    3    3    0    0 -0.24705413648E+02 -0.27810098274E+02 -0.16867628460E+02  0.40844533534E+02  0.51100000000E-03 0. -1.
        -11    1    3    3    0    0 -0.56960930410E+01  0.22311676938E+01  0.57035122081E+01  0.83638290859E+01  0.51100000000E-03 0.  1.
        -12    1    3    3    0    0  0.30574656562E+02  0.25044811290E+02  0.10125935264E+02  0.40799347561E+02  0.00000000000E+00 0.  1.
</event>
<event>
 7    1  0.3752192E-015  0.9000787E+02  0.7816164E-02  0.1186339E+00
        -11   -1    0    0    0    0  0.00000000000E+00  0.00000000000E+00  0.45593999997E+02  0.45594000000E+02  0.51100000000E-03 0.  1.
         11   -1    0    0    0    0 -0.00000000000E+00 -0.00000000000E+00 -0.45593999997E+02  0.45594000000E+02  0.51100000000E-03 0. -1.
    9900012    2    1    2    0    0  0.91679326767E-01  0.11106493161E+01  0.38828622752E+00  0.90007867297E+02  0.90000130345E+02 0.  0.
        -12    1    1    2    0    0 -0.91679326767E-01 -0.11106493161E+01 -0.38828622752E+00  0.11801327031E+01  0.00000000000E+00 0.  1.
         11    1    3    3    0    0  0.11498297413E+02  0.38130471351E+02 -0.11757536341E+02  0.41525695056E+02  0.51100000000E-03 0. -1.
        -11    1    3    3    0    0 -0.96697087023E+01 -0.42959905230E+00 -0.59697040229E+00  0.96976386639E+01  0.51100000000E-03 0.  1.
        -12    1    3    3    0    0 -0.17369093835E+01 -0.36590222982E+02  0.12742792971E+02  0.38784533577E+02  0.00000000000E+00 0.  1.
</event>
<event>
 7    1  0.3752192E-015  0.9000765E+02  0.7816164E-02  0.1186339E+00
        -11   -1    0    0    0    0  0.00000000000E+00  0.00000000000E+00  0.45593999997E+02  0.45594000000E+02  0.51100000000E-03 0.  1.
         11   -1    0    0    0    0 -0.00000000000E+00 -0.00000000000E+00 -0.45593999997E+02  0.45594000000E+02  0.51100000000E-03 0. -1.
    9900012    2    1    2    0    0  0.27802585635E+00  0.11044999082E+01 -0.30983863971E+00  0.90007653268E+02  0.89999913492E+02 0.  0.
        -12    1    1    2    0    0 -0.27802585635E+00 -0.11044999082E+01  0.30983863971E+00  0.11803467315E+01  0.00000000000E+00 0.  1.
         11    1    3    3    0    0 -0.28749859569E+01 -0.12197220512E+01  0.97097856428E+01  0.10199666839E+02  0.51100000000E-03 0. -1.
        -11    1    3    3    0    0 -0.17705184344E+02 -0.33265851298E+02 -0.16796947512E+01  0.37721503018E+02  0.51100000000E-03 0.  1.
         12    1    3    3    0    0  0.20858196157E+02  0.35590073257E+02 -0.83399295313E+01  0.42086483412E+02  0.00000000000E+00 0. -1.
</event>
<event>
 7    1  0.3752192E-015  0.9000774E+02  0.7816164E-02  0.1186339E+00
        -11   -1    0    0    0    0  0.00000000000E+00  0.00000000000E+00  0.45593999997E+02  0.45594000000E+02  0.51100000000E-03 0. -1.
         11   -1    0    0    0    0 -0.00000000000E+00 -0.00000000000E+00 -0.45593999997E+02  0.45594000000E+02  0.51100000000E-03 0.  1.
    9900012    2    1    2    0    0 -0.55150651154E-01 -0.31698325018E+00  0.11355583292E+01  0.90007740412E+02  0.90000001786E+02 0.  0.
        -12    1    1    2    0    0  0.55150651154E-01  0.31698325018E+00 -0.11355583292E+01  0.11802595877E+01  0.00000000000E+00 0.  1.
         11    1    3    3    0    0  0.52256499101E+01  0.70183034788E+01 -0.19237916839E+01  0.89590722403E+01  0.51100000000E-03 0. -1.
        -11    1    3    3    0    0  0.21748953302E+02  0.23263731828E+02 -0.16399066599E+02  0.35821049313E+02  0.51100000000E-03 0.  1.
         12    1    3    3    0    0 -0.27029753863E+02 -0.30599018557E+02  0.19458416612E+02  0.45227618859E+02  0.00000000000E+00 0. -1.
</event>
<event>
 7    1  0.3752192E-015  0.9000773E+02  0.7816164E-02  0.1186339E+00
        -11   -1    0    0    0    0  0.00000000000E+00  0.00000000000E+00  0.45593999997E+02  0.45594000000E+02  0.51100000000E-03 0. -1.
         11   -1    0    0    0    0 -0.00000000000E+00 -0.00000000000E+00 -0.45593999997E+02  0.45594000000E+02  0.51100000000E-03 0.  1.
    9900012    2    1    2    0    0  0.10808953579E+01  0.70727955813E-01  0.46872576509E+00  0.90007728395E+02  0.89999989610E+02 0.  0.
        -12    1    1    2    0    0 -0.10808953579E+01 -0.70727955813E-01 -0.46872576509E+00  0.11802716049E+01  0.00000000000E+00 0.  1.
         11    1    3    3    0    0 -0.34062603524E+01  0.40059814177E+01  0.73225528874E+01  0.90150029261E+01  0.51100000000E-03 0. -1.
        -11    1    3    3    0    0  0.24699660803E+02  0.23804049446E+02 -0.24735927469E+02  0.42291513592E+02  0.51100000000E-03 0.  1.
         12    1    3    3    0    0 -0.20212505093E+02 -0.27739302908E+02  0.17882100347E+02  0.38701211877E+02  0.00000000000E+00 0. -1.
</event>
<event>
 7    1  0.3752192E-015  0.9000777E+02  0.7816164E-02  0.1186339E+00
        -11   -1    0    0    0    0  0.00000000000E+00  0.00000000000E+00  0.45593999997E+02  0.45594000000E+02  0.51100000000E-03 0. -1.
         11   -1    0    0    0    0 -0.00000000000E+00 -0.00000000000E+00 -0.45593999997E+02  0.45594000000E+02  0.51100000000E-03 0.  1.
    9900012    2    1    2    0    0  0.86339693013E+00 -0.50406130508E+00  0.62723128881E+00  0.90007766486E+02  0.90000028203E+02 0.  0.
        -12    1    1    2    0    0 -0.86339693013E+00  0.50406130508E+00 -0.62723128881E+00  0.11802335141E+01  0.00000000000E+00 0.  1.
         11    1    3    3    0    0 -0.65553608548E+01  0.39036420601E+02  0.19812265055E+01  0.39632564237E+02  0.51100000000E-03 0. -1.
        -11    1    3    3    0    0 -0.96406577812E+01 -0.31436182517E+01  0.30062126443E+00  0.10144702636E+02  0.51100000000E-03 0.  1.
        -12    1    3    3    0    0  0.17059415566E+02 -0.36396863655E+02 -0.16546164811E+01  0.40230499612E+02  0.00000000000E+00 0.  1.
</event>
<event>
 7    1  0.3752192E-015  0.9000773E+02  0.7816164E-02  0.1186339E+00
        -11   -1    0    0    0    0  0.00000000000E+00  0.00000000000E+00  0.45593999997E+02  0.45594000000E+02  0.51100000000E-03 0. -1.
         11   -1    0    0    0    0 -0.00000000000E+00 -0.00000000000E+00 -0.45593999997E+02  0.45594000000E+02  0.51100000000E-03 0.  1.
    9900012    2    1    2    0    0  0.60901271351E+00 -0.44738542115E+00  0.90663008656E+00  0.90007733795E+02  0.89999995081E+02 0.  0.
        -12    1    1    2    0    0 -0.60901271351E+00  0.44738542115E+00 -0.90663008656E+00  0.11802662048E+01  0.00000000000E+00 0.  1.
         11    1    3    3    0    0  0.98108749892E+01 -0.15819629071E+02 -0.16716324823E+01  0.18689790994E+02  0.51100000000E-03 0. -1.
        -11    1    3    3    0    0 -0.11846340289E+02 -0.28022308476E+01 -0.30856536189E+02  0.33170982828E+02  0.51100000000E-03 0.  1.
         12    1    3    3    0    0  0.26444780137E+01  0.18174474497E+02  0.33434798757E+02  0.38146959973E+02  0.00000000000E+00 0. -1.
</event>
<event>
 7    1  0.3837695E-015  0.9000772E+02  0.7816164E-02  0.1186339E+00
        -11   -1    0    0    0    0  0.00000000000E+00  0.00000000000E+00  0.45593999997E+02  0.45594000000E+02  0.51100000000E-03 0.  1.
         11   -1    0    0    0    0 -0.00000000000E+00 -0.00000000000E+00 -0.45593999997E+02  0.45594000000E+02  0.51100000000E-03 0. -1.
    9900012    2    1    2    0    0 -0.38534132467E-01  0.99630451196E+00 -0.63162040946E+00  0.90007723803E+02  0.89999984957E+02 0.  0.
        -12    1    1    2    0    0  0.38534132467E-01 -0.99630451196E+00  0.63162040946E+00  0.11802761971E+01  0.00000000000E+00 0.  1.
         11    1    3    3    0    0 -0.10445918565E+02 -0.17372666927E+02 -0.37440571275E+02  0.42576086580E+02  0.51100000000E-03 0. -1.
        -11    1    3    3    0    0  0.22536466837E+01 -0.47573986050E+01  0.82867479078E+01  0.98174312328E+01  0.51100000000E-03 0.  1.
        -12    1    3    3    0    0  0.81537377486E+01  0.23126370044E+02  0.28522202958E+02  0.37614205990E+02  0.00000000000E+00 0.  1.
</event>
<event>
 7    1  0.3752192E-015  0.9000764E+02  0.7816164E-02  0.1186339E+00
        -11   -1    0    0    0    0  0.00000000000E+00  0.00000000000E+00  0.45593999997E+02  0.45594000000E+02  0.51100000000E-03 0. -1.
         11   -1    0    0    0    0 -0.00000000000E+00 -0.00000000000E+00 -0.45593999997E+02  0.45594000000E+02  0.51100000000E-03 0.  1.
    9900012    2    1    2    0    0  0.66860741038E+00  0.95997100129E+00 -0.15708591324E+00  0.90007637269E+02  0.89999897281E+02 0.  0.
        -12    1    1    2    0    0 -0.66860741038E+00 -0.95997100129E+00  0.15708591324E+00  0.11803627310E+01  0.00000000000E+00 0.  1.
         11    1    3    3    0    0 -0.27604429142E+02  0.78018197266E+01  0.17885534345E+02  0.33804810876E+02  0.51100000000E-03 0. -1.
        -11    1    3    3    0    0 -0.53376201190E+01  0.11757737357E+02 -0.11387969440E+02  0.17216864538E+02  0.51100000000E-03 0.  1.
        -12    1    3    3    0    0  0.33610656671E+02 -0.18599586082E+02 -0.66546508181E+01  0.38985961855E+02  0.00000000000E+00 0.  1.
</event>
<event>
 7    1  0.3752192E-015  0.9000768E+02  0.7816164E-02  0.1186339E+00
        -11   -1    0    0    0    0  0.00000000000E+00  0.00000000000E+00  0.45593999997E+02  0.45594000000E+02  0.51100000000E-03 0. -1.
         11   -1    0    0    0    0 -0.00000000000E+00 -0.00000000000E+00 -0.45593999997E+02  0.45594000000E+02  0.51100000000E-03 0.  1.
    9900012    2    1    2    0    0 -0.20731213189E-01 -0.11084441533E+01  0.40505812114E+00  0.90007682117E+02  0.89999942721E+02 0.  0.
        -12    1    1    2    0    0  0.20731213189E-01  0.11084441533E+01 -0.40505812114E+00  0.11803178833E+01  0.00000000000E+00 0.  1.
         11    1    3    3    0    0 -0.89165267639E+01  0.26797635057E+01  0.21189045789E+01  0.95485778445E+01  0.51100000000E-03 0. -1.
        -11    1    3    3    0    0  0.91991929072E+01 -0.32127377067E+02 -0.26623638922E+02  0.42727177031E+02  0.51100000000E-03 0.  1.
         12    1    3    3    0    0 -0.30339735651E+00  0.28339169408E+02  0.24909792464E+02  0.37731927241E+02  0.00000000000E+00 0. -1.
</event>
<event>
 7    1  0.3752192E-015  0.9000776E+02  0.7816164E-02  0.1186339E+00
        -11   -1    0    0    0    0  0.00000000000E+00  0.00000000000E+00  0.45593999997E+02  0.45594000000E+02  0.51100000000E-03 0.  1.
         11   -1    0    0    0    0 -0.00000000000E+00 -0.00000000000E+00 -0.45593999997E+02  0.45594000000E+02  0.51100000000E-03 0. -1.
    9900012    2    1    2    0    0 -0.89772575611E+00  0.64662761331E+00 -0.41101943784E+00  0.90007756050E+02  0.90000017630E+02 0.  0.
        -12    1    1    2    0    0  0.89772575611E+00 -0.64662761331E+00  0.41101943784E+00  0.11802439501E+01  0.00000000000E+00 0.  1.
         11    1    3    3    0    0 -0.16156890851E+02 -0.33296466162E+02 -0.23645618104E+02  0.43918276795E+02  0.51100000000E-03 0. -1.
        -11    1    3    3    0    0  0.54531360758E+01  0.80377722008E+01 -0.33616477986E+00  0.97188210208E+01  0.51100000000E-03 0.  1.
        -12    1    3    3    0    0  0.98060290192E+01  0.25905321575E+02  0.23570763446E+02  0.36370658234E+02  0.00000000000E+00 0.  1.
</event>
<event>
 7    1  0.3752192E-015  0.9000773E+02  0.7816164E-02  0.1186339E+00
        -11   -1    0    0    0    0  0.00000000000E+00  0.00000000000E+00  0.45593999997E+02  0.45594000000E+02  0.51100000000E-03 0.  1.
         11   -1    0    0    0    0 -0.00000000000E+00 -0.00000000000E+00 -0.45593999997E+02  0.45594000000E+02  0.51100000000E-03 0. -1.
    9900012    2    1    2    0    0  0.61501902874E+00 -0.95755912868E+00 -0.31284233168E+00  0.90007729601E+02  0.89999990832E+02 0.  0.
        -12    1    1    2    0    0 -0.61501902874E+00  0.95755912868E+00  0.31284233168E+00  0.11802703992E+01  0.00000000000E+00 0.  1.
         11    1    3    3    0    0 -0.70608878312E+01  0.35169966848E+01 -0.26461686876E+02  0.27612429723E+02  0.51100000000E-03 0. -1.
        -11    1    3    3    0    0  0.11494147299E+02  0.79676525362E+01 -0.14241144459E+02  0.19960187996E+02  0.51100000000E-03 0.  1.
        -12    1    3    3    0    0 -0.38182404391E+01 -0.12442208350E+02  0.40389989004E+02  0.42435111881E+02  0.00000000000E+00 0.  1.
</event>
<event>
 7    1  0.3752192E-015  0.9000779E+02  0.7816164E-02  0.1186339E+00
        -11   -1    0    0    0    0  0.00000000000E+00  0.00000000000E+00  0.45593999997E+02  0.45594000000E+02  0.51100000000E-03 0.  1.
         11   -1    0    0    0    0 -0.00000000000E+00 -0.00000000000E+00 -0.45593999997E+02  0.45594000000E+02  0.51100000000E-03 0. -1.
    9900012    2    1    2    0    0 -0.48219785826E+00 -0.63593326751E+00 -0.86945911963E+00  0.90007794486E+02  0.90000056573E+02 0.  0.
        -12    1    1    2    0    0  0.48219785826E+00  0.63593326751E+00  0.86945911963E+00  0.11802055143E+01  0.00000000000E+00 0.  1.
         11    1    3    3    0    0  0.37301559254E+01 -0.89295439937E+01  0.68819015774E+00  0.97017743283E+01  0.51100000000E-03 0. -1.
        -11    1    3    3    0    0 -0.54459364582E+01 -0.34914075833E+02  0.75447499443E+01  0.36132729861E+02  0.51100000000E-03 0.  1.
         12    1    3    3    0    0  0.12335826746E+01  0.43207686560E+02 -0.91023992217E+01  0.44173290297E+02  0.00000000000E+00 0. -1.
</event>
<event>
 7    1  0.3752192E-015  0.9000788E+02  0.7816164E-02  0.1186339E+00
        -11   -1    0    0    0    0  0.00000000000E+00  0.00000000000E+00  0.45593999997E+02  0.45594000000E+02  0.51100000000E-03 0.  1.
         11   -1    0    0    0    0 -0.00000000000E+00 -0.00000000000E+00 -0.45593999997E+02  0.45594000000E+02  0.51100000000E-03 0. -1.
    9900012    2    1    2    0    0  0.10980662542E+01  0.31513021136E-01 -0.43121973101E+00  0.90007875843E+02  0.90000139004E+02 0.  0.
        -12    1    1    2    0    0 -0.10980662542E+01 -0.31513021136E-01  0.43121973101E+00  0.11801241568E+01  0.00000000000E+00 0.  1.
         11    1    3    3    0    0  0.28439979452E+02  0.29078401611E+02 -0.34413312652E+01  0.40819463895E+02  0.51100000000E-03 0. -1.
        -11    1    3    3    0    0 -0.10944451436E+02  0.43518694467E+01  0.21436119627E+01  0.11971418355E+02  0.51100000000E-03 0.  1.
        -12    1    3    3    0    0 -0.16397461762E+02 -0.33398758037E+02  0.86649957150E+00  0.37216993594E+02  0.00000000000E+00 0.  1.
</event>
<event>
 7    1  0.3752192E-015  0.9000753E+02  0.7816164E-02  0.1186339E+00
        -11   -1    0    0    0    0  0.00000000000E+00  0.00000000000E+00  0.45593999997E+02  0.45594000000E+02  0.51100000000E-03 0. -1.
         11   -1    0    0    0    0 -0.00000000000E+00 -0.00000000000E+00 -0.45593999997E+02  0.45594000000E+02  0.51100000000E-03 0.  1.
    9900012    2    1    2    0    0 -0.81275767623E+00 -0.83015726005E+00  0.20919347258E+00  0.90007534827E+02  0.89999793486E+02 0.  0.
        -12    1    1    2    0    0  0.81275767623E+00  0.83015726005E+00 -0.20919347258E+00  0.11804651734E+01  0.00000000000E+00 0.  1.
         11    1    3    3    0    0  0.23509131724E+02 -0.23174719008E+02 -0.11428252707E+02  0.34933534543E+02  0.51100000000E-03 0. -1.
        -11    1    3    3    0    0  0.45873158738E+01 -0.94678555852E+01 -0.76043553665E-01  0.10520909618E+02  0.51100000000E-03 0.  1.
        -12    1    3    3    0    0 -0.28909205274E+02  0.31812417333E+02  0.11713489733E+02  0.44553090665E+02  0.00000000000E+00 0.  1.
</event>
<event>
 7    1  0.3752192E-015  0.9000772E+02  0.7816164E-02  0.1186339E+00
        -11   -1    0    0    0    0  0.00000000000E+00  0.00000000000E+00  0.45593999997E+02  0.45594000000E+02  0.51100000000E-03 0. -1.
         11   -1    0    0    0    0 -0.00000000000E+00 -0.00000000000E+00 -0.45593999997E+02  0.45594000000E+02  0.51100000000E-03 0.  1.
    9900012    2    1    2    0    0 -0.92326438561E+00  0.73344418945E+00 -0.51957932767E-01  0.90007721587E+02  0.89999982712E+02 0.  0.
        -12    1    1    2    0    0  0.92326438561E+00 -0.73344418945E+00  0.51957932767E-01  0.11802784127E+01  0.00000000000E+00 0.  1.
         11    1    3    3    0    0  0.23879334851E+02  0.12580494318E+02  0.34546698143E+02  0.43840230645E+02  0.51100000000E-03 0. -1.
        -11    1    3    3    0    0 -0.66186861190E+01  0.21351370704E+01 -0.43416484510E+01  0.81985198533E+01  0.51100000000E-03 0.  1.
        -12    1    3    3    0    0 -0.18183913117E+02 -0.13982187199E+02 -0.30257007625E+02  0.37968971089E+02  0.00000000000E+00 0.  1.
</event>
<event>
 7    1  0.3752192E-015  0.9000779E+02  0.7816164E-02  0.1186339E+00
        -11   -1    0    0    0    0  0.00000000000E+00  0.00000000000E+00  0.45593999997E+02  0.45594000000E+02  0.51100000000E-03 0. -1.
         11   -1    0    0    0    0 -0.00000000000E+00 -0.00000000000E+00 -0.45593999997E+02  0.45594000000E+02  0.51100000000E-03 0.  1.
    9900012    2    1    2    0    0 -0.45979534583E+00 -0.99150209953E+00  0.44542698489E+00  0.90007790962E+02  0.90000053003E+02 0.  0.
        -12    1    1    2    0    0  0.45979534583E+00  0.99150209953E+00 -0.44542698489E+00  0.11802090375E+01  0.00000000000E+00 0.  1.
         11    1    3    3    0    0  0.24511598089E+02  0.22267009209E+02 -0.11114904805E+02  0.34931064242E+02  0.51100000000E-03 0. -1.
        -11    1    3    3    0    0  0.19071766902E+01  0.10166826376E+02  0.56294458446E+01  0.11776771300E+02  0.51100000000E-03 0.  1.
        -12    1    3    3    0    0 -0.26878570126E+02 -0.33425337684E+02  0.59308859449E+01  0.43299955420E+02  0.00000000000E+00 0.  1.
</event>
<event>
 7    1  0.3752192E-015  0.9000769E+02  0.7816164E-02  0.1186339E+00
        -11   -1    0    0    0    0  0.00000000000E+00  0.00000000000E+00  0.45593999997E+02  0.45594000000E+02  0.51100000000E-03 0.  1.
         11   -1    0    0    0    0 -0.00000000000E+00 -0.00000000000E+00 -0.45593999997E+02  0.45594000000E+02  0.51100000000E-03 0. -1.
    9900012    2    1    2    0    0 -0.41151731383E+00 -0.36963749715E+00 -0.10426650711E+01  0.90007691214E+02  0.89999951938E+02 0.  0.
        -12    1    1    2    0    0  0.41151731383E+00  0.36963749715E+00  0.10426650711E+01  0.11803087856E+01  0.00000000000E+00 0.  1.
         11    1    3    3    0    0 -0.68532733845E+00  0.15887855351E+02  0.32443889932E+01  0.16230208915E+02  0.51100000000E-03 0. -1.
        -11    1    3    3    0    0 -0.32628068360E+02  0.65532137461E+01 -0.54598386944E+01  0.33724550317E+02  0.51100000000E-03 0.  1.
         12    1    3    3    0    0  0.32901878384E+02 -0.22810706595E+02  0.11727846301E+01  0.40052931982E+02  0.00000000000E+00 0. -1.
</event>
<event>
 7    1  0.3752192E-015  0.9000771E+02  0.7816164E-02  0.1186339E+00
        -11   -1    0    0    0    0  0.00000000000E+00  0.00000000000E+00  0.45593999997E+02  0.45594000000E+02  0.51100000000E-03 0.  1.
         11   -1    0    0    0    0 -0.00000000000E+00 -0.00000000000E+00 -0.45593999997E+02  0.45594000000E+02  0.51100000000E-03 0. -1.
    9900012    2    1    2    0    0  0.66486619422E+00  0.61472362432E+00  0.75706124264E+00  0.90007714477E+02  0.89999975508E+02 0.  0.
        -12    1    1    2    0    0 -0.66486619422E+00 -0.61472362432E+00 -0.75706124264E+00  0.11802855229E+01  0.00000000000E+00 0.  1.
         11    1    3    3    0    0 -0.94336741491E+01 -0.28594711347E+02 -0.14238605119E+02  0.33307500671E+02  0.51100000000E-03 0. -1.
        -11    1    3    3    0    0  0.11288251179E+02  0.28854295033E+01 -0.13537298646E+02  0.17860816695E+02  0.51100000000E-03 0.  1.
        -12    1    3    3    0    0 -0.11897108361E+01  0.26324005468E+02  0.28532965008E+02  0.38839397111E+02  0.00000000000E+00 0.  1.
</event>
<event>
 7    1  0.3752192E-015  0.9000775E+02  0.7816164E-02  0.1186339E+00
        -11   -1    0    0    0    0  0.00000000000E+00  0.00000000000E+00  0.45593999997E+02  0.45594000000E+02  0.51100000000E-03 0. -1.
         11   -1    0    0    0    0 -0.00000000000E+00 -0.00000000000E+00 -0.45593999997E+02  0.45594000000E+02  0.51100000000E-03 0.  1.
    9900012    2    1    2    0    0 -0.10402701104E+01  0.25757073048E+00 -0.49446209372E+00  0.90007746914E+02  0.90000008374E+02 0.  0.
        -12    1    1    2    0    0  0.10402701104E+01 -0.25757073048E+00  0.49446209372E+00  0.11802530855E+01  0.00000000000E+00 0.  1.
         11    1    3    3    0    0  0.19754718285E+02 -0.18546756231E+02  0.23784377529E+02  0.36054509786E+02  0.51100000000E-03 0. -1.
        -11    1    3    3    0    0  0.79449072833E+01 -0.33220125242E+01  0.23858763749E+01  0.89358673496E+01  0.51100000000E-03 0.  1.
        -12    1    3    3    0    0 -0.28739895679E+02  0.22126339485E+02 -0.26664715997E+02  0.45017369779E+02  0.00000000000E+00 0.  1.
</event>
<event>
 7    1  0.3752192E-015  0.9000776E+02  0.7816164E-02  0.1186339E+00
        -11   -1    0    0    0    0  0.00000000000E+00  0.00000000000E+00  0.45593999997E+02  0.45594000000E+02  0.51100000000E-03 0.  1.
         11   -1    0    0    0    0 -0.00000000000E+00 -0.00000000000E+00 -0.45593999997E+02  0.45594000000E+02  0.51100000000E-03 0. -1.
    9900012    2    1    2    0    0 -0.38334173309E+00 -0.10946014020E+01  0.21878071857E+00  0.90007759297E+02  0.90000020920E+02 0.  0.
        -12    1    1    2    0    0  0.38334173309E+00  0.10946014020E+01 -0.21878071857E+00  0.11802407028E+01  0.00000000000E+00 0.  1.
         11    1    3    3    0    0 -0.20127897083E+02  0.23182205744E+02 -0.13490917437E+02  0.33534336995E+02  0.51100000000E-03 0. -1.
        -11    1    3    3    0    0 -0.39188669669E+01  0.98419940721E+01  0.10359283360E+02  0.14816784996E+02  0.51100000000E-03 0.  1.
        -12    1    3    3    0    0  0.23663422316E+02 -0.34118801219E+02  0.33504147956E+01  0.41656637306E+02  0.00000000000E+00 0.  1.
</event>
<event>
 7    1  0.3752192E-015  0.9000774E+02  0.7816164E-02  0.1186339E+00
        -11   -1    0    0    0    0  0.00000000000E+00  0.00000000000E+00  0.45593999997E+02  0.45594000000E+02  0.51100000000E-03 0.  1.
         11   -1    0    0    0    0 -0.00000000000E+00 -0.00000000000E+00 -0.45593999997E+02  0.45594000000E+02  0.51100000000E-03 0. -1.
    9900012    2    1    2    0    0  0.32576367401E+00  0.20893365217E+00 -0.11150019782E+01  0.90007743819E+02  0.90000005237E+02 0.  0.
        -12    1    1    2    0    0 -0.32576367401E+00 -0.20893365217E+00  0.11150019782E+01  0.11802561814E+01  0.00000000000E+00 0.  1.
         11    1    3    3    0    0 -0.48078172813E+01 -0.14593550400E+02 -0.33620232181E+02  0.36964940585E+02  0.51100000000E-03 0. -1.
        -11    1    3    3    0    0  0.54712131986E+01  0.97530092202E+01 -0.70142746212E+01  0.13200583754E+02  0.51100000000E-03 0.  1.
        -12    1    3    3    0    0 -0.33763224324E+00  0.50494748317E+01  0.39519504824E+02  0.39842219480E+02  0.00000000000E+00 0.  1.
</event>
<event>
 7    1  0.3752192E-015  0.9000736E+02  0.7816164E-02  0.1186340E+00
        -11   -1    0    0    0    0  0.00000000000E+00  0.00000000000E+00  0.45593999997E+02  0.45594000000E+02  0.51100000000E-03 0.  1.
         11   -1    0    0    0    0 -0.00000000000E+00 -0.00000000000E+00 -0.45593999997E+02  0.45594000000E+02  0.51100000000E-03 0. -1.
    9900012    2    1    2    0    0  0.43062478317E-01 -0.54594816790E+00 -0.10459427745E+01  0.90007360315E+02  0.89999616670E+02 0.  0.
        -12    1    1    2    0    0 -0.43062478317E-01  0.54594816790E+00  0.10459427745E+01  0.11806396854E+01  0.00000000000E+00 0.  1.
         11    1    3    3    0    0 -0.10085914769E+02 -0.23777484112E+01 -0.35005399871E+01  0.10937693756E+02  0.51100000000E-03 0. -1.
        -11    1    3    3    0    0 -0.28945455391E+02  0.91872923827E+00  0.21034708944E+02  0.35793050049E+02  0.51100000000E-03 0.  1.
         12    1    3    3    0    0  0.39074432638E+02  0.91307100505E+00 -0.18580111731E+02  0.43276616510E+02  0.00000000000E+00 0. -1.
</event>
<event>
 7    1  0.3752192E-015  0.9000775E+02  0.7816164E-02  0.1186339E+00
        -11   -1    0    0    0    0  0.00000000000E+00  0.00000000000E+00  0.45593999997E+02  0.45594000000E+02  0.51100000000E-03 0.  1.
         11   -1    0    0    0    0 -0.00000000000E+00 -0.00000000000E+00 -0.45593999997E+02  0.45594000000E+02  0.51100000000E-03 0. -1.
    9900012    2    1    2    0    0 -0.59878752445E+00  0.29248695950E+00 -0.97411091852E+00  0.90007751212E+02  0.90000012728E+02 0.  0.
        -12    1    1    2    0    0  0.59878752445E+00 -0.29248695950E+00  0.97411091852E+00  0.11802487884E+01  0.00000000000E+00 0.  1.
         11    1    3    3    0    0 -0.13594280405E+01 -0.21775051011E+01 -0.10022793657E+02  0.10346302045E+02  0.51100000000E-03 0. -1.
        -11    1    3    3    0    0 -0.31195502126E+02 -0.21850411024E+02 -0.15835476127E+01  0.38119646353E+02  0.51100000000E-03 0.  1.
         12    1    3    3    0    0  0.31956142642E+02  0.24320403085E+02  0.10632230351E+02  0.41541802813E+02  0.00000000000E+00 0. -1.
</event>
<event>
 7    1  0.3752192E-015  0.9000778E+02  0.7816164E-02  0.1186339E+00
        -11   -1    0    0    0    0  0.00000000000E+00  0.00000000000E+00  0.45593999997E+02  0.45594000000E+02  0.51100000000E-03 0.  1.
         11   -1    0    0    0    0 -0.00000000000E+00 -0.00000000000E+00 -0.45593999997E+02  0.45594000000E+02  0.51100000000E-03 0. -1.
    9900012    2    1    2    0    0 -0.10364027734E+01 -0.31491536431E+00  0.46864169906E+00  0.90007776531E+02  0.90000038381E+02 0.  0.
        -12    1    1    2    0    0  0.10364027734E+01  0.31491536431E+00 -0.46864169906E+00  0.11802234693E+01  0.00000000000E+00 0.  1.
         11    1    3    3    0    0  0.32018428065E+02 -0.22915328346E+02 -0.14640705482E+02  0.42007645331E+02  0.51100000000E-03 0. -1.
        -11    1    3    3    0    0 -0.44856740720E+00  0.26809673815E+01  0.88795222944E+01  0.92862648712E+01  0.51100000000E-03 0.  1.
        -12    1    3    3    0    0 -0.32606263431E+02  0.19919445601E+02  0.62298248863E+01  0.38713866329E+02  0.00000000000E+00 0.  1.
</event>
<event>
 7    1  0.3752192E-015  0.9000773E+02  0.7816164E-02  0.1186339E+00
        -11   -1    0    0    0    0  0.00000000000E+00  0.00000000000E+00  0.45593999997E+02  0.45594000000E+02  0.51100000000E-03 0.  1.
         11   -1    0    0    0    0 -0.00000000000E+00 -0.00000000000E+00 -0.45593999997E+02  0.45594000000E+02  0.51100000000E-03 0. -1.
    9900012    2    1    2    0    0  0.99637365199E+00 -0.12985632194E+00 -0.61920375854E+00  0.90007730364E+02  0.89999991605E+02 0.  0.
        -12    1    1    2    0    0 -0.99637365199E+00  0.12985632194E+00  0.61920375854E+00  0.11802696358E+01  0.00000000000E+00 0.  1.
         11    1    3    3    0    0 -0.17593228712E+01  0.19590520930E+02 -0.18905448134E+02  0.27281856548E+02  0.51100000000E-03 0. -1.
        -11    1    3    3    0    0  0.11666010819E+01 -0.63131436745E+01 -0.20592273057E+02  0.21569850511E+02  0.51100000000E-03 0.  1.
        -12    1    3    3    0    0  0.15890954413E+01 -0.13407233578E+02  0.38878517433E+02  0.41156023305E+02  0.00000000000E+00 0.  1.
</event>
<event>
 7    1  0.3752192E-015  0.9000766E+02  0.7816164E-02  0.1186339E+00
        -11   -1    0    0    0    0  0.00000000000E+00  0.00000000000E+00  0.45593999997E+02  0.45594000000E+02  0.51100000000E-03 0. -1.
         11   -1    0    0    0    0 -0.00000000000E+00 -0.00000000000E+00 -0.45593999997E+02  0.45594000000E+02  0.51100000000E-03 0.  1.
    9900012    2    1    2    0    0 -0.90333335452E+00  0.55988501242E+00 -0.51352979462E+00  0.90007663088E+02  0.89999923440E+02 0.  0.
        -12    1    1    2    0    0  0.90333335452E+00 -0.55988501242E+00  0.51352979462E+00  0.11803369123E+01  0.00000000000E+00 0.  1.
         11    1    3    3    0    0 -0.37981637731E+02  0.12194406030E+02 -0.89915855011E+01  0.40892015764E+02  0.51100000000E-03 0. -1.
        -11    1    3    3    0    0  0.57384003074E+01  0.91265675132E+01  0.21832791972E+01  0.10999553672E+02  0.51100000000E-03 0.  1.
        -12    1    3    3    0    0  0.31339904069E+02 -0.20761088531E+02  0.62947765092E+01  0.38116093652E+02  0.00000000000E+00 0.  1.
</event>
<event>
 7    1  0.3752192E-015  0.9000775E+02  0.7816164E-02  0.1186339E+00
        -11   -1    0    0    0    0  0.00000000000E+00  0.00000000000E+00  0.45593999997E+02  0.45594000000E+02  0.51100000000E-03 0. -1.
         11   -1    0    0    0    0 -0.00000000000E+00 -0.00000000000E+00 -0.45593999997E+02  0.45594000000E+02  0.51100000000E-03 0.  1.
    9900012    2    1    2    0    0 -0.93774148587E+00  0.70087393189E+00  0.14972649948E+00  0.90007745202E+02  0.90000006639E+02 0.  0.
        -12    1    1    2    0    0  0.93774148587E+00 -0.70087393189E+00 -0.14972649948E+00  0.11802547976E+01  0.00000000000E+00 0.  1.
         11    1    3    3    0    0  0.17671864497E+02  0.31112126544E+02 -0.19336184396E+02  0.40671208983E+02  0.51100000000E-03 0. -1.
        -11    1    3    3    0    0 -0.34566332315E+01  0.47552586298E+01  0.68196305819E+01  0.90037858408E+01  0.51100000000E-03 0.  1.
        -12    1    3    3    0    0 -0.15152972752E+02 -0.35166511242E+02  0.12666280313E+02  0.40332750379E+02  0.00000000000E+00 0.  1.
</event>
<event>
 7    1  0.3752192E-015  0.9000777E+02  0.7816164E-02  0.1186339E+00
        -11   -1    0    0    0    0  0.00000000000E+00  0.00000000000E+00  0.45593999997E+02  0.45594000000E+02  0.51100000000E-03 0. -1.
         11   -1    0    0    0    0 -0.00000000000E+00 -0.00000000000E+00 -0.45593999997E+02  0.45594000000E+02  0.51100000000E-03 0.  1.
    9900012    2    1    2    0    0 -0.36727082564E+00 -0.51132441370E+00  0.99829984903E+00  0.90007769894E+02  0.90000031656E+02 0.  0.
        -12    1    1    2    0    0  0.36727082564E+00  0.51132441370E+00 -0.99829984903E+00  0.11802301064E+01  0.00000000000E+00 0.  1.
         11    1    3    3    0    0 -0.13059879195E+02  0.31216220733E+02  0.22454183303E+02  0.40610383272E+02  0.51100000000E-03 0. -1.
        -11    1    3    3    0    0 -0.90000620413E+01 -0.60813335143E+01 -0.43293402693E+01  0.11693028756E+02  0.51100000000E-03 0.  1.
        -12    1    3    3    0    0  0.21692670410E+02 -0.25646211632E+02 -0.17126543185E+02  0.37704357866E+02  0.00000000000E+00 0.  1.
</event>
<event>
 7    1  0.3752192E-015  0.9000765E+02  0.7816164E-02  0.1186339E+00
        -11   -1    0    0    0    0  0.00000000000E+00  0.00000000000E+00  0.45593999997E+02  0.45594000000E+02  0.51100000000E-03 0. -1.
         11   -1    0    0    0    0 -0.00000000000E+00 -0.00000000000E+00 -0.45593999997E+02  0.45594000000E+02  0.51100000000E-03 0.  1.
    9900012    2    1    2    0    0 -0.31284929234E-01 -0.93013034535E+00 -0.72601670752E+00  0.90007651973E+02  0.89999912179E+02 0.  0.
        -12    1    1    2    0    0  0.31284929234E-01  0.93013034535E+00  0.72601670752E+00  0.11803480274E+01  0.00000000000E+00 0.  1.
         11    1    3    3    0    0 -0.33884700225E+01 -0.31250306108E+02  0.20736747486E+02  0.37657350643E+02  0.51100000000E-03 0. -1.
        -11    1    3    3    0    0 -0.91739768551E+01 -0.13950930825E+01  0.36797880830E+01  0.99824334029E+01  0.51100000000E-03 0.  1.
        -12    1    3    3    0    0  0.12531161948E+02  0.31715268845E+02 -0.25142552276E+02  0.42367867927E+02  0.00000000000E+00 0.  1.
</event>
<event>
 7    1  0.3752192E-015  0.9000810E+02  0.7816164E-02  0.1186338E+00
        -11   -1    0    0    0    0  0.00000000000E+00  0.00000000000E+00  0.45593999997E+02  0.45594000000E+02  0.51100000000E-03 0.  1.
         11   -1    0    0    0    0 -0.00000000000E+00 -0.00000000000E+00 -0.45593999997E+02  0.45594000000E+02  0.51100000000E-03 0. -1.
    9900012    2    1    2    0    0  0.10541960416E+01  0.36482352490E+00  0.38436395684E+00  0.90008101212E+02  0.90000367347E+02 0.  0.
        -12    1    1    2    0    0 -0.10541960416E+01 -0.36482352490E+00 -0.38436395684E+00  0.11798987879E+01  0.00000000000E+00 0.  1.
         11    1    3    3    0    0  0.30140299537E+02  0.23375054750E+02 -0.17643419021E+02  0.42025243316E+02  0.51100000000E-03 0. -1.
        -11    1    3    3    0    0 -0.70959001587E+01 -0.25310182748E+00 -0.51377516960E+01  0.87642656480E+01  0.51100000000E-03 0.  1.
        -12    1    3    3    0    0 -0.21990203336E+02 -0.22757129398E+02  0.23165534674E+02  0.39218592248E+02  0.00000000000E+00 0.  1.
</event>
<event>
 7    1  0.3752192E-015  0.9000767E+02  0.7816164E-02  0.1186339E+00
        -11   -1    0    0    0    0  0.00000000000E+00  0.00000000000E+00  0.45593999997E+02  0.45594000000E+02  0.51100000000E-03 0.  1.
         11   -1    0    0    0    0 -0.00000000000E+00 -0.00000000000E+00 -0.45593999997E+02  0.45594000000E+02  0.51100000000E-03 0. -1.
    9900012    2    1    2    0    0 -0.41575161637E+00  0.10929385471E+01 -0.16068807362E+00  0.90007667534E+02  0.89999927945E+02 0.  0.
        -12    1    1    2    0    0  0.41575161637E+00 -0.10929385471E+01  0.16068807362E+00  0.11803324664E+01  0.00000000000E+00 0.  1.
         11    1    3    3    0    0  0.37491828481E+01 -0.82696621474E+01 -0.37147094525E+02  0.38240689272E+02  0.51100000000E-03 0. -1.
        -11    1    3    3    0    0  0.43654859956E+01  0.10648678108E+02 -0.21354875813E+01  0.11705217678E+02  0.51100000000E-03 0.  1.
        -12    1    3    3    0    0 -0.85304204601E+01 -0.12860774136E+01  0.39121894033E+02  0.40061760583E+02  0.00000000000E+00 0.  1.
</event>
<event>
 7    1  0.3752192E-015  0.9000765E+02  0.7816164E-02  0.1186339E+00
        -11   -1    0    0    0    0  0.00000000000E+00  0.00000000000E+00  0.45593999997E+02  0.45594000000E+02  0.51100000000E-03 0. -1.
         11   -1    0    0    0    0 -0.00000000000E+00 -0.00000000000E+00 -0.45593999997E+02  0.45594000000E+02  0.51100000000E-03 0.  1.
    9900012    2    1    2    0    0  0.94424425302E+00 -0.70747270627E+00  0.33190232949E-01  0.90007654105E+02  0.89999914339E+02 0.  0.
        -12    1    1    2    0    0 -0.94424425302E+00  0.70747270627E+00 -0.33190232949E-01  0.11803458947E+01  0.00000000000E+00 0.  1.
         11    1    3    3    0    0 -0.80499271642E+01 -0.19334838586E+01  0.38622095340E+02  0.39499442223E+02  0.51100000000E-03 0. -1.
        -11    1    3    3    0    0  0.63904031208E+01  0.93737606557E+01 -0.37745100848E+00  0.11351084107E+02  0.51100000000E-03 0.  1.
        -12    1    3    3    0    0  0.26037682964E+01 -0.81477495034E+01 -0.38211454099E+02  0.39157127776E+02  0.00000000000E+00 0.  1.
</event>
<event>
 7    1  0.3752192E-015  0.9000777E+02  0.7816164E-02  0.1186339E+00
        -11   -1    0    0    0    0  0.00000000000E+00  0.00000000000E+00  0.45593999997E+02  0.45594000000E+02  0.51100000000E-03 0.  1.
         11   -1    0    0    0    0 -0.00000000000E+00 -0.00000000000E+00 -0.45593999997E+02  0.45594000000E+02  0.51100000000E-03 0. -1.
    9900012    2    1    2    0    0 -0.19767572021E+00 -0.14954601030E+00 -0.11539052760E+01  0.90007772443E+02  0.90000034240E+02 0.  0.
        -12    1    1    2    0    0  0.19767572021E+00  0.14954601030E+00  0.11539052760E+01  0.11802275566E+01  0.00000000000E+00 0.  1.
         11    1    3    3    0    0  0.28037508289E+02 -0.19152248418E+02 -0.18354653552E+02  0.38597976602E+02  0.51100000000E-03 0. -1.
        -11    1    3    3    0    0 -0.43631042228E+01 -0.31190002354E+01 -0.84241839665E+01  0.99865768254E+01  0.51100000000E-03 0.  1.
        -12    1    3    3    0    0 -0.23872079786E+02  0.22121702643E+02  0.25624932243E+02  0.41423219016E+02  0.00000000000E+00 0.  1.
</event>
<event>
 7    1  0.3752192E-015  0.9000762E+02  0.7816164E-02  0.1186339E+00
        -11   -1    0    0    0    0  0.00000000000E+00  0.00000000000E+00  0.45593999997E+02  0.45594000000E+02  0.51100000000E-03 0. -1.
         11   -1    0    0    0    0 -0.00000000000E+00 -0.00000000000E+00 -0.45593999997E+02  0.45594000000E+02  0.51100000000E-03 0.  1.
    9900012    2    1    2    0    0 -0.56722313534E+00  0.25649925760E+00  0.10028728720E+01  0.90007623809E+02  0.89999883643E+02 0.  0.
        -12    1    1    2    0    0  0.56722313534E+00 -0.25649925760E+00 -0.10028728720E+01  0.11803761908E+01  0.00000000000E+00 0.  1.
         11    1    3    3    0    0  0.95786223145E+01  0.61294436082E+01  0.27738398371E+02  0.29978973112E+02  0.51100000000E-03 0. -1.
        -11    1    3    3    0    0  0.10816862085E+02  0.42592216871E+01  0.10793886504E+02  0.15863589154E+02  0.51100000000E-03 0.  1.
        -12    1    3    3    0    0 -0.20962707534E+02 -0.10132166038E+02 -0.37529412003E+02  0.44165061543E+02  0.00000000000E+00 0.  1.
</event>
<event>
 7    1  0.3752192E-015  0.9000754E+02  0.7816164E-02  0.1186339E+00
        -11   -1    0    0    0    0  0.00000000000E+00  0.00000000000E+00  0.45593999997E+02  0.45594000000E+02  0.51100000000E-03 0.  1.
         11   -1    0    0    0    0 -0.00000000000E+00 -0.00000000000E+00 -0.45593999997E+02  0.45594000000E+02  0.51100000000E-03 0. -1.
    9900012    2    1    2    0    0 -0.88169996348E+00  0.56733509683E+00  0.54242111421E+00  0.90007540512E+02  0.89999799247E+02 0.  0.
        -12    1    1    2    0    0  0.88169996348E+00 -0.56733509683E+00 -0.54242111421E+00  0.11804594880E+01  0.00000000000E+00 0.  1.
         11    1    3    3    0    0  0.32081092247E+02 -0.91292435743E+01 -0.14148306874E+02  0.36231397373E+02  0.51100000000E-03 0. -1.
        -11    1    3    3    0    0  0.68508688730E+01 -0.54095198761E+01 -0.32702130976E-02  0.87291076612E+01  0.51100000000E-03 0.  1.
        -12    1    3    3    0    0 -0.39813661083E+02  0.15106098547E+02  0.14693998201E+02  0.45047035477E+02  0.00000000000E+00 0.  1.
</event>
<event>
 7    1  0.3752192E-015  0.9000752E+02  0.7816164E-02  0.1186339E+00
        -11   -1    0    0    0    0  0.00000000000E+00  0.00000000000E+00  0.45593999997E+02  0.45594000000E+02  0.51100000000E-03 0. -1.
         11   -1    0    0    0    0 -0.00000000000E+00 -0.00000000000E+00 -0.45593999997E+02  0.45594000000E+02  0.51100000000E-03 0.  1.
    9900012    2    1    2    0    0 -0.85204694622E-01 -0.15118949344E+00  0.11676534580E+01  0.90007520140E+02  0.89999778605E+02 0.  0.
        -12    1    1    2    0    0  0.85204694622E-01  0.15118949344E+00 -0.11676534580E+01  0.11804798605E+01  0.00000000000E+00 0.  1.
         11    1    3    3    0    0  0.22221402872E+02 -0.19132111319E+02  0.13662800008E+02  0.32349660484E+02  0.51100000000E-03 0. -1.
        -11    1    3    3    0    0 -0.78295812180E+01  0.12709089066E+02  0.17963118846E+02  0.23355875617E+02  0.51100000000E-03 0.  1.
         12    1    3    3    0    0 -0.14477026349E+02  0.62718327592E+01 -0.30458265395E+02  0.34301984038E+02  0.00000000000E+00 0. -1.
</event>
<event>
 7    1  0.3752192E-015  0.9000719E+02  0.7816164E-02  0.1186340E+00
        -11   -1    0    0    0    0  0.00000000000E+00  0.00000000000E+00  0.45593999997E+02  0.45594000000E+02  0.51100000000E-03 0.  1.
         11   -1    0    0    0    0 -0.00000000000E+00 -0.00000000000E+00 -0.45593999997E+02  0.45594000000E+02  0.51100000000E-03 0. -1.
    9900012    2    1    2    0    0 -0.93102665363E+00 -0.25178492834E+00 -0.68125769377E+00  0.90007187430E+02  0.89999441502E+02 0.  0.
        -12    1    1    2    0    0  0.93102665363E+00  0.25178492834E+00  0.68125769377E+00  0.11808125699E+01  0.00000000000E+00 0.  1.
         11    1    3    3    0    0 -0.42179310125E+01  0.18148773024E+02 -0.87331786487E+01  0.20577592519E+02  0.51100000000E-03 0. -1.
        -11    1    3    3    0    0  0.25206222028E+01  0.61171442257E+01  0.33462923339E+02  0.34110705481E+02  0.51100000000E-03 0.  1.
        -12    1    3    3    0    0  0.76628215601E+00 -0.24517702178E+02 -0.25411002384E+02  0.35318889430E+02  0.00000000000E+00 0.  1.
</event>
<event>
 7    1  0.3752192E-015  0.9000777E+02  0.7816164E-02  0.1186339E+00
        -11   -1    0    0    0    0  0.00000000000E+00  0.00000000000E+00  0.45593999997E+02  0.45594000000E+02  0.51100000000E-03 0. -1.
         11   -1    0    0    0    0 -0.00000000000E+00 -0.00000000000E+00 -0.45593999997E+02  0.45594000000E+02  0.51100000000E-03 0.  1.
    9900012    2    1    2    0    0 -0.28614267467E+00  0.11373107245E+01  0.13265150246E+00  0.90007767084E+02  0.90000028810E+02 0.  0.
        -12    1    1    2    0    0  0.28614267467E+00 -0.11373107245E+01 -0.13265150246E+00  0.11802329158E+01  0.00000000000E+00 0.  1.
         11    1    3    3    0    0  0.79885847112E+01  0.93168893491E+00  0.12506772169E+01  0.81393933264E+01  0.51100000000E-03 0. -1.
        -11    1    3    3    0    0 -0.76239719056E+00 -0.30193338405E+02  0.26450941915E+02  0.40148116543E+02  0.51100000000E-03 0.  1.
         12    1    3    3    0    0 -0.75123301953E+01  0.30398960194E+02 -0.27568967630E+02  0.41720257214E+02  0.00000000000E+00 0. -1.
</event>
<event>
 7    1  0.3752192E-015  0.9000774E+02  0.7816164E-02  0.1186339E+00
        -11   -1    0    0    0    0  0.00000000000E+00  0.00000000000E+00  0.45593999997E+02  0.45594000000E+02  0.51100000000E-03 0.  1.
         11   -1    0    0    0    0 -0.00000000000E+00 -0.00000000000E+00 -0.45593999997E+02  0.45594000000E+02  0.51100000000E-03 0. -1.
    9900012    2    1    2    0    0  0.10096417398E+01  0.22771972805E+00 -0.56726064719E+00  0.90007738436E+02  0.89999999783E+02 0.  0.
        -12    1    1    2    0    0 -0.10096417398E+01 -0.22771972805E+00  0.56726064719E+00  0.11802615639E+01  0.00000000000E+00 0.  1.
         11    1    3    3    0    0  0.15491705625E+02 -0.77117927445E+01 -0.41503736231E+01  0.17795794222E+02  0.51100000000E-03 0. -1.
        -11    1    3    3    0    0  0.16149191118E+02  0.39047696960E+01 -0.25069280155E+02  0.30075112766E+02  0.51100000000E-03 0.  1.
         12    1    3    3    0    0 -0.30631255004E+02  0.40347427766E+01  0.28652393131E+02  0.42136831448E+02  0.00000000000E+00 0. -1.
</event>
<event>
 7    1  0.3752192E-015  0.9000770E+02  0.7816164E-02  0.1186339E+00
        -11   -1    0    0    0    0  0.00000000000E+00  0.00000000000E+00  0.45593999997E+02  0.45594000000E+02  0.51100000000E-03 0.  1.
         11   -1    0    0    0    0 -0.00000000000E+00 -0.00000000000E+00 -0.45593999997E+02  0.45594000000E+02  0.51100000000E-03 0. -1.
    9900012    2    1    2    0    0 -0.11405357785E+01  0.24458602858E+00 -0.18018203305E+00  0.90007699296E+02  0.89999960126E+02 0.  0.
        -12    1    1    2    0    0  0.11405357785E+01 -0.24458602858E+00  0.18018203305E+00  0.11803007042E+01  0.00000000000E+00 0.  1.
         11    1    3    3    0    0 -0.10056200195E+02 -0.45661714567E+00 -0.11508277796E+02  0.15289739032E+02  0.51100000000E-03 0. -1.
        -11    1    3    3    0    0 -0.16258735283E+02  0.13155413714E+02  0.33118659595E+02  0.39169592756E+02  0.51100000000E-03 0.  1.
         12    1    3    3    0    0  0.25174399699E+02 -0.12454210540E+02 -0.21790563833E+02  0.35548367508E+02  0.00000000000E+00 0. -1.
</event>
<event>
 7    1  0.3752192E-015  0.9000766E+02  0.7816164E-02  0.1186339E+00
        -11   -1    0    0    0    0  0.00000000000E+00  0.00000000000E+00  0.45593999997E+02  0.45594000000E+02  0.51100000000E-03 0.  1.
         11   -1    0    0    0    0 -0.00000000000E+00 -0.00000000000E+00 -0.45593999997E+02  0.45594000000E+02  0.51100000000E-03 0. -1.
    9900012    2    1    2    0    0 -0.83414834918E-01  0.11690302792E+01 -0.14000427330E+00  0.90007664867E+02  0.89999925244E+02 0.  0.
        -12    1    1    2    0    0  0.83414834918E-01 -0.11690302792E+01  0.14000427330E+00  0.11803351325E+01  0.00000000000E+00 0.  1.
         11    1    3    3    0    0 -0.87278588636E+01 -0.45499040244E+01  0.92229165807E+00  0.98857356397E+01  0.51100000000E-03 0. -1.
        -11    1    3    3    0    0 -0.25131931357E+02 -0.23877517108E+02  0.41412498565E+01  0.34912744773E+02  0.51100000000E-03 0.  1.
         12    1    3    3    0    0  0.33776375385E+02  0.29596451411E+02 -0.52035457878E+01  0.45209184455E+02  0.00000000000E+00 0. -1.
</event>
<event>
 7    1  0.3752192E-015  0.9000793E+02  0.7816164E-02  0.1186339E+00
        -11   -1    0    0    0    0  0.00000000000E+00  0.00000000000E+00  0.45593999997E+02  0.45594000000E+02  0.51100000000E-03 0. -1.
         11   -1    0    0    0    0 -0.00000000000E+00 -0.00000000000E+00 -0.45593999997E+02  0.45594000000E+02  0.51100000000E-03 0.  1.
    9900012    2    1    2    0    0  0.45298713559E+00  0.96838499388E+00  0.49958947300E+00  0.90007933696E+02  0.90000197620E+02 0.  0.
        -12    1    1    2    0    0 -0.45298713559E+00 -0.96838499388E+00 -0.49958947300E+00  0.11800663045E+01  0.00000000000E+00 0.  1.
         11    1    3    3    0    0  0.90114494970E+01  0.49597617861E+01  0.52530591445E+01  0.11549895655E+02  0.51100000000E-03 0. -1.
        -11    1    3    3    0    0  0.16754411371E+02  0.23972460276E+02 -0.22376529044E+02  0.36825238688E+02  0.51100000000E-03 0.  1.
         12    1    3    3    0    0 -0.25312873733E+02 -0.27963837069E+02  0.17623059373E+02  0.41632799352E+02  0.00000000000E+00 0. -1.
</event>
<event>
 7    1  0.3752192E-015  0.9000775E+02  0.7816164E-02  0.1186339E+00
        -11   -1    0    0    0    0  0.00000000000E+00  0.00000000000E+00  0.45593999997E+02  0.45594000000E+02  0.51100000000E-03 0.  1.
         11   -1    0    0    0    0 -0.00000000000E+00 -0.00000000000E+00 -0.45593999997E+02  0.45594000000E+02  0.51100000000E-03 0. -1.
    9900012    2    1    2    0    0  0.11692659333E+01  0.79073110223E-01 -0.13986418986E+00  0.90007746904E+02  0.90000008363E+02 0.  0.
        -12    1    1    2    0    0 -0.11692659333E+01 -0.79073110223E-01  0.13986418986E+00  0.11802530962E+01  0.00000000000E+00 0.  1.
         11    1    3    3    0    0 -0.29999715092E+01  0.28197670888E+02 -0.20971475775E+02  0.35269126287E+02  0.51100000000E-03 0. -1.
        -11    1    3    3    0    0 -0.35272406784E+01  0.95437863233E+01 -0.14958032968E+01  0.10284099958E+02  0.51100000000E-03 0.  1.
        -12    1    3    3    0    0  0.76964781209E+01 -0.37662384102E+02  0.22327414882E+02  0.44454520659E+02  0.00000000000E+00 0.  1.
</event>
<event>
 7    1  0.3752192E-015  0.9000828E+02  0.7816164E-02  0.1186338E+00
        -11   -1    0    0    0    0  0.00000000000E+00  0.00000000000E+00  0.45593999997E+02  0.45594000000E+02  0.51100000000E-03 0. -1.
         11   -1    0    0    0    0 -0.00000000000E+00 -0.00000000000E+00 -0.45593999997E+02  0.45594000000E+02  0.51100000000E-03 0.  1.
    9900012    2    1    2    0    0  0.13322042087E+00 -0.32089045988E-01  0.11717317950E+01  0.90008282751E+02  0.90000551282E+02 0.  0.
        -12    1    1    2    0    0 -0.13322042087E+00  0.32089045988E-01 -0.11717317950E+01  0.11797172487E+01  0.00000000000E+00 0.  1.
         11    1    3    3    0    0 -0.92079671238E+01  0.18689227522E+01  0.12588096857E+01  0.94796694506E+01  0.51100000000E-03 0. -1.
        -11    1    3    3    0    0 -0.25289577597E+01 -0.31867277656E+02 -0.24350338636E+02  0.40185295874E+02  0.51100000000E-03 0.  1.
         12    1    3    3    0    0  0.11870145304E+02  0.29966265858E+02  0.24263260745E+02  0.40343317427E+02  0.00000000000E+00 0. -1.
</event>
<event>
 7    1  0.3752192E-015  0.9000770E+02  0.7816164E-02  0.1186339E+00
        -11   -1    0    0    0    0  0.00000000000E+00  0.00000000000E+00  0.45593999997E+02  0.45594000000E+02  0.51100000000E-03 0.  1.
         11   -1    0    0    0    0 -0.00000000000E+00 -0.00000000000E+00 -0.45593999997E+02  0.45594000000E+02  0.51100000000E-03 0. -1.
    9900012    2    1    2    0    0 -0.52717726405E+00  0.11517571596E-01 -0.10559608834E+01  0.90007702618E+02  0.89999963493E+02 0.  0.
        -12    1    1    2    0    0  0.52717726405E+00 -0.11517571596E-01  0.10559608834E+01  0.11802973818E+01  0.00000000000E+00 0.  1.
         11    1    3    3    0    0  0.15548232154E+01 -0.35771599413E+02 -0.72880550144E+01  0.36539575065E+02  0.51100000000E-03 0. -1.
        -11    1    3    3    0    0 -0.38013847099E+01 -0.50608565195E+01 -0.79822954732E+01  0.10187238866E+02  0.51100000000E-03 0.  1.
        -12    1    3    3    0    0  0.17193842305E+01  0.40843973504E+02  0.14214389604E+02  0.43280888687E+02  0.00000000000E+00 0.  1.
</event>
<event>
 7    1  0.3752192E-015  0.9000782E+02  0.7816164E-02  0.1186339E+00
        -11   -1    0    0    0    0  0.00000000000E+00  0.00000000000E+00  0.45593999997E+02  0.45594000000E+02  0.51100000000E-03 0. -1.
         11   -1    0    0    0    0 -0.00000000000E+00 -0.00000000000E+00 -0.45593999997E+02  0.45594000000E+02  0.51100000000E-03 0.  1.
    9900012    2    1    2    0    0 -0.38555186848E+00 -0.11015896822E+01  0.17512172454E+00  0.90007823026E+02  0.90000085490E+02 0.  0.
        -12    1    1    2    0    0  0.38555186848E+00  0.11015896822E+01 -0.17512172454E+00  0.11801769738E+01  0.00000000000E+00 0.  1.
         11    1    3    3    0    0  0.64400959343E+01  0.29065335105E+01 -0.72202095162E+01  0.10102187803E+02  0.51100000000E-03 0. -1.
        -11    1    3    3    0    0  0.35653151098E+02  0.26165051981E+00 -0.35547673196E+01  0.35830880748E+02  0.51100000000E-03 0.  1.
         12    1    3    3    0    0 -0.42478798901E+02 -0.42697737124E+01  0.10950098560E+02  0.44074754475E+02  0.00000000000E+00 0. -1.
</event>
<event>
 7    1  0.3752192E-015  0.9000794E+02  0.7816164E-02  0.1186339E+00
        -11   -1    0    0    0    0  0.00000000000E+00  0.00000000000E+00  0.45593999997E+02  0.45594000000E+02  0.51100000000E-03 0.  1.
         11   -1    0    0    0    0 -0.00000000000E+00 -0.00000000000E+00 -0.45593999997E+02  0.45594000000E+02  0.51100000000E-03 0. -1.
    9900012    2    1    2    0    0 -0.61974751815E+00 -0.10035713279E+01  0.36100672433E-01  0.90007938283E+02  0.90000202269E+02 0.  0.
        -12    1    1    2    0    0  0.61974751815E+00  0.10035713279E+01 -0.36100672433E-01  0.11800617166E+01  0.00000000000E+00 0.  1.
         11    1    3    3    0    0  0.31672924501E+02 -0.80143375475E+01 -0.27720783414E+02  0.42846768678E+02  0.51100000000E-03 0. -1.
        -11    1    3    3    0    0 -0.10594867516E+00  0.38748154773E+01  0.89444066554E+01  0.97482219293E+01  0.51100000000E-03 0.  1.
        -12    1    3    3    0    0 -0.32186723344E+02  0.31359507423E+01  0.18812477431E+02  0.37412947676E+02  0.00000000000E+00 0.  1.
</event>
<event>
 7    1  0.3752192E-015  0.9000782E+02  0.7816164E-02  0.1186339E+00
        -11   -1    0    0    0    0  0.00000000000E+00  0.00000000000E+00  0.45593999997E+02  0.45594000000E+02  0.51100000000E-03 0. -1.
         11   -1    0    0    0    0 -0.00000000000E+00 -0.00000000000E+00 -0.45593999997E+02  0.45594000000E+02  0.51100000000E-03 0.  1.
    9900012    2    1    2    0    0 -0.63047347995E+00  0.99728811140E+00 -0.27313978012E-01  0.90007819319E+02  0.90000081734E+02 0.  0.
        -12    1    1    2    0    0  0.63047347995E+00 -0.99728811140E+00  0.27313978012E-01  0.11801806809E+01  0.00000000000E+00 0.  1.
         11    1    3    3    0    0  0.29453641934E+02  0.11063178344E+02  0.82954590145E+01  0.32538063538E+02  0.51100000000E-03 0. -1.
        -11    1    3    3    0    0  0.11722159866E+02  0.40085016381E+01  0.83746938081E+00  0.12416862427E+02  0.51100000000E-03 0.  1.
        -12    1    3    3    0    0 -0.41806275280E+02 -0.14074391871E+02 -0.91602423734E+01  0.45052893355E+02  0.00000000000E+00 0.  1.
</event>
<event>
 7    1  0.3752192E-015  0.9000752E+02  0.7816164E-02  0.1186339E+00
        -11   -1    0    0    0    0  0.00000000000E+00  0.00000000000E+00  0.45593999997E+02  0.45594000000E+02  0.51100000000E-03 0.  1.
         11   -1    0    0    0    0 -0.00000000000E+00 -0.00000000000E+00 -0.45593999997E+02  0.45594000000E+02  0.51100000000E-03 0. -1.
    9900012    2    1    2    0    0 -0.36140846844E+00  0.73211949832E+00 -0.85259808260E+00  0.90007517670E+02  0.89999776103E+02 0.  0.
        -12    1    1    2    0    0  0.36140846844E+00 -0.73211949832E+00  0.85259808260E+00  0.11804823300E+01  0.00000000000E+00 0.  1.
         11    1    3    3    0    0 -0.74747483730E+01  0.46090208157E+01 -0.15348983524E+01  0.89146424119E+01  0.51100000000E-03 0. -1.
        -11    1    3    3    0    0  0.82244386471E+01 -0.17234988319E+02  0.37406331510E+02  0.41999045831E+02  0.51100000000E-03 0.  1.
         12    1    3    3    0    0 -0.11110987426E+01  0.13358087002E+02 -0.36724031240E+02  0.39093829427E+02  0.00000000000E+00 0. -1.
</event>
<event>
 7    1  0.3752192E-015  0.9000749E+02  0.7816164E-02  0.1186340E+00
        -11   -1    0    0    0    0  0.00000000000E+00  0.00000000000E+00  0.45593999997E+02  0.45594000000E+02  0.51100000000E-03 0.  1.
         11   -1    0    0    0    0 -0.00000000000E+00 -0.00000000000E+00 -0.45593999997E+02  0.45594000000E+02  0.51100000000E-03 0. -1.
    9900012    2    1    2    0    0  0.22578671409E+00 -0.75839372326E-01 -0.11562324699E+01  0.90007489612E+02  0.89999747675E+02 0.  0.
        -12    1    1    2    0    0 -0.22578671409E+00  0.75839372326E-01  0.11562324699E+01  0.11805103875E+01  0.00000000000E+00 0.  1.
         11    1    3    3    0    0  0.83063049481E+01 -0.13721448700E+02 -0.14272326149E+02  0.21470261998E+02  0.51100000000E-03 0. -1.
        -11    1    3    3    0    0  0.10136305840E+02  0.20680120495E+02 -0.19728886162E+02  0.30325583741E+02  0.51100000000E-03 0.  1.
         12    1    3    3    0    0 -0.18216824074E+02 -0.70345111670E+01  0.32844979841E+02  0.38211643873E+02  0.00000000000E+00 0. -1.
</event>
<event>
 7    1  0.3752192E-015  0.9000763E+02  0.7816164E-02  0.1186339E+00
        -11   -1    0    0    0    0  0.00000000000E+00  0.00000000000E+00  0.45593999997E+02  0.45594000000E+02  0.51100000000E-03 0.  1.
         11   -1    0    0    0    0 -0.00000000000E+00 -0.00000000000E+00 -0.45593999997E+02  0.45594000000E+02  0.51100000000E-03 0. -1.
    9900012    2    1    2    0    0  0.56389103864E+00 -0.23942300907E+00 -0.10089485770E+01  0.90007629841E+02  0.89999889755E+02 0.  0.
        -12    1    1    2    0    0 -0.56389103864E+00  0.23942300907E+00  0.10089485770E+01  0.11803701588E+01  0.00000000000E+00 0.  1.
         11    1    3    3    0    0 -0.32387490221E+02 -0.10983301217E+02 -0.19647032710E+02  0.39440947288E+02  0.51100000000E-03 0. -1.
        -11    1    3    3    0    0  0.12115637371E+01 -0.93227506673E+01  0.27722432826E+01  0.98013723413E+01  0.51100000000E-03 0.  1.
        -12    1    3    3    0    0  0.31739817522E+02  0.20066628875E+02  0.15865840851E+02  0.40765310212E+02  0.00000000000E+00 0.  1.
</event>
<event>
 7    1  0.3752192E-015  0.9000776E+02  0.7816164E-02  0.1186339E+00
        -11   -1    0    0    0    0  0.00000000000E+00  0.00000000000E+00  0.45593999997E+02  0.45594000000E+02  0.51100000000E-03 0. -1.
         11   -1    0    0    0    0 -0.00000000000E+00 -0.00000000000E+00 -0.45593999997E+02  0.45594000000E+02  0.51100000000E-03 0.  1.
    9900012    2    1    2    0    0  0.10012120613E+01  0.20917257907E+00  0.58888378556E+00  0.90007761519E+02  0.90000023171E+02 0.  0.
        -12    1    1    2    0    0 -0.10012120613E+01 -0.20917257907E+00 -0.58888378556E+00  0.11802384811E+01  0.00000000000E+00 0.  1.
         11    1    3    3    0    0  0.36465792285E+02 -0.12255908029E+02 -0.25622553957E+01  0.38555498201E+02  0.51100000000E-03 0. -1.
        -11    1    3    3    0    0  0.17411262908E+01 -0.79666434727E+01 -0.27312684881E+01  0.85999277204E+01  0.51100000000E-03 0.  1.
        -12    1    3    3    0    0 -0.37205706514E+02  0.20431724081E+02  0.58824076693E+01  0.42852335597E+02  0.00000000000E+00 0.  1.
</event>
<event>
 7    1  0.3752192E-015  0.9000774E+02  0.7816164E-02  0.1186339E+00
        -11   -1    0    0    0    0  0.00000000000E+00  0.00000000000E+00  0.45593999997E+02  0.45594000000E+02  0.51100000000E-03 0. -1.
         11   -1    0    0    0    0 -0.00000000000E+00 -0.00000000000E+00 -0.45593999997E+02  0.45594000000E+02  0.51100000000E-03 0.  1.
    9900012    2    1    2    0    0 -0.10194328596E+01  0.25658728517E+00 -0.53658455308E+00  0.90007744361E+02  0.90000005787E+02 0.  0.
        -12    1    1    2    0    0  0.10194328596E+01 -0.25658728517E+00  0.53658455308E+00  0.11802556387E+01  0.00000000000E+00 0.  1.
         11    1    3    3    0    0 -0.26840907217E+01 -0.24934929398E+01  0.39672939793E+02  0.39841736937E+02  0.51100000000E-03 0. -1.
        -11    1    3    3    0    0  0.44056478418E+00 -0.91428608279E+01 -0.10398691872E+01  0.92123465867E+01  0.51100000000E-03 0.  1.
        -12    1    3    3    0    0  0.12240930779E+01  0.11892941053E+02 -0.39169655159E+02  0.40953660838E+02  0.00000000000E+00 0.  1.
</event>
<event>
 7    1  0.3752192E-015  0.9000774E+02  0.7816164E-02  0.1186339E+00
        -11   -1    0    0    0    0  0.00000000000E+00  0.00000000000E+00  0.45593999997E+02  0.45594000000E+02  0.51100000000E-03 0.  1.
         11   -1    0    0    0    0 -0.00000000000E+00 -0.00000000000E+00 -0.45593999997E+02  0.45594000000E+02  0.51100000000E-03 0. -1.
    9900012    2    1    2    0    0 -0.69732613260E+00  0.67667874851E+00 -0.66997207925E+00  0.90007737126E+02  0.89999998456E+02 0.  0.
        -12    1    1    2    0    0  0.69732613260E+00 -0.67667874851E+00  0.66997207925E+00  0.11802628736E+01  0.00000000000E+00 0.  1.
         11    1    3    3    0    0 -0.11736784211E+02 -0.22939162834E+00 -0.82357566874E+01  0.14339888863E+02  0.51100000000E-03 0. -1.
        -11    1    3    3    0    0 -0.21691888247E+02  0.26123755903E+02  0.41342814944E+01  0.34206445619E+02  0.51100000000E-03 0.  1.
         12    1    3    3    0    0  0.32731346325E+02 -0.25217685526E+02  0.34315031138E+01  0.41461402644E+02  0.00000000000E+00 0. -1.
</event>
<event>
 7    1  0.3752192E-015  0.9000782E+02  0.7816164E-02  0.1186339E+00
        -11   -1    0    0    0    0  0.00000000000E+00  0.00000000000E+00  0.45593999997E+02  0.45594000000E+02  0.51100000000E-03 0. -1.
         11   -1    0    0    0    0 -0.00000000000E+00 -0.00000000000E+00 -0.45593999997E+02  0.45594000000E+02  0.51100000000E-03 0.  1.
    9900012    2    1    2    0    0 -0.28189377612E+00  0.89863632863E+00  0.71119909450E+00  0.90007823952E+02  0.90000086428E+02 0.  0.
        -12    1    1    2    0    0  0.28189377612E+00 -0.89863632863E+00 -0.71119909450E+00  0.11801760480E+01  0.00000000000E+00 0.  1.
         11    1    3    3    0    0  0.10006093758E+02 -0.30137636461E+02  0.74648964724E+01  0.32620909296E+02  0.51100000000E-03 0. -1.
        -11    1    3    3    0    0  0.72514903070E+01  0.92878617300E+00 -0.19075579665E+02  0.20428521612E+02  0.51100000000E-03 0.  1.
        -12    1    3    3    0    0 -0.17539477841E+02  0.30107486616E+02  0.12321882287E+02  0.36958393044E+02  0.00000000000E+00 0.  1.
</event>
<event>
 7    1  0.3752192E-015  0.9000771E+02  0.7816164E-02  0.1186339E+00
        -11   -1    0    0    0    0  0.00000000000E+00  0.00000000000E+00  0.45593999997E+02  0.45594000000E+02  0.51100000000E-03 0.  1.
         11   -1    0    0    0    0 -0.00000000000E+00 -0.00000000000E+00 -0.45593999997E+02  0.45594000000E+02  0.51100000000E-03 0. -1.
    9900012    2    1    2    0    0 -0.27541439854E+00 -0.90775183384E+00 -0.70229863046E+00  0.90007707727E+02  0.89999968669E+02 0.  0.
        -12    1    1    2    0    0  0.27541439854E+00  0.90775183384E+00  0.70229863046E+00  0.11802922727E+01  0.00000000000E+00 0.  1.
         11    1    3    3    0    0  0.27338057749E+02 -0.88000090171E+01  0.26486402134E+02  0.39068389505E+02  0.51100000000E-03 0. -1.
        -11    1    3    3    0    0 -0.78108594746E+01  0.33475244260E+00  0.71442830954E+01  0.10590673545E+02  0.51100000000E-03 0.  1.
        -12    1    3    3    0    0 -0.19802612673E+02  0.75575047407E+01 -0.34332983860E+02  0.40348644678E+02  0.00000000000E+00 0.  1.
</event>
<event>
 7    1  0.3752192E-015  0.9000775E+02  0.7816164E-02  0.1186339E+00
        -11   -1    0    0    0    0  0.00000000000E+00  0.00000000000E+00  0.45593999997E+02  0.45594000000E+02  0.51100000000E-03 0.  1.
         11   -1    0    0    0    0 -0.00000000000E+00 -0.00000000000E+00 -0.45593999997E+02  0.45594000000E+02  0.51100000000E-03 0. -1.
    9900012    2    1    2    0    0 -0.45726090206E+00  0.44166009262E+00 -0.99440709887E+00  0.90007747210E+02  0.90000008673E+02 0.  0.
        -12    1    1    2    0    0  0.45726090206E+00 -0.44166009262E+00  0.99440709887E+00  0.11802527900E+01  0.00000000000E+00 0.  1.
         11    1    3    3    0    0 -0.84473565806E+01 -0.11840527053E+01  0.20478689459E+01  0.87723190485E+01  0.51100000000E-03 0. -1.
        -11    1    3    3    0    0  0.19715210756E+02 -0.23025938287E+02  0.27034982849E+02  0.40617405962E+02  0.51100000000E-03 0.  1.
         12    1    3    3    0    0 -0.11725115078E+02  0.24651651085E+02 -0.30077258894E+02  0.40618022199E+02  0.00000000000E+00 0. -1.
</event>
<event>
 7    1  0.3752192E-015  0.9000773E+02  0.7816164E-02  0.1186339E+00
        -11   -1    0    0    0    0  0.00000000000E+00  0.00000000000E+00  0.45593999997E+02  0.45594000000E+02  0.51100000000E-03 0.  1.
         11   -1    0    0    0    0 -0.00000000000E+00 -0.00000000000E+00 -0.45593999997E+02  0.45594000000E+02  0.51100000000E-03 0. -1.
    9900012    2    1    2    0    0  0.22640926430E+00 -0.35981030188E+00 -0.11010512657E+01  0.90007729481E+02  0.89999990710E+02 0.  0.
        -12    1    1    2    0    0 -0.22640926430E+00  0.35981030188E+00  0.11010512657E+01  0.11802705190E+01  0.00000000000E+00 0.  1.
         11    1    3    3    0    0  0.34746344569E+01 -0.24051827967E+02 -0.28201028714E+02  0.37227161240E+02  0.51100000000E-03 0. -1.
        -11    1    3    3    0    0 -0.81500100701E+01  0.16096669217E+00 -0.72141951724E+01  0.10885457577E+02  0.51100000000E-03 0.  1.
        -12    1    3    3    0    0  0.49017848775E+01  0.23531050973E+02  0.34314172621E+02  0.41895110664E+02  0.00000000000E+00 0.  1.
</event>
<event>
 7    1  0.3752192E-015  0.9000769E+02  0.7816164E-02  0.1186339E+00
        -11   -1    0    0    0    0  0.00000000000E+00  0.00000000000E+00  0.45593999997E+02  0.45594000000E+02  0.51100000000E-03 0.  1.
         11   -1    0    0    0    0 -0.00000000000E+00 -0.00000000000E+00 -0.45593999997E+02  0.45594000000E+02  0.51100000000E-03 0. -1.
    9900012    2    1    2    0    0  0.11116635001E+01 -0.35904063283E+00  0.16859740280E+00  0.90007690296E+02  0.89999951008E+02 0.  0.
        -12    1    1    2    0    0 -0.11116635001E+01  0.35904063283E+00 -0.16859740280E+00  0.11803097041E+01  0.00000000000E+00 0.  1.
         11    1    3    3    0    0 -0.10892358216E+02 -0.44140973447E+01 -0.16840345248E+01  0.11872813290E+02  0.51100000000E-03 0. -1.
        -11    1    3    3    0    0 -0.31575540435E+02  0.11959556016E+02  0.22895205039E+01  0.33842098609E+02  0.51100000000E-03 0.  1.
         12    1    3    3    0    0  0.43579562151E+02 -0.79044993040E+01 -0.43688857635E+00  0.44292778397E+02  0.00000000000E+00 0. -1.
</event>
<event>
 7    1  0.3752192E-015  0.9000779E+02  0.7816164E-02  0.1186339E+00
        -11   -1    0    0    0    0  0.00000000000E+00  0.00000000000E+00  0.45593999997E+02  0.45594000000E+02  0.51100000000E-03 0.  1.
         11   -1    0    0    0    0 -0.00000000000E+00 -0.00000000000E+00 -0.45593999997E+02  0.45594000000E+02  0.51100000000E-03 0. -1.
    9900012    2    1    2    0    0  0.77623284624E-01 -0.94412271205E+00 -0.70391656672E+00  0.90007791712E+02  0.90000053763E+02 0.  0.
        -12    1    1    2    0    0 -0.77623284624E-01  0.94412271205E+00  0.70391656672E+00  0.11802082878E+01  0.00000000000E+00 0.  1.
         11    1    3    3    0    0  0.91017324056E+01  0.30885774016E+01 -0.11484057017E+02  0.14975460226E+02  0.51100000000E-03 0. -1.
        -11    1    3    3    0    0 -0.11295022163E+02 -0.32877156760E+02  0.24974568976E+02  0.42804369614E+02  0.51100000000E-03 0.  1.
         12    1    3    3    0    0  0.22709130419E+01  0.28844456646E+02 -0.14194428526E+02  0.32227961872E+02  0.00000000000E+00 0. -1.
</event>
<event>
 7    1  0.3752192E-015  0.9000767E+02  0.7816164E-02  0.1186339E+00
        -11   -1    0    0    0    0  0.00000000000E+00  0.00000000000E+00  0.45593999997E+02  0.45594000000E+02  0.51100000000E-03 0. -1.
         11   -1    0    0    0    0 -0.00000000000E+00 -0.00000000000E+00 -0.45593999997E+02  0.45594000000E+02  0.51100000000E-03 0.  1.
    9900012    2    1    2    0    0 -0.65008081558E+00 -0.93171646210E+00  0.32012630380E+00  0.90007668910E+02  0.89999929339E+02 0.  0.
        -12    1    1    2    0    0  0.65008081558E+00  0.93171646210E+00 -0.32012630380E+00  0.11803310904E+01  0.00000000000E+00 0.  1.
         11    1    3    3    0    0  0.82850371409E+00 -0.40674898503E+01  0.72014102316E+01  0.83121117456E+01  0.51100000000E-03 0. -1.
        -11    1    3    3    0    0  0.32971443515E+02 -0.72910566249E+01 -0.24404153579E+02  0.41663392881E+02  0.51100000000E-03 0.  1.
         12    1    3    3    0    0 -0.34450028045E+02  0.10426830013E+02  0.17522869651E+02  0.40032164283E+02  0.00000000000E+00 0. -1.
</event>
<event>
 7    1  0.3752192E-015  0.9000747E+02  0.7816164E-02  0.1186340E+00
        -11   -1    0    0    0    0  0.00000000000E+00  0.00000000000E+00  0.45593999997E+02  0.45594000000E+02  0.51100000000E-03 0.  1.
         11   -1    0    0    0    0 -0.00000000000E+00 -0.00000000000E+00 -0.45593999997E+02  0.45594000000E+02  0.51100000000E-03 0. -1.
    9900012    2    1    2    0    0  0.26374257836E+00 -0.97615016965E+00 -0.60927294235E+00  0.90007473499E+02  0.89999731349E+02 0.  0.
        -12    1    1    2    0    0 -0.26374257836E+00  0.97615016965E+00  0.60927294235E+00  0.11805265010E+01  0.00000000000E+00 0.  1.
         11    1    3    3    0    0 -0.32692888277E+02  0.11188961201E+02  0.49027122260E+01  0.34900635869E+02  0.51100000000E-03 0. -1.
        -11    1    3    3    0    0 -0.10004739863E+02 -0.12274039950E+01  0.16069476786E+01  0.10207037836E+02  0.51100000000E-03 0.  1.
        -12    1    3    3    0    0  0.42961370718E+02 -0.10937707375E+02 -0.71189328470E+01  0.44899799793E+02  0.00000000000E+00 0.  1.
</event>
<event>
 7    1  0.4137504E-015  0.9000778E+02  0.7816164E-02  0.1186339E+00
        -11   -1    0    0    0    0  0.00000000000E+00  0.00000000000E+00  0.45593999997E+02  0.45594000000E+02  0.51100000000E-03 0.  1.
         11   -1    0    0    0    0 -0.00000000000E+00 -0.00000000000E+00 -0.45593999997E+02  0.45594000000E+02  0.51100000000E-03 0. -1.
    9900012    2    1    2    0    0 -0.61215658515E+00  0.57463408015E+00 -0.82944592605E+00  0.90007779446E+02  0.90000041335E+02 0.  0.
        -12    1    1    2    0    0  0.61215658515E+00 -0.57463408015E+00  0.82944592605E+00  0.11802205536E+01  0.00000000000E+00 0.  1.
         11    1    3    3    0    0  0.13498897426E+02  0.29862922255E+02  0.21222201328E+02  0.39043516578E+02  0.51100000000E-03 0. -1.
        -11    1    3    3    0    0  0.64062052499E+01  0.30646118328E+01 -0.64690638245E+01  0.96062530893E+01  0.51100000000E-03 0.  1.
        -12    1    3    3    0    0 -0.20517259261E+02 -0.32352900008E+02 -0.15582583430E+02  0.41358009779E+02  0.00000000000E+00 0.  1.
</event>
<event>
 7    1  0.3752192E-015  0.9000773E+02  0.7816164E-02  0.1186339E+00
        -11   -1    0    0    0    0  0.00000000000E+00  0.00000000000E+00  0.45593999997E+02  0.45594000000E+02  0.51100000000E-03 0.  1.
         11   -1    0    0    0    0 -0.00000000000E+00 -0.00000000000E+00 -0.45593999997E+02  0.45594000000E+02  0.51100000000E-03 0. -1.
    9900012    2    1    2    0    0  0.13015170646E+00  0.10905759889E+00 -0.11679877114E+01  0.90007733793E+02  0.89999995079E+02 0.  0.
        -12    1    1    2    0    0 -0.13015170646E+00 -0.10905759889E+00  0.11679877114E+01  0.11802662075E+01  0.00000000000E+00 0.  1.
         11    1    3    3    0    0  0.39665483758E+02  0.39387103082E+01 -0.50393792378E+01  0.40177846931E+02  0.51100000000E-03 0. -1.
        -11    1    3    3    0    0 -0.18889119823E+01 -0.38505350046E+01  0.10737566517E+02  0.11562436736E+02  0.51100000000E-03 0.  1.
        -12    1    3    3    0    0 -0.37646420069E+02  0.20882295303E-01 -0.68661749907E+01  0.38267450126E+02  0.00000000000E+00 0.  1.
</event>
<event>
 7    1  0.3752192E-015  0.9000779E+02  0.7816164E-02  0.1186339E+00
        -11   -1    0    0    0    0  0.00000000000E+00  0.00000000000E+00  0.45593999997E+02  0.45594000000E+02  0.51100000000E-03 0.  1.
         11   -1    0    0    0    0 -0.00000000000E+00 -0.00000000000E+00 -0.45593999997E+02  0.45594000000E+02  0.51100000000E-03 0. -1.
    9900012    2    1    2    0    0  0.12830418061E+00 -0.70347645558E+00 -0.93891314118E+00  0.90007788590E+02  0.90000050599E+02 0.  0.
        -12    1    1    2    0    0 -0.12830418061E+00  0.70347645558E+00  0.93891314118E+00  0.11802114103E+01  0.00000000000E+00 0.  1.
         11    1    3    3    0    0 -0.70174543147E+01 -0.62047530500E+01 -0.13363795395E+02  0.16319762654E+02  0.51100000000E-03 0. -1.
        -11    1    3    3    0    0 -0.31916069109E+02  0.48209101430E+01 -0.12331528262E+01  0.32301661073E+02  0.51100000000E-03 0.  1.
         12    1    3    3    0    0  0.39061827604E+02  0.68036645146E+00  0.13658035080E+02  0.41386364862E+02  0.00000000000E+00 0. -1.
</event>
<event>
 7    1  0.3752192E-015  0.9000751E+02  0.7816164E-02  0.1186340E+00
        -11   -1    0    0    0    0  0.00000000000E+00  0.00000000000E+00  0.45593999997E+02  0.45594000000E+02  0.51100000000E-03 0.  1.
         11   -1    0    0    0    0 -0.00000000000E+00 -0.00000000000E+00 -0.45593999997E+02  0.45594000000E+02  0.51100000000E-03 0. -1.
    9900012    2    1    2    0    0  0.95013810113E+00  0.43237735834E+00 -0.55121844719E+00  0.90007510962E+02  0.89999769307E+02 0.  0.
        -12    1    1    2    0    0 -0.95013810113E+00 -0.43237735834E+00  0.55121844719E+00  0.11804890375E+01  0.00000000000E+00 0.  1.
         11    1    3    3    0    0 -0.12919471371E+02 -0.32558678509E+02 -0.29159554042E+00  0.35029492075E+02  0.51100000000E-03 0. -1.
        -11    1    3    3    0    0 -0.30862266402E+01 -0.89952837448E+01 -0.17640100152E+01  0.96722105084E+01  0.51100000000E-03 0.  1.
        -12    1    3    3    0    0  0.16955836113E+02  0.41986339612E+02  0.15043871084E+01  0.45305808379E+02  0.00000000000E+00 0.  1.
</event>
<event>
 7    1  0.3752192E-015  0.9000845E+02  0.7816164E-02  0.1186338E+00
        -11   -1    0    0    0    0  0.00000000000E+00  0.00000000000E+00  0.45593999997E+02  0.45594000000E+02  0.51100000000E-03 0.  1.
         11   -1    0    0    0    0 -0.00000000000E+00 -0.00000000000E+00 -0.45593999997E+02  0.45594000000E+02  0.51100000000E-03 0. -1.
    9900012    2    1    2    0    0 -0.58456967806E+00  0.12123786522E+00 -0.10173093471E+01  0.90008449816E+02  0.90000720551E+02 0.  0.
        -12    1    1    2    0    0  0.58456967806E+00 -0.12123786522E+00  0.10173093471E+01  0.11795501839E+01  0.00000000000E+00 0.  1.
         11    1    3    3    0    0  0.25029393810E+02 -0.15930697423E+02 -0.21507762713E+02  0.36644802252E+02  0.51100000000E-03 0. -1.
        -11    1    3    3    0    0  0.80408636112E+01 -0.47801579992E+00 -0.35720271951E+01  0.88115472684E+01  0.51100000000E-03 0.  1.
        -12    1    3    3    0    0 -0.33654827100E+02  0.16529951088E+02  0.24062480561E+02  0.44552100296E+02  0.00000000000E+00 0.  1.
</event>
<event>
 7    1  0.3752192E-015  0.9000730E+02  0.7816164E-02  0.1186340E+00
        -11   -1    0    0    0    0  0.00000000000E+00  0.00000000000E+00  0.45593999997E+02  0.45594000000E+02  0.51100000000E-03 0.  1.
         11   -1    0    0    0    0 -0.00000000000E+00 -0.00000000000E+00 -0.45593999997E+02  0.45594000000E+02  0.51100000000E-03 0. -1.
    9900012    2    1    2    0    0  0.94585949394E+00  0.20974496282E+00 -0.67484419149E+00  0.90007297745E+02  0.89999553274E+02 0.  0.
        -12    1    1    2    0    0 -0.94585949394E+00 -0.20974496282E+00  0.67484419149E+00  0.11807022548E+01  0.00000000000E+00 0.  1.
         11    1    3    3    0    0 -0.32364663362E+01 -0.37434423728E+01 -0.79614085500E+01  0.93740120282E+01  0.51100000000E-03 0. -1.
        -11    1    3    3    0    0  0.19786753543E+02  0.26744107936E+02 -0.22382914572E+02  0.40096855114E+02  0.51100000000E-03 0.  1.
         12    1    3    3    0    0 -0.15604427713E+02 -0.22790920600E+02  0.29669478930E+02  0.40536430603E+02  0.00000000000E+00 0. -1.
</event>
<event>
 7    1  0.3752192E-015  0.9000776E+02  0.7816164E-02  0.1186339E+00
        -11   -1    0    0    0    0  0.00000000000E+00  0.00000000000E+00  0.45593999997E+02  0.45594000000E+02  0.51100000000E-03 0.  1.
         11   -1    0    0    0    0 -0.00000000000E+00 -0.00000000000E+00 -0.45593999997E+02  0.45594000000E+02  0.51100000000E-03 0. -1.
    9900012    2    1    2    0    0 -0.91257173153E+00  0.22374259263E-01 -0.74811317022E+00  0.90007762275E+02  0.90000023937E+02 0.  0.
        -12    1    1    2    0    0  0.91257173153E+00 -0.22374259263E-01  0.74811317022E+00  0.11802377253E+01  0.00000000000E+00 0.  1.
         11    1    3    3    0    0 -0.92114690748E+00  0.29476290430E+01  0.11194719938E+02  0.11612871451E+02  0.51100000000E-03 0. -1.
        -11    1    3    3    0    0  0.34679126722E+02  0.12055057953E+02  0.49016287979E+01  0.37040413302E+02  0.51100000000E-03 0.  1.
         12    1    3    3    0    0 -0.34670551546E+02 -0.14980312736E+02 -0.16844461906E+02  0.41354477522E+02  0.00000000000E+00 0. -1.
</event>
<event>
 7    1  0.3752192E-015  0.9000785E+02  0.7816164E-02  0.1186339E+00
        -11   -1    0    0    0    0  0.00000000000E+00  0.00000000000E+00  0.45593999997E+02  0.45594000000E+02  0.51100000000E-03 0.  1.
         11   -1    0    0    0    0 -0.00000000000E+00 -0.00000000000E+00 -0.45593999997E+02  0.45594000000E+02  0.51100000000E-03 0. -1.
    9900012    2    1    2    0    0 -0.11643907160E+01  0.12023762109E+00 -0.14996370287E+00  0.90007850883E+02  0.90000113715E+02 0.  0.
        -12    1    1    2    0    0  0.11643907160E+01 -0.12023762109E+00  0.14996370287E+00  0.11801491166E+01  0.00000000000E+00 0.  1.
         11    1    3    3    0    0  0.15548715629E+01  0.73702411991E+01  0.55430569027E+01  0.93521955175E+01  0.51100000000E-03 0. -1.
        -11    1    3    3    0    0 -0.61402919919E+01  0.64773570741E+01  0.35758970865E+02  0.36855981034E+02  0.51100000000E-03 0.  1.
         12    1    3    3    0    0  0.34210297129E+01 -0.13727360652E+02 -0.41451991470E+02  0.43799674332E+02  0.00000000000E+00 0. -1.
</event>
<event>
 7    1  0.3752192E-015  0.9000780E+02  0.7816164E-02  0.1186339E+00
        -11   -1    0    0    0    0  0.00000000000E+00  0.00000000000E+00  0.45593999997E+02  0.45594000000E+02  0.51100000000E-03 0. -1.
         11   -1    0    0    0    0 -0.00000000000E+00 -0.00000000000E+00 -0.45593999997E+02  0.45594000000E+02  0.51100000000E-03 0.  1.
    9900012    2    1    2    0    0  0.23383316541E+00  0.30785424300E+00  0.11150867822E+01  0.90007800561E+02  0.90000062728E+02 0.  0.
        -12    1    1    2    0    0 -0.23383316541E+00 -0.30785424300E+00 -0.11150867822E+01  0.11801994391E+01  0.00000000000E+00 0.  1.
         11    1    3    3    0    0 -0.27886533131E+01  0.73297350037E+01 -0.66340584457E+01  0.10271919696E+02  0.51100000000E-03 0. -1.
        -11    1    3    3    0    0 -0.34396974171E+02  0.85272971182E+01 -0.78817623116E+01  0.36304115548E+02  0.51100000000E-03 0.  1.
         12    1    3    3    0    0  0.37419460650E+02 -0.15549177879E+02  0.15630907540E+02  0.43431765317E+02  0.00000000000E+00 0. -1.
</event>
<event>
 7    1  0.3752192E-015  0.9000774E+02  0.7816164E-02  0.1186339E+00
        -11   -1    0    0    0    0  0.00000000000E+00  0.00000000000E+00  0.45593999997E+02  0.45594000000E+02  0.51100000000E-03 0. -1.
         11   -1    0    0    0    0 -0.00000000000E+00 -0.00000000000E+00 -0.45593999997E+02  0.45594000000E+02  0.51100000000E-03 0.  1.
    9900012    2    1    2    0    0  0.15696912870E+00 -0.43162881804E+00  0.10872286244E+01  0.90007742051E+02  0.90000003446E+02 0.  0.
        -12    1    1    2    0    0 -0.15696912870E+00  0.43162881804E+00 -0.10872286244E+01  0.11802579488E+01  0.00000000000E+00 0.  1.
         11    1    3    3    0    0 -0.29870424478E+01  0.56746213059E+01 -0.80535018859E+01  0.10294787149E+02  0.51100000000E-03 0. -1.
        -11    1    3    3    0    0  0.41850981957E+01  0.31553538817E+02  0.23320474795E+02  0.39458654357E+02  0.51100000000E-03 0.  1.
         12    1    3    3    0    0 -0.10410866191E+01 -0.37659788941E+02 -0.14179744285E+02  0.40254300545E+02  0.00000000000E+00 0. -1.
</event>
<event>
 7    1  0.3752192E-015  0.9000768E+02  0.7816164E-02  0.1186339E+00
        -11   -1    0    0    0    0  0.00000000000E+00  0.00000000000E+00  0.45593999997E+02  0.45594000000E+02  0.51100000000E-03 0.  1.
         11   -1    0    0    0    0 -0.00000000000E+00 -0.00000000000E+00 -0.45593999997E+02  0.45594000000E+02  0.51100000000E-03 0. -1.
    9900012    2    1    2    0    0  0.10811803546E+01 -0.27090181284E+00 -0.38833668360E+00  0.90007684732E+02  0.89999945371E+02 0.  0.
        -12    1    1    2    0    0 -0.10811803546E+01  0.27090181284E+00  0.38833668360E+00  0.11803152677E+01  0.00000000000E+00 0.  1.
         11    1    3    3    0    0  0.28140122600E+02  0.19313147321E+02 -0.10318459036E+02  0.35655781530E+02  0.51100000000E-03 0. -1.
        -11    1    3    3    0    0  0.76414259099E+01  0.57671469379E+01 -0.19404988591E+01  0.97681579545E+01  0.51100000000E-03 0.  1.
        -12    1    3    3    0    0 -0.34700368155E+02 -0.25351196072E+02  0.11870621211E+02  0.44583745248E+02  0.00000000000E+00 0.  1.
</event>
<event>
 7    1  0.3752192E-015  0.9000779E+02  0.7816164E-02  0.1186339E+00
        -11   -1    0    0    0    0  0.00000000000E+00  0.00000000000E+00  0.45593999997E+02  0.45594000000E+02  0.51100000000E-03 0.  1.
         11   -1    0    0    0    0 -0.00000000000E+00 -0.00000000000E+00 -0.45593999997E+02  0.45594000000E+02  0.51100000000E-03 0. -1.
    9900012    2    1    2    0    0  0.38379447664E+00  0.75366048042E+00 -0.82316644800E+00  0.90007785900E+02  0.90000047874E+02 0.  0.
        -12    1    1    2    0    0 -0.38379447664E+00 -0.75366048042E+00  0.82316644800E+00  0.11802140997E+01  0.00000000000E+00 0.  1.
         11    1    3    3    0    0 -0.26852621840E+02 -0.12337198590E+02  0.17528051167E+02  0.34358439236E+02  0.51100000000E-03 0. -1.
        -11    1    3    3    0    0 -0.76238125332E+01 -0.74505156065E+01  0.11707368730E+01  0.10723960343E+02  0.51100000000E-03 0.  1.
        -12    1    3    3    0    0  0.34860228850E+02  0.20541374677E+02 -0.19521954488E+02  0.44925386322E+02  0.00000000000E+00 0.  1.
</event>
<event>
 7    1  0.3752192E-015  0.9000774E+02  0.7816164E-02  0.1186339E+00
        -11   -1    0    0    0    0  0.00000000000E+00  0.00000000000E+00  0.45593999997E+02  0.45594000000E+02  0.51100000000E-03 0.  1.
         11   -1    0    0    0    0 -0.00000000000E+00 -0.00000000000E+00 -0.45593999997E+02  0.45594000000E+02  0.51100000000E-03 0. -1.
    9900012    2    1    2    0    0 -0.22913762883E+00  0.92789605816E+00  0.69247332230E+00  0.90007739669E+02  0.90000001032E+02 0.  0.
        -12    1    1    2    0    0  0.22913762883E+00 -0.92789605816E+00 -0.69247332230E+00  0.11802603314E+01  0.00000000000E+00 0.  1.
         11    1    3    3    0    0  0.14037493645E+02  0.10332757704E+02 -0.10263150970E+02  0.20227441205E+02  0.51100000000E-03 0. -1.
        -11    1    3    3    0    0 -0.83579869806E+00 -0.34553939767E+02 -0.80837406424E+01  0.35496762894E+02  0.51100000000E-03 0.  1.
         12    1    3    3    0    0 -0.13430832576E+02  0.25149078121E+02  0.19039364935E+02  0.34283535570E+02  0.00000000000E+00 0. -1.
</event>
<event>
 7    1  0.3752192E-015  0.9000758E+02  0.7816164E-02  0.1186339E+00
        -11   -1    0    0    0    0  0.00000000000E+00  0.00000000000E+00  0.45593999997E+02  0.45594000000E+02  0.51100000000E-03 0.  1.
         11   -1    0    0    0    0 -0.00000000000E+00 -0.00000000000E+00 -0.45593999997E+02  0.45594000000E+02  0.51100000000E-03 0. -1.
    9900012    2    1    2    0    0  0.83108888694E+00  0.51099058658E+00 -0.66451450072E+00  0.90007576500E+02  0.89999835710E+02 0.  0.
        -12    1    1    2    0    0 -0.83108888694E+00 -0.51099058658E+00  0.66451450072E+00  0.11804234999E+01  0.00000000000E+00 0.  1.
         11    1    3    3    0    0  0.60814759111E+01  0.55915865457E+01 -0.75471366892E+01  0.11189703384E+02  0.51100000000E-03 0. -1.
        -11    1    3    3    0    0  0.13882884572E+02  0.32797147496E+02  0.74172524731E+01  0.36378606384E+02  0.51100000000E-03 0.  1.
         12    1    3    3    0    0 -0.19133271596E+02 -0.37877743455E+02 -0.53463028462E+00  0.42439266732E+02  0.00000000000E+00 0. -1.
</event>
<event>
 7    1  0.3752192E-015  0.9000671E+02  0.7816164E-02  0.1186341E+00
        -11   -1    0    0    0    0  0.00000000000E+00  0.00000000000E+00  0.45593999997E+02  0.45594000000E+02  0.51100000000E-03 0.  1.
         11   -1    0    0    0    0 -0.00000000000E+00 -0.00000000000E+00 -0.45593999997E+02  0.45594000000E+02  0.51100000000E-03 0. -1.
    9900012    2    1    2    0    0  0.77584139114E+00 -0.48991304414E+00  0.74397167433E+00  0.90006713199E+02  0.89998961007E+02 0.  0.
        -12    1    1    2    0    0 -0.77584139114E+00  0.48991304414E+00 -0.74397167433E+00  0.11812868014E+01  0.00000000000E+00 0.  1.
         11    1    3    3    0    0 -0.34353773639E+01  0.10099725636E+02 -0.69797989609E+01  0.12748484983E+02  0.51100000000E-03 0. -1.
        -11    1    3    3    0    0 -0.27110184565E+02 -0.28106950710E+01  0.28055438683E+02  0.39114827801E+02  0.51100000000E-03 0.  1.
         12    1    3    3    0    0  0.31321403320E+02 -0.77789436091E+01 -0.20331668047E+02  0.38143400415E+02  0.00000000000E+00 0. -1.
</event>
<event>
 7    1  0.3752192E-015  0.9000774E+02  0.7816164E-02  0.1186339E+00
        -11   -1    0    0    0    0  0.00000000000E+00  0.00000000000E+00  0.45593999997E+02  0.45594000000E+02  0.51100000000E-03 0.  1.
         11   -1    0    0    0    0 -0.00000000000E+00 -0.00000000000E+00 -0.45593999997E+02  0.45594000000E+02  0.51100000000E-03 0. -1.
    9900012    2    1    2    0    0  0.81687439262E+00  0.77349473922E+00 -0.35698044832E+00  0.90007740314E+02  0.90000001687E+02 0.  0.
        -12    1    1    2    0    0 -0.81687439262E+00 -0.77349473922E+00  0.35698044832E+00  0.11802596856E+01  0.00000000000E+00 0.  1.
         11    1    3    3    0    0  0.12490971899E+02  0.29245377707E+00  0.64533470422E+01  0.14062560097E+02  0.51100000000E-03 0. -1.
        -11    1    3    3    0    0 -0.74225265450E+01  0.25677786429E+02  0.23996249232E+02  0.35920225412E+02  0.51100000000E-03 0.  1.
         12    1    3    3    0    0 -0.42515709609E+01 -0.25196745467E+02 -0.30806576723E+02  0.40024954805E+02  0.00000000000E+00 0. -1.
</event>
<event>
 7    1  0.3752192E-015  0.9000773E+02  0.7816164E-02  0.1186339E+00
        -11   -1    0    0    0    0  0.00000000000E+00  0.00000000000E+00  0.45593999997E+02  0.45594000000E+02  0.51100000000E-03 0.  1.
         11   -1    0    0    0    0 -0.00000000000E+00 -0.00000000000E+00 -0.45593999997E+02  0.45594000000E+02  0.51100000000E-03 0. -1.
    9900012    2    1    2    0    0  0.10003899905E+01 -0.22486261814E+00 -0.58454965970E+00  0.90007728152E+02  0.89999989364E+02 0.  0.
        -12    1    1    2    0    0 -0.10003899905E+01  0.22486261814E+00  0.58454965970E+00  0.11802718478E+01  0.00000000000E+00 0.  1.
         11    1    3    3    0    0 -0.62019165865E+01  0.52416480452E+01 -0.67698086686E+01  0.10572083676E+02  0.51100000000E-03 0. -1.
        -11    1    3    3    0    0 -0.14173582747E+02  0.12528138351E+02  0.34694704439E+02  0.39516670087E+02  0.51100000000E-03 0.  1.
         12    1    3    3    0    0  0.21375889324E+02 -0.17994649014E+02 -0.28509445430E+02  0.39918974389E+02  0.00000000000E+00 0. -1.
</event>
<event>
 7    1  0.3752192E-015  0.9000774E+02  0.7816164E-02  0.1186339E+00
        -11   -1    0    0    0    0  0.00000000000E+00  0.00000000000E+00  0.45593999997E+02  0.45594000000E+02  0.51100000000E-03 0.  1.
         11   -1    0    0    0    0 -0.00000000000E+00 -0.00000000000E+00 -0.45593999997E+02  0.45594000000E+02  0.51100000000E-03 0. -1.
    9900012    2    1    2    0    0  0.37551658847E+00  0.90389406684E+00 -0.65952964523E+00  0.90007738781E+02  0.90000000133E+02 0.  0.
        -12    1    1    2    0    0 -0.37551658847E+00 -0.90389406684E+00  0.65952964523E+00  0.11802612191E+01  0.00000000000E+00 0.  1.
         11    1    3    3    0    0  0.52051821255E+01  0.35913047456E+01  0.54636908026E+01  0.83572308920E+01  0.51100000000E-03 0. -1.
        -11    1    3    3    0    0 -0.39660458539E+02  0.14792147184E+02 -0.96786632793E+00  0.42340245103E+02  0.51100000000E-03 0.  1.
         12    1    3    3    0    0  0.34830793002E+02 -0.17479557863E+02 -0.51553541199E+01  0.39310262786E+02  0.00000000000E+00 0. -1.
</event>
<event>
 7    1  0.3752192E-015  0.9000769E+02  0.7816164E-02  0.1186339E+00
        -11   -1    0    0    0    0  0.00000000000E+00  0.00000000000E+00  0.45593999997E+02  0.45594000000E+02  0.51100000000E-03 0. -1.
         11   -1    0    0    0    0 -0.00000000000E+00 -0.00000000000E+00 -0.45593999997E+02  0.45594000000E+02  0.51100000000E-03 0.  1.
    9900012    2    1    2    0    0  0.93143609633E+00 -0.63139406363E+00 -0.35623089212E+00  0.90007689823E+02  0.89999950529E+02 0.  0.
        -12    1    1    2    0    0 -0.93143609633E+00  0.63139406363E+00  0.35623089212E+00  0.11803101769E+01  0.00000000000E+00 0.  1.
         11    1    3    3    0    0  0.15451504043E+02 -0.19223596680E+02  0.24664417429E+02  0.34880211207E+02  0.51100000000E-03 0. -1.
        -11    1    3    3    0    0 -0.58755254255E+01 -0.80384861971E+01  0.73146639718E+01  0.12354892498E+02  0.51100000000E-03 0.  1.
        -12    1    3    3    0    0 -0.86445425211E+01  0.26630688813E+02 -0.32335312293E+02  0.42772586117E+02  0.00000000000E+00 0.  1.
</event>
<event>
 7    1  0.3752192E-015  0.9000775E+02  0.7816164E-02  0.1186339E+00
        -11   -1    0    0    0    0  0.00000000000E+00  0.00000000000E+00  0.45593999997E+02  0.45594000000E+02  0.51100000000E-03 0. -1.
         11   -1    0    0    0    0 -0.00000000000E+00 -0.00000000000E+00 -0.45593999997E+02  0.45594000000E+02  0.51100000000E-03 0.  1.
    9900012    2    1    2    0    0 -0.49822903363E+00 -0.83083181649E+00  0.67414271805E+00  0.90007753381E+02  0.90000014926E+02 0.  0.
        -12    1    1    2    0    0  0.49822903363E+00  0.83083181649E+00 -0.67414271805E+00  0.11802466190E+01  0.00000000000E+00 0.  1.
         11    1    3    3    0    0 -0.20616908884E+02 -0.32941074721E+02 -0.22712070389E+01  0.38927236189E+02  0.51100000000E-03 0. -1.
        -11    1    3    3    0    0 -0.64442266427E+01  0.24584600925E+01 -0.72286473456E+01  0.99912674750E+01  0.51100000000E-03 0.  1.
        -12    1    3    3    0    0  0.26562906493E+02  0.29651782812E+02  0.10173997103E+02  0.41089249717E+02  0.00000000000E+00 0.  1.
</event>
<event>
 7    1  0.3752192E-015  0.9000774E+02  0.7816164E-02  0.1186339E+00
        -11   -1    0    0    0    0  0.00000000000E+00  0.00000000000E+00  0.45593999997E+02  0.45594000000E+02  0.51100000000E-03 0.  1.
         11   -1    0    0    0    0 -0.00000000000E+00 -0.00000000000E+00 -0.45593999997E+02  0.45594000000E+02  0.51100000000E-03 0. -1.
    9900012    2    1    2    0    0 -0.32043390187E+00  0.98455766058E+00  0.56655704081E+00  0.90007737930E+02  0.89999999271E+02 0.  0.
        -12    1    1    2    0    0  0.32043390187E+00 -0.98455766058E+00 -0.56655704081E+00  0.11802620696E+01  0.00000000000E+00 0.  1.
         11    1    3    3    0    0  0.10100574612E+02 -0.81134200282E+00  0.92506982128E+00  0.10175246325E+02  0.51100000000E-03 0. -1.
        -11    1    3    3    0    0 -0.17159927616E+02  0.16644061486E+02  0.34138195559E+02  0.41676183785E+02  0.51100000000E-03 0.  1.
         12    1    3    3    0    0  0.67389191024E+01 -0.14848161823E+02 -0.34496708340E+02  0.38156307820E+02  0.00000000000E+00 0. -1.
</event>
<event>
 7    1  0.3752192E-015  0.9000805E+02  0.7816164E-02  0.1186338E+00
        -11   -1    0    0    0    0  0.00000000000E+00  0.00000000000E+00  0.45593999997E+02  0.45594000000E+02  0.51100000000E-03 0.  1.
         11   -1    0    0    0    0 -0.00000000000E+00 -0.00000000000E+00 -0.45593999997E+02  0.45594000000E+02  0.51100000000E-03 0. -1.
    9900012    2    1    2    0    0 -0.10137543605E+01 -0.59490874321E+00 -0.10323659580E+00  0.90008054192E+02  0.90000319706E+02 0.  0.
        -12    1    1    2    0    0  0.10137543605E+01  0.59490874321E+00  0.10323659580E+00  0.11799458084E+01  0.00000000000E+00 0.  1.
         11    1    3    3    0    0  0.54155989231E+01 -0.90615295361E+01  0.32662491463E+01  0.11050267552E+02  0.51100000000E-03 0. -1.
        -11    1    3    3    0    0 -0.16420857441E+02 -0.32216298248E+02  0.41471670931E+01  0.36396887602E+02  0.51100000000E-03 0.  1.
         12    1    3    3    0    0  0.99915041576E+01  0.40682919041E+02 -0.75166528352E+01  0.42560899038E+02  0.00000000000E+00 0. -1.
</event>
<event>
 7    1  0.3752192E-015  0.9000778E+02  0.7816164E-02  0.1186339E+00
        -11   -1    0    0    0    0  0.00000000000E+00  0.00000000000E+00  0.45593999997E+02  0.45594000000E+02  0.51100000000E-03 0.  1.
         11   -1    0    0    0    0 -0.00000000000E+00 -0.00000000000E+00 -0.45593999997E+02  0.45594000000E+02  0.51100000000E-03 0. -1.
    9900012    2    1    2    0    0  0.38101076938E+00 -0.16274974659E+00 -0.11051074305E+01  0.90007780055E+02  0.90000041951E+02 0.  0.
        -12    1    1    2    0    0 -0.38101076938E+00  0.16274974659E+00  0.11051074305E+01  0.11802199453E+01  0.00000000000E+00 0.  1.
         11    1    3    3    0    0  0.66400684307E+01 -0.68567535922E+01  0.77158354502E+01  0.12273536391E+02  0.51100000000E-03 0. -1.
        -11    1    3    3    0    0 -0.31629479404E+02 -0.21340179821E+02 -0.11441469890E+02  0.39833835815E+02  0.51100000000E-03 0.  1.
         12    1    3    3    0    0  0.25370421743E+02  0.28034183667E+02  0.26205270095E+01  0.37900407849E+02  0.00000000000E+00 0. -1.
</event>
<event>
 7    1  0.3752192E-015  0.9000769E+02  0.7816164E-02  0.1186339E+00
        -11   -1    0    0    0    0  0.00000000000E+00  0.00000000000E+00  0.45593999997E+02  0.45594000000E+02  0.51100000000E-03 0.  1.
         11   -1    0    0    0    0 -0.00000000000E+00 -0.00000000000E+00 -0.45593999997E+02  0.45594000000E+02  0.51100000000E-03 0. -1.
    9900012    2    1    2    0    0 -0.78907382343E-01 -0.11607530950E+00 -0.11719351539E+01  0.90007689932E+02  0.89999950639E+02 0.  0.
        -12    1    1    2    0    0  0.78907382343E-01  0.11607530950E+00  0.11719351539E+01  0.11803100683E+01  0.00000000000E+00 0.  1.
         11    1    3    3    0    0 -0.10004901064E+02 -0.34449862073E+01 -0.25580863557E+01  0.10886219790E+02  0.51100000000E-03 0. -1.
        -11    1    3    3    0    0  0.17508293091E+02 -0.35275138889E+02  0.45993948013E+01  0.39648835839E+02  0.51100000000E-03 0.  1.
         12    1    3    3    0    0 -0.75822994093E+01  0.38604049787E+02 -0.32132435995E+01  0.39472634302E+02  0.00000000000E+00 0. -1.
</event>
<event>
 7    1  0.3752192E-015  0.9000788E+02  0.7816164E-02  0.1186339E+00
        -11   -1    0    0    0    0  0.00000000000E+00  0.00000000000E+00  0.45593999997E+02  0.45594000000E+02  0.51100000000E-03 0.  1.
         11   -1    0    0    0    0 -0.00000000000E+00 -0.00000000000E+00 -0.45593999997E+02  0.45594000000E+02  0.51100000000E-03 0. -1.
    9900012    2    1    2    0    0 -0.18317130615E+00  0.59418075230E+00 -0.10030302667E+01  0.90007884663E+02  0.90000147940E+02 0.  0.
        -12    1    1    2    0    0  0.18317130615E+00 -0.59418075230E+00  0.10030302667E+01  0.11801153375E+01  0.00000000000E+00 0.  1.
         11    1    3    3    0    0  0.24650830889E+02  0.28191709786E+01  0.29928175941E+02  0.38875530916E+02  0.51100000000E-03 0. -1.
        -11    1    3    3    0    0 -0.49039167845E+01 -0.62081758250E+01  0.53470561269E+01  0.95488667594E+01  0.51100000000E-03 0.  1.
        -12    1    3    3    0    0 -0.19930085411E+02  0.39831855986E+01 -0.36278262335E+02  0.41583486987E+02  0.00000000000E+00 0.  1.
</event>
<event>
 7    1  0.3752192E-015  0.9000775E+02  0.7816164E-02  0.1186339E+00
        -11   -1    0    0    0    0  0.00000000000E+00  0.00000000000E+00  0.45593999997E+02  0.45594000000E+02  0.51100000000E-03 0.  1.
         11   -1    0    0    0    0 -0.00000000000E+00 -0.00000000000E+00 -0.45593999997E+02  0.45594000000E+02  0.51100000000E-03 0. -1.
    9900012    2    1    2    0    0 -0.11262515556E+01 -0.17119833460E+00 -0.30860145782E+00  0.90007751596E+02  0.90000013117E+02 0.  0.
        -12    1    1    2    0    0  0.11262515556E+01  0.17119833460E+00  0.30860145782E+00  0.11802484043E+01  0.00000000000E+00 0.  1.
         11    1    3    3    0    0  0.22037807384E+02 -0.55493584859E+01  0.31713423796E+02  0.39015401869E+02  0.51100000000E-03 0. -1.
        -11    1    3    3    0    0  0.17086678268E+01  0.82009831387E+01  0.21348343597E+01  0.86448359261E+01  0.51100000000E-03 0.  1.
        -12    1    3    3    0    0 -0.24872726767E+02 -0.28228229875E+01 -0.34156859613E+02  0.42347513800E+02  0.00000000000E+00 0.  1.
</event>
<event>
 7    1  0.3752192E-015  0.9000781E+02  0.7816164E-02  0.1186339E+00
        -11   -1    0    0    0    0  0.00000000000E+00  0.00000000000E+00  0.45593999997E+02  0.45594000000E+02  0.51100000000E-03 0. -1.
         11   -1    0    0    0    0 -0.00000000000E+00 -0.00000000000E+00 -0.45593999997E+02  0.45594000000E+02  0.51100000000E-03 0.  1.
    9900012    2    1    2    0    0 -0.11375118073E+01  0.14588860943E+00  0.27863834313E+00  0.90007806828E+02  0.90000069078E+02 0.  0.
        -12    1    1    2    0    0  0.11375118073E+01 -0.14588860943E+00 -0.27863834313E+00  0.11801931724E+01  0.00000000000E+00 0.  1.
         11    1    3    3    0    0  0.43168320036E+01 -0.71113157564E+01  0.42077654419E+01  0.93226144728E+01  0.51100000000E-03 0. -1.
        -11    1    3    3    0    0 -0.29182589374E+02 -0.71721907738E+01 -0.30094566125E+02  0.42529363428E+02  0.51100000000E-03 0.  1.
         12    1    3    3    0    0  0.23728245563E+02  0.14429395140E+02  0.26165439027E+02  0.38155828926E+02  0.00000000000E+00 0. -1.
</event>
<event>
 7    1  0.3752192E-015  0.9000771E+02  0.7816164E-02  0.1186339E+00
        -11   -1    0    0    0    0  0.00000000000E+00  0.00000000000E+00  0.45593999997E+02  0.45594000000E+02  0.51100000000E-03 0.  1.
         11   -1    0    0    0    0 -0.00000000000E+00 -0.00000000000E+00 -0.45593999997E+02  0.45594000000E+02  0.51100000000E-03 0. -1.
    9900012    2    1    2    0    0  0.88263900780E-01  0.96708936164E-01 -0.11730021735E+01  0.90007713072E+02  0.89999974084E+02 0.  0.
        -12    1    1    2    0    0 -0.88263900780E-01 -0.96708936164E-01  0.11730021735E+01  0.11802869285E+01  0.00000000000E+00 0.  1.
         11    1    3    3    0    0  0.14823296209E+02 -0.71403849162E+01 -0.38687420138E+02  0.42040833537E+02  0.51100000000E-03 0. -1.
        -11    1    3    3    0    0 -0.48093946368E+01  0.77318569687E+01 -0.54499538347E-01  0.91057596837E+01  0.51100000000E-03 0.  1.
        -12    1    3    3    0    0 -0.99256376713E+01 -0.49476311630E+00  0.37568917503E+02  0.38861119851E+02  0.00000000000E+00 0.  1.
</event>
<event>
 7    1  0.3752192E-015  0.9000775E+02  0.7816164E-02  0.1186339E+00
        -11   -1    0    0    0    0  0.00000000000E+00  0.00000000000E+00  0.45593999997E+02  0.45594000000E+02  0.51100000000E-03 0. -1.
         11   -1    0    0    0    0 -0.00000000000E+00 -0.00000000000E+00 -0.45593999997E+02  0.45594000000E+02  0.51100000000E-03 0.  1.
    9900012    2    1    2    0    0  0.99945751813E-01  0.69133914230E+00  0.95134259762E+00  0.90007749306E+02  0.90000010797E+02 0.  0.
        -12    1    1    2    0    0 -0.99945751813E-01 -0.69133914230E+00 -0.95134259762E+00  0.11802506941E+01  0.00000000000E+00 0.  1.
         11    1    3    3    0    0 -0.31240969935E+02 -0.23174761941E+02 -0.69445700746E+01  0.39513223701E+02  0.51100000000E-03 0. -1.
        -11    1    3    3    0    0  0.65596775595E+01 -0.73198996614E+01 -0.27110472408E+00  0.98327920130E+01  0.51100000000E-03 0.  1.
        -12    1    3    3    0    0  0.24781238127E+02  0.31186000745E+02  0.81670173963E+01  0.40661733592E+02  0.00000000000E+00 0.  1.
</event>
<event>
 7    1  0.3752192E-015  0.9000778E+02  0.7816164E-02  0.1186339E+00
        -11   -1    0    0    0    0  0.00000000000E+00  0.00000000000E+00  0.45593999997E+02  0.45594000000E+02  0.51100000000E-03 0. -1.
         11   -1    0    0    0    0 -0.00000000000E+00 -0.00000000000E+00 -0.45593999997E+02  0.45594000000E+02  0.51100000000E-03 0.  1.
    9900012    2    1    2    0    0  0.67148747546E+00 -0.54577336846E+00 -0.80259348746E+00  0.90007779552E+02  0.90000041442E+02 0.  0.
        -12    1    1    2    0    0 -0.67148747546E+00  0.54577336846E+00  0.80259348746E+00  0.11802204479E+01  0.00000000000E+00 0.  1.
         11    1    3    3    0    0 -0.86140155944E+01  0.15224137067E+00 -0.34734726501E+01  0.92892117323E+01  0.51100000000E-03 0. -1.
        -11    1    3    3    0    0 -0.32957513904E+01 -0.39615379705E+02  0.22513285118E+01  0.39815936090E+02  0.51100000000E-03 0.  1.
         12    1    3    3    0    0  0.12581254460E+02  0.38917364966E+02  0.41955065084E+00  0.40902631730E+02  0.00000000000E+00 0. -1.
</event>
<event>
 7    1  0.3752192E-015  0.9000761E+02  0.7816164E-02  0.1186339E+00
        -11   -1    0    0    0    0  0.00000000000E+00  0.00000000000E+00  0.45593999997E+02  0.45594000000E+02  0.51100000000E-03 0. -1.
         11   -1    0    0    0    0 -0.00000000000E+00 -0.00000000000E+00 -0.45593999997E+02  0.45594000000E+02  0.51100000000E-03 0.  1.
    9900012    2    1    2    0    0  0.11255189298E+00  0.95521781933E+00 -0.68425455784E+00  0.90007613067E+02  0.89999872760E+02 0.  0.
        -12    1    1    2    0    0 -0.11255189298E+00 -0.95521781933E+00  0.68425455784E+00  0.11803869327E+01  0.00000000000E+00 0.  1.
         11    1    3    3    0    0 -0.14742822102E+01 -0.99113780851E+01 -0.13837413516E+01  0.10115516001E+02  0.51100000000E-03 0. -1.
        -11    1    3    3    0    0 -0.12020630962E+02 -0.11253031822E+02 -0.33276510254E+02  0.37127515791E+02  0.51100000000E-03 0.  1.
         12    1    3    3    0    0  0.13607465065E+02  0.22119627726E+02  0.33975997047E+02  0.42764581275E+02  0.00000000000E+00 0. -1.
</event>
<event>
 7    1  0.3752192E-015  0.9000780E+02  0.7816164E-02  0.1186339E+00
        -11   -1    0    0    0    0  0.00000000000E+00  0.00000000000E+00  0.45593999997E+02  0.45594000000E+02  0.51100000000E-03 0.  1.
         11   -1    0    0    0    0 -0.00000000000E+00 -0.00000000000E+00 -0.45593999997E+02  0.45594000000E+02  0.51100000000E-03 0. -1.
    9900012    2    1    2    0    0  0.11352098233E+01  0.22320846186E+00 -0.23313735821E+00  0.90007798158E+02  0.90000060294E+02 0.  0.
        -12    1    1    2    0    0 -0.11352098233E+01 -0.22320846186E+00  0.23313735821E+00  0.11802018421E+01  0.00000000000E+00 0.  1.
         11    1    3    3    0    0  0.18366247158E+00  0.81375877011E+00  0.14407929064E+02  0.14432059985E+02  0.51100000000E-03 0. -1.
        -11    1    3    3    0    0  0.76960885753E+01  0.25385702134E+02  0.18935414280E+02  0.32591618039E+02  0.51100000000E-03 0.  1.
         12    1    3    3    0    0 -0.67445412236E+01 -0.25976252442E+02 -0.33576480703E+02  0.42984120133E+02  0.00000000000E+00 0. -1.
</event>
<event>
 7    1  0.3752192E-015  0.9000874E+02  0.7816164E-02  0.1186337E+00
        -11   -1    0    0    0    0  0.00000000000E+00  0.00000000000E+00  0.45593999997E+02  0.45594000000E+02  0.51100000000E-03 0.  1.
         11   -1    0    0    0    0 -0.00000000000E+00 -0.00000000000E+00 -0.45593999997E+02  0.45594000000E+02  0.51100000000E-03 0. -1.
    9900012    2    1    2    0    0  0.64997368185E+00 -0.87743601432E+00 -0.44531335262E+00  0.90008735938E+02  0.90001010447E+02 0.  0.
        -12    1    1    2    0    0 -0.64997368185E+00  0.87743601432E+00  0.44531335262E+00  0.11792640622E+01  0.00000000000E+00 0.  1.
         11    1    3    3    0    0  0.28507604500E+02 -0.41834076111E+01 -0.23900427557E+02  0.37435475838E+02  0.51100000000E-03 0. -1.
        -11    1    3    3    0    0  0.22794099973E+01 -0.92977160420E+01 -0.35292343746E+01  0.10202878470E+02  0.51100000000E-03 0.  1.
        -12    1    3    3    0    0 -0.30137040816E+02  0.12603687639E+02  0.26984348579E+02  0.42370381630E+02  0.00000000000E+00 0.  1.
</event>
<event>
 7    1  0.3752192E-015  0.9000768E+02  0.7816164E-02  0.1186339E+00
        -11   -1    0    0    0    0  0.00000000000E+00  0.00000000000E+00  0.45593999997E+02  0.45594000000E+02  0.51100000000E-03 0. -1.
         11   -1    0    0    0    0 -0.00000000000E+00 -0.00000000000E+00 -0.45593999997E+02  0.45594000000E+02  0.51100000000E-03 0.  1.
    9900012    2    1    2    0    0 -0.91927721785E+00 -0.33759282745E+00  0.65886839744E+00  0.90007683481E+02  0.89999944103E+02 0.  0.
        -12    1    1    2    0    0  0.91927721785E+00  0.33759282745E+00 -0.65886839744E+00  0.11803165192E+01  0.00000000000E+00 0.  1.
         11    1    3    3    0    0  0.11656737019E+02 -0.28052097347E+02  0.21361911959E+02  0.37136652599E+02  0.51100000000E-03 0. -1.
        -11    1    3    3    0    0  0.22160232148E+01  0.16863423010E+01  0.97660351862E+01  0.10155291860E+02  0.51100000000E-03 0.  1.
        -12    1    3    3    0    0 -0.14792037452E+02  0.26028162218E+02 -0.30469078747E+02  0.42715739021E+02  0.00000000000E+00 0.  1.
</event>
<event>
 7    1  0.3752192E-015  0.9000812E+02  0.7816164E-02  0.1186338E+00
        -11   -1    0    0    0    0  0.00000000000E+00  0.00000000000E+00  0.45593999997E+02  0.45594000000E+02  0.51100000000E-03 0. -1.
         11   -1    0    0    0    0 -0.00000000000E+00 -0.00000000000E+00 -0.45593999997E+02  0.45594000000E+02  0.51100000000E-03 0.  1.
    9900012    2    1    2    0    0  0.21467803674E+00  0.11600628536E+01 -0.16753101978E-01  0.90008121553E+02  0.90000387956E+02 0.  0.
        -12    1    1    2    0    0 -0.21467803674E+00 -0.11600628536E+01  0.16753101978E-01  0.11798784472E+01  0.00000000000E+00 0.  1.
         11    1    3    3    0    0  0.24919232200E+02  0.22186037565E+02  0.15841648982E+02  0.36934350394E+02  0.51100000000E-03 0. -1.
        -11    1    3    3    0    0  0.32489912874E+01 -0.80588239981E+01  0.97118144509E+01  0.13031497566E+02  0.51100000000E-03 0.  1.
        -12    1    3    3    0    0 -0.27953545451E+02 -0.12967150713E+02 -0.25570216535E+02  0.40042273593E+02  0.00000000000E+00 0.  1.
</event>
<event>
 7    1  0.3752192E-015  0.9000779E+02  0.7816164E-02  0.1186339E+00
        -11   -1    0    0    0    0  0.00000000000E+00  0.00000000000E+00  0.45593999997E+02  0.45594000000E+02  0.51100000000E-03 0.  1.
         11   -1    0    0    0    0 -0.00000000000E+00 -0.00000000000E+00 -0.45593999997E+02  0.45594000000E+02  0.51100000000E-03 0. -1.
    9900012    2    1    2    0    0  0.86302176531E-01 -0.27280003448E+00 -0.11450037211E+01  0.90007787542E+02  0.90000049538E+02 0.  0.
        -12    1    1    2    0    0 -0.86302176531E-01  0.27280003448E+00  0.11450037211E+01  0.11802124579E+01  0.00000000000E+00 0.  1.
         11    1    3    3    0    0 -0.31174907667E+02  0.44282373395E+01 -0.22851600456E+02  0.38906038062E+02  0.51100000000E-03 0. -1.
        -11    1    3    3    0    0  0.14076256844E+02  0.14158694392E+02  0.49282160967E+01  0.20564458364E+02  0.51100000000E-03 0.  1.
        -12    1    3    3    0    0  0.17184953000E+02 -0.18859731766E+02  0.16778380638E+02  0.30537291116E+02  0.00000000000E+00 0.  1.
</event>
<event>
 7    1  0.3752192E-015  0.9000860E+02  0.7816164E-02  0.1186337E+00
        -11   -1    0    0    0    0  0.00000000000E+00  0.00000000000E+00  0.45593999997E+02  0.45594000000E+02  0.51100000000E-03 0. -1.
         11   -1    0    0    0    0 -0.00000000000E+00 -0.00000000000E+00 -0.45593999997E+02  0.45594000000E+02  0.51100000000E-03 0.  1.
    9900012    2    1    2    0    0  0.46106355447E+00 -0.10308868700E+01  0.34011608459E+00  0.90008599181E+02  0.90000871886E+02 0.  0.
        -12    1    1    2    0    0 -0.46106355447E+00  0.10308868700E+01 -0.34011608459E+00  0.11794008186E+01  0.00000000000E+00 0.  1.
         11    1    3    3    0    0  0.68878406139E+01  0.33387569080E+02  0.51974148214E+01  0.34484565221E+02  0.51100000000E-03 0. -1.
        -11    1    3    3    0    0  0.58437803792E+01  0.84235771034E+01  0.19693103629E+01  0.10439569144E+02  0.51100000000E-03 0.  1.
        -12    1    3    3    0    0 -0.12270557439E+02 -0.42842033053E+02 -0.68266090996E+01  0.45084464817E+02  0.00000000000E+00 0.  1.
</event>
<event>
 7    1  0.6059569E-015  0.9000778E+02  0.7816164E-02  0.1186339E+00
        -11   -1    0    0    0    0  0.00000000000E+00  0.00000000000E+00  0.45593999997E+02  0.45594000000E+02  0.51100000000E-03 0.  1.
         11   -1    0    0    0    0 -0.00000000000E+00 -0.00000000000E+00 -0.45593999997E+02  0.45594000000E+02  0.51100000000E-03 0. -1.
    9900012    2    1    2    0    0 -0.10450736856E+01 -0.53978677602E+00  0.96807377567E-01  0.90007779495E+02  0.90000041384E+02 0.  0.
        -12    1    1    2    0    0  0.10450736856E+01  0.53978677602E+00 -0.96807377567E-01  0.11802205050E+01  0.00000000000E+00 0.  1.
         11    1    3    3    0    0  0.10855898569E+02  0.32154783551E+02  0.16658308779E+02  0.37805818211E+02  0.51100000000E-03 0. -1.
        -11    1    3    3    0    0  0.94001521655E+01  0.47477907678E+00  0.81674593576E-01  0.94124888795E+01  0.51100000000E-03 0.  1.
        -12    1    3    3    0    0 -0.21301124420E+02 -0.33169349404E+02 -0.16643175995E+02  0.42789472404E+02  0.00000000000E+00 0.  1.
</event>
<event>
 7    1  0.3752192E-015  0.9000772E+02  0.7816164E-02  0.1186339E+00
        -11   -1    0    0    0    0  0.00000000000E+00  0.00000000000E+00  0.45593999997E+02  0.45594000000E+02  0.51100000000E-03 0.  1.
         11   -1    0    0    0    0 -0.00000000000E+00 -0.00000000000E+00 -0.45593999997E+02  0.45594000000E+02  0.51100000000E-03 0. -1.
    9900012    2    1    2    0    0 -0.58672657987E+00 -0.66365822744E+00 -0.77998557141E+00  0.90007717062E+02  0.89999978127E+02 0.  0.
        -12    1    1    2    0    0  0.58672657987E+00  0.66365822744E+00  0.77998557141E+00  0.11802829381E+01  0.00000000000E+00 0.  1.
         11    1    3    3    0    0 -0.52907265327E+01 -0.43103724082E+01  0.98807020243E+01  0.12008304222E+02  0.51100000000E-03 0. -1.
        -11    1    3    3    0    0  0.22204989882E+02  0.34570184480E+01  0.27798008222E+02  0.35745514594E+02  0.51100000000E-03 0.  1.
         12    1    3    3    0    0 -0.17500989929E+02  0.18969573272E+00 -0.38458695818E+02  0.42253898246E+02  0.00000000000E+00 0. -1.
</event>
<event>
 7    1  0.3752192E-015  0.9000778E+02  0.7816164E-02  0.1186339E+00
        -11   -1    0    0    0    0  0.00000000000E+00  0.00000000000E+00  0.45593999997E+02  0.45594000000E+02  0.51100000000E-03 0. -1.
         11   -1    0    0    0    0 -0.00000000000E+00 -0.00000000000E+00 -0.45593999997E+02  0.45594000000E+02  0.51100000000E-03 0.  1.
    9900012    2    1    2    0    0  0.10276406278E+01  0.42728912413E+00  0.39280316803E+00  0.90007781552E+02  0.90000043469E+02 0.  0.
        -12    1    1    2    0    0 -0.10276406278E+01 -0.42728912413E+00 -0.39280316803E+00  0.11802184477E+01  0.00000000000E+00 0.  1.
         11    1    3    3    0    0  0.14265973152E+02  0.11856861266E+02  0.38819061175E+02  0.43023512872E+02  0.51100000000E-03 0. -1.
        -11    1    3    3    0    0 -0.69440889595E+01 -0.28609194182E+01 -0.42349702286E+00  0.75222723551E+01  0.51100000000E-03 0.  1.
        -12    1    3    3    0    0 -0.62942435645E+01 -0.85686527238E+01 -0.38002760984E+02  0.39461996325E+02  0.00000000000E+00 0.  1.
</event>
<event>
 7    1  0.3752192E-015  0.9000771E+02  0.7816164E-02  0.1186339E+00
        -11   -1    0    0    0    0  0.00000000000E+00  0.00000000000E+00  0.45593999997E+02  0.45594000000E+02  0.51100000000E-03 0. -1.
         11   -1    0    0    0    0 -0.00000000000E+00 -0.00000000000E+00 -0.45593999997E+02  0.45594000000E+02  0.51100000000E-03 0.  1.
    9900012    2    1    2    0    0 -0.30985035536E+00 -0.10381015955E+01  0.46843424624E+00  0.90007706474E+02  0.89999967399E+02 0.  0.
        -12    1    1    2    0    0  0.30985035536E+00  0.10381015955E+01 -0.46843424624E+00  0.11802935264E+01  0.00000000000E+00 0.  1.
         11    1    3    3    0    0  0.12817731025E+01 -0.65376891456E+01 -0.67635433146E+01  0.94936736872E+01  0.51100000000E-03 0. -1.
        -11    1    3    3    0    0  0.34455674385E+01  0.46483441578E+01 -0.36262171604E+02  0.36720894979E+02  0.51100000000E-03 0.  1.
         12    1    3    3    0    0 -0.50371908963E+01  0.85124339227E+00  0.43494149165E+02  0.43793137807E+02  0.00000000000E+00 0. -1.
</event>
<event>
 7    1  0.3752192E-015  0.9000758E+02  0.7816164E-02  0.1186339E+00
        -11   -1    0    0    0    0  0.00000000000E+00  0.00000000000E+00  0.45593999997E+02  0.45594000000E+02  0.51100000000E-03 0. -1.
         11   -1    0    0    0    0 -0.00000000000E+00 -0.00000000000E+00 -0.45593999997E+02  0.45594000000E+02  0.51100000000E-03 0.  1.
    9900012    2    1    2    0    0  0.87868480173E+00 -0.17542111120E+00  0.76846619153E+00  0.90007576417E+02  0.89999835626E+02 0.  0.
        -12    1    1    2    0    0 -0.87868480173E+00  0.17542111120E+00 -0.76846619153E+00  0.11804235827E+01  0.00000000000E+00 0.  1.
         11    1    3    3    0    0 -0.76424770626E+01  0.22981925370E+02  0.33701446346E+02  0.41501371489E+02  0.51100000000E-03 0. -1.
        -11    1    3    3    0    0  0.79620669885E+01 -0.13581507485E+02 -0.17016163659E+01  0.15835004099E+02  0.51100000000E-03 0.  1.
        -12    1    3    3    0    0  0.55909487589E+00 -0.95758389962E+01 -0.31231363788E+02  0.32671200829E+02  0.00000000000E+00 0.  1.
</event>
<event>
 7    1  0.3752192E-015  0.9000661E+02  0.7816164E-02  0.1186341E+00
        -11   -1    0    0    0    0  0.00000000000E+00  0.00000000000E+00  0.45593999997E+02  0.45594000000E+02  0.51100000000E-03 0.  1.
         11   -1    0    0    0    0 -0.00000000000E+00 -0.00000000000E+00 -0.45593999997E+02  0.45594000000E+02  0.51100000000E-03 0. -1.
    9900012    2    1    2    0    0  0.10443341885E+01  0.54561801241E-01 -0.54961365767E+00  0.90006608422E+02  0.89998854846E+02 0.  0.
        -12    1    1    2    0    0 -0.10443341885E+01 -0.54561801241E-01  0.54961365767E+00  0.11813915778E+01  0.00000000000E+00 0.  1.
         11    1    3    3    0    0 -0.85500963988E+01  0.38019102956E+01  0.19268478333E+01  0.95536073375E+01  0.51100000000E-03 0. -1.
        -11    1    3    3    0    0 -0.24788825773E+02 -0.28309788770E+02 -0.57732469887E+01  0.38069152925E+02  0.51100000000E-03 0.  1.
         12    1    3    3    0    0  0.34383256360E+02  0.24562440275E+02  0.32967854977E+01  0.42383848160E+02  0.00000000000E+00 0. -1.
</event>
<event>
 7    1  0.5313952E-015  0.9000766E+02  0.7816164E-02  0.1186339E+00
        -11   -1    0    0    0    0  0.00000000000E+00  0.00000000000E+00  0.45593999997E+02  0.45594000000E+02  0.51100000000E-03 0. -1.
         11   -1    0    0    0    0 -0.00000000000E+00 -0.00000000000E+00 -0.45593999997E+02  0.45594000000E+02  0.51100000000E-03 0.  1.
    9900012    2    1    2    0    0 -0.88207264195E+00  0.47863772025E-01  0.78285423527E+00  0.90007659439E+02  0.89999919744E+02 0.  0.
        -12    1    1    2    0    0  0.88207264195E+00 -0.47863772025E-01 -0.78285423527E+00  0.11803405610E+01  0.00000000000E+00 0.  1.
         11    1    3    3    0    0 -0.62265385607E+01  0.32691914886E+00 -0.64894803239E+01  0.89994451892E+01  0.51100000000E-03 0. -1.
        -11    1    3    3    0    0  0.24207848096E+02  0.23670564343E+02 -0.20658003747E+02  0.39661929413E+02  0.51100000000E-03 0.  1.
         12    1    3    3    0    0 -0.18863382177E+02 -0.23949619720E+02  0.27930338306E+02  0.41346284836E+02  0.00000000000E+00 0. -1.
</event>
<event>
 7    1  0.3752192E-015  0.9000770E+02  0.7816164E-02  0.1186339E+00
        -11   -1    0    0    0    0  0.00000000000E+00  0.00000000000E+00  0.45593999997E+02  0.45594000000E+02  0.51100000000E-03 0. -1.
         11   -1    0    0    0    0 -0.00000000000E+00 -0.00000000000E+00 -0.45593999997E+02  0.45594000000E+02  0.51100000000E-03 0.  1.
    9900012    2    1    2    0    0  0.72100091551E+00 -0.82002563747E+00  0.44812186519E+00  0.90007704456E+02  0.89999965354E+02 0.  0.
        -12    1    1    2    0    0 -0.72100091551E+00  0.82002563747E+00 -0.44812186519E+00  0.11802955445E+01  0.00000000000E+00 0.  1.
         11    1    3    3    0    0  0.56337517662E+01 -0.58331718137E+01  0.11513304988E+01  0.81908860662E+01  0.51100000000E-03 0. -1.
        -11    1    3    3    0    0 -0.50974585781E+01 -0.34177619040E+02 -0.18018113517E+02  0.38971093675E+02  0.51100000000E-03 0.  1.
         12    1    3    3    0    0  0.18470772739E+00  0.39190765217E+02  0.17314904883E+02  0.42845724715E+02  0.00000000000E+00 0. -1.
</event>
<event>
 7    1  0.3752192E-015  0.9000765E+02  0.7816164E-02  0.1186339E+00
        -11   -1    0    0    0    0  0.00000000000E+00  0.00000000000E+00  0.45593999997E+02  0.45594000000E+02  0.51100000000E-03 0. -1.
         11   -1    0    0    0    0 -0.00000000000E+00 -0.00000000000E+00 -0.45593999997E+02  0.45594000000E+02  0.51100000000E-03 0.  1.
    9900012    2    1    2    0    0 -0.74438635752E+00  0.66509289177E+00  0.62988811093E+00  0.90007653171E+02  0.89999913393E+02 0.  0.
        -12    1    1    2    0    0  0.74438635752E+00 -0.66509289177E+00 -0.62988811093E+00  0.11803468288E+01  0.00000000000E+00 0.  1.
         11    1    3    3    0    0  0.20455189557E+01  0.25848830979E+01  0.32668552301E+01  0.46409171274E+01  0.51100000000E-03 0. -1.
        -11    1    3    3    0    0  0.98510297914E+01  0.39321986976E+02  0.70786334337E+01  0.41150558918E+02  0.51100000000E-03 0.  1.
         12    1    3    3    0    0 -0.12640935105E+02 -0.41241777183E+02 -0.97156005529E+01  0.44216177126E+02  0.00000000000E+00 0. -1.
</event>
<event>
 7    1  0.3752192E-015  0.9000764E+02  0.7816164E-02  0.1186339E+00
        -11   -1    0    0    0    0  0.00000000000E+00  0.00000000000E+00  0.45593999997E+02  0.45594000000E+02  0.51100000000E-03 0. -1.
         11   -1    0    0    0    0 -0.00000000000E+00 -0.00000000000E+00 -0.45593999997E+02  0.45594000000E+02  0.51100000000E-03 0.  1.
    9900012    2    1    2    0    0  0.76318607879E+00  0.77879776639E+00  0.45196967893E+00  0.90007637538E+02  0.89999897553E+02 0.  0.
        -12    1    1    2    0    0 -0.76318607879E+00 -0.77879776639E+00 -0.45196967893E+00  0.11803624623E+01  0.00000000000E+00 0.  1.
         11    1    3    3    0    0 -0.18167051261E+02 -0.31464185596E+02 -0.17265648653E+01  0.36373311002E+02  0.51100000000E-03 0. -1.
        -11    1    3    3    0    0 -0.97033381240E+01 -0.95425053317E+00  0.38831219992E+00  0.97578763804E+01  0.51100000000E-03 0.  1.
        -12    1    3    3    0    0  0.28633575464E+02  0.33197233896E+02  0.17902223443E+01  0.43876450155E+02  0.00000000000E+00 0.  1.
</event>
<event>
 7    1  0.3752192E-015  0.9000776E+02  0.7816164E-02  0.1186339E+00
        -11   -1    0    0    0    0  0.00000000000E+00  0.00000000000E+00  0.45593999997E+02  0.45594000000E+02  0.51100000000E-03 0.  1.
         11   -1    0    0    0    0 -0.00000000000E+00 -0.00000000000E+00 -0.45593999997E+02  0.45594000000E+02  0.51100000000E-03 0. -1.
    9900012    2    1    2    0    0 -0.34176080207E+00  0.95818932783E+00 -0.59835563592E+00  0.90007764133E+02  0.90000025820E+02 0.  0.
        -12    1    1    2    0    0  0.34176080207E+00 -0.95818932783E+00  0.59835563592E+00  0.11802358666E+01  0.00000000000E+00 0.  1.
         11    1    3    3    0    0 -0.35035389339E+01  0.39693985013E+02  0.21014852830E+01  0.39903677424E+02  0.51100000000E-03 0. -1.
        -11    1    3    3    0    0  0.41412760821E+00  0.20617408380E+01 -0.85436551241E+01  0.87986544483E+01  0.51100000000E-03 0.  1.
        -12    1    3    3    0    0  0.27476505236E+01 -0.40797536524E+02  0.58438142052E+01  0.41305432261E+02  0.00000000000E+00 0.  1.
</event>
<event>
 7    1  0.3752192E-015  0.9000764E+02  0.7816164E-02  0.1186339E+00
        -11   -1    0    0    0    0  0.00000000000E+00  0.00000000000E+00  0.45593999997E+02  0.45594000000E+02  0.51100000000E-03 0.  1.
         11   -1    0    0    0    0 -0.00000000000E+00 -0.00000000000E+00 -0.45593999997E+02  0.45594000000E+02  0.51100000000E-03 0. -1.
    9900012    2    1    2    0    0  0.11625915667E+01  0.17188345641E+00  0.10997572152E+00  0.90007636610E+02  0.89999896613E+02 0.  0.
        -12    1    1    2    0    0 -0.11625915667E+01 -0.17188345641E+00 -0.10997572152E+00  0.11803633902E+01  0.00000000000E+00 0.  1.
         11    1    3    3    0    0  0.20629054848E+01  0.48077510649E+01  0.77273451985E+01  0.93317690402E+01  0.51100000000E-03 0. -1.
        -11    1    3    3    0    0 -0.16669271737E+02 -0.16535847570E+02  0.30054209221E+02  0.38138620416E+02  0.51100000000E-03 0.  1.
         12    1    3    3    0    0  0.15768957819E+02  0.11899979962E+02 -0.37671578698E+02  0.42537247153E+02  0.00000000000E+00 0. -1.
</event>
<event>
 7    1  0.3752192E-015  0.9000773E+02  0.7816164E-02  0.1186339E+00
        -11   -1    0    0    0    0  0.00000000000E+00  0.00000000000E+00  0.45593999997E+02  0.45594000000E+02  0.51100000000E-03 0.  1.
         11   -1    0    0    0    0 -0.00000000000E+00 -0.00000000000E+00 -0.45593999997E+02  0.45594000000E+02  0.51100000000E-03 0. -1.
    9900012    2    1    2    0    0 -0.60485256195E+00  0.97586369370E+00 -0.27365006676E+00  0.90007728451E+02  0.89999989667E+02 0.  0.
        -12    1    1    2    0    0  0.60485256195E+00 -0.97586369370E+00  0.27365006676E+00  0.11802715490E+01  0.00000000000E+00 0.  1.
         11    1    3    3    0    0  0.80101869460E+00  0.88380778035E-01  0.10254261567E+02  0.10285879771E+02  0.51100000000E-03 0. -1.
        -11    1    3    3    0    0 -0.40046641698E+02  0.44826968857E+00 -0.90024183477E+01  0.41048483448E+02  0.51100000000E-03 0.  1.
         12    1    3    3    0    0  0.38640770442E+02  0.43921322710E+00 -0.15254932864E+01  0.38673365232E+02  0.00000000000E+00 0. -1.
</event>
<event>
 7    1  0.3752192E-015  0.9000774E+02  0.7816164E-02  0.1186339E+00
        -11   -1    0    0    0    0  0.00000000000E+00  0.00000000000E+00  0.45593999997E+02  0.45594000000E+02  0.51100000000E-03 0. -1.
         11   -1    0    0    0    0 -0.00000000000E+00 -0.00000000000E+00 -0.45593999997E+02  0.45594000000E+02  0.51100000000E-03 0.  1.
    9900012    2    1    2    0    0  0.65827277745E+00  0.71931860663E+00 -0.66503942037E+00  0.90007737428E+02  0.89999998762E+02 0.  0.
        -12    1    1    2    0    0 -0.65827277745E+00 -0.71931860663E+00  0.66503942037E+00  0.11802625716E+01  0.00000000000E+00 0.  1.
         11    1    3    3    0    0 -0.91216984587E+01  0.34036687817E+01  0.18805987963E+01  0.99159969766E+01  0.51100000000E-03 0. -1.
        -11    1    3    3    0    0 -0.21154615661E+02  0.88641937739E+01 -0.29569939819E+02  0.37422894546E+02  0.51100000000E-03 0.  1.
         12    1    3    3    0    0  0.30934586898E+02 -0.11548543949E+02  0.27024301602E+02  0.42668845906E+02  0.00000000000E+00 0. -1.
</event>
<event>
 7    1  0.3752192E-015  0.9000774E+02  0.7816164E-02  0.1186339E+00
        -11   -1    0    0    0    0  0.00000000000E+00  0.00000000000E+00  0.45593999997E+02  0.45594000000E+02  0.51100000000E-03 0.  1.
         11   -1    0    0    0    0 -0.00000000000E+00 -0.00000000000E+00 -0.45593999997E+02  0.45594000000E+02  0.51100000000E-03 0. -1.
    9900012    2    1    2    0    0 -0.60397865567E+00  0.92946527911E+00 -0.40537409841E+00  0.90007735588E+02  0.89999996898E+02 0.  0.
        -12    1    1    2    0    0  0.60397865567E+00 -0.92946527911E+00  0.40537409841E+00  0.11802644116E+01  0.00000000000E+00 0.  1.
         11    1    3    3    0    0  0.15221982441E+01  0.10737270503E+02 -0.13295669779E+02  0.17157531888E+02  0.51100000000E-03 0. -1.
        -11    1    3    3    0    0 -0.28444119504E+02  0.17439120916E+02  0.19553625689E+01  0.33421764102E+02  0.51100000000E-03 0.  1.
         12    1    3    3    0    0  0.26317942604E+02 -0.27246926140E+02  0.10934933112E+02  0.39428439598E+02  0.00000000000E+00 0. -1.
</event>
<event>
 7    1  0.3752192E-015  0.9000772E+02  0.7816164E-02  0.1186339E+00
        -11   -1    0    0    0    0  0.00000000000E+00  0.00000000000E+00  0.45593999997E+02  0.45594000000E+02  0.51100000000E-03 0.  1.
         11   -1    0    0    0    0 -0.00000000000E+00 -0.00000000000E+00 -0.45593999997E+02  0.45594000000E+02  0.51100000000E-03 0. -1.
    9900012    2    1    2    0    0 -0.14220295566E+00 -0.70244788303E+00 -0.93776161888E+00  0.90007723946E+02  0.89999985102E+02 0.  0.
        -12    1    1    2    0    0  0.14220295566E+00  0.70244788303E+00  0.93776161888E+00  0.11802760537E+01  0.00000000000E+00 0.  1.
         11    1    3    3    0    0 -0.37587828481E+02  0.54282499571E+01 -0.45194395430E+01  0.38245732854E+02  0.51100000000E-03 0. -1.
        -11    1    3    3    0    0  0.61661824232E+01  0.12260788547E+02 -0.47668316658E+01  0.14528297418E+02  0.51100000000E-03 0.  1.
        -12    1    3    3    0    0  0.31279443102E+02 -0.18391486387E+02  0.83485095898E+01  0.37233693675E+02  0.00000000000E+00 0.  1.
</event>
<event>
 7    1  0.3752192E-015  0.9000776E+02  0.7816164E-02  0.1186339E+00
        -11   -1    0    0    0    0  0.00000000000E+00  0.00000000000E+00  0.45593999997E+02  0.45594000000E+02  0.51100000000E-03 0.  1.
         11   -1    0    0    0    0 -0.00000000000E+00 -0.00000000000E+00 -0.45593999997E+02  0.45594000000E+02  0.51100000000E-03 0. -1.
    9900012    2    1    2    0    0  0.10318603820E+01  0.46802699565E+00  0.33043933806E+00  0.90007756266E+02  0.90000017848E+02 0.  0.
        -12    1    1    2    0    0 -0.10318603820E+01 -0.46802699565E+00 -0.33043933806E+00  0.11802437345E+01  0.00000000000E+00 0.  1.
         11    1    3    3    0    0  0.18408920385E+02 -0.33361506983E+02 -0.81333819766E+01  0.38961909611E+02  0.51100000000E-03 0. -1.
        -11    1    3    3    0    0  0.93747280099E+01  0.37910962393E+01  0.14752249401E+01  0.10219306475E+02  0.51100000000E-03 0.  1.
        -12    1    3    3    0    0 -0.26751788013E+02  0.30038437739E+02  0.69885963746E+01  0.40826540179E+02  0.00000000000E+00 0.  1.
</event>
<event>
 7    1  0.3752192E-015  0.9000820E+02  0.7816164E-02  0.1186338E+00
        -11   -1    0    0    0    0  0.00000000000E+00  0.00000000000E+00  0.45593999997E+02  0.45594000000E+02  0.51100000000E-03 0.  1.
         11   -1    0    0    0    0 -0.00000000000E+00 -0.00000000000E+00 -0.45593999997E+02  0.45594000000E+02  0.51100000000E-03 0. -1.
    9900012    2    1    2    0    0  0.67304500264E+00 -0.77439517435E+00 -0.58246215681E+00  0.90008195090E+02  0.90000462464E+02 0.  0.
        -12    1    1    2    0    0 -0.67304500264E+00  0.77439517435E+00  0.58246215681E+00  0.11798049100E+01  0.00000000000E+00 0.  1.
         11    1    3    3    0    0 -0.31275643941E+02  0.91552217957E+01  0.68106967590E+01  0.33292184979E+02  0.51100000000E-03 0. -1.
        -11    1    3    3    0    0 -0.73012348310E+01  0.98529010461E+01 -0.21617559795E+01  0.12452344288E+02  0.51100000000E-03 0.  1.
        -12    1    3    3    0    0  0.39249923775E+02 -0.19782518016E+02 -0.52314029363E+01  0.44263665823E+02  0.00000000000E+00 0.  1.
</event>
<event>
 7    1  0.3752192E-015  0.9000773E+02  0.7816164E-02  0.1186339E+00
        -11   -1    0    0    0    0  0.00000000000E+00  0.00000000000E+00  0.45593999997E+02  0.45594000000E+02  0.51100000000E-03 0. -1.
         11   -1    0    0    0    0 -0.00000000000E+00 -0.00000000000E+00 -0.45593999997E+02  0.45594000000E+02  0.51100000000E-03 0.  1.
    9900012    2    1    2    0    0 -0.54297908191E+00 -0.97210959581E+00  0.39143775248E+00  0.90007725937E+02  0.89999987119E+02 0.  0.
        -12    1    1    2    0    0  0.54297908191E+00  0.97210959581E+00 -0.39143775248E+00  0.11802740630E+01  0.00000000000E+00 0.  1.
         11    1    3    3    0    0  0.39757678162E+01  0.38331108339E+02  0.11752286633E+02  0.40288917057E+02  0.51100000000E-03 0. -1.
        -11    1    3    3    0    0 -0.97735599613E+00 -0.57830850360E+01  0.87013032987E+01  0.10493425400E+02  0.51100000000E-03 0.  1.
        -12    1    3    3    0    0 -0.35413909020E+01 -0.33520132899E+02 -0.20062152179E+02  0.39225383480E+02  0.00000000000E+00 0.  1.
</event>
<event>
 7    1  0.3752192E-015  0.9000774E+02  0.7816164E-02  0.1186339E+00
        -11   -1    0    0    0    0  0.00000000000E+00  0.00000000000E+00  0.45593999997E+02  0.45594000000E+02  0.51100000000E-03 0. -1.
         11   -1    0    0    0    0 -0.00000000000E+00 -0.00000000000E+00 -0.45593999997E+02  0.45594000000E+02  0.51100000000E-03 0.  1.
    9900012    2    1    2    0    0 -0.73329895640E+00 -0.84572128008E+00 -0.37422141755E+00  0.90007740066E+02  0.90000001435E+02 0.  0.
        -12    1    1    2    0    0  0.73329895640E+00  0.84572128008E+00  0.37422141755E+00  0.11802599342E+01  0.00000000000E+00 0.  1.
         11    1    3    3    0    0 -0.62157893476E+01 -0.30213633854E+02  0.27458950266E+02  0.41297622908E+02  0.51100000000E-03 0. -1.
        -11    1    3    3    0    0 -0.83208172380E+01  0.39082416943E+01 -0.10316212099E+01  0.92506537732E+01  0.51100000000E-03 0.  1.
        -12    1    3    3    0    0  0.13803307629E+02  0.25459670879E+02 -0.26801550474E+02  0.39459463385E+02  0.00000000000E+00 0.  1.
</event>
<event>
 7    1  0.3752192E-015  0.9000781E+02  0.7816164E-02  0.1186339E+00
        -11   -1    0    0    0    0  0.00000000000E+00  0.00000000000E+00  0.45593999997E+02  0.45594000000E+02  0.51100000000E-03 0.  1.
         11   -1    0    0    0    0 -0.00000000000E+00 -0.00000000000E+00 -0.45593999997E+02  0.45594000000E+02  0.51100000000E-03 0. -1.
    9900012    2    1    2    0    0 -0.49068994131E+00  0.28827512075E+00 -0.10339062922E+01  0.90007812987E+02  0.90000075319E+02 0.  0.
        -12    1    1    2    0    0  0.49068994131E+00 -0.28827512075E+00  0.10339062922E+01  0.11801870126E+01  0.00000000000E+00 0.  1.
         11    1    3    3    0    0 -0.20204143246E+01  0.41781105779E+01 -0.10037122757E+02  0.11058142499E+02  0.51100000000E-03 0. -1.
        -11    1    3    3    0    0 -0.12821670432E+02 -0.35546045563E+02  0.19658780377E+02  0.42595589373E+02  0.51100000000E-03 0.  1.
         12    1    3    3    0    0  0.14351394816E+02  0.31656210106E+02 -0.10655563912E+02  0.36354081115E+02  0.00000000000E+00 0. -1.
</event>
<event>
 7    1  0.3752192E-015  0.9000772E+02  0.7816164E-02  0.1186339E+00
        -11   -1    0    0    0    0  0.00000000000E+00  0.00000000000E+00  0.45593999997E+02  0.45594000000E+02  0.51100000000E-03 0.  1.
         11   -1    0    0    0    0 -0.00000000000E+00 -0.00000000000E+00 -0.45593999997E+02  0.45594000000E+02  0.51100000000E-03 0. -1.
    9900012    2    1    2    0    0  0.44931331082E+00  0.89999207088E+00 -0.61740205577E+00  0.90007723135E+02  0.89999984281E+02 0.  0.
        -12    1    1    2    0    0 -0.44931331082E+00 -0.89999207088E+00  0.61740205577E+00  0.11802768647E+01  0.00000000000E+00 0.  1.
         11    1    3    3    0    0  0.33930637299E+02 -0.13361813601E+02 -0.11767735433E+02  0.38318478672E+02  0.51100000000E-03 0. -1.
        -11    1    3    3    0    0  0.33066348564E+01  0.68239112453E+01 -0.67087398929E+01  0.10124563693E+02  0.51100000000E-03 0.  1.
        -12    1    3    3    0    0 -0.36787958845E+02  0.74378944271E+01  0.17859073270E+02  0.41564680770E+02  0.00000000000E+00 0.  1.
</event>
<event>
 7    1  0.3752192E-015  0.9000772E+02  0.7816164E-02  0.1186339E+00
        -11   -1    0    0    0    0  0.00000000000E+00  0.00000000000E+00  0.45593999997E+02  0.45594000000E+02  0.51100000000E-03 0. -1.
         11   -1    0    0    0    0 -0.00000000000E+00 -0.00000000000E+00 -0.45593999997E+02  0.45594000000E+02  0.51100000000E-03 0.  1.
    9900012    2    1    2    0    0  0.63427388865E+00 -0.86140379369E+00  0.49874079558E+00  0.90007719422E+02  0.89999980518E+02 0.  0.
        -12    1    1    2    0    0 -0.63427388865E+00  0.86140379369E+00 -0.49874079558E+00  0.11802805780E+01  0.00000000000E+00 0.  1.
         11    1    3    3    0    0  0.10027466226E+02  0.46686128819E+01  0.32175823047E+01  0.11519499178E+02  0.51100000000E-03 0. -1.
        -11    1    3    3    0    0 -0.15806212995E+02 -0.11938812466E+02 -0.37572702086E+02  0.42474457673E+02  0.51100000000E-03 0.  1.
         12    1    3    3    0    0  0.64130206571E+01  0.64087957904E+01  0.34853860577E+02  0.36013762571E+02  0.00000000000E+00 0. -1.
</event>
<event>
 7    1  0.3752192E-015  0.9000772E+02  0.7816164E-02  0.1186339E+00
        -11   -1    0    0    0    0  0.00000000000E+00  0.00000000000E+00  0.45593999997E+02  0.45594000000E+02  0.51100000000E-03 0.  1.
         11   -1    0    0    0    0 -0.00000000000E+00 -0.00000000000E+00 -0.45593999997E+02  0.45594000000E+02  0.51100000000E-03 0. -1.
    9900012    2    1    2    0    0 -0.83076181649E+00  0.44859015420E+00 -0.70828402104E+00  0.90007718433E+02  0.89999979517E+02 0.  0.
        -12    1    1    2    0    0  0.83076181649E+00 -0.44859015420E+00  0.70828402104E+00  0.11802815667E+01  0.00000000000E+00 0.  1.
         11    1    3    3    0    0  0.35254230205E+01 -0.92765476419E+00  0.48639774209E+01  0.60784395569E+01  0.51100000000E-03 0. -1.
        -11    1    3    3    0    0  0.22500127720E+02 -0.32733444187E+02 -0.77146458155E+01  0.40462944481E+02  0.51100000000E-03 0.  1.
         12    1    3    3    0    0 -0.26856312557E+02  0.34109689105E+02  0.21423843735E+01  0.43466334396E+02  0.00000000000E+00 0. -1.
</event>
<event>
 7    1  0.3752192E-015  0.9000786E+02  0.7816164E-02  0.1186339E+00
        -11   -1    0    0    0    0  0.00000000000E+00  0.00000000000E+00  0.45593999997E+02  0.45594000000E+02  0.51100000000E-03 0.  1.
         11   -1    0    0    0    0 -0.00000000000E+00 -0.00000000000E+00 -0.45593999997E+02  0.45594000000E+02  0.51100000000E-03 0. -1.
    9900012    2    1    2    0    0 -0.23488068597E+00 -0.80808607646E+00 -0.82737336638E+00  0.90007864952E+02  0.90000127969E+02 0.  0.
        -12    1    1    2    0    0  0.23488068597E+00  0.80808607646E+00  0.82737336638E+00  0.11801350478E+01  0.00000000000E+00 0.  1.
         11    1    3    3    0    0  0.52177515022E+01 -0.98531863292E+01 -0.56359583272E+00  0.11163684522E+02  0.51100000000E-03 0. -1.
        -11    1    3    3    0    0  0.24076377027E+02 -0.12445528388E+02  0.22996731228E+02  0.35544517932E+02  0.51100000000E-03 0.  1.
         12    1    3    3    0    0 -0.29529009215E+02  0.21490628640E+02 -0.23260508762E+02  0.43299662498E+02  0.00000000000E+00 0. -1.
</event>
<event>
 7    1  0.3752192E-015  0.9000774E+02  0.7816164E-02  0.1186339E+00
        -11   -1    0    0    0    0  0.00000000000E+00  0.00000000000E+00  0.45593999997E+02  0.45594000000E+02  0.51100000000E-03 0.  1.
         11   -1    0    0    0    0 -0.00000000000E+00 -0.00000000000E+00 -0.45593999997E+02  0.45594000000E+02  0.51100000000E-03 0. -1.
    9900012    2    1    2    0    0  0.10478237699E+01 -0.54069003151E+00  0.52188386910E-01  0.90007744100E+02  0.90000005522E+02 0.  0.
        -12    1    1    2    0    0 -0.10478237699E+01  0.54069003151E+00 -0.52188386910E-01  0.11802559005E+01  0.00000000000E+00 0.  1.
         11    1    3    3    0    0  0.41713974201E+02  0.10472113110E+02  0.98168914986E+01  0.44114534517E+02  0.51100000000E-03 0. -1.
        -11    1    3    3    0    0 -0.75541583203E+01  0.35794970289E+01  0.19904681860E+00  0.83616820560E+01  0.51100000000E-03 0.  1.
        -12    1    3    3    0    0 -0.33111992111E+02 -0.14592300171E+02 -0.99637499303E+01  0.37531527527E+02  0.00000000000E+00 0.  1.
</event>
<event>
 7    1  0.3752192E-015  0.9000764E+02  0.7816164E-02  0.1186339E+00
        -11   -1    0    0    0    0  0.00000000000E+00  0.00000000000E+00  0.45593999997E+02  0.45594000000E+02  0.51100000000E-03 0.  1.
         11   -1    0    0    0    0 -0.00000000000E+00 -0.00000000000E+00 -0.45593999997E+02  0.45594000000E+02  0.51100000000E-03 0. -1.
    9900012    2    1    2    0    0  0.24597186707E-01 -0.42575824001E+00 -0.11006271523E+01  0.90007637671E+02  0.89999897688E+02 0.  0.
        -12    1    1    2    0    0 -0.24597186707E-01  0.42575824001E+00  0.11006271523E+01  0.11803623295E+01  0.00000000000E+00 0.  1.
         11    1    3    3    0    0 -0.81165021578E+01  0.32230019130E+01  0.55594267504E+01  0.10352418783E+02  0.51100000000E-03 0. -1.
        -11    1    3    3    0    0 -0.21811801903E+02 -0.31573621913E+02 -0.18047356237E+01  0.38417513895E+02  0.51100000000E-03 0.  1.
         12    1    3    3    0    0  0.29952901248E+02  0.27924861760E+02 -0.48553182789E+01  0.41237704992E+02  0.00000000000E+00 0. -1.
</event>
<event>
 7    1  0.3752192E-015  0.9000766E+02  0.7816164E-02  0.1186339E+00
        -11   -1    0    0    0    0  0.00000000000E+00  0.00000000000E+00  0.45593999997E+02  0.45594000000E+02  0.51100000000E-03 0.  1.
         11   -1    0    0    0    0 -0.00000000000E+00 -0.00000000000E+00 -0.45593999997E+02  0.45594000000E+02  0.51100000000E-03 0. -1.
    9900012    2    1    2    0    0  0.54908556213E+00  0.59748742834E+00 -0.85715055448E+00  0.90007663923E+02  0.89999924287E+02 0.  0.
        -12    1    1    2    0    0 -0.54908556213E+00 -0.59748742834E+00  0.85715055448E+00  0.11803360770E+01  0.00000000000E+00 0.  1.
         11    1    3    3    0    0 -0.33784335159E+01  0.20733225314E+01  0.73850584737E+01  0.83816208613E+01  0.51100000000E-03 0. -1.
        -11    1    3    3    0    0  0.26068273764E+02  0.28162281966E+02  0.11007075249E+02  0.39922734480E+02  0.51100000000E-03 0.  1.
         12    1    3    3    0    0 -0.22140754686E+02 -0.29638117069E+02 -0.19249284277E+02  0.41703308582E+02  0.00000000000E+00 0. -1.
</event>
<event>
 7    1  0.3752192E-015  0.9000786E+02  0.7816164E-02  0.1186339E+00
        -11   -1    0    0    0    0  0.00000000000E+00  0.00000000000E+00  0.45593999997E+02  0.45594000000E+02  0.51100000000E-03 0.  1.
         11   -1    0    0    0    0 -0.00000000000E+00 -0.00000000000E+00 -0.45593999997E+02  0.45594000000E+02  0.51100000000E-03 0. -1.
    9900012    2    1    2    0    0  0.10734863872E+01 -0.41609136024E+00 -0.25929148586E+00  0.90007857162E+02  0.90000120076E+02 0.  0.
        -12    1    1    2    0    0 -0.10734863872E+01  0.41609136024E+00  0.25929148586E+00  0.11801428380E+01  0.00000000000E+00 0.  1.
         11    1    3    3    0    0 -0.50863001224E+01 -0.65989161382E+01 -0.43136255005E+01  0.93820844354E+01  0.51100000000E-03 0. -1.
        -11    1    3    3    0    0  0.18877506892E+02 -0.33710109926E+02  0.27687892673E+01  0.38734970917E+02  0.51100000000E-03 0.  1.
         12    1    3    3    0    0 -0.12717720382E+02  0.39892934704E+02  0.12855447473E+01  0.41890801810E+02  0.00000000000E+00 0. -1.
</event>
<event>
 7    1  0.3752192E-015  0.9000775E+02  0.7816164E-02  0.1186339E+00
        -11   -1    0    0    0    0  0.00000000000E+00  0.00000000000E+00  0.45593999997E+02  0.45594000000E+02  0.51100000000E-03 0. -1.
         11   -1    0    0    0    0 -0.00000000000E+00 -0.00000000000E+00 -0.45593999997E+02  0.45594000000E+02  0.51100000000E-03 0.  1.
    9900012    2    1    2    0    0  0.68906223180E-01 -0.10310021955E+01  0.57032092599E+00  0.90007754452E+02  0.90000016011E+02 0.  0.
        -12    1    1    2    0    0 -0.68906223180E-01  0.10310021955E+01 -0.57032092599E+00  0.11802455479E+01  0.00000000000E+00 0.  1.
         11    1    3    3    0    0 -0.27124707280E+02  0.20850900893E+02  0.15580234387E+02  0.37593264249E+02  0.51100000000E-03 0. -1.
        -11    1    3    3    0    0  0.25904944584E+01  0.78641564308E+01  0.42137169881E+01  0.92903729216E+01  0.51100000000E-03 0.  1.
        -12    1    3    3    0    0  0.24603119045E+02 -0.29746059519E+02 -0.19223630449E+02  0.43124117281E+02  0.00000000000E+00 0.  1.
</event>
<event>
 7    1  0.3752192E-015  0.9000771E+02  0.7816164E-02  0.1186339E+00
        -11   -1    0    0    0    0  0.00000000000E+00  0.00000000000E+00  0.45593999997E+02  0.45594000000E+02  0.51100000000E-03 0.  1.
         11   -1    0    0    0    0 -0.00000000000E+00 -0.00000000000E+00 -0.45593999997E+02  0.45594000000E+02  0.51100000000E-03 0. -1.
    9900012    2    1    2    0    0  0.10808845291E+01 -0.20785620877E+00 -0.42610279552E+00  0.90007712255E+02  0.89999973257E+02 0.  0.
        -12    1    1    2    0    0 -0.10808845291E+01  0.20785620877E+00  0.42610279552E+00  0.11802877450E+01  0.00000000000E+00 0.  1.
         11    1    3    3    0    0  0.12413874729E+02 -0.12572821818E+02 -0.29890146529E+01  0.17919663588E+02  0.51100000000E-03 0. -1.
        -11    1    3    3    0    0  0.27430488844E+02  0.15515264264E+02  0.87527387468E+01  0.32707271045E+02  0.51100000000E-03 0.  1.
         12    1    3    3    0    0 -0.38763479044E+02 -0.31502986549E+01 -0.61898268894E+01  0.39380777622E+02  0.00000000000E+00 0. -1.
</event>
<event>
 7    1  0.3752192E-015  0.9000774E+02  0.7816164E-02  0.1186339E+00
        -11   -1    0    0    0    0  0.00000000000E+00  0.00000000000E+00  0.45593999997E+02  0.45594000000E+02  0.51100000000E-03 0.  1.
         11   -1    0    0    0    0 -0.00000000000E+00 -0.00000000000E+00 -0.45593999997E+02  0.45594000000E+02  0.51100000000E-03 0. -1.
    9900012    2    1    2    0    0 -0.94008818563E+00 -0.69272299358E+00 -0.17138993194E+00  0.90007743481E+02  0.90000004895E+02 0.  0.
        -12    1    1    2    0    0  0.94008818563E+00  0.69272299358E+00  0.17138993194E+00  0.11802565193E+01  0.00000000000E+00 0.  1.
         11    1    3    3    0    0  0.58245746010E+01  0.60484775549E+01  0.14466174743E+01  0.85207072707E+01  0.51100000000E-03 0. -1.
        -11    1    3    3    0    0 -0.27686754956E+02  0.28933963251E+02  0.85290803550E+00  0.40055687258E+02  0.51100000000E-03 0.  1.
         12    1    3    3    0    0  0.20922092169E+02 -0.35675163799E+02 -0.24709154418E+01  0.41431348952E+02  0.00000000000E+00 0. -1.
</event>
<event>
 7    1  0.3752192E-015  0.9000773E+02  0.7816164E-02  0.1186339E+00
        -11   -1    0    0    0    0  0.00000000000E+00  0.00000000000E+00  0.45593999997E+02  0.45594000000E+02  0.51100000000E-03 0.  1.
         11   -1    0    0    0    0 -0.00000000000E+00 -0.00000000000E+00 -0.45593999997E+02  0.45594000000E+02  0.51100000000E-03 0. -1.
    9900012    2    1    2    0    0 -0.12758381688E+00  0.38934261471E+00 -0.11068726793E+01  0.90007732052E+02  0.89999993315E+02 0.  0.
        -12    1    1    2    0    0  0.12758381688E+00 -0.38934261471E+00  0.11068726793E+01  0.11802679485E+01  0.00000000000E+00 0.  1.
         11    1    3    3    0    0 -0.92076711666E+01  0.94312347422E+00  0.10693959203E+01  0.93174190683E+01  0.51100000000E-03 0. -1.
        -11    1    3    3    0    0  0.16062493082E+02  0.33374353361E+02  0.17378270236E+02  0.40912778236E+02  0.51100000000E-03 0.  1.
         12    1    3    3    0    0 -0.69824057325E+01 -0.33928134221E+02 -0.19554538836E+02  0.39777534748E+02  0.00000000000E+00 0. -1.
</event>
<event>
 7    1  0.3752192E-015  0.9000771E+02  0.7816164E-02  0.1186339E+00
        -11   -1    0    0    0    0  0.00000000000E+00  0.00000000000E+00  0.45593999997E+02  0.45594000000E+02  0.51100000000E-03 0.  1.
         11   -1    0    0    0    0 -0.00000000000E+00 -0.00000000000E+00 -0.45593999997E+02  0.45594000000E+02  0.51100000000E-03 0. -1.
    9900012    2    1    2    0    0  0.93007086919E+00 -0.81486357510E-01 -0.72208658735E+00  0.90007711523E+02  0.89999972516E+02 0.  0.
        -12    1    1    2    0    0 -0.93007086919E+00  0.81486357510E-01  0.72208658735E+00  0.11802884765E+01  0.00000000000E+00 0.  1.
         11    1    3    3    0    0  0.82284725117E+01 -0.16770710991E+01 -0.39612038117E+02  0.40492393007E+02  0.51100000000E-03 0. -1.
        -11    1    3    3    0    0 -0.14035639597E+02 -0.11075326664E+01  0.51316257909E+01  0.14985305837E+02  0.51100000000E-03 0.  1.
        -12    1    3    3    0    0  0.67372379544E+01  0.27031174079E+01  0.33758325739E+02  0.34530012680E+02  0.00000000000E+00 0.  1.
</event>
<event>
 7    1  0.3752192E-015  0.9000774E+02  0.7816164E-02  0.1186339E+00
        -11   -1    0    0    0    0  0.00000000000E+00  0.00000000000E+00  0.45593999997E+02  0.45594000000E+02  0.51100000000E-03 0.  1.
         11   -1    0    0    0    0 -0.00000000000E+00 -0.00000000000E+00 -0.45593999997E+02  0.45594000000E+02  0.51100000000E-03 0. -1.
    9900012    2    1    2    0    0  0.10151653673E+01  0.59443881633E+00 -0.95372270662E-01  0.90007739817E+02  0.90000001183E+02 0.  0.
        -12    1    1    2    0    0 -0.10151653673E+01 -0.59443881633E+00  0.95372270662E-01  0.11802601829E+01  0.00000000000E+00 0.  1.
         11    1    3    3    0    0 -0.69454877139E+00 -0.37027074202E+01 -0.90896824477E+01  0.98394495525E+01  0.51100000000E-03 0. -1.
        -11    1    3    3    0    0 -0.18585598107E+02  0.27173239213E+02 -0.19589242271E+02  0.38308586496E+02  0.51100000000E-03 0.  1.
         12    1    3    3    0    0  0.20295312245E+02 -0.22876092977E+02  0.28583552448E+02  0.41859703768E+02  0.00000000000E+00 0. -1.
</event>
<event>
 7    1  0.3752192E-015  0.9000794E+02  0.7816164E-02  0.1186339E+00
        -11   -1    0    0    0    0  0.00000000000E+00  0.00000000000E+00  0.45593999997E+02  0.45594000000E+02  0.51100000000E-03 0. -1.
         11   -1    0    0    0    0 -0.00000000000E+00 -0.00000000000E+00 -0.45593999997E+02  0.45594000000E+02  0.51100000000E-03 0.  1.
    9900012    2    1    2    0    0  0.47963565442E+00  0.96191311820E+00 -0.48704732143E+00  0.90007939704E+02  0.90000203708E+02 0.  0.
        -12    1    1    2    0    0 -0.47963565442E+00 -0.96191311820E+00  0.48704732143E+00  0.11800602956E+01  0.00000000000E+00 0.  1.
         11    1    3    3    0    0 -0.13189635815E+02  0.30091633951E+02  0.19694386371E+02  0.38305897477E+02  0.51100000000E-03 0. -1.
        -11    1    3    3    0    0 -0.47111910766E+01 -0.19469592336E+01  0.72977983986E+01  0.89019005468E+01  0.51100000000E-03 0.  1.
        -12    1    3    3    0    0  0.18380462546E+02 -0.27182761599E+02 -0.27479232091E+02  0.42800141680E+02  0.00000000000E+00 0.  1.
</event>
<event>
 7    1  0.3752192E-015  0.9000792E+02  0.7816164E-02  0.1186339E+00
        -11   -1    0    0    0    0  0.00000000000E+00  0.00000000000E+00  0.45593999997E+02  0.45594000000E+02  0.51100000000E-03 0.  1.
         11   -1    0    0    0    0 -0.00000000000E+00 -0.00000000000E+00 -0.45593999997E+02  0.45594000000E+02  0.51100000000E-03 0. -1.
    9900012    2    1    2    0    0 -0.10143275117E+01 -0.57955931758E+00  0.16684536462E+00  0.90007920901E+02  0.90000184657E+02 0.  0.
        -12    1    1    2    0    0  0.10143275117E+01  0.57955931758E+00 -0.16684536462E+00  0.11800790987E+01  0.00000000000E+00 0.  1.
         11    1    3    3    0    0  0.26860563527E+02 -0.50909865435E+01 -0.10721326676E+02  0.29365879230E+02  0.51100000000E-03 0.  1.
        -11    1    3    3    0    0 -0.13231302729E+01 -0.18117194444E+02 -0.92244299780E+01  0.20373353110E+02  0.51100000000E-03 0. -1.
        -12    1    3    3    0    0 -0.26551760766E+02  0.22628621670E+02  0.20112602019E+02  0.40268688561E+02  0.00000000000E+00 0.  1.
</event>
<event>
 7    1  0.3752192E-015  0.9000784E+02  0.7816164E-02  0.1186339E+00
        -11   -1    0    0    0    0  0.00000000000E+00  0.00000000000E+00  0.45593999997E+02  0.45594000000E+02  0.51100000000E-03 0.  1.
         11   -1    0    0    0    0 -0.00000000000E+00 -0.00000000000E+00 -0.45593999997E+02  0.45594000000E+02  0.51100000000E-03 0. -1.
    9900012    2    1    2    0    0 -0.10147584333E+01  0.11200531336E+00 -0.59203683591E+00  0.90007835824E+02  0.90000098456E+02 0.  0.
        -12    1    1    2    0    0  0.10147584333E+01 -0.11200531336E+00  0.59203683591E+00  0.11801641764E+01  0.00000000000E+00 0.  1.
         11    1    3    3    0    0  0.78990227204E+01  0.70434262905E+00 -0.48729698558E+01  0.93078726868E+01  0.51100000000E-03 0. -1.
        -11    1    3    3    0    0 -0.20414884691E+02 -0.36741825825E+02  0.72331866308E+01  0.42650302121E+02  0.51100000000E-03 0.  1.
         12    1    3    3    0    0  0.11501103537E+02  0.36149488509E+02 -0.29522536109E+01  0.38049661016E+02  0.00000000000E+00 0. -1.
</event>
<event>
 7    1  0.3752192E-015  0.9000775E+02  0.7816164E-02  0.1186339E+00
        -11   -1    0    0    0    0  0.00000000000E+00  0.00000000000E+00  0.45593999997E+02  0.45594000000E+02  0.51100000000E-03 0. -1.
         11   -1    0    0    0    0 -0.00000000000E+00 -0.00000000000E+00 -0.45593999997E+02  0.45594000000E+02  0.51100000000E-03 0.  1.
    9900012    2    1    2    0    0 -0.18173856959E+00 -0.91526899560E+00  0.72266743702E+00  0.90007748134E+02  0.90000009610E+02 0.  0.
        -12    1    1    2    0    0  0.18173856959E+00  0.91526899560E+00 -0.72266743702E+00  0.11802518657E+01  0.00000000000E+00 0.  1.
         11    1    3    3    0    0  0.30010876514E+01  0.96212249803E+01  0.39156753049E+02  0.40432979198E+02  0.51100000000E-03 0. -1.
        -11    1    3    3    0    0  0.22290246367E+01  0.90303521433E+01 -0.52709570588E+01  0.10691061652E+02  0.51100000000E-03 0.  1.
        -12    1    3    3    0    0 -0.54118508577E+01 -0.19566846119E+02 -0.33163128553E+02  0.38883707285E+02  0.00000000000E+00 0.  1.
</event>
<event>
 7    1  0.3752192E-015  0.9000773E+02  0.7816164E-02  0.1186339E+00
        -11   -1    0    0    0    0  0.00000000000E+00  0.00000000000E+00  0.45593999997E+02  0.45594000000E+02  0.51100000000E-03 0. -1.
         11   -1    0    0    0    0 -0.00000000000E+00 -0.00000000000E+00 -0.45593999997E+02  0.45594000000E+02  0.51100000000E-03 0.  1.
    9900012    2    1    2    0    0 -0.19873288553E+00 -0.51180225971E+00  0.10448000205E+01  0.90007727406E+02  0.89999988608E+02 0.  0.
        -12    1    1    2    0    0  0.19873288553E+00  0.51180225971E+00 -0.10448000205E+01  0.11802725938E+01  0.00000000000E+00 0.  1.
         11    1    3    3    0    0  0.20951479356E+02 -0.24282068456E+02 -0.11066520403E+02  0.33927145618E+02  0.51100000000E-03 0. -1.
        -11    1    3    3    0    0 -0.14335516691E+02 -0.19697207059E+01 -0.13020917260E+02  0.19466153319E+02  0.51100000000E-03 0.  1.
        -12    1    3    3    0    0 -0.68146955504E+01  0.25739986902E+02  0.25132237683E+02  0.36614428469E+02  0.00000000000E+00 0.  1.
</event>
<event>
 7    1  0.3752192E-015  0.9000802E+02  0.7816164E-02  0.1186338E+00
        -11   -1    0    0    0    0  0.00000000000E+00  0.00000000000E+00  0.45593999997E+02  0.45594000000E+02  0.51100000000E-03 0.  1.
         11   -1    0    0    0    0 -0.00000000000E+00 -0.00000000000E+00 -0.45593999997E+02  0.45594000000E+02  0.51100000000E-03 0. -1.
    9900012    2    1    2    0    0 -0.86957184173E+00  0.44683988506E-01 -0.79636917456E+00  0.90008018768E+02  0.90000283815E+02 0.  0.
        -12    1    1    2    0    0  0.86957184173E+00 -0.44683988506E-01  0.79636917456E+00  0.11799812325E+01  0.00000000000E+00 0.  1.
         11    1    3    3    0    0  0.56404748373E+01  0.29446983786E+02 -0.22687510792E+02  0.37598709508E+02  0.51100000000E-03 0. -1.
        -11    1    3    3    0    0 -0.14860239494E+01  0.88372067674E+01  0.54071583534E+01  0.10466224360E+02  0.51100000000E-03 0.  1.
        -12    1    3    3    0    0 -0.50240227297E+01 -0.38239506565E+02  0.16483983264E+02  0.41943084900E+02  0.00000000000E+00 0.  1.
</event>
<event>
 7    1  0.3752192E-015  0.9000765E+02  0.7816164E-02  0.1186339E+00
        -11   -1    0    0    0    0  0.00000000000E+00  0.00000000000E+00  0.45593999997E+02  0.45594000000E+02  0.51100000000E-03 0. -1.
         11   -1    0    0    0    0 -0.00000000000E+00 -0.00000000000E+00 -0.45593999997E+02  0.45594000000E+02  0.51100000000E-03 0.  1.
    9900012    2    1    2    0    0  0.18243963604E+00  0.94089460028E+00  0.68895238621E+00  0.90007651636E+02  0.89999911838E+02 0.  0.
        -12    1    1    2    0    0 -0.18243963604E+00 -0.94089460028E+00 -0.68895238621E+00  0.11803483639E+01  0.00000000000E+00 0.  1.
         11    1    3    3    0    0  0.63695930101E+01 -0.37513369362E+01  0.76173601932E+01  0.10614538167E+02  0.51100000000E-03 0. -1.
        -11    1    3    3    0    0  0.30012700479E+02 -0.13381804870E+02  0.11657609075E+02  0.34867387933E+02  0.51100000000E-03 0.  1.
         12    1    3    3    0    0 -0.36199853853E+02  0.18074036406E+02 -0.18586016882E+02  0.44525725537E+02  0.00000000000E+00 0. -1.
</event>
<event>
 7    1  0.3752192E-015  0.9000788E+02  0.7816164E-02  0.1186339E+00
        -11   -1    0    0    0    0  0.00000000000E+00  0.00000000000E+00  0.45593999997E+02  0.45594000000E+02  0.51100000000E-03 0.  1.
         11   -1    0    0    0    0 -0.00000000000E+00 -0.00000000000E+00 -0.45593999997E+02  0.45594000000E+02  0.51100000000E-03 0. -1.
    9900012    2    1    2    0    0  0.26215087273E+00 -0.61354848531E+00  0.97340084327E+00  0.90007883893E+02  0.90000147160E+02 0.  0.
        -12    1    1    2    0    0 -0.26215087273E+00  0.61354848531E+00 -0.97340084327E+00  0.11801161068E+01  0.00000000000E+00 0.  1.
         11    1    3    3    0    0  0.23132823976E+02 -0.76928301288E+01 -0.24415529667E+02  0.34502540046E+02  0.51100000000E-03 0. -1.
        -11    1    3    3    0    0  0.87857749180E+01  0.29596263460E+01 -0.57506986610E+01  0.10909617975E+02  0.51100000000E-03 0.  1.
        -12    1    3    3    0    0 -0.31656448021E+02  0.41196552974E+01  0.31139629171E+02  0.44595725871E+02  0.00000000000E+00 0.  1.
</event>
<event>
 7    1  0.3752192E-015  0.9000776E+02  0.7816164E-02  0.1186339E+00
        -11   -1    0    0    0    0  0.00000000000E+00  0.00000000000E+00  0.45593999997E+02  0.45594000000E+02  0.51100000000E-03 0. -1.
         11   -1    0    0    0    0 -0.00000000000E+00 -0.00000000000E+00 -0.45593999997E+02  0.45594000000E+02  0.51100000000E-03 0.  1.
    9900012    2    1    2    0    0  0.73275692957E+00  0.86696376939E+00 -0.32311408798E+00  0.90007762054E+02  0.90000023713E+02 0.  0.
        -12    1    1    2    0    0 -0.73275692957E+00 -0.86696376939E+00  0.32311408798E+00  0.11802379460E+01  0.00000000000E+00 0.  1.
         11    1    3    3    0    0  0.97993629532E+01  0.25988213911E+01 -0.40617748197E+01  0.10921510970E+02  0.51100000000E-03 0. -1.
        -11    1    3    3    0    0  0.18682472941E+02  0.13542548028E+02 -0.26608341478E+02  0.35219869943E+02  0.51100000000E-03 0.  1.
         12    1    3    3    0    0 -0.27749078965E+02 -0.15274405650E+02  0.30347002210E+02  0.43866381142E+02  0.00000000000E+00 0. -1.
</event>
<event>
 7    1  0.3752192E-015  0.9000774E+02  0.7816164E-02  0.1186339E+00
        -11   -1    0    0    0    0  0.00000000000E+00  0.00000000000E+00  0.45593999997E+02  0.45594000000E+02  0.51100000000E-03 0.  1.
         11   -1    0    0    0    0 -0.00000000000E+00 -0.00000000000E+00 -0.45593999997E+02  0.45594000000E+02  0.51100000000E-03 0. -1.
    9900012    2    1    2    0    0 -0.10503606663E+01 -0.45801632563E+00 -0.28278493812E+00  0.90007744178E+02  0.90000005601E+02 0.  0.
        -12    1    1    2    0    0  0.10503606663E+01  0.45801632563E+00  0.28278493812E+00  0.11802558219E+01  0.00000000000E+00 0.  1.
         11    1    3    3    0    0 -0.49994633411E+01  0.81989353288E+01 -0.41606879002E+02  0.42700697357E+02  0.51100000000E-03 0. -1.
        -11    1    3    3    0    0 -0.59560593779E+01 -0.38943217022E+01  0.35228632096E+01  0.79404628510E+01  0.51100000000E-03 0.  1.
        -12    1    3    3    0    0  0.99051620527E+01 -0.47626299522E+01  0.37801230854E+02  0.39366583970E+02  0.00000000000E+00 0.  1.
</event>
<event>
 7    1  0.3752192E-015  0.9000773E+02  0.7816164E-02  0.1186339E+00
        -11   -1    0    0    0    0  0.00000000000E+00  0.00000000000E+00  0.45593999997E+02  0.45594000000E+02  0.51100000000E-03 0. -1.
         11   -1    0    0    0    0 -0.00000000000E+00 -0.00000000000E+00 -0.45593999997E+02  0.45594000000E+02  0.51100000000E-03 0.  1.
    9900012    2    1    2    0    0 -0.10535451951E+01 -0.51724006041E+00  0.12463304589E+00  0.90007733863E+02  0.89999995150E+02 0.  0.
        -12    1    1    2    0    0  0.10535451951E+01  0.51724006041E+00 -0.12463304589E+00  0.11802661371E+01  0.00000000000E+00 0.  1.
         11    1    3    3    0    0  0.25094515822E+00  0.71648897772E+01 -0.65519934903E+01  0.97122210616E+01  0.51100000000E-03 0. -1.
        -11    1    3    3    0    0 -0.13345699161E+02 -0.41830189731E+00 -0.34388280105E+02  0.36889517094E+02  0.51100000000E-03 0.  1.
         12    1    3    3    0    0  0.12041208808E+02 -0.72638279403E+01  0.41064906641E+02  0.43405995707E+02  0.00000000000E+00 0. -1.
</event>
<event>
 7    1  0.3752192E-015  0.9000745E+02  0.7816164E-02  0.1186340E+00
        -11   -1    0    0    0    0  0.00000000000E+00  0.00000000000E+00  0.45593999997E+02  0.45594000000E+02  0.51100000000E-03 0.  1.
         11   -1    0    0    0    0 -0.00000000000E+00 -0.00000000000E+00 -0.45593999997E+02  0.45594000000E+02  0.51100000000E-03 0. -1.
    9900012    2    1    2    0    0 -0.33736765974E+00  0.19597969460E+00 -0.11142170815E+01  0.90007447298E+02  0.89999704801E+02 0.  0.
        -12    1    1    2    0    0  0.33736765974E+00 -0.19597969460E+00  0.11142170815E+01  0.11805527025E+01  0.00000000000E+00 0.  1.
         11    1    3    3    0    0  0.38120553734E+01 -0.15471922243E+02 -0.34930716223E+02  0.38393581236E+02  0.51100000000E-03 0. -1.
        -11    1    3    3    0    0  0.73083288677E+01  0.44138740266E+01 -0.47973334481E+01  0.97932815356E+01  0.51100000000E-03 0.  1.
        -12    1    3    3    0    0 -0.11457751901E+02  0.11254027911E+02  0.38613832589E+02  0.41820584526E+02  0.00000000000E+00 0.  1.
</event>
<event>
 7    1  0.3752192E-015  0.9000773E+02  0.7816164E-02  0.1186339E+00
        -11   -1    0    0    0    0  0.00000000000E+00  0.00000000000E+00  0.45593999997E+02  0.45594000000E+02  0.51100000000E-03 0.  1.
         11   -1    0    0    0    0 -0.00000000000E+00 -0.00000000000E+00 -0.45593999997E+02  0.45594000000E+02  0.51100000000E-03 0. -1.
    9900012    2    1    2    0    0  0.10350441977E+01 -0.51764867384E+00  0.23186685563E+00  0.90007729319E+02  0.89999990546E+02 0.  0.
        -12    1    1    2    0    0 -0.10350441977E+01  0.51764867384E+00 -0.23186685563E+00  0.11802706806E+01  0.00000000000E+00 0.  1.
         11    1    3    3    0    0  0.32280521499E+02  0.14460327775E+02  0.11530073249E+02  0.37203168373E+02  0.51100000000E-03 0. -1.
        -11    1    3    3    0    0  0.38871874496E+01 -0.78977544807E+00  0.89893256015E+01  0.98255761438E+01  0.51100000000E-03 0.  1.
        -12    1    3    3    0    0 -0.35132664751E+02 -0.14188201001E+02 -0.20287531995E+02  0.42978984802E+02  0.00000000000E+00 0.  1.
</event>
<event>
 7    1  0.3752192E-015  0.9000772E+02  0.7816164E-02  0.1186339E+00
        -11   -1    0    0    0    0  0.00000000000E+00  0.00000000000E+00  0.45593999997E+02  0.45594000000E+02  0.51100000000E-03 0.  1.
         11   -1    0    0    0    0 -0.00000000000E+00 -0.00000000000E+00 -0.45593999997E+02  0.45594000000E+02  0.51100000000E-03 0. -1.
    9900012    2    1    2    0    0  0.84662279581E+00  0.38431305489E+00  0.72703728714E+00  0.90007724651E+02  0.89999985816E+02 0.  0.
        -12    1    1    2    0    0 -0.84662279581E+00 -0.38431305489E+00 -0.72703728714E+00  0.11802753490E+01  0.00000000000E+00 0.  1.
         11    1    3    3    0    0 -0.34178888805E+01 -0.28266428195E+02 -0.18118580605E+02  0.33748420567E+02  0.51100000000E-03 0. -1.
        -11    1    3    3    0    0 -0.18810504862E+01 -0.97226896797E+01 -0.45498043429E+01  0.10898154218E+02  0.51100000000E-03 0.  1.
        -12    1    3    3    0    0  0.61455621625E+01  0.38373430930E+02  0.23395422235E+02  0.45361149866E+02  0.00000000000E+00 0.  1.
</event>
<event>
 7    1  0.3752192E-015  0.9000767E+02  0.7816164E-02  0.1186339E+00
        -11   -1    0    0    0    0  0.00000000000E+00  0.00000000000E+00  0.45593999997E+02  0.45594000000E+02  0.51100000000E-03 0.  1.
         11   -1    0    0    0    0 -0.00000000000E+00 -0.00000000000E+00 -0.45593999997E+02  0.45594000000E+02  0.51100000000E-03 0. -1.
    9900012    2    1    2    0    0  0.46425392394E+00 -0.10089272177E+01 -0.39964928694E+00  0.90007667255E+02  0.89999927663E+02 0.  0.
        -12    1    1    2    0    0 -0.46425392394E+00  0.10089272177E+01  0.39964928694E+00  0.11803327451E+01  0.00000000000E+00 0.  1.
         11    1    3    3    0    0  0.44721189561E+01 -0.24432728085E+02 -0.27596248363E+02  0.37128304211E+02  0.51100000000E-03 0. -1.
        -11    1    3    3    0    0 -0.37126909560E+00 -0.27047512735E+01 -0.82520204201E+01  0.86919135677E+01  0.51100000000E-03 0.  1.
        -12    1    3    3    0    0 -0.36365959366E+01  0.26128552141E+02  0.35448619496E+02  0.44187449476E+02  0.00000000000E+00 0.  1.
</event>
<event>
 7    1  0.3752192E-015  0.9000771E+02  0.7816164E-02  0.1186339E+00
        -11   -1    0    0    0    0  0.00000000000E+00  0.00000000000E+00  0.45593999997E+02  0.45594000000E+02  0.51100000000E-03 0.  1.
         11   -1    0    0    0    0 -0.00000000000E+00 -0.00000000000E+00 -0.45593999997E+02  0.45594000000E+02  0.51100000000E-03 0. -1.
    9900012    2    1    2    0    0 -0.34232767687E+00  0.82061206169E+00 -0.77619783631E+00  0.90007713816E+02  0.89999974839E+02 0.  0.
        -12    1    1    2    0    0  0.34232767687E+00 -0.82061206169E+00  0.77619783631E+00  0.11802861836E+01  0.00000000000E+00 0.  1.
         11    1    3    3    0    0  0.32002073791E+01  0.98810685564E+01 -0.37250948975E+02  0.38671824923E+02  0.51100000000E-03 0. -1.
        -11    1    3    3    0    0  0.12040785188E+01  0.10842167734E+02  0.17740946403E+01  0.11052140892E+02  0.51100000000E-03 0.  1.
        -12    1    3    3    0    0 -0.47466135748E+01 -0.19902624229E+02  0.34700656498E+02  0.40283748001E+02  0.00000000000E+00 0.  1.
</event>
<event>
 7    1  0.3752192E-015  0.9000772E+02  0.7816164E-02  0.1186339E+00
        -11   -1    0    0    0    0  0.00000000000E+00  0.00000000000E+00  0.45593999997E+02  0.45594000000E+02  0.51100000000E-03 0. -1.
         11   -1    0    0    0    0 -0.00000000000E+00 -0.00000000000E+00 -0.45593999997E+02  0.45594000000E+02  0.51100000000E-03 0.  1.
    9900012    2    1    2    0    0  0.10196023080E+01  0.57746602056E+00 -0.14144791943E+00  0.90007718938E+02  0.89999980028E+02 0.  0.
        -12    1    1    2    0    0 -0.10196023080E+01 -0.57746602056E+00  0.14144791943E+00  0.11802810620E+01  0.00000000000E+00 0.  1.
         11    1    3    3    0    0 -0.71467881791E+01 -0.22441269932E+01 -0.50112407613E+01  0.90125036181E+01  0.51100000000E-03 0. -1.
        -11    1    3    3    0    0  0.24433616993E+02 -0.44845112757E+01 -0.31720824270E+02  0.40290484898E+02  0.51100000000E-03 0.  1.
         12    1    3    3    0    0 -0.16267226506E+02  0.73061042895E+01  0.36590617112E+02  0.40704730422E+02  0.00000000000E+00 0. -1.
</event>
<event>
 7    1  0.3752192E-015  0.9000736E+02  0.7816164E-02  0.1186340E+00
        -11   -1    0    0    0    0  0.00000000000E+00  0.00000000000E+00  0.45593999997E+02  0.45594000000E+02  0.51100000000E-03 0.  1.
         11   -1    0    0    0    0 -0.00000000000E+00 -0.00000000000E+00 -0.45593999997E+02  0.45594000000E+02  0.51100000000E-03 0. -1.
    9900012    2    1    2    0    0  0.95717941236E+00 -0.57553192081E+00 -0.38274211479E+00  0.90007355707E+02  0.89999612002E+02 0.  0.
        -12    1    1    2    0    0 -0.95717941236E+00  0.57553192081E+00  0.38274211479E+00  0.11806442926E+01  0.00000000000E+00 0.  1.
         11    1    3    3    0    0 -0.49417746607E+01 -0.31217319069E+02  0.14132605802E+02  0.34621852834E+02  0.51100000000E-03 0. -1.
        -11    1    3    3    0    0  0.12783579184E+01  0.39702617910E+01  0.14863460635E+02  0.15437604735E+02  0.51100000000E-03 0.  1.
        -12    1    3    3    0    0  0.46205961546E+01  0.26671525357E+02 -0.29378808552E+02  0.39947898138E+02  0.00000000000E+00 0.  1.
</event>
<event>
 7    1  0.3752192E-015  0.9000775E+02  0.7816164E-02  0.1186339E+00
        -11   -1    0    0    0    0  0.00000000000E+00  0.00000000000E+00  0.45593999997E+02  0.45594000000E+02  0.51100000000E-03 0.  1.
         11   -1    0    0    0    0 -0.00000000000E+00 -0.00000000000E+00 -0.45593999997E+02  0.45594000000E+02  0.51100000000E-03 0. -1.
    9900012    2    1    2    0    0 -0.11040497580E+01  0.25593396071E+00 -0.32950367694E+00  0.90007745479E+02  0.90000006920E+02 0.  0.
        -12    1    1    2    0    0  0.11040497580E+01 -0.25593396071E+00  0.32950367694E+00  0.11802545206E+01  0.00000000000E+00 0.  1.
         11    1    3    3    0    0 -0.18917693475E+02 -0.32831566600E+02 -0.19868726633E+02  0.42785011278E+02  0.51100000000E-03 0. -1.
        -11    1    3    3    0    0  0.51760532796E+01 -0.80764978682E+00  0.73983540655E+01  0.90652892326E+01  0.51100000000E-03 0.  1.
        -12    1    3    3    0    0  0.12637590437E+02  0.33895150347E+02  0.12140868891E+02  0.38157444969E+02  0.00000000000E+00 0.  1.
</event>
<event>
 7    1  0.3752192E-015  0.9000768E+02  0.7816164E-02  0.1186339E+00
        -11   -1    0    0    0    0  0.00000000000E+00  0.00000000000E+00  0.45593999997E+02  0.45594000000E+02  0.51100000000E-03 0. -1.
         11   -1    0    0    0    0 -0.00000000000E+00 -0.00000000000E+00 -0.45593999997E+02  0.45594000000E+02  0.51100000000E-03 0.  1.
    9900012    2    1    2    0    0  0.73538577848E-01 -0.11596643523E+01  0.20718741122E+00  0.90007679723E+02  0.89999940296E+02 0.  0.
        -12    1    1    2    0    0 -0.73538577848E-01  0.11596643523E+01 -0.20718741122E+00  0.11803202768E+01  0.00000000000E+00 0.  1.
         11    1    3    3    0    0  0.31176069088E+02  0.16743853434E+02 -0.21710571373E+02  0.41516898020E+02  0.51100000000E-03 0. -1.
        -11    1    3    3    0    0 -0.76781172200E+01  0.31682972840E+00 -0.43746936659E+01  0.88426133044E+01  0.51100000000E-03 0.  1.
        -12    1    3    3    0    0 -0.23424413290E+02 -0.18220347515E+02  0.26292452450E+02  0.39648168399E+02  0.00000000000E+00 0.  1.
</event>
<event>
 7    1  0.3752192E-015  0.9000766E+02  0.7816164E-02  0.1186339E+00
        -11   -1    0    0    0    0  0.00000000000E+00  0.00000000000E+00  0.45593999997E+02  0.45594000000E+02  0.51100000000E-03 0.  1.
         11   -1    0    0    0    0 -0.00000000000E+00 -0.00000000000E+00 -0.45593999997E+02  0.45594000000E+02  0.51100000000E-03 0. -1.
    9900012    2    1    2    0    0  0.59192459167E+00  0.10178596719E+01 -0.82364564163E-01  0.90007662355E+02  0.89999922698E+02 0.  0.
        -12    1    1    2    0    0 -0.59192459167E+00 -0.10178596719E+01  0.82364564163E-01  0.11803376446E+01  0.00000000000E+00 0.  1.
         11    1    3    3    0    0 -0.72828475532E+01 -0.17570719188E+01  0.11050737624E+01  0.75728698980E+01  0.51100000000E-03 0. -1.
        -11    1    3    3    0    0 -0.11266902633E+02 -0.34199790274E+02  0.13247923382E+02  0.38367645535E+02  0.51100000000E-03 0.  1.
         12    1    3    3    0    0  0.19141674778E+02  0.36974721864E+02 -0.14435361708E+02  0.44067146922E+02  0.00000000000E+00 0. -1.
</event>
<event>
 7    1  0.3752192E-015  0.9000775E+02  0.7816164E-02  0.1186339E+00
        -11   -1    0    0    0    0  0.00000000000E+00  0.00000000000E+00  0.45593999997E+02  0.45594000000E+02  0.51100000000E-03 0. -1.
         11   -1    0    0    0    0 -0.00000000000E+00 -0.00000000000E+00 -0.45593999997E+02  0.45594000000E+02  0.51100000000E-03 0.  1.
    9900012    2    1    2    0    0  0.65757101991E+00  0.39800965249E+00  0.89564021842E+00  0.90007753106E+02  0.90000014647E+02 0.  0.
        -12    1    1    2    0    0 -0.65757101991E+00 -0.39800965249E+00 -0.89564021842E+00  0.11802468939E+01  0.00000000000E+00 0.  1.
         11    1    3    3    0    0 -0.68038431020E+01  0.48435187493E-01  0.70546662737E+01  0.98011705127E+01  0.51100000000E-03 0. -1.
        -11    1    3    3    0    0  0.22739933853E+02 -0.34697898820E+02 -0.30331003304E-01  0.41485535966E+02  0.51100000000E-03 0.  1.
         12    1    3    3    0    0 -0.15278519731E+02  0.35047473285E+02 -0.61286950520E+01  0.38721046627E+02  0.00000000000E+00 0. -1.
</event>
<event>
 7    1  0.3752192E-015  0.9000799E+02  0.7816164E-02  0.1186339E+00
        -11   -1    0    0    0    0  0.00000000000E+00  0.00000000000E+00  0.45593999997E+02  0.45594000000E+02  0.51100000000E-03 0.  1.
         11   -1    0    0    0    0 -0.00000000000E+00 -0.00000000000E+00 -0.45593999997E+02  0.45594000000E+02  0.51100000000E-03 0. -1.
    9900012    2    1    2    0    0 -0.64200848471E+00  0.94997968334E+00 -0.27891406851E+00  0.90007987563E+02  0.90000252199E+02 0.  0.
        -12    1    1    2    0    0  0.64200848471E+00 -0.94997968334E+00  0.27891406851E+00  0.11800124367E+01  0.00000000000E+00 0.  1.
         11    1    3    3    0    0  0.79812830336E+01  0.12223188769E+02 -0.45064071096E+01  0.15277922891E+02  0.51100000000E-03 0. -1.
        -11    1    3    3    0    0  0.27413466448E+02 -0.50793536938E+01 -0.16799353344E+02  0.32550211208E+02  0.51100000000E-03 0.  1.
         12    1    3    3    0    0 -0.36036757967E+02 -0.61938553922E+01  0.21026846385E+02  0.42179853464E+02  0.00000000000E+00 0. -1.
</event>
<event>
 7    1  0.3752192E-015  0.9000754E+02  0.7816164E-02  0.1186339E+00
        -11   -1    0    0    0    0  0.00000000000E+00  0.00000000000E+00  0.45593999997E+02  0.45594000000E+02  0.51100000000E-03 0. -1.
         11   -1    0    0    0    0 -0.00000000000E+00 -0.00000000000E+00 -0.45593999997E+02  0.45594000000E+02  0.51100000000E-03 0.  1.
    9900012    2    1    2    0    0  0.45889298144E+00  0.10830861324E+01 -0.99124596748E-01  0.90007540757E+02  0.89999799495E+02 0.  0.
        -12    1    1    2    0    0 -0.45889298144E+00 -0.10830861324E+01  0.99124596748E-01  0.11804592429E+01  0.00000000000E+00 0.  1.
         11    1    3    3    0    0  0.27622995796E+01  0.30777120766E+01  0.63707493704E+01  0.75953313552E+01  0.51100000000E-03 0. -1.
        -11    1    3    3    0    0  0.74136110426E+01 -0.33478154362E+02 -0.26953915900E+02  0.43614928990E+02  0.51100000000E-03 0.  1.
         12    1    3    3    0    0 -0.97170176407E+01  0.31483528418E+02  0.20484041932E+02  0.38797280412E+02  0.00000000000E+00 0. -1.
</event>
<event>
 7    1  0.3752192E-015  0.9000769E+02  0.7816164E-02  0.1186339E+00
        -11   -1    0    0    0    0  0.00000000000E+00  0.00000000000E+00  0.45593999997E+02  0.45594000000E+02  0.51100000000E-03 0.  1.
         11   -1    0    0    0    0 -0.00000000000E+00 -0.00000000000E+00 -0.45593999997E+02  0.45594000000E+02  0.51100000000E-03 0. -1.
    9900012    2    1    2    0    0  0.75579824098E+00 -0.90132832663E+00  0.97543046799E-01  0.90007687169E+02  0.89999947839E+02 0.  0.
        -12    1    1    2    0    0 -0.75579824098E+00  0.90132832663E+00 -0.97543046799E-01  0.11803128312E+01  0.00000000000E+00 0.  1.
         11    1    3    3    0    0 -0.34552728936E+02 -0.14940291634E+02 -0.16090799857E+02  0.40939189432E+02  0.51100000000E-03 0. -1.
        -11    1    3    3    0    0 -0.51664392440E+00  0.91245600366E+01 -0.68500885204E+00  0.91648106470E+01  0.51100000000E-03 0.  1.
        -12    1    3    3    0    0  0.35825171101E+02  0.49144032707E+01  0.16873351756E+02  0.39903687090E+02  0.00000000000E+00 0.  1.
</event>
<event>
 7    1  0.3752192E-015  0.9000772E+02  0.7816164E-02  0.1186339E+00
        -11   -1    0    0    0    0  0.00000000000E+00  0.00000000000E+00  0.45593999997E+02  0.45594000000E+02  0.51100000000E-03 0.  1.
         11   -1    0    0    0    0 -0.00000000000E+00 -0.00000000000E+00 -0.45593999997E+02  0.45594000000E+02  0.51100000000E-03 0. -1.
    9900012    2    1    2    0    0 -0.79403471587E+00  0.58390565870E+00 -0.64932940859E+00  0.90007717987E+02  0.89999979065E+02 0.  0.
        -12    1    1    2    0    0  0.79403471587E+00 -0.58390565870E+00  0.64932940859E+00  0.11802820125E+01  0.00000000000E+00 0.  1.
         11    1    3    3    0    0  0.26689533390E+02 -0.12266540451E+02 -0.28188128412E+02  0.40710806807E+02  0.51100000000E-03 0. -1.
        -11    1    3    3    0    0 -0.38992529156E+01 -0.76017129328E+01  0.15615014510E+01  0.86849582530E+01  0.51100000000E-03 0.  1.
        -12    1    3    3    0    0 -0.23584315190E+02  0.20452159042E+02  0.25977297553E+02  0.40611952928E+02  0.00000000000E+00 0.  1.
</event>
<event>
 7    1  0.3752192E-015  0.9000780E+02  0.7816164E-02  0.1186339E+00
        -11   -1    0    0    0    0  0.00000000000E+00  0.00000000000E+00  0.45593999997E+02  0.45594000000E+02  0.51100000000E-03 0.  1.
         11   -1    0    0    0    0 -0.00000000000E+00 -0.00000000000E+00 -0.45593999997E+02  0.45594000000E+02  0.51100000000E-03 0. -1.
    9900012    2    1    2    0    0 -0.73454700309E+00  0.73936484060E+00 -0.55376471884E+00  0.90007798733E+02  0.90000060876E+02 0.  0.
        -12    1    1    2    0    0  0.73454700309E+00 -0.73936484060E+00  0.55376471884E+00  0.11802012672E+01  0.00000000000E+00 0.  1.
         11    1    3    3    0    0  0.49061920167E+01 -0.24448139236E-01  0.75030282319E+01  0.89647504553E+01  0.51100000000E-03 0. -1.
        -11    1    3    3    0    0  0.28788590348E+02  0.22528391501E+02  0.77212506210E+01  0.37362134163E+02  0.51100000000E-03 0.  1.
         12    1    3    3    0    0 -0.34429329367E+02 -0.21764578521E+02 -0.15778043572E+02  0.43680914114E+02  0.00000000000E+00 0. -1.
</event>
<event>
 7    1  0.3752192E-015  0.9000785E+02  0.7816164E-02  0.1186339E+00
        -11   -1    0    0    0    0  0.00000000000E+00  0.00000000000E+00  0.45593999997E+02  0.45594000000E+02  0.51100000000E-03 0. -1.
         11   -1    0    0    0    0 -0.00000000000E+00 -0.00000000000E+00 -0.45593999997E+02  0.45594000000E+02  0.51100000000E-03 0.  1.
    9900012    2    1    2    0    0  0.10473344568E+00  0.78249083252E+00  0.87720487295E+00  0.90007851964E+02  0.90000114810E+02 0.  0.
        -12    1    1    2    0    0 -0.10473344568E+00 -0.78249083252E+00 -0.87720487295E+00  0.11801480359E+01  0.00000000000E+00 0.  1.
         11    1    3    3    0    0 -0.33051839847E+02 -0.39312580110E+01 -0.14058109551E+02  0.36131832935E+02  0.51100000000E-03 0. -1.
        -11    1    3    3    0    0 -0.40049630135E+01 -0.10741428469E+02  0.43367751784E+01  0.12256656701E+02  0.51100000000E-03 0.  1.
        -12    1    3    3    0    0  0.37161536306E+02  0.15455177312E+02  0.10598539246E+02  0.41619362328E+02  0.00000000000E+00 0.  1.
</event>
<event>
 7    1  0.3752192E-015  0.9000778E+02  0.7816164E-02  0.1186339E+00
        -11   -1    0    0    0    0  0.00000000000E+00  0.00000000000E+00  0.45593999997E+02  0.45594000000E+02  0.51100000000E-03 0.  1.
         11   -1    0    0    0    0 -0.00000000000E+00 -0.00000000000E+00 -0.45593999997E+02  0.45594000000E+02  0.51100000000E-03 0. -1.
    9900012    2    1    2    0    0  0.11419379859E+01  0.21196786030E+00 -0.20965860231E+00  0.90007784144E+02  0.90000046095E+02 0.  0.
        -12    1    1    2    0    0 -0.11419379859E+01 -0.21196786030E+00  0.20965860231E+00  0.11802158561E+01  0.00000000000E+00 0.  1.
         11    1    3    3    0    0 -0.30635598042E+01 -0.79140982506E+01  0.44633700379E+01  0.95885359753E+01  0.51100000000E-03 0. -1.
        -11    1    3    3    0    0  0.13433945170E+02  0.13032821054E+02  0.34838866748E+02  0.39548349447E+02  0.51100000000E-03 0.  1.
         12    1    3    3    0    0 -0.92284473799E+01 -0.49067549435E+01 -0.39511895388E+02  0.40870898721E+02  0.00000000000E+00 0. -1.
</event>
<event>
 7    1  0.3752192E-015  0.9000772E+02  0.7816164E-02  0.1186339E+00
        -11   -1    0    0    0    0  0.00000000000E+00  0.00000000000E+00  0.45593999997E+02  0.45594000000E+02  0.51100000000E-03 0.  1.
         11   -1    0    0    0    0 -0.00000000000E+00 -0.00000000000E+00 -0.45593999997E+02  0.45594000000E+02  0.51100000000E-03 0. -1.
    9900012    2    1    2    0    0 -0.97205732059E+00  0.61821957718E+00  0.25682604379E+00  0.90007724398E+02  0.89999985560E+02 0.  0.
        -12    1    1    2    0    0  0.97205732059E+00 -0.61821957718E+00 -0.25682604379E+00  0.11802756021E+01  0.00000000000E+00 0.  1.
         11    1    3    3    0    0  0.36375657055E+02  0.44232617513E+01 -0.14234334865E+02  0.39311193826E+02  0.51100000000E-03 0. -1.
        -11    1    3    3    0    0  0.34308646255E+01 -0.68789377295E+01  0.23019206089E+01  0.80243040269E+01  0.51100000000E-03 0.  1.
        -12    1    3    3    0    0 -0.40778579001E+02  0.30738955554E+01  0.12189240300E+02  0.42672226545E+02  0.00000000000E+00 0.  1.
</event>
<event>
 7    1  0.3752192E-015  0.9000886E+02  0.7816164E-02  0.1186337E+00
        -11   -1    0    0    0    0  0.00000000000E+00  0.00000000000E+00  0.45593999997E+02  0.45594000000E+02  0.51100000000E-03 0. -1.
         11   -1    0    0    0    0 -0.00000000000E+00 -0.00000000000E+00 -0.45593999997E+02  0.45594000000E+02  0.51100000000E-03 0.  1.
    9900012    2    1    2    0    0 -0.89651328119E+00 -0.24111950814E+00  0.72698050157E+00  0.90008858223E+02  0.90001134344E+02 0.  0.
        -12    1    1    2    0    0  0.89651328119E+00  0.24111950814E+00 -0.72698050157E+00  0.11791417770E+01  0.00000000000E+00 0.  1.
         11    1    3    3    0    0  0.18193940728E+02  0.23538276611E+02  0.42983378439E+00  0.29753230117E+02  0.51100000000E-03 0. -1.
        -11    1    3    3    0    0  0.11382115816E+02  0.93074049314E+01 -0.35014824448E+01  0.15114255740E+02  0.51100000000E-03 0.  1.
        -12    1    3    3    0    0 -0.30472569826E+02 -0.33086801051E+02  0.37986291620E+01  0.45141372366E+02  0.00000000000E+00 0.  1.
</event>
<event>
 7    1  0.3752192E-015  0.9000734E+02  0.7816164E-02  0.1186340E+00
        -11   -1    0    0    0    0  0.00000000000E+00  0.00000000000E+00  0.45593999997E+02  0.45594000000E+02  0.51100000000E-03 0.  1.
         11   -1    0    0    0    0 -0.00000000000E+00 -0.00000000000E+00 -0.45593999997E+02  0.45594000000E+02  0.51100000000E-03 0. -1.
    9900012    2    1    2    0    0  0.21020539172E+00 -0.11480177260E+01 -0.17843297284E+00  0.90007335216E+02  0.89999591240E+02 0.  0.
        -12    1    1    2    0    0 -0.21020539172E+00  0.11480177260E+01  0.17843297284E+00  0.11806647838E+01  0.00000000000E+00 0.  1.
         11    1    3    3    0    0  0.88531227087E+01 -0.10255517882E+01 -0.35734201492E+01  0.96020242653E+01  0.51100000000E-03 0. -1.
        -11    1    3    3    0    0 -0.18146846365E+02  0.26918616791E+02 -0.24297896833E+02  0.40550064781E+02  0.51100000000E-03 0.  1.
         12    1    3    3    0    0  0.95039290477E+01 -0.27041082729E+02  0.27692884010E+02  0.39855246170E+02  0.00000000000E+00 0. -1.
</event>
<event>
 7    1  0.3752192E-015  0.9000776E+02  0.7816164E-02  0.1186339E+00
        -11   -1    0    0    0    0  0.00000000000E+00  0.00000000000E+00  0.45593999997E+02  0.45594000000E+02  0.51100000000E-03 0. -1.
         11   -1    0    0    0    0 -0.00000000000E+00 -0.00000000000E+00 -0.45593999997E+02  0.45594000000E+02  0.51100000000E-03 0.  1.
    9900012    2    1    2    0    0  0.11708984789E+01  0.41315854581E-01 -0.14232171351E+00  0.90007760313E+02  0.90000021949E+02 0.  0.
        -12    1    1    2    0    0 -0.11708984789E+01 -0.41315854581E-01  0.14232171351E+00  0.11802396866E+01  0.00000000000E+00 0.  1.
         11    1    3    3    0    0 -0.81916627720E+01  0.31384467308E+01 -0.35828032431E+01  0.94757409311E+01  0.51100000000E-03 0. -1.
        -11    1    3    3    0    0 -0.17307245918E+02  0.29553255092E+02 -0.10996478884E+02  0.35970240420E+02  0.51100000000E-03 0.  1.
         12    1    3    3    0    0  0.26669807169E+02 -0.32650385968E+02  0.14436960413E+02  0.44561778962E+02  0.00000000000E+00 0. -1.
</event>
<event>
 8    1  0.3752192E-015  0.9000777E+02  0.7816164E-02  0.1186339E+00
        -11   -1    0    0    0    0  0.00000000000E+00  0.00000000000E+00  0.45593999997E+02  0.45594000000E+02  0.51100000000E-03 0. -1.
         11   -1    0    0    0    0 -0.00000000000E+00 -0.00000000000E+00 -0.45593999997E+02  0.45594000000E+02  0.51100000000E-03 0.  1.
    9900012    2    1    2    0    0  0.17924944651E+00  0.11188403594E+01 -0.33017124962E+00  0.90007768172E+02  0.90000029912E+02 0.  0.
         23    2    3    3    0    0 -0.10922907410E+02 -0.20834418945E+02  0.12307482231E+02  0.62350693734E+02  0.56415884033E+02 0.  0.
        -12    1    1    2    0    0 -0.17924944651E+00 -0.11188403594E+01  0.33017124962E+00  0.11802318281E+01  0.00000000000E+00 0.  1.
         11    1    4    4    0    0  0.11988280555E+02 -0.79392682173E+01  0.28182569520E+02  0.31638711660E+02  0.51100000000E-03 0. -1.
        -11    1    4    4    0    0 -0.22911187965E+02 -0.12895150727E+02 -0.15875087289E+02  0.30711982075E+02  0.51100000000E-03 0.  1.
         12    1    3    3    0    0  0.11102156857E+02  0.21953259304E+02 -0.12637653481E+02  0.27657074437E+02  0.00000000000E+00 0. -1.
</event>
<event>
 7    1  0.3752192E-015  0.9000777E+02  0.7816164E-02  0.1186339E+00
        -11   -1    0    0    0    0  0.00000000000E+00  0.00000000000E+00  0.45593999997E+02  0.45594000000E+02  0.51100000000E-03 0.  1.
         11   -1    0    0    0    0 -0.00000000000E+00 -0.00000000000E+00 -0.45593999997E+02  0.45594000000E+02  0.51100000000E-03 0. -1.
    9900012    2    1    2    0    0  0.34719074890E-01  0.88680500008E+00  0.77802207203E+00  0.90007768299E+02  0.90000030041E+02 0.  0.
        -12    1    1    2    0    0 -0.34719074890E-01 -0.88680500008E+00 -0.77802207203E+00  0.11802317005E+01  0.00000000000E+00 0.  1.
         11    1    3    3    0    0  0.56870612022E+01 -0.40126013670E+01 -0.67371747531E+01  0.96867517137E+01  0.51100000000E-03 0. -1.
        -11    1    3    3    0    0 -0.92692456086E+01  0.32335142686E+02 -0.21739809952E+02  0.40051213511E+02  0.51100000000E-03 0.  1.
         12    1    3    3    0    0  0.36169034813E+01 -0.27435736319E+02  0.29255006777E+02  0.40269803075E+02  0.00000000000E+00 0. -1.
</event>
<event>
 7    1  0.3752192E-015  0.9000781E+02  0.7816164E-02  0.1186339E+00
        -11   -1    0    0    0    0  0.00000000000E+00  0.00000000000E+00  0.45593999997E+02  0.45594000000E+02  0.51100000000E-03 0.  1.
         11   -1    0    0    0    0 -0.00000000000E+00 -0.00000000000E+00 -0.45593999997E+02  0.45594000000E+02  0.51100000000E-03 0. -1.
    9900012    2    1    2    0    0  0.20776502196E+00  0.41782043913E+00 -0.10840213208E+01  0.90007812537E+02  0.90000074863E+02 0.  0.
        -12    1    1    2    0    0 -0.20776502196E+00 -0.41782043913E+00  0.10840213208E+01  0.11801874629E+01  0.00000000000E+00 0.  1.
         11    1    3    3    0    0 -0.38154679746E+01 -0.37453899994E+02  0.18521855192E+02  0.41957258497E+02  0.51100000000E-03 0. -1.
        -11    1    3    3    0    0  0.83715186702E+00 -0.32190537152E+00 -0.79366473829E+01  0.79871658464E+01  0.51100000000E-03 0.  1.
        -12    1    3    3    0    0  0.31860811295E+01  0.38193625804E+02 -0.11669229130E+02  0.40063388193E+02  0.00000000000E+00 0.  1.
</event>
<event>
 7    1  0.3752192E-015  0.9000771E+02  0.7816164E-02  0.1186339E+00
        -11   -1    0    0    0    0  0.00000000000E+00  0.00000000000E+00  0.45593999997E+02  0.45594000000E+02  0.51100000000E-03 0.  1.
         11   -1    0    0    0    0 -0.00000000000E+00 -0.00000000000E+00 -0.45593999997E+02  0.45594000000E+02  0.51100000000E-03 0. -1.
    9900012    2    1    2    0    0 -0.10903306175E+00 -0.58023546177E+00 -0.10220145114E+01  0.90007713992E+02  0.89999975017E+02 0.  0.
        -12    1    1    2    0    0  0.10903306175E+00  0.58023546177E+00  0.10220145114E+01  0.11802860082E+01  0.00000000000E+00 0.  1.
         11    1    3    3    0    0  0.58595043011E+01  0.55739366024E+00 -0.71403411228E+01  0.92535911925E+01  0.51100000000E-03 0. -1.
        -11    1    3    3    0    0  0.29238608339E+02 -0.83376097487E+01  0.25716608166E+02  0.39821550569E+02  0.51100000000E-03 0.  1.
         12    1    3    3    0    0 -0.35207145702E+02  0.71999806267E+01 -0.19598281554E+02  0.40932572230E+02  0.00000000000E+00 0. -1.
</event>
<event>
 7    1  0.3752192E-015  0.9000771E+02  0.7816164E-02  0.1186339E+00
        -11   -1    0    0    0    0  0.00000000000E+00  0.00000000000E+00  0.45593999997E+02  0.45594000000E+02  0.51100000000E-03 0. -1.
         11   -1    0    0    0    0 -0.00000000000E+00 -0.00000000000E+00 -0.45593999997E+02  0.45594000000E+02  0.51100000000E-03 0.  1.
    9900012    2    1    2    0    0  0.27032800355E+00 -0.17520548647E+00  0.11354805335E+01  0.90007707564E+02  0.89999968504E+02 0.  0.
        -12    1    1    2    0    0 -0.27032800355E+00  0.17520548647E+00 -0.11354805335E+01  0.11802924358E+01  0.00000000000E+00 0.  1.
         11    1    3    3    0    0 -0.56681479318E+01  0.10446028043E+02 -0.42935241131E+01  0.12636524539E+02  0.51100000000E-03 0. -1.
        -11    1    3    3    0    0 -0.18250552617E+02  0.15477083537E+01 -0.28551574358E+02  0.33921534024E+02  0.51100000000E-03 0.  1.
         12    1    3    3    0    0  0.24189028552E+02 -0.12168941883E+02  0.33980579005E+02  0.43449649001E+02  0.00000000000E+00 0. -1.
</event>
<event>
 7    1  0.3752192E-015  0.9000785E+02  0.7816164E-02  0.1186339E+00
        -11   -1    0    0    0    0  0.00000000000E+00  0.00000000000E+00  0.45593999997E+02  0.45594000000E+02  0.51100000000E-03 0.  1.
         11   -1    0    0    0    0 -0.00000000000E+00 -0.00000000000E+00 -0.45593999997E+02  0.45594000000E+02  0.51100000000E-03 0. -1.
    9900012    2    1    2    0    0  0.10160220769E+01  0.18265258970E+00 -0.57192460828E+00  0.90007847219E+02  0.90000110002E+02 0.  0.
        -12    1    1    2    0    0 -0.10160220769E+01 -0.18265258970E+00  0.57192460828E+00  0.11801527811E+01  0.00000000000E+00 0.  1.
         11    1    3    3    0    0 -0.32169838417E+02  0.82822343531E+01  0.16376946524E+02  0.37036445393E+02  0.51100000000E-03 0. -1.
        -11    1    3    3    0    0 -0.21278787183E+01 -0.43976690297E+01  0.81408837761E+01  0.94942798385E+01  0.51100000000E-03 0.  1.
        -12    1    3    3    0    0  0.35313739212E+02 -0.37019127337E+01 -0.25089754908E+02  0.43477121988E+02  0.00000000000E+00 0.  1.
</event>
<event>
 7    1  0.3752192E-015  0.9000778E+02  0.7816164E-02  0.1186339E+00
        -11   -1    0    0    0    0  0.00000000000E+00  0.00000000000E+00  0.45593999997E+02  0.45594000000E+02  0.51100000000E-03 0.  1.
         11   -1    0    0    0    0 -0.00000000000E+00 -0.00000000000E+00 -0.45593999997E+02  0.45594000000E+02  0.51100000000E-03 0. -1.
    9900012    2    1    2    0    0  0.90578790324E+00  0.37660414630E+00 -0.65623408577E+00  0.90007777316E+02  0.90000039176E+02 0.  0.
        -12    1    1    2    0    0 -0.90578790324E+00 -0.37660414630E+00  0.65623408577E+00  0.11802226841E+01  0.00000000000E+00 0.  1.
         11    1    3    3    0    0 -0.28329393025E+01  0.85416571124E+01 -0.44410355963E+01  0.10035349956E+02  0.51100000000E-03 0. -1.
        -11    1    3    3    0    0 -0.82383817766E+01  0.33040835415E+02 -0.89545040046E+01  0.35210096300E+02  0.51100000000E-03 0.  1.
         12    1    3    3    0    0  0.11977108982E+02 -0.41205888381E+02  0.12739305515E+02  0.44762331059E+02  0.00000000000E+00 0. -1.
</event>
<event>
 7    1  0.3752192E-015  0.9000749E+02  0.7816164E-02  0.1186340E+00
        -11   -1    0    0    0    0  0.00000000000E+00  0.00000000000E+00  0.45593999997E+02  0.45594000000E+02  0.51100000000E-03 0. -1.
         11   -1    0    0    0    0 -0.00000000000E+00 -0.00000000000E+00 -0.45593999997E+02  0.45594000000E+02  0.51100000000E-03 0.  1.
    9900012    2    1    2    0    0 -0.10485449564E+00 -0.27971928434E+00  0.11420854329E+01  0.90007493126E+02  0.89999751235E+02 0.  0.
        -12    1    1    2    0    0  0.10485449564E+00  0.27971928434E+00 -0.11420854329E+01  0.11805068739E+01  0.00000000000E+00 0.  1.
         11    1    3    3    0    0 -0.18276965435E+01  0.19187502125E+01  0.95978057991E+01  0.99569048128E+01  0.51100000000E-03 0. -1.
        -11    1    3    3    0    0 -0.33371855408E+02  0.19027040947E+02 -0.67309875855E+01  0.39000195060E+02  0.51100000000E-03 0.  1.
         12    1    3    3    0    0  0.35094697456E+02 -0.21225510444E+02 -0.17247327807E+01  0.41050393254E+02  0.00000000000E+00 0. -1.
</event>
<event>
 7    1  0.3752192E-015  0.9000754E+02  0.7816164E-02  0.1186339E+00
        -11   -1    0    0    0    0  0.00000000000E+00  0.00000000000E+00  0.45593999997E+02  0.45594000000E+02  0.51100000000E-03 0. -1.
         11   -1    0    0    0    0 -0.00000000000E+00 -0.00000000000E+00 -0.45593999997E+02  0.45594000000E+02  0.51100000000E-03 0.  1.
    9900012    2    1    2    0    0 -0.10891979002E+01  0.28389698572E+00 -0.35570956145E+00  0.90007542946E+02  0.89999801713E+02 0.  0.
        -12    1    1    2    0    0  0.10891979002E+01 -0.28389698572E+00  0.35570956145E+00  0.11804570540E+01  0.00000000000E+00 0.  1.
         11    1    3    3    0    0 -0.32145324689E+02 -0.23452507603E+02  0.13867005724E+02  0.42138294463E+02  0.51100000000E-03 0. -1.
        -11    1    3    3    0    0 -0.81444219421E+00  0.10349065286E+02  0.27349053534E+00  0.10384664930E+02  0.51100000000E-03 0.  1.
        -12    1    3    3    0    0  0.31870568983E+02  0.13387339303E+02 -0.14496205820E+02  0.37484583553E+02  0.00000000000E+00 0.  1.
</event>
<event>
 7    1  0.3752192E-015  0.9000772E+02  0.7816164E-02  0.1186339E+00
        -11   -1    0    0    0    0  0.00000000000E+00  0.00000000000E+00  0.45593999997E+02  0.45594000000E+02  0.51100000000E-03 0.  1.
         11   -1    0    0    0    0 -0.00000000000E+00 -0.00000000000E+00 -0.45593999997E+02  0.45594000000E+02  0.51100000000E-03 0. -1.
    9900012    2    1    2    0    0 -0.67209824215E+00 -0.97020808415E+00 -0.68737293946E-02  0.90007717397E+02  0.89999978467E+02 0.  0.
        -12    1    1    2    0    0  0.67209824215E+00  0.97020808415E+00  0.68737293946E-02  0.11802826025E+01  0.00000000000E+00 0.  1.
         11    1    3    3    0    0 -0.20192183885E+02  0.28169953728E+02  0.13400341618E+02  0.37159652028E+02  0.51100000000E-03 0. -1.
        -11    1    3    3    0    0 -0.63433807423E+01  0.28543544886E+01  0.41694280168E+01  0.81098673871E+01  0.51100000000E-03 0.  1.
        -12    1    3    3    0    0  0.25863466385E+02 -0.31994516301E+02 -0.17576643364E+02  0.44738197983E+02  0.00000000000E+00 0.  1.
</event>
<event>
 7    1  0.3752192E-015  0.9000777E+02  0.7816164E-02  0.1186339E+00
        -11   -1    0    0    0    0  0.00000000000E+00  0.00000000000E+00  0.45593999997E+02  0.45594000000E+02  0.51100000000E-03 0. -1.
         11   -1    0    0    0    0 -0.00000000000E+00 -0.00000000000E+00 -0.45593999997E+02  0.45594000000E+02  0.51100000000E-03 0.  1.
    9900012    2    1    2    0    0  0.17640190887E+00 -0.49901697158E+00  0.10548948665E+01  0.90007771738E+02  0.90000033525E+02 0.  0.
        -12    1    1    2    0    0 -0.17640190887E+00  0.49901697158E+00 -0.10548948665E+01  0.11802282622E+01  0.00000000000E+00 0.  1.
         11    1    3    3    0    0  0.22898662860E+00 -0.41713504017E+01  0.96002182545E+01  0.10469803716E+02  0.51100000000E-03 0. -1.
        -11    1    3    3    0    0 -0.73395137295E+01 -0.26931223356E+02  0.22112722439E+02  0.35610837496E+02  0.51100000000E-03 0.  1.
         12    1    3    3    0    0  0.72869290098E+01  0.30603556786E+02 -0.30658045827E+02  0.43927130526E+02  0.00000000000E+00 0. -1.
</event>
<event>
 7    1  0.3752192E-015  0.9000772E+02  0.7816164E-02  0.1186339E+00
        -11   -1    0    0    0    0  0.00000000000E+00  0.00000000000E+00  0.45593999997E+02  0.45594000000E+02  0.51100000000E-03 0. -1.
         11   -1    0    0    0    0 -0.00000000000E+00 -0.00000000000E+00 -0.45593999997E+02  0.45594000000E+02  0.51100000000E-03 0.  1.
    9900012    2    1    2    0    0  0.40285418475E+00 -0.98004200351E-01  0.11050655995E+01  0.90007717705E+02  0.89999978778E+02 0.  0.
        -12    1    1    2    0    0 -0.40285418475E+00  0.98004200351E-01 -0.11050655995E+01  0.11802822954E+01  0.00000000000E+00 0.  1.
         11    1    3    3    0    0 -0.46372215912E+01 -0.35607455292E+02 -0.96588167881E+01  0.37184505355E+02  0.51100000000E-03 0. -1.
        -11    1    3    3    0    0  0.77807701475E+01 -0.61653964959E+01  0.14539242353E+01  0.10033264373E+02  0.51100000000E-03 0.  1.
        -12    1    3    3    0    0 -0.27406943716E+01  0.41674847587E+02  0.93099581523E+01  0.42789947977E+02  0.00000000000E+00 0.  1.
</event>
<event>
 7    1  0.3752192E-015  0.9000771E+02  0.7816164E-02  0.1186339E+00
        -11   -1    0    0    0    0  0.00000000000E+00  0.00000000000E+00  0.45593999997E+02  0.45594000000E+02  0.51100000000E-03 0. -1.
         11   -1    0    0    0    0 -0.00000000000E+00 -0.00000000000E+00 -0.45593999997E+02  0.45594000000E+02  0.51100000000E-03 0.  1.
    9900012    2    1    2    0    0 -0.44568734639E+00 -0.27156529185E+00  0.10586334677E+01  0.90007707775E+02  0.89999968717E+02 0.  0.
        -12    1    1    2    0    0  0.44568734639E+00  0.27156529185E+00 -0.10586334677E+01  0.11802922254E+01  0.00000000000E+00 0.  1.
         11    1    3    3    0    0  0.24936751222E+02  0.25369065981E+00  0.27829100611E+02  0.37367964375E+02  0.51100000000E-03 0. -1.
        -11    1    3    3    0    0  0.43262473468E+01 -0.22433014830E+01  0.64213083214E+01  0.80611425040E+01  0.51100000000E-03 0.  1.
        -12    1    3    3    0    0 -0.29708685915E+02  0.17180455313E+01 -0.33191775465E+02  0.44578600895E+02  0.00000000000E+00 0.  1.
</event>
<event>
 7    1  0.3752192E-015  0.9000777E+02  0.7816164E-02  0.1186339E+00
        -11   -1    0    0    0    0  0.00000000000E+00  0.00000000000E+00  0.45593999997E+02  0.45594000000E+02  0.51100000000E-03 0.  1.
         11   -1    0    0    0    0 -0.00000000000E+00 -0.00000000000E+00 -0.45593999997E+02  0.45594000000E+02  0.51100000000E-03 0. -1.
    9900012    2    1    2    0    0 -0.11297983486E+01 -0.25762566895E+00 -0.22389424062E+00  0.90007769546E+02  0.90000031304E+02 0.  0.
        -12    1    1    2    0    0  0.11297983486E+01  0.25762566895E+00  0.22389424062E+00  0.11802304541E+01  0.00000000000E+00 0.  1.
         11    1    3    3    0    0 -0.14789815668E+02 -0.35135285476E+02 -0.12070095808E+02  0.39986424522E+02  0.51100000000E-03 0. -1.
        -11    1    3    3    0    0 -0.75786061486E+01  0.15398192762E+00  0.39899827145E+01  0.85661510559E+01  0.51100000000E-03 0.  1.
        -12    1    3    3    0    0  0.21238623468E+02  0.34723677879E+02  0.78562188525E+01  0.41455193968E+02  0.00000000000E+00 0.  1.
</event>
<event>
 7    1  0.3752192E-015  0.9000768E+02  0.7816164E-02  0.1186339E+00
        -11   -1    0    0    0    0  0.00000000000E+00  0.00000000000E+00  0.45593999997E+02  0.45594000000E+02  0.51100000000E-03 0. -1.
         11   -1    0    0    0    0 -0.00000000000E+00 -0.00000000000E+00 -0.45593999997E+02  0.45594000000E+02  0.51100000000E-03 0.  1.
    9900012    2    1    2    0    0  0.19853756591E+00  0.98457995590E+00 -0.61995945474E+00  0.90007676070E+02  0.89999936594E+02 0.  0.
        -12    1    1    2    0    0 -0.19853756591E+00 -0.98457995590E+00  0.61995945474E+00  0.11803239302E+01  0.00000000000E+00 0.  1.
         11    1    3    3    0    0  0.26549892267E+02  0.34090285508E+02 -0.54060090047E+01  0.43546174103E+02  0.51100000000E-03 0. -1.
        -11    1    3    3    0    0  0.14605539056E+01 -0.97311152618E+01  0.19072060148E+00  0.98419610119E+01  0.51100000000E-03 0.  1.
        -12    1    3    3    0    0 -0.27811908606E+02 -0.23374590291E+02  0.45953289484E+01  0.36619540955E+02  0.00000000000E+00 0.  1.
</event>
<event>
 7    1  0.3752192E-015  0.9000777E+02  0.7816164E-02  0.1186339E+00
        -11   -1    0    0    0    0  0.00000000000E+00  0.00000000000E+00  0.45593999997E+02  0.45594000000E+02  0.51100000000E-03 0.  1.
         11   -1    0    0    0    0 -0.00000000000E+00 -0.00000000000E+00 -0.45593999997E+02  0.45594000000E+02  0.51100000000E-03 0. -1.
    9900012    2    1    2    0    0  0.13453624657E+00 -0.24743274648E-01 -0.11722772569E+01  0.90007768583E+02  0.90000030328E+02 0.  0.
        -12    1    1    2    0    0 -0.13453624657E+00  0.24743274648E-01  0.11722772569E+01  0.11802314173E+01  0.00000000000E+00 0.  1.
         11    1    3    3    0    0 -0.11994358109E+02  0.21408742077E+02 -0.23076267775E+02  0.33685501309E+02  0.51100000000E-03 0. -1.
        -11    1    3    3    0    0 -0.15278462852E+02 -0.57109046852E+01 -0.23640310850E+01  0.16481338012E+02  0.51100000000E-03 0.  1.
        -12    1    3    3    0    0  0.27407357208E+02 -0.15722580666E+02  0.24268021603E+02  0.39840929262E+02  0.00000000000E+00 0.  1.
</event>
<event>
 7    1  0.3752192E-015  0.9000773E+02  0.7816164E-02  0.1186339E+00
        -11   -1    0    0    0    0  0.00000000000E+00  0.00000000000E+00  0.45593999997E+02  0.45594000000E+02  0.51100000000E-03 0. -1.
         11   -1    0    0    0    0 -0.00000000000E+00 -0.00000000000E+00 -0.45593999997E+02  0.45594000000E+02  0.51100000000E-03 0.  1.
    9900012    2    1    2    0    0 -0.35560454056E+00  0.10490059989E+01 -0.40763447276E+00  0.90007731370E+02  0.89999992624E+02 0.  0.
        -12    1    1    2    0    0  0.35560454056E+00 -0.10490059989E+01  0.40763447276E+00  0.11802686297E+01  0.00000000000E+00 0.  1.
         11    1    3    3    0    0 -0.40192682071E+01  0.26810043018E+01 -0.77232362952E+01  0.91099220699E+01  0.51100000000E-03 0. -1.
        -11    1    3    3    0    0 -0.13291715901E+02  0.15546135167E+02 -0.30088452051E+02  0.36382234364E+02  0.51100000000E-03 0.  1.
         12    1    3    3    0    0  0.16955379567E+02 -0.17178133470E+02  0.37404053873E+02  0.44515574937E+02  0.00000000000E+00 0. -1.
</event>
<event>
 7    1  0.3752192E-015  0.9000789E+02  0.7816164E-02  0.1186339E+00
        -11   -1    0    0    0    0  0.00000000000E+00  0.00000000000E+00  0.45593999997E+02  0.45594000000E+02  0.51100000000E-03 0. -1.
         11   -1    0    0    0    0 -0.00000000000E+00 -0.00000000000E+00 -0.45593999997E+02  0.45594000000E+02  0.51100000000E-03 0.  1.
    9900012    2    1    2    0    0  0.77551397981E-01 -0.79451115418E+00  0.86913019626E+00  0.90007894288E+02  0.90000157692E+02 0.  0.
        -12    1    1    2    0    0 -0.77551397981E-01  0.79451115418E+00 -0.86913019626E+00  0.11801057120E+01  0.00000000000E+00 0.  1.
         11    1    3    3    0    0  0.14252462626E+01 -0.27283884777E+01 -0.85984547464E+01  0.91328448405E+01  0.51100000000E-03 0. -1.
        -11    1    3    3    0    0 -0.22458703122E+02 -0.32055974209E+02  0.11548527135E+02  0.40808667065E+02  0.51100000000E-03 0.  1.
         12    1    3    3    0    0  0.21111008257E+02  0.33989851532E+02 -0.20809421920E+01  0.40066382383E+02  0.00000000000E+00 0. -1.
</event>
<event>
 7    1  0.3752192E-015  0.9000767E+02  0.7816164E-02  0.1186339E+00
        -11   -1    0    0    0    0  0.00000000000E+00  0.00000000000E+00  0.45593999997E+02  0.45594000000E+02  0.51100000000E-03 0. -1.
         11   -1    0    0    0    0 -0.00000000000E+00 -0.00000000000E+00 -0.45593999997E+02  0.45594000000E+02  0.51100000000E-03 0.  1.
    9900012    2    1    2    0    0  0.39611908667E+00  0.11115748322E+01  0.25753782587E-01  0.90007672844E+02  0.89999933325E+02 0.  0.
        -12    1    1    2    0    0 -0.39611908667E+00 -0.11115748322E+01 -0.25753782587E-01  0.11803271563E+01  0.00000000000E+00 0.  1.
         11    1    3    3    0    0  0.27973242801E+02  0.19605282532E+02 -0.14522174862E+02  0.37118229739E+02  0.51100000000E-03 0. -1.
        -11    1    3    3    0    0 -0.11868387628E+02 -0.10250401635E+01 -0.12361839968E+02  0.17167539715E+02  0.51100000000E-03 0.  1.
        -12    1    3    3    0    0 -0.15708736086E+02 -0.17468667537E+02  0.26909768613E+02  0.35721903389E+02  0.00000000000E+00 0.  1.
</event>
<event>
 7    1  0.3752192E-015  0.9000815E+02  0.7816164E-02  0.1186338E+00
        -11   -1    0    0    0    0  0.00000000000E+00  0.00000000000E+00  0.45593999997E+02  0.45594000000E+02  0.51100000000E-03 0. -1.
         11   -1    0    0    0    0 -0.00000000000E+00 -0.00000000000E+00 -0.45593999997E+02  0.45594000000E+02  0.51100000000E-03 0.  1.
    9900012    2    1    2    0    0 -0.10768676574E+00  0.40922507488E+00  0.11013576202E+01  0.90008148226E+02  0.90000414982E+02 0.  0.
        -12    1    1    2    0    0  0.10768676574E+00 -0.40922507488E+00 -0.11013576202E+01  0.11798517741E+01  0.00000000000E+00 0.  1.
         11    1    3    3    0    0  0.42485516309E+01  0.63369390238E-01 -0.13457255357E+02  0.14112119920E+02  0.51100000000E-03 0. -1.
        -11    1    3    3    0    0  0.30890466951E+02  0.82555229946E+01 -0.84438464634E+01  0.33070729531E+02  0.51100000000E-03 0.  1.
         12    1    3    3    0    0 -0.35246705348E+02 -0.79096673099E+01  0.23002459440E+02  0.42825298775E+02  0.00000000000E+00 0. -1.
</event>
<event>
 7    1  0.3752192E-015  0.9000778E+02  0.7816164E-02  0.1186339E+00
        -11   -1    0    0    0    0  0.00000000000E+00  0.00000000000E+00  0.45593999997E+02  0.45594000000E+02  0.51100000000E-03 0. -1.
         11   -1    0    0    0    0 -0.00000000000E+00 -0.00000000000E+00 -0.45593999997E+02  0.45594000000E+02  0.51100000000E-03 0.  1.
    9900012    2    1    2    0    0  0.41736729056E-01 -0.10082200973E+01  0.61209935132E+00  0.90007781658E+02  0.90000043576E+02 0.  0.
        -12    1    1    2    0    0 -0.41736729056E-01  0.10082200973E+01 -0.61209935132E+00  0.11802183421E+01  0.00000000000E+00 0.  1.
         11    1    3    3    0    0 -0.26479023829E+02  0.29280934773E+02 -0.45051614100E+01  0.39734221066E+02  0.51100000000E-03 0. -1.
        -11    1    3    3    0    0 -0.57614169600E+01 -0.10614285360E+02 -0.30758586978E+00  0.12081042522E+02  0.51100000000E-03 0.  1.
        -12    1    3    3    0    0  0.32282177518E+02 -0.19674869510E+02  0.54248466311E+01  0.38192518070E+02  0.00000000000E+00 0.  1.
</event>
<event>
 7    1  0.3752192E-015  0.9000768E+02  0.7816164E-02  0.1186339E+00
        -11   -1    0    0    0    0  0.00000000000E+00  0.00000000000E+00  0.45593999997E+02  0.45594000000E+02  0.51100000000E-03 0. -1.
         11   -1    0    0    0    0 -0.00000000000E+00 -0.00000000000E+00 -0.45593999997E+02  0.45594000000E+02  0.51100000000E-03 0.  1.
    9900012    2    1    2    0    0  0.29135652279E+00 -0.23911922197E+00  0.11185197644E+01  0.90007680938E+02  0.89999941526E+02 0.  0.
        -12    1    1    2    0    0 -0.29135652279E+00  0.23911922197E+00 -0.11185197644E+01  0.11803190624E+01  0.00000000000E+00 0.  1.
         11    1    3    3    0    0  0.28491318032E+02  0.17445824483E+02  0.24996251488E+02  0.41724388358E+02  0.51100000000E-03 0. -1.
        -11    1    3    3    0    0 -0.75392498222E+01  0.13418555078E+01  0.40601619838E+01  0.86675128890E+01  0.51100000000E-03 0.  1.
        -12    1    3    3    0    0 -0.20660711687E+02 -0.19026799212E+02 -0.27937893708E+02  0.39615779691E+02  0.00000000000E+00 0.  1.
</event>
<event>
 7    1  0.3752192E-015  0.9000770E+02  0.7816164E-02  0.1186339E+00
        -11   -1    0    0    0    0  0.00000000000E+00  0.00000000000E+00  0.45593999997E+02  0.45594000000E+02  0.51100000000E-03 0.  1.
         11   -1    0    0    0    0 -0.00000000000E+00 -0.00000000000E+00 -0.45593999997E+02  0.45594000000E+02  0.51100000000E-03 0. -1.
    9900012    2    1    2    0    0 -0.22589616435E-01 -0.11793991452E+01  0.40072680326E-01  0.90007704082E+02  0.89999964976E+02 0.  0.
        -12    1    1    2    0    0  0.22589616435E-01  0.11793991452E+01 -0.40072680326E-01  0.11802959181E+01  0.00000000000E+00 0.  1.
         11    1    3    3    0    0 -0.99917797198E+00 -0.96642432564E+01 -0.86547197208E+00  0.97542296638E+01  0.51100000000E-03 0. -1.
        -11    1    3    3    0    0  0.10900768492E+02 -0.34217270590E+02  0.48433746010E+01  0.36236813300E+02  0.51100000000E-03 0.  1.
         12    1    3    3    0    0 -0.99241801364E+01  0.42702114701E+02 -0.39378299485E+01  0.44016661118E+02  0.00000000000E+00 0. -1.
</event>
<event>
 7    1  0.3752192E-015  0.9000759E+02  0.7816164E-02  0.1186339E+00
        -11   -1    0    0    0    0  0.00000000000E+00  0.00000000000E+00  0.45593999997E+02  0.45594000000E+02  0.51100000000E-03 0. -1.
         11   -1    0    0    0    0 -0.00000000000E+00 -0.00000000000E+00 -0.45593999997E+02  0.45594000000E+02  0.51100000000E-03 0.  1.
    9900012    2    1    2    0    0  0.11645668810E+01 -0.53437322280E-01 -0.18520387471E+00  0.90007588189E+02  0.89999847553E+02 0.  0.
        -12    1    1    2    0    0 -0.11645668810E+01  0.53437322280E-01  0.18520387471E+00  0.11804118108E+01  0.00000000000E+00 0.  1.
         11    1    3    3    0    0  0.75497052139E+01 -0.39892240079E+01  0.25997862735E+01  0.89258526725E+01  0.51100000000E-03 0. -1.
        -11    1    3    3    0    0  0.27778525105E+02 -0.17309979198E+02  0.16287124026E+02  0.36558887376E+02  0.51100000000E-03 0.  1.
         12    1    3    3    0    0 -0.34163663438E+02  0.21245765884E+02 -0.19072114174E+02  0.44522848141E+02  0.00000000000E+00 0. -1.
</event>
<event>
 7    1  0.7896843E-015  0.9000778E+02  0.7816164E-02  0.1186339E+00
        -11   -1    0    0    0    0  0.00000000000E+00  0.00000000000E+00  0.45593999997E+02  0.45594000000E+02  0.51100000000E-03 0.  1.
         11   -1    0    0    0    0 -0.00000000000E+00 -0.00000000000E+00 -0.45593999997E+02  0.45594000000E+02  0.51100000000E-03 0. -1.
    9900012    2    1    2    0    0  0.75311192039E+00  0.70824104941E+00 -0.56933592714E+00  0.90007776993E+02  0.90000038849E+02 0.  0.
        -12    1    1    2    0    0 -0.75311192039E+00 -0.70824104941E+00  0.56933592714E+00  0.11802230072E+01  0.00000000000E+00 0.  1.
         11    1    3    3    0    0  0.84701772678E+01 -0.12367346946E+02 -0.32536156889E+02  0.35823130500E+02  0.51100000000E-03 0. -1.
        -11    1    3    3    0    0  0.68885067575E+01 -0.22802072198E+01 -0.68377195238E+01  0.99702195994E+01  0.51100000000E-03 0.  1.
        -12    1    3    3    0    0 -0.14605572105E+02  0.15355795215E+02  0.38804540486E+02  0.44214426894E+02  0.00000000000E+00 0.  1.
</event>
<event>
 7    1  0.3752192E-015  0.9000784E+02  0.7816164E-02  0.1186339E+00
        -11   -1    0    0    0    0  0.00000000000E+00  0.00000000000E+00  0.45593999997E+02  0.45594000000E+02  0.51100000000E-03 0.  1.
         11   -1    0    0    0    0 -0.00000000000E+00 -0.00000000000E+00 -0.45593999997E+02  0.45594000000E+02  0.51100000000E-03 0. -1.
    9900012    2    1    2    0    0  0.36756974827E+00 -0.84695433829E+00 -0.73507487168E+00  0.90007841435E+02  0.90000104142E+02 0.  0.
        -12    1    1    2    0    0 -0.36756974827E+00  0.84695433829E+00  0.73507487168E+00  0.11801585648E+01  0.00000000000E+00 0.  1.
         11    1    3    3    0    0 -0.16926868964E+01  0.77146148471E+01  0.40548525958E+01  0.88781924401E+01  0.51100000000E-03 0. -1.
        -11    1    3    3    0    0 -0.21838561331E+02  0.21120976027E+02  0.19349346014E+02  0.36019655478E+02  0.51100000000E-03 0.  1.
         12    1    3    3    0    0  0.23898817976E+02 -0.29682545212E+02 -0.24139273481E+02  0.45109993517E+02  0.00000000000E+00 0. -1.
</event>
<event>
 7    1  0.3752192E-015  0.9000808E+02  0.7816164E-02  0.1186338E+00
        -11   -1    0    0    0    0  0.00000000000E+00  0.00000000000E+00  0.45593999997E+02  0.45594000000E+02  0.51100000000E-03 0.  1.
         11   -1    0    0    0    0 -0.00000000000E+00 -0.00000000000E+00 -0.45593999997E+02  0.45594000000E+02  0.51100000000E-03 0. -1.
    9900012    2    1    2    0    0 -0.99321757360E+00  0.63690845670E+00 -0.91156293413E-02  0.90008077704E+02  0.90000343529E+02 0.  0.
        -12    1    1    2    0    0  0.99321757360E+00 -0.63690845670E+00  0.91156293413E-02  0.11799222964E+01  0.00000000000E+00 0.  1.
         11    1    3    3    0    0  0.20593879545E+02 -0.46601452288E+01  0.94315428182E+01  0.23125285478E+02  0.51100000000E-03 0.  1.
        -11    1    3    3    0    0 -0.20005948565E+02 -0.20331247456E+02  0.14304355735E+02  0.31909437387E+02  0.51100000000E-03 0. -1.
         12    1    3    3    0    0 -0.15811485527E+01  0.25628301141E+02 -0.23745014183E+02  0.34973354838E+02  0.00000000000E+00 0. -1.
</event>
<event>
 7    1  0.3752192E-015  0.9000737E+02  0.7816164E-02  0.1186340E+00
        -11   -1    0    0    0    0  0.00000000000E+00  0.00000000000E+00  0.45593999997E+02  0.45594000000E+02  0.51100000000E-03 0.  1.
         11   -1    0    0    0    0 -0.00000000000E+00 -0.00000000000E+00 -0.45593999997E+02  0.45594000000E+02  0.51100000000E-03 0. -1.
    9900012    2    1    2    0    0 -0.87634255131E+00 -0.45577737365E+00 -0.64665774218E+00  0.90007374946E+02  0.89999631495E+02 0.  0.
        -12    1    1    2    0    0  0.87634255131E+00  0.45577737365E+00  0.64665774218E+00  0.11806250536E+01  0.00000000000E+00 0.  1.
         11    1    3    3    0    0  0.36263483931E+02 -0.72206484409E+00 -0.11293956782E+02  0.37988354854E+02  0.51100000000E-03 0. -1.
        -11    1    3    3    0    0 -0.16809606275E+01 -0.12209348041E+02 -0.17273499991E+01  0.12444980775E+02  0.51100000000E-03 0.  1.
        -12    1    3    3    0    0 -0.35458865855E+02  0.12475635511E+02  0.12374649039E+02  0.39574039318E+02  0.00000000000E+00 0.  1.
</event>
<event>
 7    1  0.3752192E-015  0.9000762E+02  0.7816164E-02  0.1186339E+00
        -11   -1    0    0    0    0  0.00000000000E+00  0.00000000000E+00  0.45593999997E+02  0.45594000000E+02  0.51100000000E-03 0. -1.
         11   -1    0    0    0    0 -0.00000000000E+00 -0.00000000000E+00 -0.45593999997E+02  0.45594000000E+02  0.51100000000E-03 0.  1.
    9900012    2    1    2    0    0 -0.37414227691E+00 -0.35421731539E+00 -0.10619948794E+01  0.90007624859E+02  0.89999884707E+02 0.  0.
        -12    1    1    2    0    0  0.37414227691E+00  0.35421731539E+00  0.10619948794E+01  0.11803751411E+01  0.00000000000E+00 0.  1.
         11    1    3    3    0    0  0.63828532767E+01  0.55724587187E+00 -0.68404807161E+01  0.93724871620E+01  0.51100000000E-03 0. -1.
        -11    1    3    3    0    0  0.20197988722E+02  0.75647836553E+01 -0.28799373584E+02  0.35980392149E+02  0.51100000000E-03 0.  1.
         12    1    3    3    0    0 -0.26954984275E+02 -0.84762468425E+01  0.34577859420E+02  0.44654745547E+02  0.00000000000E+00 0. -1.
</event>
<event>
 7    1  0.3752192E-015  0.9000772E+02  0.7816164E-02  0.1186339E+00
        -11   -1    0    0    0    0  0.00000000000E+00  0.00000000000E+00  0.45593999997E+02  0.45594000000E+02  0.51100000000E-03 0.  1.
         11   -1    0    0    0    0 -0.00000000000E+00 -0.00000000000E+00 -0.45593999997E+02  0.45594000000E+02  0.51100000000E-03 0. -1.
    9900012    2    1    2    0    0 -0.47994131625E+00  0.93653761643E+00 -0.53442719090E+00  0.90007720882E+02  0.89999981998E+02 0.  0.
        -12    1    1    2    0    0  0.47994131625E+00 -0.93653761643E+00  0.53442719090E+00  0.11802791180E+01  0.00000000000E+00 0.  1.
         11    1    3    3    0    0  0.63389335952E+01 -0.70585457888E+01  0.91750127334E+01  0.13197954641E+02  0.51100000000E-03 0. -1.
        -11    1    3    3    0    0  0.14269285750E+02  0.24695957053E+02  0.21418592944E+02  0.35668738897E+02  0.51100000000E-03 0.  1.
         12    1    3    3    0    0 -0.21088160661E+02 -0.16700873648E+02 -0.31128032868E+02  0.41141027344E+02  0.00000000000E+00 0. -1.
</event>
<event>
 7    1  0.3752192E-015  0.9000794E+02  0.7816164E-02  0.1186339E+00
        -11   -1    0    0    0    0  0.00000000000E+00  0.00000000000E+00  0.45593999997E+02  0.45594000000E+02  0.51100000000E-03 0.  1.
         11   -1    0    0    0    0 -0.00000000000E+00 -0.00000000000E+00 -0.45593999997E+02  0.45594000000E+02  0.51100000000E-03 0. -1.
    9900012    2    1    2    0    0 -0.37657373540E+00  0.10755103827E+01  0.30660042501E+00  0.90007943145E+02  0.90000207194E+02 0.  0.
        -12    1    1    2    0    0  0.37657373540E+00 -0.10755103827E+01 -0.30660042501E+00  0.11800568554E+01  0.00000000000E+00 0.  1.
         11    1    3    3    0    0  0.18592483021E+01  0.42522788566E+02  0.10471873490E+02  0.43832687419E+02  0.51100000000E-03 0. -1.
        -11    1    3    3    0    0  0.15526781523E+00 -0.72369405078E+01  0.48762061414E+01  0.87278177457E+01  0.51100000000E-03 0.  1.
        -12    1    3    3    0    0 -0.23910898527E+01 -0.34210337676E+02 -0.15041479206E+02  0.37447437980E+02  0.00000000000E+00 0.  1.
</event>
<event>
 7    1  0.3752192E-015  0.9000780E+02  0.7816164E-02  0.1186339E+00
        -11   -1    0    0    0    0  0.00000000000E+00  0.00000000000E+00  0.45593999997E+02  0.45594000000E+02  0.51100000000E-03 0.  1.
         11   -1    0    0    0    0 -0.00000000000E+00 -0.00000000000E+00 -0.45593999997E+02  0.45594000000E+02  0.51100000000E-03 0. -1.
    9900012    2    1    2    0    0  0.10963602390E+01  0.38557171883E+00 -0.20543430087E+00  0.90007798926E+02  0.90000061071E+02 0.  0.
        -12    1    1    2    0    0 -0.10963602390E+01 -0.38557171883E+00  0.20543430087E+00  0.11802010744E+01  0.00000000000E+00 0.  1.
         11    1    3    3    0    0 -0.53528011559E+01 -0.37766316751E+01  0.84054710638E+01  0.10656799289E+02  0.51100000000E-03 0. -1.
        -11    1    3    3    0    0 -0.61025646343E+01 -0.31303746360E+02 -0.22733563298E+02  0.39166066075E+02  0.51100000000E-03 0.  1.
         12    1    3    3    0    0  0.12551726029E+02  0.35465949754E+02  0.14122657933E+02  0.40184933562E+02  0.00000000000E+00 0. -1.
</event>
<event>
 7    1  0.3752192E-015  0.9000771E+02  0.7816164E-02  0.1186339E+00
        -11   -1    0    0    0    0  0.00000000000E+00  0.00000000000E+00  0.45593999997E+02  0.45594000000E+02  0.51100000000E-03 0. -1.
         11   -1    0    0    0    0 -0.00000000000E+00 -0.00000000000E+00 -0.45593999997E+02  0.45594000000E+02  0.51100000000E-03 0.  1.
    9900012    2    1    2    0    0 -0.26620353029E+00 -0.11420301281E+01 -0.13413239386E+00  0.90007708243E+02  0.89999969192E+02 0.  0.
        -12    1    1    2    0    0  0.26620353029E+00  0.11420301281E+01  0.13413239386E+00  0.11802917572E+01  0.00000000000E+00 0.  1.
         11    1    3    3    0    0 -0.80730455905E+01  0.88330425970E+01 -0.73269910298E+00  0.11988892979E+02  0.51100000000E-03 0. -1.
        -11    1    3    3    0    0  0.20933182607E+02  0.13294534995E+02 -0.28992721645E+02  0.38151287048E+02  0.51100000000E-03 0.  1.
         12    1    3    3    0    0 -0.13126340547E+02 -0.23269607720E+02  0.29591288354E+02  0.39867528216E+02  0.00000000000E+00 0. -1.
</event>
<event>
 7    1  0.3752192E-015  0.9000769E+02  0.7816164E-02  0.1186339E+00
        -11   -1    0    0    0    0  0.00000000000E+00  0.00000000000E+00  0.45593999997E+02  0.45594000000E+02  0.51100000000E-03 0.  1.
         11   -1    0    0    0    0 -0.00000000000E+00 -0.00000000000E+00 -0.45593999997E+02  0.45594000000E+02  0.51100000000E-03 0. -1.
    9900012    2    1    2    0    0  0.26851656284E+00  0.66755028888E+00 -0.93563737868E+00  0.90007685704E+02  0.89999946355E+02 0.  0.
        -12    1    1    2    0    0 -0.26851656284E+00 -0.66755028888E+00  0.93563737868E+00  0.11803142959E+01  0.00000000000E+00 0.  1.
         11    1    3    3    0    0 -0.14555835746E+02  0.30785406492E+02 -0.17244432527E+02  0.38170460576E+02  0.51100000000E-03 0. -1.
        -11    1    3    3    0    0 -0.87698232383E+01 -0.24188175385E+01 -0.42543534461E+01  0.10042908016E+02  0.51100000000E-03 0.  1.
        -12    1    3    3    0    0  0.23594175547E+02 -0.27699038665E+02  0.20563148594E+02  0.41794317112E+02  0.00000000000E+00 0.  1.
</event>
<event>
 7    1  0.3752192E-015  0.9000749E+02  0.7816164E-02  0.1186340E+00
        -11   -1    0    0    0    0  0.00000000000E+00  0.00000000000E+00  0.45593999997E+02  0.45594000000E+02  0.51100000000E-03 0.  1.
         11   -1    0    0    0    0 -0.00000000000E+00 -0.00000000000E+00 -0.45593999997E+02  0.45594000000E+02  0.51100000000E-03 0. -1.
    9900012    2    1    2    0    0 -0.44590728384E+00  0.32052587197E+00 -0.10449994588E+01  0.90007494172E+02  0.89999752295E+02 0.  0.
        -12    1    1    2    0    0  0.44590728384E+00 -0.32052587197E+00  0.10449994588E+01  0.11805058277E+01  0.00000000000E+00 0.  1.
         11    1    3    3    0    0 -0.30776295137E+02 -0.26749450134E+02 -0.59154299371E+01  0.41203224831E+02  0.51100000000E-03 0. -1.
        -11    1    3    3    0    0  0.50072253620E+01 -0.53045355074E+01  0.21845769953E+01  0.76146424529E+01  0.51100000000E-03 0.  1.
        -12    1    3    3    0    0  0.25323162491E+02  0.32374511514E+02  0.26858534830E+01  0.41189626889E+02  0.00000000000E+00 0.  1.
</event>
<event>
 7    1  0.3752192E-015  0.9000694E+02  0.7816164E-02  0.1186341E+00
        -11   -1    0    0    0    0  0.00000000000E+00  0.00000000000E+00  0.45593999997E+02  0.45594000000E+02  0.51100000000E-03 0.  1.
         11   -1    0    0    0    0 -0.00000000000E+00 -0.00000000000E+00 -0.45593999997E+02  0.45594000000E+02  0.51100000000E-03 0. -1.
    9900012    2    1    2    0    0 -0.10730739955E+01 -0.23103767152E+00 -0.43592695368E+00  0.90006941782E+02  0.89999192610E+02 0.  0.
        -12    1    1    2    0    0  0.10730739955E+01  0.23103767152E+00  0.43592695368E+00  0.11810582181E+01  0.00000000000E+00 0.  1.
         11    1    3    3    0    0  0.27508281814E+02  0.22509200192E+02  0.78108594343E+01  0.36392020925E+02  0.51100000000E-03 0. -1.
        -11    1    3    3    0    0  0.28546535916E+01  0.79007338350E+01 -0.45682750017E+01  0.95624149153E+01  0.51100000000E-03 0.  1.
        -12    1    3    3    0    0 -0.31436009401E+02 -0.30640971699E+02 -0.36785113862E+01  0.44052505942E+02  0.00000000000E+00 0.  1.
</event>
<event>
 7    1  0.3752192E-015  0.9000778E+02  0.7816164E-02  0.1186339E+00
        -11   -1    0    0    0    0  0.00000000000E+00  0.00000000000E+00  0.45593999997E+02  0.45594000000E+02  0.51100000000E-03 0.  1.
         11   -1    0    0    0    0 -0.00000000000E+00 -0.00000000000E+00 -0.45593999997E+02  0.45594000000E+02  0.51100000000E-03 0. -1.
    9900012    2    1    2    0    0 -0.68074063088E+00  0.96295778416E+00 -0.47135836073E-01  0.90007780831E+02  0.90000042738E+02 0.  0.
        -12    1    1    2    0    0  0.68074063088E+00 -0.96295778416E+00  0.47135836073E-01  0.11802191693E+01  0.00000000000E+00 0.  1.
         11    1    3    3    0    0 -0.14547908175E+02 -0.10149021872E+02 -0.24482315585E+01  0.17906370800E+02  0.51100000000E-03 0. -1.
        -11    1    3    3    0    0 -0.23183103927E+01 -0.17632137353E+02  0.26029328438E+02  0.31524478900E+02  0.51100000000E-03 0.  1.
         12    1    3    3    0    0  0.16185477936E+02  0.28744117009E+02 -0.23628232716E+02  0.40576931130E+02  0.00000000000E+00 0. -1.
</event>
<event>
 7    1  0.3752192E-015  0.9000781E+02  0.7816164E-02  0.1186339E+00
        -11   -1    0    0    0    0  0.00000000000E+00  0.00000000000E+00  0.45593999997E+02  0.45594000000E+02  0.51100000000E-03 0. -1.
         11   -1    0    0    0    0 -0.00000000000E+00 -0.00000000000E+00 -0.45593999997E+02  0.45594000000E+02  0.51100000000E-03 0.  1.
    9900012    2    1    2    0    0  0.77673525858E+00  0.67550167680E+00  0.57725758370E+00  0.90007810822E+02  0.90000073125E+02 0.  0.
        -12    1    1    2    0    0 -0.77673525858E+00 -0.67550167680E+00 -0.57725758370E+00  0.11801891777E+01  0.00000000000E+00 0.  1.
         11    1    3    3    0    0 -0.62521634873E+01  0.39181748247E+01  0.35929590570E+02  0.36679382778E+02  0.51100000000E-03 0. -1.
        -11    1    3    3    0    0  0.84193560448E+00  0.13665537874E+02 -0.40589764787E-01  0.13691509367E+02  0.51100000000E-03 0.  1.
        -12    1    3    3    0    0  0.61869631414E+01 -0.16908211022E+02 -0.35311743221E+02  0.39636918677E+02  0.00000000000E+00 0.  1.
</event>
<event>
 7    1  0.3752192E-015  0.9000768E+02  0.7816164E-02  0.1186339E+00
        -11   -1    0    0    0    0  0.00000000000E+00  0.00000000000E+00  0.45593999997E+02  0.45594000000E+02  0.51100000000E-03 0.  1.
         11   -1    0    0    0    0 -0.00000000000E+00 -0.00000000000E+00 -0.45593999997E+02  0.45594000000E+02  0.51100000000E-03 0. -1.
    9900012    2    1    2    0    0 -0.11203636513E+01  0.31852137335E+00  0.19101876061E+00  0.90007678542E+02  0.89999939099E+02 0.  0.
        -12    1    1    2    0    0  0.11203636513E+01 -0.31852137335E+00 -0.19101876061E+00  0.11803214577E+01  0.00000000000E+00 0.  1.
         11    1    3    3    0    0  0.77798641743E+01 -0.81777756255E+01 -0.35222892733E+01  0.11824078093E+02  0.51100000000E-03 0. -1.
        -11    1    3    3    0    0  0.28949157847E+02 -0.15834736288E+02 -0.41369961305E+00  0.32999450920E+02  0.51100000000E-03 0.  1.
         12    1    3    3    0    0 -0.37849385673E+02  0.24331033287E+02  0.41270076469E+01  0.45184149530E+02  0.00000000000E+00 0. -1.
</event>
<event>
 7    1  0.3752192E-015  0.9000777E+02  0.7816164E-02  0.1186339E+00
        -11   -1    0    0    0    0  0.00000000000E+00  0.00000000000E+00  0.45593999997E+02  0.45594000000E+02  0.51100000000E-03 0.  1.
         11   -1    0    0    0    0 -0.00000000000E+00 -0.00000000000E+00 -0.45593999997E+02  0.45594000000E+02  0.51100000000E-03 0. -1.
    9900012    2    1    2    0    0  0.59810768452E+00 -0.10069818082E+01  0.14558894529E+00  0.90007770656E+02  0.90000032428E+02 0.  0.
        -12    1    1    2    0    0 -0.59810768452E+00  0.10069818082E+01 -0.14558894529E+00  0.11802293444E+01  0.00000000000E+00 0.  1.
         11    1    3    3    0    0  0.13423246250E+02 -0.25544719088E+02 -0.23301147461E+02  0.37089886579E+02  0.51100000000E-03 0. -1.
        -11    1    3    3    0    0  0.40583840938E+01 -0.62624291260E+01 -0.38843797922E+01  0.84129012024E+01  0.51100000000E-03 0.  1.
        -12    1    3    3    0    0 -0.16883522660E+02  0.30800166406E+02  0.27331116198E+02  0.44504982874E+02  0.00000000000E+00 0.  1.
</event>
<event>
 7    1  0.3752192E-015  0.9000773E+02  0.7816164E-02  0.1186339E+00
        -11   -1    0    0    0    0  0.00000000000E+00  0.00000000000E+00  0.45593999997E+02  0.45594000000E+02  0.51100000000E-03 0. -1.
         11   -1    0    0    0    0 -0.00000000000E+00 -0.00000000000E+00 -0.45593999997E+02  0.45594000000E+02  0.51100000000E-03 0.  1.
    9900012    2    1    2    0    0  0.90287626349E-02  0.10302032078E+01 -0.57588850356E+00  0.90007725567E+02  0.89999986745E+02 0.  0.
        -12    1    1    2    0    0 -0.90287626349E-02 -0.10302032078E+01  0.57588850356E+00  0.11802744327E+01  0.00000000000E+00 0.  1.
         11    1    3    3    0    0  0.70313049059E+00  0.40522053193E+01  0.48792254945E+01  0.63813479865E+01  0.51100000000E-03 0. -1.
        -11    1    3    3    0    0  0.29796868996E+02  0.10491238234E+02 -0.28935226552E+02  0.42838847061E+02  0.51100000000E-03 0.  1.
         12    1    3    3    0    0 -0.30490970724E+02 -0.13513240346E+02  0.23480112554E+02  0.40787530520E+02  0.00000000000E+00 0. -1.
</event>
<event>
 7    1  0.3752192E-015  0.9000766E+02  0.7816164E-02  0.1186339E+00
        -11   -1    0    0    0    0  0.00000000000E+00  0.00000000000E+00  0.45593999997E+02  0.45594000000E+02  0.51100000000E-03 0. -1.
         11   -1    0    0    0    0 -0.00000000000E+00 -0.00000000000E+00 -0.45593999997E+02  0.45594000000E+02  0.51100000000E-03 0.  1.
    9900012    2    1    2    0    0 -0.88705313753E+00 -0.59905828736E+00  0.49747142621E+00  0.90007656016E+02  0.89999916275E+02 0.  0.
        -12    1    1    2    0    0  0.88705313753E+00  0.59905828736E+00 -0.49747142621E+00  0.11803439839E+01  0.00000000000E+00 0.  1.
         11    1    3    3    0    0  0.32155805934E+01  0.92095147869E+00 -0.33024696407E+01  0.47004697816E+01  0.51100000000E-03 0. -1.
        -11    1    3    3    0    0  0.26948736148E+02  0.23160880514E+02 -0.18227283898E+02  0.39936132070E+02  0.51100000000E-03 0.  1.
         12    1    3    3    0    0 -0.31051369878E+02 -0.24680890280E+02  0.22027224965E+02  0.45371054165E+02  0.00000000000E+00 0. -1.
</event>
<event>
 7    1  0.3752192E-015  0.9000769E+02  0.7816164E-02  0.1186339E+00
        -11   -1    0    0    0    0  0.00000000000E+00  0.00000000000E+00  0.45593999997E+02  0.45594000000E+02  0.51100000000E-03 0.  1.
         11   -1    0    0    0    0 -0.00000000000E+00 -0.00000000000E+00 -0.45593999997E+02  0.45594000000E+02  0.51100000000E-03 0. -1.
    9900012    2    1    2    0    0  0.94683236376E+00  0.69868831155E+00 -0.91996989448E-01  0.90007694816E+02  0.89999955587E+02 0.  0.
        -12    1    1    2    0    0 -0.94683236376E+00 -0.69868831155E+00  0.91996989448E-01  0.11803051842E+01  0.00000000000E+00 0.  1.
         11    1    3    3    0    0  0.56581252675E+01  0.58987268230E+01  0.78364990595E+01  0.11323430463E+02  0.51100000000E-03 0. -1.
        -11    1    3    3    0    0  0.13239042706E+02  0.29498426481E+02  0.12419279304E+02  0.34636222590E+02  0.51100000000E-03 0.  1.
         12    1    3    3    0    0 -0.17950335610E+02 -0.34698464992E+02 -0.20347775353E+02  0.44048041763E+02  0.00000000000E+00 0. -1.
</event>
<event>
 7    1  0.3752192E-015  0.9000774E+02  0.7816164E-02  0.1186339E+00
        -11   -1    0    0    0    0  0.00000000000E+00  0.00000000000E+00  0.45593999997E+02  0.45594000000E+02  0.51100000000E-03 0.  1.
         11   -1    0    0    0    0 -0.00000000000E+00 -0.00000000000E+00 -0.45593999997E+02  0.45594000000E+02  0.51100000000E-03 0. -1.
    9900012    2    1    2    0    0 -0.60354333118E+00  0.44437483031E-01 -0.10132945317E+01  0.90007743651E+02  0.90000005067E+02 0.  0.
        -12    1    1    2    0    0  0.60354333118E+00 -0.44437483031E-01  0.10132945317E+01  0.11802563494E+01  0.00000000000E+00 0.  1.
         11    1    3    3    0    0  0.33246000449E+01 -0.32255213243E+01  0.59851161604E+01  0.75682606315E+01  0.51100000000E-03 0. -1.
        -11    1    3    3    0    0 -0.52129216168E+01  0.38898461449E+02  0.13270219018E+02  0.41429018428E+02  0.51100000000E-03 0.  1.
         12    1    3    3    0    0  0.12847782407E+01 -0.35628502642E+02 -0.20268629710E+02  0.41010464591E+02  0.00000000000E+00 0. -1.
</event>
<event>
 7    1  0.3752192E-015  0.9000774E+02  0.7816164E-02  0.1186339E+00
        -11   -1    0    0    0    0  0.00000000000E+00  0.00000000000E+00  0.45593999997E+02  0.45594000000E+02  0.51100000000E-03 0. -1.
         11   -1    0    0    0    0 -0.00000000000E+00 -0.00000000000E+00 -0.45593999997E+02  0.45594000000E+02  0.51100000000E-03 0.  1.
    9900012    2    1    2    0    0 -0.11478109922E+01 -0.23869485389E+00 -0.13629480833E+00  0.90007736647E+02  0.89999997971E+02 0.  0.
        -12    1    1    2    0    0  0.11478109922E+01  0.23869485389E+00  0.13629480833E+00  0.11802633527E+01  0.00000000000E+00 0.  1.
         11    1    3    3    0    0 -0.63829778905E+01 -0.89884685211E+01  0.23827980262E+01  0.11278860749E+02  0.51100000000E-03 0. -1.
        -11    1    3    3    0    0  0.30564379013E+02 -0.22611835941E+02  0.25175655105E+01  0.38102683966E+02  0.51100000000E-03 0.  1.
         12    1    3    3    0    0 -0.25329212115E+02  0.31361609608E+02 -0.50366583451E+01  0.40626191932E+02  0.00000000000E+00 0. -1.
</event>
<event>
 7    1  0.3752192E-015  0.9000781E+02  0.7816164E-02  0.1186339E+00
        -11   -1    0    0    0    0  0.00000000000E+00  0.00000000000E+00  0.45593999997E+02  0.45594000000E+02  0.51100000000E-03 0.  1.
         11   -1    0    0    0    0 -0.00000000000E+00 -0.00000000000E+00 -0.45593999997E+02  0.45594000000E+02  0.51100000000E-03 0. -1.
    9900012    2    1    2    0    0 -0.26736556088E+00 -0.10729265563E+01  0.41254371828E+00  0.90007810160E+02  0.90000072454E+02 0.  0.
        -12    1    1    2    0    0  0.26736556088E+00  0.10729265563E+01 -0.41254371828E+00  0.11801898398E+01  0.00000000000E+00 0.  1.
         11    1    3    3    0    0  0.25295184608E+02 -0.22520845080E+02 -0.10033633319E+02  0.35322919263E+02  0.51100000000E-03 0. -1.
        -11    1    3    3    0    0  0.84005158399E+01  0.10948618875E+01 -0.74054116419E+01  0.11252000301E+02  0.51100000000E-03 0.  1.
        -12    1    3    3    0    0 -0.33963066009E+02  0.20353056636E+02  0.17851588679E+02  0.43432890596E+02  0.00000000000E+00 0.  1.
</event>
<event>
 7    1  0.3752192E-015  0.9000774E+02  0.7816164E-02  0.1186339E+00
        -11   -1    0    0    0    0  0.00000000000E+00  0.00000000000E+00  0.45593999997E+02  0.45594000000E+02  0.51100000000E-03 0.  1.
         11   -1    0    0    0    0 -0.00000000000E+00 -0.00000000000E+00 -0.45593999997E+02  0.45594000000E+02  0.51100000000E-03 0. -1.
    9900012    2    1    2    0    0  0.20037649629E+00  0.10959645135E+01 -0.38951746424E+00  0.90007740363E+02  0.90000001736E+02 0.  0.
        -12    1    1    2    0    0 -0.20037649629E+00 -0.10959645135E+01  0.38951746424E+00  0.11802596367E+01  0.00000000000E+00 0.  1.
         11    1    3    3    0    0 -0.67086238483E+01 -0.28954460919E+01 -0.48147513717E+01  0.87504898744E+01  0.51100000000E-03 0. -1.
        -11    1    3    3    0    0  0.34057495646E+02 -0.75718168058E+01 -0.22331730409E+02  0.41424046190E+02  0.51100000000E-03 0.  1.
         12    1    3    3    0    0 -0.27148495301E+02  0.11563227411E+02  0.26756964317E+02  0.39833204299E+02  0.00000000000E+00 0. -1.
</event>
<event>
 7    1  0.3752192E-015  0.9000762E+02  0.7816164E-02  0.1186339E+00
        -11   -1    0    0    0    0  0.00000000000E+00  0.00000000000E+00  0.45593999997E+02  0.45594000000E+02  0.51100000000E-03 0.  1.
         11   -1    0    0    0    0 -0.00000000000E+00 -0.00000000000E+00 -0.45593999997E+02  0.45594000000E+02  0.51100000000E-03 0. -1.
    9900012    2    1    2    0    0  0.54841876018E+00  0.10163896246E+01 -0.24389354627E+00  0.90007620795E+02  0.89999880590E+02 0.  0.
        -12    1    1    2    0    0 -0.54841876018E+00 -0.10163896246E+01  0.24389354627E+00  0.11803792049E+01  0.00000000000E+00 0.  1.
         11    1    3    3    0    0  0.36296727272E+02  0.25008786545E+01  0.21614283398E+02  0.42318838025E+02  0.51100000000E-03 0. -1.
        -11    1    3    3    0    0 -0.10945872123E+01  0.63337347225E+01 -0.59721088515E+01  0.87738475651E+01  0.51100000000E-03 0.  1.
        -12    1    3    3    0    0 -0.34653721299E+02 -0.78182237524E+01 -0.15886068093E+02  0.38914935205E+02  0.00000000000E+00 0.  1.
</event>
<event>
 7    1  0.3752192E-015  0.9000772E+02  0.7816164E-02  0.1186339E+00
        -11   -1    0    0    0    0  0.00000000000E+00  0.00000000000E+00  0.45593999997E+02  0.45594000000E+02  0.51100000000E-03 0.  1.
         11   -1    0    0    0    0 -0.00000000000E+00 -0.00000000000E+00 -0.45593999997E+02  0.45594000000E+02  0.51100000000E-03 0. -1.
    9900012    2    1    2    0    0 -0.56609792577E+00 -0.20773639889E+00 -0.10146108567E+01  0.90007721870E+02  0.89999982999E+02 0.  0.
        -12    1    1    2    0    0  0.56609792577E+00  0.20773639889E+00  0.10146108567E+01  0.11802781297E+01  0.00000000000E+00 0.  1.
         11    1    3    3    0    0  0.21366979759E+02 -0.29411745881E+02 -0.11317146067E+02  0.38074616415E+02  0.51100000000E-03 0. -1.
        -11    1    3    3    0    0  0.54474871733E+01  0.58803423996E+01  0.13629247066E+02  0.15811701967E+02  0.51100000000E-03 0.  1.
        -12    1    3    3    0    0 -0.27380564858E+02  0.23323667083E+02 -0.33267118563E+01  0.36121403488E+02  0.00000000000E+00 0.  1.
</event>
<event>
 7    1  0.3752192E-015  0.9000771E+02  0.7816164E-02  0.1186339E+00
        -11   -1    0    0    0    0  0.00000000000E+00  0.00000000000E+00  0.45593999997E+02  0.45594000000E+02  0.51100000000E-03 0. -1.
         11   -1    0    0    0    0 -0.00000000000E+00 -0.00000000000E+00 -0.45593999997E+02  0.45594000000E+02  0.51100000000E-03 0.  1.
    9900012    2    1    2    0    0 -0.11323586461E+01 -0.32748258724E+00 -0.60036467680E-01  0.90007709643E+02  0.89999970611E+02 0.  0.
        -12    1    1    2    0    0  0.11323586461E+01  0.32748258724E+00  0.60036467680E-01  0.11802903565E+01  0.00000000000E+00 0.  1.
         11    1    3    3    0    0  0.85835846720E+01  0.17130150370E+02  0.36662113145E+02  0.41367022107E+02  0.51100000000E-03 0. -1.
        -11    1    3    3    0    0 -0.40854763256E+01  0.54531458640E+01 -0.29051953888E+01  0.74072989091E+01  0.51100000000E-03 0.  1.
        -12    1    3    3    0    0 -0.56304669925E+01 -0.22910778821E+02 -0.33816954224E+02  0.41233388627E+02  0.00000000000E+00 0.  1.
</event>
<event>
 7    1  0.3752192E-015  0.9000761E+02  0.7816164E-02  0.1186339E+00
        -11   -1    0    0    0    0  0.00000000000E+00  0.00000000000E+00  0.45593999997E+02  0.45594000000E+02  0.51100000000E-03 0. -1.
         11   -1    0    0    0    0 -0.00000000000E+00 -0.00000000000E+00 -0.45593999997E+02  0.45594000000E+02  0.51100000000E-03 0.  1.
    9900012    2    1    2    0    0  0.80319941492E+00  0.75240904210E+00  0.42669922634E+00  0.90007609854E+02  0.89999869504E+02 0.  0.
        -12    1    1    2    0    0 -0.80319941492E+00 -0.75240904210E+00 -0.42669922634E+00  0.11803901459E+01  0.00000000000E+00 0.  1.
         11    1    3    3    0    0 -0.13921636219E+02 -0.13020590669E+01  0.40086245697E+01  0.14545665472E+02  0.51100000000E-03 0. -1.
        -11    1    3    3    0    0 -0.26226616574E+02  0.95936403398E+01 -0.15775085944E+02  0.32073769480E+02  0.51100000000E-03 0.  1.
         12    1    3    3    0    0  0.40951452208E+02 -0.75391722308E+01  0.12193160600E+02  0.43388174902E+02  0.00000000000E+00 0. -1.
</event>
<event>
 7    1  0.3752192E-015  0.9000773E+02  0.7816164E-02  0.1186339E+00
        -11   -1    0    0    0    0  0.00000000000E+00  0.00000000000E+00  0.45593999997E+02  0.45594000000E+02  0.51100000000E-03 0.  1.
         11   -1    0    0    0    0 -0.00000000000E+00 -0.00000000000E+00 -0.45593999997E+02  0.45594000000E+02  0.51100000000E-03 0. -1.
    9900012    2    1    2    0    0  0.52970729235E+00 -0.54692754803E+00 -0.90184290195E+00  0.90007728769E+02  0.89999989989E+02 0.  0.
        -12    1    1    2    0    0 -0.52970729235E+00  0.54692754803E+00  0.90184290195E+00  0.11802712308E+01  0.00000000000E+00 0.  1.
         11    1    3    3    0    0  0.21873692829E+02  0.27218211518E+02 -0.11538423719E+02  0.36775327305E+02  0.51100000000E-03 0. -1.
        -11    1    3    3    0    0 -0.85144147672E+01  0.94422273583E+01  0.12810469869E+01  0.12778575741E+02  0.51100000000E-03 0.  1.
        -12    1    3    3    0    0 -0.12829570770E+02 -0.37207366425E+02  0.93555338299E+01  0.40453825723E+02  0.00000000000E+00 0.  1.
</event>
<event>
 7    1  0.3752192E-015  0.9000776E+02  0.7816164E-02  0.1186339E+00
        -11   -1    0    0    0    0  0.00000000000E+00  0.00000000000E+00  0.45593999997E+02  0.45594000000E+02  0.51100000000E-03 0.  1.
         11   -1    0    0    0    0 -0.00000000000E+00 -0.00000000000E+00 -0.45593999997E+02  0.45594000000E+02  0.51100000000E-03 0. -1.
    9900012    2    1    2    0    0 -0.71632379274E+00  0.73866289047E+00 -0.57812588737E+00  0.90007757574E+02  0.90000019174E+02 0.  0.
        -12    1    1    2    0    0  0.71632379274E+00 -0.73866289047E+00  0.57812588737E+00  0.11802424257E+01  0.00000000000E+00 0.  1.
         11    1    3    3    0    0 -0.53119172835E+01 -0.46894183069E+01  0.85323260553E+01  0.11090883529E+02  0.51100000000E-03 0. -1.
        -11    1    3    3    0    0 -0.36503762024E+02  0.68731579014E+01 -0.21510308948E+01  0.37207416943E+02  0.51100000000E-03 0.  1.
         12    1    3    3    0    0  0.41099355515E+02 -0.14450767040E+01 -0.69594210479E+01  0.41709457102E+02  0.00000000000E+00 0. -1.
</event>
<event>
 7    1  0.3752192E-015  0.9000837E+02  0.7816164E-02  0.1186338E+00
        -11   -1    0    0    0    0  0.00000000000E+00  0.00000000000E+00  0.45593999997E+02  0.45594000000E+02  0.51100000000E-03 0. -1.
         11   -1    0    0    0    0 -0.00000000000E+00 -0.00000000000E+00 -0.45593999997E+02  0.45594000000E+02  0.51100000000E-03 0.  1.
    9900012    2    1    2    0    0  0.48213788079E+00 -0.74746221877E-01  0.10739989663E+01  0.90008373910E+02  0.90000643643E+02 0.  0.
        -12    1    1    2    0    0 -0.48213788079E+00  0.74746221877E-01 -0.10739989663E+01  0.11796260905E+01  0.00000000000E+00 0.  1.
         11    1    3    3    0    0 -0.10124506073E+02 -0.47861202627E+01  0.30852485195E+02  0.32822072046E+02  0.51100000000E-03 0. -1.
        -11    1    3    3    0    0 -0.10356133097E+02  0.45557126023E+01  0.80857625096E+01  0.13906241967E+02  0.51100000000E-03 0.  1.
        -12    1    3    3    0    0  0.20962777051E+02  0.15566143852E+00 -0.37864248738E+02  0.43280059897E+02  0.00000000000E+00 0.  1.
</event>
<event>
 7    1  0.3752192E-015  0.9000733E+02  0.7816164E-02  0.1186340E+00
        -11   -1    0    0    0    0  0.00000000000E+00  0.00000000000E+00  0.45593999997E+02  0.45594000000E+02  0.51100000000E-03 0.  1.
         11   -1    0    0    0    0 -0.00000000000E+00 -0.00000000000E+00 -0.45593999997E+02  0.45594000000E+02  0.51100000000E-03 0. -1.
    9900012    2    1    2    0    0  0.41748401679E-01 -0.36745711535E+00 -0.11212548929E+01  0.90007330616E+02  0.89999586579E+02 0.  0.
        -12    1    1    2    0    0 -0.41748401679E-01  0.36745711535E+00  0.11212548929E+01  0.11806693845E+01  0.00000000000E+00 0.  1.
         11    1    3    3    0    0 -0.11933558919E+02 -0.28484484594E+02  0.14402440387E+02  0.34076472535E+02  0.51100000000E-03 0. -1.
        -11    1    3    3    0    0 -0.54061661257E+01 -0.55304870101E+01  0.81764091065E+01  0.11254625044E+02  0.51100000000E-03 0.  1.
        -12    1    3    3    0    0  0.17381473446E+02  0.33647514489E+02 -0.23700104386E+02  0.44676233037E+02  0.00000000000E+00 0.  1.
</event>
<event>
 7    1  0.3813643E-015  0.9000771E+02  0.7816164E-02  0.1186339E+00
        -11   -1    0    0    0    0  0.00000000000E+00  0.00000000000E+00  0.45593999997E+02  0.45594000000E+02  0.51100000000E-03 0.  1.
         11   -1    0    0    0    0 -0.00000000000E+00 -0.00000000000E+00 -0.45593999997E+02  0.45594000000E+02  0.51100000000E-03 0. -1.
    9900012    2    1    2    0    0 -0.58700212319E+00 -0.90321684453E+00 -0.48241433319E+00  0.90007705228E+02  0.89999966137E+02 0.  0.
        -12    1    1    2    0    0  0.58700212319E+00  0.90321684453E+00  0.48241433319E+00  0.11802947724E+01  0.00000000000E+00 0.  1.
         11    1    3    3    0    0 -0.49377828740E+01 -0.37452308729E+00 -0.35715347966E+02  0.36057011077E+02  0.51100000000E-03 0. -1.
        -11    1    3    3    0    0 -0.45822272385E+01  0.49446489159E+01 -0.74228495955E+01  0.10027215752E+02  0.51100000000E-03 0.  1.
        -12    1    3    3    0    0  0.89330079893E+01 -0.54733426731E+01  0.42655783228E+02  0.43923478398E+02  0.00000000000E+00 0.  1.
</event>
<event>
 7    1  0.3752192E-015  0.9000770E+02  0.7816164E-02  0.1186339E+00
        -11   -1    0    0    0    0  0.00000000000E+00  0.00000000000E+00  0.45593999997E+02  0.45594000000E+02  0.51100000000E-03 0.  1.
         11   -1    0    0    0    0 -0.00000000000E+00 -0.00000000000E+00 -0.45593999997E+02  0.45594000000E+02  0.51100000000E-03 0. -1.
    9900012    2    1    2    0    0 -0.79211194008E+00 -0.77801956524E+00 -0.40043104600E+00  0.90007703092E+02  0.89999963972E+02 0.  0.
        -12    1    1    2    0    0  0.79211194008E+00  0.77801956524E+00  0.40043104600E+00  0.11802969085E+01  0.00000000000E+00 0.  1.
         11    1    3    3    0    0 -0.39315165125E+01 -0.63206336728E+01 -0.53967991549E+01  0.91941651874E+01  0.51100000000E-03 0. -1.
        -11    1    3    3    0    0 -0.26768543351E+02 -0.14727172198E+02  0.25034662653E+02  0.39499099337E+02  0.51100000000E-03 0.  1.
         12    1    3    3    0    0  0.29907947923E+02  0.20269786306E+02 -0.20038294544E+02  0.41314438567E+02  0.00000000000E+00 0. -1.
</event>
<event>
 7    1  0.3752192E-015  0.9000785E+02  0.7816164E-02  0.1186339E+00
        -11   -1    0    0    0    0  0.00000000000E+00  0.00000000000E+00  0.45593999997E+02  0.45594000000E+02  0.51100000000E-03 0. -1.
         11   -1    0    0    0    0 -0.00000000000E+00 -0.00000000000E+00 -0.45593999997E+02  0.45594000000E+02  0.51100000000E-03 0.  1.
    9900012    2    1    2    0    0  0.16264646403E+00  0.98727506445E+00  0.62576887239E+00  0.90007850600E+02  0.90000113428E+02 0.  0.
        -12    1    1    2    0    0 -0.16264646403E+00 -0.98727506445E+00 -0.62576887239E+00  0.11801494002E+01  0.00000000000E+00 0.  1.
         11    1    3    3    0    0 -0.59614247784E+01 -0.33490866012E+02  0.53144089942E+00  0.34021450900E+02  0.51100000000E-03 0. -1.
        -11    1    3    3    0    0 -0.46462167040E+01 -0.88618384274E+01 -0.47314339803E+01  0.11068241854E+02  0.51100000000E-03 0.  1.
        -12    1    3    3    0    0  0.10770287946E+02  0.43339979504E+02  0.48257619533E+01  0.44918157846E+02  0.00000000000E+00 0.  1.
</event>
<event>
 7    1  0.3752192E-015  0.9000775E+02  0.7816164E-02  0.1186339E+00
        -11   -1    0    0    0    0  0.00000000000E+00  0.00000000000E+00  0.45593999997E+02  0.45594000000E+02  0.51100000000E-03 0. -1.
         11   -1    0    0    0    0 -0.00000000000E+00 -0.00000000000E+00 -0.45593999997E+02  0.45594000000E+02  0.51100000000E-03 0.  1.
    9900012    2    1    2    0    0 -0.93626569861E+00 -0.12833389146E+00  0.70705326432E+00  0.90007751143E+02  0.90000012658E+02 0.  0.
        -12    1    1    2    0    0  0.93626569861E+00  0.12833389146E+00 -0.70705326432E+00  0.11802488571E+01  0.00000000000E+00 0.  1.
         11    1    3    3    0    0 -0.24466351206E+02  0.46481267382E+00  0.26176100893E+02  0.35833038531E+02  0.51100000000E-03 0. -1.
        -11    1    3    3    0    0 -0.94755927586E+01 -0.17354392318E+01  0.34949332765E+01  0.10247593197E+02  0.51100000000E-03 0.  1.
        -12    1    3    3    0    0  0.33005678266E+02  0.11422926665E+01 -0.28963980905E+02  0.43927119416E+02  0.00000000000E+00 0.  1.
</event>
<event>
 7    1  0.3752192E-015  0.9000754E+02  0.7816164E-02  0.1186339E+00
        -11   -1    0    0    0    0  0.00000000000E+00  0.00000000000E+00  0.45593999997E+02  0.45594000000E+02  0.51100000000E-03 0. -1.
         11   -1    0    0    0    0 -0.00000000000E+00 -0.00000000000E+00 -0.45593999997E+02  0.45594000000E+02  0.51100000000E-03 0.  1.
    9900012    2    1    2    0    0 -0.41412753090E+00  0.35800626228E+00  0.10458605204E+01  0.90007536395E+02  0.89999795075E+02 0.  0.
        -12    1    1    2    0    0  0.41412753090E+00 -0.35800626228E+00 -0.10458605204E+01  0.11804636055E+01  0.00000000000E+00 0.  1.
         11    1    3    3    0    0  0.21703178524E+02  0.18878821995E+02  0.27490626206E+02  0.39789099103E+02  0.51100000000E-03 0. -1.
        -11    1    3    3    0    0 -0.35465109031E+01 -0.47319148499E+01  0.72454748562E+01  0.93523079443E+01  0.51100000000E-03 0.  1.
        -12    1    3    3    0    0 -0.18570795152E+02 -0.13788900883E+02 -0.33690240541E+02  0.40866129348E+02  0.00000000000E+00 0.  1.
</event>
<event>
 7    1  0.3752192E-015  0.9000757E+02  0.7816164E-02  0.1186339E+00
        -11   -1    0    0    0    0  0.00000000000E+00  0.00000000000E+00  0.45593999997E+02  0.45594000000E+02  0.51100000000E-03 0.  1.
         11   -1    0    0    0    0 -0.00000000000E+00 -0.00000000000E+00 -0.45593999997E+02  0.45594000000E+02  0.51100000000E-03 0. -1.
    9900012    2    1    2    0    0  0.40763544789E+00  0.97895446302E+00 -0.51856081471E+00  0.90007566259E+02  0.89999825333E+02 0.  0.
        -12    1    1    2    0    0 -0.40763544789E+00 -0.97895446302E+00  0.51856081471E+00  0.11804337413E+01  0.00000000000E+00 0.  1.
         11    1    3    3    0    0 -0.10408379124E+02  0.26260772748E+01 -0.10238485694E+01  0.10783269634E+02  0.51100000000E-03 0. -1.
        -11    1    3    3    0    0 -0.23753677065E+02 -0.15804925228E+02  0.22087324079E+02  0.36081611949E+02  0.51100000000E-03 0.  1.
         12    1    3    3    0    0  0.34569691637E+02  0.14157802416E+02 -0.21582036325E+02  0.43142684676E+02  0.00000000000E+00 0. -1.
</event>
<event>
 7    1  0.3752192E-015  0.9000768E+02  0.7816164E-02  0.1186339E+00
        -11   -1    0    0    0    0  0.00000000000E+00  0.00000000000E+00  0.45593999997E+02  0.45594000000E+02  0.51100000000E-03 0. -1.
         11   -1    0    0    0    0 -0.00000000000E+00 -0.00000000000E+00 -0.45593999997E+02  0.45594000000E+02  0.51100000000E-03 0.  1.
    9900012    2    1    2    0    0  0.96757120889E+00 -0.55106904212E+00  0.39152820474E+00  0.90007675693E+02  0.89999936213E+02 0.  0.
        -12    1    1    2    0    0 -0.96757120889E+00  0.55106904212E+00 -0.39152820474E+00  0.11803243065E+01  0.00000000000E+00 0.  1.
         11    1    3    3    0    0 -0.11729646181E+02  0.38257486694E+02 -0.74416371989E+01  0.40701324944E+02  0.51100000000E-03 0. -1.
        -11    1    3    3    0    0  0.94254504321E+01 -0.13798291368E+00 -0.10773493651E+01  0.94878257282E+01  0.51100000000E-03 0.  1.
        -12    1    3    3    0    0  0.32717669577E+01 -0.38670572823E+02  0.89105147687E+01  0.39818525022E+02  0.00000000000E+00 0.  1.
</event>
<event>
 7    1  0.3752192E-015  0.9000769E+02  0.7816164E-02  0.1186339E+00
        -11   -1    0    0    0    0  0.00000000000E+00  0.00000000000E+00  0.45593999997E+02  0.45594000000E+02  0.51100000000E-03 0.  1.
         11   -1    0    0    0    0 -0.00000000000E+00 -0.00000000000E+00 -0.45593999997E+02  0.45594000000E+02  0.51100000000E-03 0. -1.
    9900012    2    1    2    0    0 -0.38961184611E+00 -0.91232002178E+00 -0.63952922309E+00  0.90007693752E+02  0.89999954509E+02 0.  0.
        -12    1    1    2    0    0  0.38961184611E+00  0.91232002178E+00  0.63952922309E+00  0.11803062484E+01  0.00000000000E+00 0.  1.
         11    1    3    3    0    0  0.10019075332E+02  0.21582325666E+02 -0.33877090400E+02  0.41398501252E+02  0.51100000000E-03 0. -1.
        -11    1    3    3    0    0 -0.48773116252E+01  0.40641651356E+01  0.13938499137E+02  0.15316245146E+02  0.51100000000E-03 0.  1.
        -12    1    3    3    0    0 -0.55313755524E+01 -0.26558810824E+02  0.19299062040E+02  0.33292947354E+02  0.00000000000E+00 0.  1.
</event>
<event>
 7    1  0.3752192E-015  0.9000776E+02  0.7816164E-02  0.1186339E+00
        -11   -1    0    0    0    0  0.00000000000E+00  0.00000000000E+00  0.45593999997E+02  0.45594000000E+02  0.51100000000E-03 0.  1.
         11   -1    0    0    0    0 -0.00000000000E+00 -0.00000000000E+00 -0.45593999997E+02  0.45594000000E+02  0.51100000000E-03 0. -1.
    9900012    2    1    2    0    0  0.11400606100E+01 -0.26864020118E+00 -0.14512779907E+00  0.90007759418E+02  0.90000021043E+02 0.  0.
        -12    1    1    2    0    0 -0.11400606100E+01  0.26864020118E+00  0.14512779907E+00  0.11802405815E+01  0.00000000000E+00 0.  1.
         11    1    3    3    0    0  0.19176016684E+01  0.52837712228E+00 -0.10696480184E+02  0.10879846834E+02  0.51100000000E-03 0. -1.
        -11    1    3    3    0    0  0.37313697466E+02 -0.10619713333E+02  0.18493697647E+01  0.38839548126E+02  0.51100000000E-03 0.  1.
         12    1    3    3    0    0 -0.38091238524E+02  0.98226960092E+01  0.87019826204E+01  0.40288364458E+02  0.00000000000E+00 0. -1.
</event>
<event>
 7    1  0.3752192E-015  0.9000772E+02  0.7816164E-02  0.1186339E+00
        -11   -1    0    0    0    0  0.00000000000E+00  0.00000000000E+00  0.45593999997E+02  0.45594000000E+02  0.51100000000E-03 0. -1.
         11   -1    0    0    0    0 -0.00000000000E+00 -0.00000000000E+00 -0.45593999997E+02  0.45594000000E+02  0.51100000000E-03 0.  1.
    9900012    2    1    2    0    0 -0.58206141896E+00 -0.34241017936E+00  0.96799422592E+00  0.90007723317E+02  0.89999984465E+02 0.  0.
        -12    1    1    2    0    0  0.58206141896E+00  0.34241017936E+00 -0.96799422592E+00  0.11802766827E+01  0.00000000000E+00 0.  1.
         11    1    3    3    0    0  0.60565369276E+01 -0.21527214231E+01 -0.56312472688E+01  0.85455716687E+01  0.51100000000E-03 0. -1.
        -11    1    3    3    0    0 -0.12112004552E+02 -0.29527012363E+02 -0.21936942026E+02  0.38726922665E+02  0.51100000000E-03 0.  1.
         12    1    3    3    0    0  0.54734062059E+01  0.31337323607E+02  0.28536183521E+02  0.42735228984E+02  0.00000000000E+00 0. -1.
</event>
<event>
 7    1  0.3752192E-015  0.9000780E+02  0.7816164E-02  0.1186339E+00
        -11   -1    0    0    0    0  0.00000000000E+00  0.00000000000E+00  0.45593999997E+02  0.45594000000E+02  0.51100000000E-03 0.  1.
         11   -1    0    0    0    0 -0.00000000000E+00 -0.00000000000E+00 -0.45593999997E+02  0.45594000000E+02  0.51100000000E-03 0. -1.
    9900012    2    1    2    0    0 -0.70224724501E+00 -0.39849679362E+00 -0.86076549906E+00  0.90007801656E+02  0.90000063837E+02 0.  0.
        -12    1    1    2    0    0  0.70224724501E+00  0.39849679362E+00  0.86076549906E+00  0.11801983444E+01  0.00000000000E+00 0.  1.
         11    1    3    3    0    0 -0.45620847369E+01  0.30399670273E+01 -0.77665574123E+01  0.95064941473E+01  0.51100000000E-03 0. -1.
        -11    1    3    3    0    0 -0.36623117139E+02  0.47882071215E+01 -0.55602625670E+01  0.37350986018E+02  0.51100000000E-03 0.  1.
         12    1    3    3    0    0  0.40482954631E+02 -0.82266709424E+01  0.12466054480E+02  0.43150321491E+02  0.00000000000E+00 0. -1.
</event>
<event>
 7    1  0.3752192E-015  0.9000774E+02  0.7816164E-02  0.1186339E+00
        -11   -1    0    0    0    0  0.00000000000E+00  0.00000000000E+00  0.45593999997E+02  0.45594000000E+02  0.51100000000E-03 0.  1.
         11   -1    0    0    0    0 -0.00000000000E+00 -0.00000000000E+00 -0.45593999997E+02  0.45594000000E+02  0.51100000000E-03 0. -1.
    9900012    2    1    2    0    0 -0.37874342511E+00  0.35320974314E+00 -0.10605756421E+01  0.90007735454E+02  0.89999996762E+02 0.  0.
        -12    1    1    2    0    0  0.37874342511E+00 -0.35320974314E+00  0.10605756421E+01  0.11802645455E+01  0.00000000000E+00 0.  1.
         11    1    3    3    0    0  0.60561953839E+01  0.14468653163E+01  0.78726112742E+01  0.10037376665E+02  0.51100000000E-03 0. -1.
        -11    1    3    3    0    0 -0.13067001333E+02  0.22482074406E+02  0.26349948957E+02  0.37020399832E+02  0.51100000000E-03 0.  1.
         12    1    3    3    0    0  0.66320625236E+01 -0.23575729979E+02 -0.35283135874E+02  0.42949958958E+02  0.00000000000E+00 0. -1.
</event>
<event>
 7    1  0.3752192E-015  0.9000768E+02  0.7816164E-02  0.1186339E+00
        -11   -1    0    0    0    0  0.00000000000E+00  0.00000000000E+00  0.45593999997E+02  0.45594000000E+02  0.51100000000E-03 0. -1.
         11   -1    0    0    0    0 -0.00000000000E+00 -0.00000000000E+00 -0.45593999997E+02  0.45594000000E+02  0.51100000000E-03 0.  1.
    9900012    2    1    2    0    0 -0.76138489458E+00 -0.65040069655E+00  0.62484872676E+00  0.90007676335E+02  0.89999936862E+02 0.  0.
        -12    1    1    2    0    0  0.76138489458E+00  0.65040069655E+00 -0.62484872676E+00  0.11803236654E+01  0.00000000000E+00 0.  1.
         11    1    3    3    0    0  0.10397108883E+02 -0.94461938974E+00  0.25652337624E+01  0.10750469917E+02  0.51100000000E-03 0. -1.
        -11    1    3    3    0    0  0.94729452331E+01 -0.16854969721E+02 -0.32980381756E+02  0.38229991848E+02  0.51100000000E-03 0.  1.
         12    1    3    3    0    0 -0.20631439011E+02  0.17149188415E+02  0.31039996720E+02  0.41027214569E+02  0.00000000000E+00 0. -1.
</event>
<event>
 7    1  0.3752192E-015  0.9000808E+02  0.7816164E-02  0.1186338E+00
        -11   -1    0    0    0    0  0.00000000000E+00  0.00000000000E+00  0.45593999997E+02  0.45594000000E+02  0.51100000000E-03 0. -1.
         11   -1    0    0    0    0 -0.00000000000E+00 -0.00000000000E+00 -0.45593999997E+02  0.45594000000E+02  0.51100000000E-03 0.  1.
    9900012    2    1    2    0    0  0.10543164098E+01 -0.26666571522E+00  0.45772605527E+00  0.90008081851E+02  0.90000347731E+02 0.  0.
        -12    1    1    2    0    0 -0.10543164098E+01  0.26666571522E+00 -0.45772605527E+00  0.11799181486E+01  0.00000000000E+00 0.  1.
         11    1    3    3    0    0 -0.19680468761E+02 -0.20439199651E+01  0.33829970508E+02  0.39191394008E+02  0.51100000000E-03 0. -1.
        -11    1    3    3    0    0  0.73324122005E+01  0.12515361594E+02 -0.14619339060E+01  0.14578607461E+02  0.51100000000E-03 0.  1.
        -12    1    3    3    0    0  0.13402372971E+02 -0.10738107344E+02 -0.31910310547E+02  0.36238080382E+02  0.00000000000E+00 0.  1.
</event>
<event>
 7    1  0.3752192E-015  0.9000779E+02  0.7816164E-02  0.1186339E+00
        -11   -1    0    0    0    0  0.00000000000E+00  0.00000000000E+00  0.45593999997E+02  0.45594000000E+02  0.51100000000E-03 0.  1.
         11   -1    0    0    0    0 -0.00000000000E+00 -0.00000000000E+00 -0.45593999997E+02  0.45594000000E+02  0.51100000000E-03 0. -1.
    9900012    2    1    2    0    0 -0.53502802921E+00  0.10220733907E+01  0.24903465783E+00  0.90007785075E+02  0.90000047038E+02 0.  0.
        -12    1    1    2    0    0  0.53502802921E+00 -0.10220733907E+01 -0.24903465783E+00  0.11802149248E+01  0.00000000000E+00 0.  1.
         11    1    3    3    0    0 -0.90719659522E+01  0.34726669212E+01  0.45917050159E+01  0.10744474719E+02  0.51100000000E-03 0. -1.
        -11    1    3    3    0    0 -0.23324189103E+02  0.12444453254E+02  0.22741858831E+02  0.34872257705E+02  0.51100000000E-03 0.  1.
         12    1    3    3    0    0  0.31861127026E+02 -0.14895046784E+02 -0.27084529189E+02  0.44391052651E+02  0.00000000000E+00 0. -1.
</event>
<event>
 7    1  0.3752192E-015  0.9000768E+02  0.7816164E-02  0.1186339E+00
        -11   -1    0    0    0    0  0.00000000000E+00  0.00000000000E+00  0.45593999997E+02  0.45594000000E+02  0.51100000000E-03 0.  1.
         11   -1    0    0    0    0 -0.00000000000E+00 -0.00000000000E+00 -0.45593999997E+02  0.45594000000E+02  0.51100000000E-03 0. -1.
    9900012    2    1    2    0    0 -0.10798875051E+01  0.47609662131E+00  0.18207982978E-01  0.90007679473E+02  0.89999940042E+02 0.  0.
        -12    1    1    2    0    0  0.10798875051E+01 -0.47609662131E+00 -0.18207982978E-01  0.11803205273E+01  0.00000000000E+00 0.  1.
         11    1    3    3    0    0 -0.24927471551E+02 -0.23896864648E+02 -0.64544364814E+01  0.35129741366E+02  0.51100000000E-03 0. -1.
        -11    1    3    3    0    0 -0.11762350164E+02  0.37204681034E+01 -0.28688397819E+01  0.12665899346E+02  0.51100000000E-03 0.  1.
        -12    1    3    3    0    0  0.35609934210E+02  0.20652493166E+02  0.93414842463E+01  0.42212038760E+02  0.00000000000E+00 0.  1.
</event>
<event>
 7    1  0.3752192E-015  0.9000768E+02  0.7816164E-02  0.1186339E+00
        -11   -1    0    0    0    0  0.00000000000E+00  0.00000000000E+00  0.45593999997E+02  0.45594000000E+02  0.51100000000E-03 0. -1.
         11   -1    0    0    0    0 -0.00000000000E+00 -0.00000000000E+00 -0.45593999997E+02  0.45594000000E+02  0.51100000000E-03 0.  1.
    9900012    2    1    2    0    0  0.23882743786E+00  0.30165632405E+00  0.11158461120E+01  0.90007683251E+02  0.89999943870E+02 0.  0.
        -12    1    1    2    0    0 -0.23882743786E+00 -0.30165632405E+00 -0.11158461120E+01  0.11803167493E+01  0.00000000000E+00 0.  1.
         11    1    3    3    0    0  0.36123192183E+02 -0.27263524248E+00 -0.11341465857E+01  0.36142020311E+02  0.51100000000E-03 0. -1.
        -11    1    3    3    0    0  0.85927403180E+01  0.79898734605E+00  0.36405020970E+01  0.93662598048E+01  0.51100000000E-03 0.  1.
        -12    1    3    3    0    0 -0.44477105063E+02 -0.22469577953E+00 -0.13905093993E+01  0.44499403135E+02  0.00000000000E+00 0.  1.
</event>
<event>
 7    1  0.3752192E-015  0.9000760E+02  0.7816164E-02  0.1186339E+00
        -11   -1    0    0    0    0  0.00000000000E+00  0.00000000000E+00  0.45593999997E+02  0.45594000000E+02  0.51100000000E-03 0.  1.
         11   -1    0    0    0    0 -0.00000000000E+00 -0.00000000000E+00 -0.45593999997E+02  0.45594000000E+02  0.51100000000E-03 0. -1.
    9900012    2    1    2    0    0  0.56066701694E+00  0.55935690874E+00 -0.87527479207E+00  0.90007604466E+02  0.89999864045E+02 0.  0.
        -12    1    1    2    0    0 -0.56066701694E+00 -0.55935690874E+00  0.87527479207E+00  0.11803955341E+01  0.00000000000E+00 0.  1.
         11    1    3    3    0    0  0.28781474240E+02  0.19615131127E+02 -0.27704358580E+02  0.44504585305E+02  0.51100000000E-03 0. -1.
        -11    1    3    3    0    0 -0.97753149695E+01 -0.56492829594E+01  0.14475128460E+01  0.11382727020E+02  0.51100000000E-03 0.  1.
        -12    1    3    3    0    0 -0.18445492253E+02 -0.13406491259E+02  0.25381570942E+02  0.34120292142E+02  0.00000000000E+00 0.  1.
</event>
<event>
 7    1  0.3752192E-015  0.9000771E+02  0.7816164E-02  0.1186339E+00
        -11   -1    0    0    0    0  0.00000000000E+00  0.00000000000E+00  0.45593999997E+02  0.45594000000E+02  0.51100000000E-03 0.  1.
         11   -1    0    0    0    0 -0.00000000000E+00 -0.00000000000E+00 -0.45593999997E+02  0.45594000000E+02  0.51100000000E-03 0. -1.
    9900012    2    1    2    0    0  0.11694163482E+01 -0.14584076332E+00 -0.65365354295E-01  0.90007713275E+02  0.89999974290E+02 0.  0.
        -12    1    1    2    0    0 -0.11694163482E+01  0.14584076332E+00  0.65365354295E-01  0.11802867250E+01  0.00000000000E+00 0.  1.
         11    1    3    3    0    0  0.38853748197E+01  0.39948579622E+01  0.24193092368E+01  0.60752024717E+01  0.51100000000E-03 0. -1.
        -11    1    3    3    0    0 -0.15903577112E+02  0.25576095388E+02  0.26696019884E+02  0.40245967477E+02  0.51100000000E-03 0.  1.
         12    1    3    3    0    0  0.13187618641E+02 -0.29716794113E+02 -0.29180694475E+02  0.43686543327E+02  0.00000000000E+00 0. -1.
</event>
<event>
 7    1  0.3752192E-015  0.9000725E+02  0.7816164E-02  0.1186340E+00
        -11   -1    0    0    0    0  0.00000000000E+00  0.00000000000E+00  0.45593999997E+02  0.45594000000E+02  0.51100000000E-03 0. -1.
         11   -1    0    0    0    0 -0.00000000000E+00 -0.00000000000E+00 -0.45593999997E+02  0.45594000000E+02  0.51100000000E-03 0.  1.
    9900012    2    1    2    0    0 -0.45902101711E+00  0.46842523192E+00  0.98185806226E+00  0.90007251192E+02  0.89999506107E+02 0.  0.
        -12    1    1    2    0    0  0.45902101711E+00 -0.46842523192E+00 -0.98185806226E+00  0.11807488075E+01  0.00000000000E+00 0.  1.
         11    1    3    3    0    0  0.32679873836E+01  0.10720848036E+02  0.44985388570E+00  0.11216893194E+02  0.51100000000E-03 0. -1.
        -11    1    3    3    0    0 -0.19876206924E+02 -0.10078566160E+02 -0.34008999303E+02  0.40660215585E+02  0.51100000000E-03 0.  1.
         12    1    3    3    0    0  0.16149198523E+02 -0.17385664420E+00  0.34541003480E+02  0.38130142413E+02  0.00000000000E+00 0. -1.
</event>
<event>
 7    1  0.3752192E-015  0.9000772E+02  0.7816164E-02  0.1186339E+00
        -11   -1    0    0    0    0  0.00000000000E+00  0.00000000000E+00  0.45593999997E+02  0.45594000000E+02  0.51100000000E-03 0. -1.
         11   -1    0    0    0    0 -0.00000000000E+00 -0.00000000000E+00 -0.45593999997E+02  0.45594000000E+02  0.51100000000E-03 0.  1.
    9900012    2    1    2    0    0 -0.14053153791E-02 -0.63963236526E+00  0.99193490759E+00  0.90007717662E+02  0.89999978735E+02 0.  0.
        -12    1    1    2    0    0  0.14053153791E-02  0.63963236526E+00 -0.99193490759E+00  0.11802823385E+01  0.00000000000E+00 0.  1.
         11    1    3    3    0    0  0.37675326579E+01 -0.66130546687E+01 -0.72117915406E+01  0.10485071858E+02  0.51100000000E-03 0. -1.
        -11    1    3    3    0    0 -0.97652630665E+00 -0.21126144734E+02 -0.27449936137E+02  0.34652079145E+02  0.51100000000E-03 0.  1.
         12    1    3    3    0    0 -0.27924116666E+01  0.27099567037E+02  0.35653662585E+02  0.44870566658E+02  0.00000000000E+00 0. -1.
</event>
<event>
 7    1  0.3752192E-015  0.9000779E+02  0.7816164E-02  0.1186339E+00
        -11   -1    0    0    0    0  0.00000000000E+00  0.00000000000E+00  0.45593999997E+02  0.45594000000E+02  0.51100000000E-03 0.  1.
         11   -1    0    0    0    0 -0.00000000000E+00 -0.00000000000E+00 -0.45593999997E+02  0.45594000000E+02  0.51100000000E-03 0. -1.
    9900012    2    1    2    0    0  0.32423759573E+00  0.11385866304E+00 -0.11290696872E+01  0.90007791471E+02  0.90000053518E+02 0.  0.
        -12    1    1    2    0    0 -0.32423759573E+00 -0.11385866304E+00  0.11290696872E+01  0.11802085291E+01  0.00000000000E+00 0.  1.
         11    1    3    3    0    0 -0.20682694579E+02  0.19002373552E+02 -0.27141766677E+02  0.39058156054E+02  0.51100000000E-03 0. -1.
        -11    1    3    3    0    0  0.85105809643E+01  0.46165707409E+01 -0.43114558126E+01  0.10598649218E+02  0.51100000000E-03 0.  1.
        -12    1    3    3    0    0  0.12496351211E+02 -0.23505085630E+02  0.30324152803E+02  0.40350986199E+02  0.00000000000E+00 0.  1.
</event>
<event>
 7    1  0.3752192E-015  0.9000782E+02  0.7816164E-02  0.1186339E+00
        -11   -1    0    0    0    0  0.00000000000E+00  0.00000000000E+00  0.45593999997E+02  0.45594000000E+02  0.51100000000E-03 0.  1.
         11   -1    0    0    0    0 -0.00000000000E+00 -0.00000000000E+00 -0.45593999997E+02  0.45594000000E+02  0.51100000000E-03 0. -1.
    9900012    2    1    2    0    0 -0.56017355512E+00 -0.57255955102E+00 -0.86672737781E+00  0.90007815608E+02  0.90000077974E+02 0.  0.
        -12    1    1    2    0    0  0.56017355512E+00  0.57255955102E+00  0.86672737781E+00  0.11801843918E+01  0.00000000000E+00 0.  1.
         11    1    3    3    0    0  0.20909752023E+01  0.33728055042E+01  0.72759449998E+01  0.82877843944E+01  0.51100000000E-03 0. -1.
        -11    1    3    3    0    0 -0.63952128707E+01  0.11088128834E+02  0.34261376758E+02  0.36574407532E+02  0.51100000000E-03 0.  1.
         12    1    3    3    0    0  0.37440641133E+01 -0.15033493889E+02 -0.42404049135E+02  0.45145623682E+02  0.00000000000E+00 0. -1.
</event>
<event>
 7    1  0.3752192E-015  0.9000766E+02  0.7816164E-02  0.1186339E+00
        -11   -1    0    0    0    0  0.00000000000E+00  0.00000000000E+00  0.45593999997E+02  0.45594000000E+02  0.51100000000E-03 0.  1.
         11   -1    0    0    0    0 -0.00000000000E+00 -0.00000000000E+00 -0.45593999997E+02  0.45594000000E+02  0.51100000000E-03 0. -1.
    9900012    2    1    2    0    0 -0.11089609539E+01 -0.52179678094E-01 -0.40084494160E+00  0.90007663699E+02  0.89999924060E+02 0.  0.
        -12    1    1    2    0    0  0.11089609539E+01  0.52179678094E-01  0.40084494160E+00  0.11803363009E+01  0.00000000000E+00 0.  1.
         11    1    3    3    0    0 -0.26650835756E+02 -0.19279726139E+02  0.12208001829E+01  0.32916033173E+02  0.51100000000E-03 0. -1.
        -11    1    3    3    0    0 -0.61208990057E+00 -0.14425910415E+02  0.12604619036E-01  0.14438895543E+02  0.51100000000E-03 0.  1.
        -12    1    3    3    0    0  0.26153964703E+02  0.33653456876E+02 -0.16342497435E+01  0.42652734984E+02  0.00000000000E+00 0.  1.
</event>
<event>
 7    1  0.3752192E-015  0.9000759E+02  0.7816164E-02  0.1186339E+00
        -11   -1    0    0    0    0  0.00000000000E+00  0.00000000000E+00  0.45593999997E+02  0.45594000000E+02  0.51100000000E-03 0. -1.
         11   -1    0    0    0    0 -0.00000000000E+00 -0.00000000000E+00 -0.45593999997E+02  0.45594000000E+02  0.51100000000E-03 0.  1.
    9900012    2    1    2    0    0  0.50727669629E+00 -0.68029401902E+00 -0.82051122276E+00  0.90007589789E+02  0.89999849174E+02 0.  0.
        -12    1    1    2    0    0 -0.50727669629E+00  0.68029401902E+00  0.82051122276E+00  0.11804102107E+01  0.00000000000E+00 0.  1.
         11    1    3    3    0    0  0.32635983934E+01  0.17358260364E+01 -0.95697516609E+01  0.10258865123E+02  0.51100000000E-03 0. -1.
        -11    1    3    3    0    0  0.24248939260E+02  0.26627725398E+02 -0.76752129854E+01  0.36823303895E+02  0.51100000000E-03 0.  1.
         12    1    3    3    0    0 -0.27005260957E+02 -0.29043845454E+02  0.16424453423E+02  0.42925420771E+02  0.00000000000E+00 0. -1.
</event>
<event>
 7    1  0.3752192E-015  0.9000789E+02  0.7816164E-02  0.1186339E+00
        -11   -1    0    0    0    0  0.00000000000E+00  0.00000000000E+00  0.45593999997E+02  0.45594000000E+02  0.51100000000E-03 0. -1.
         11   -1    0    0    0    0 -0.00000000000E+00 -0.00000000000E+00 -0.45593999997E+02  0.45594000000E+02  0.51100000000E-03 0.  1.
    9900012    2    1    2    0    0 -0.75670727546E+00  0.50830875961E+00  0.74945481876E+00  0.90007887200E+02  0.90000150511E+02 0.  0.
        -12    1    1    2    0    0  0.75670727546E+00 -0.50830875961E+00 -0.74945481876E+00  0.11801128002E+01  0.00000000000E+00 0.  1.
         11    1    3    3    0    0 -0.99425283765E+01  0.33851759006E+02  0.55782820851E+01  0.35719920067E+02  0.51100000000E-03 0. -1.
        -11    1    3    3    0    0 -0.52060812009E+01  0.82695019290E+01  0.12021061816E+01  0.98454559649E+01  0.51100000000E-03 0.  1.
        -12    1    3    3    0    0  0.14391902302E+02 -0.41612952176E+02 -0.60309334480E+01  0.44442511168E+02  0.00000000000E+00 0.  1.
</event>
<event>
 7    1  0.3752192E-015  0.9000775E+02  0.7816164E-02  0.1186339E+00
        -11   -1    0    0    0    0  0.00000000000E+00  0.00000000000E+00  0.45593999997E+02  0.45594000000E+02  0.51100000000E-03 0.  1.
         11   -1    0    0    0    0 -0.00000000000E+00 -0.00000000000E+00 -0.45593999997E+02  0.45594000000E+02  0.51100000000E-03 0. -1.
    9900012    2    1    2    0    0  0.38435409288E+00 -0.80301279312E+00  0.77488162986E+00  0.90007746148E+02  0.90000007597E+02 0.  0.
        -12    1    1    2    0    0 -0.38435409288E+00  0.80301279312E+00 -0.77488162986E+00  0.11802538519E+01  0.00000000000E+00 0.  1.
         11    1    3    3    0    0  0.59193581070E+01  0.51287339063E+01  0.44227714390E+01  0.89946439253E+01  0.51100000000E-03 0. -1.
        -11    1    3    3    0    0  0.26226296252E+02 -0.80064875088E+01  0.25800419659E+02  0.37650818213E+02  0.51100000000E-03 0.  1.
         12    1    3    3    0    0 -0.31761300266E+02  0.20747408093E+01 -0.29448309468E+02  0.43362284009E+02  0.00000000000E+00 0. -1.
</event>
<event>
 7    1  0.3752192E-015  0.9000775E+02  0.7816164E-02  0.1186339E+00
        -11   -1    0    0    0    0  0.00000000000E+00  0.00000000000E+00  0.45593999997E+02  0.45594000000E+02  0.51100000000E-03 0. -1.
         11   -1    0    0    0    0 -0.00000000000E+00 -0.00000000000E+00 -0.45593999997E+02  0.45594000000E+02  0.51100000000E-03 0.  1.
    9900012    2    1    2    0    0  0.10950409914E+01 -0.41511412253E+00 -0.14678639126E+00  0.90007753944E+02  0.90000015496E+02 0.  0.
        -12    1    1    2    0    0 -0.10950409914E+01  0.41511412253E+00  0.14678639126E+00  0.11802460558E+01  0.00000000000E+00 0.  1.
         11    1    3    3    0    0  0.77543168757E+01 -0.11355228371E+02 -0.59411806118E+01  0.14978927495E+02  0.51100000000E-03 0. -1.
        -11    1    3    3    0    0 -0.21578646861E+02 -0.26368404437E+02  0.71933133091E+01  0.34823476414E+02  0.51100000000E-03 0.  1.
         12    1    3    3    0    0  0.14919370977E+02  0.37308518686E+02 -0.13989190885E+01  0.40205350036E+02  0.00000000000E+00 0. -1.
</event>
<event>
 7    1  0.3752192E-015  0.9000784E+02  0.7816164E-02  0.1186339E+00
        -11   -1    0    0    0    0  0.00000000000E+00  0.00000000000E+00  0.45593999997E+02  0.45594000000E+02  0.51100000000E-03 0.  1.
         11   -1    0    0    0    0 -0.00000000000E+00 -0.00000000000E+00 -0.45593999997E+02  0.45594000000E+02  0.51100000000E-03 0. -1.
    9900012    2    1    2    0    0  0.59282034495E+00 -0.56726330802E+00 -0.84827158447E+00  0.90007835476E+02  0.90000098105E+02 0.  0.
        -12    1    1    2    0    0 -0.59282034495E+00  0.56726330802E+00  0.84827158447E+00  0.11801645237E+01  0.00000000000E+00 0.  1.
         11    1    3    3    0    0 -0.10817685009E+02  0.40145711262E+02 -0.69500269709E-01  0.41577701623E+02  0.51100000000E-03 0. -1.
        -11    1    3    3    0    0 -0.25600116144E+01 -0.60784767613E+01 -0.80250412532E+01  0.10387628535E+02  0.51100000000E-03 0.  1.
        -12    1    3    3    0    0  0.13970516969E+02 -0.34634497809E+02  0.72462699385E+01  0.38042505318E+02  0.00000000000E+00 0.  1.
</event>
<event>
 7    1  0.3752192E-015  0.9000774E+02  0.7816164E-02  0.1186339E+00
        -11   -1    0    0    0    0  0.00000000000E+00  0.00000000000E+00  0.45593999997E+02  0.45594000000E+02  0.51100000000E-03 0.  1.
         11   -1    0    0    0    0 -0.00000000000E+00 -0.00000000000E+00 -0.45593999997E+02  0.45594000000E+02  0.51100000000E-03 0. -1.
    9900012    2    1    2    0    0  0.47732783918E-01  0.76390676791E+00 -0.89843057203E+00  0.90007741782E+02  0.90000003173E+02 0.  0.
        -12    1    1    2    0    0 -0.47732783918E-01 -0.76390676791E+00  0.89843057203E+00  0.11802582181E+01  0.00000000000E+00 0.  1.
         11    1    3    3    0    0  0.17244727257E+02 -0.31058617855E+02  0.15449423844E+02  0.38738908846E+02  0.51100000000E-03 0. -1.
        -11    1    3    3    0    0 -0.12847985415E+01  0.14560740414E+02  0.86420498284E+01  0.16980897921E+02  0.51100000000E-03 0.  1.
        -12    1    3    3    0    0 -0.15912195932E+02  0.17261784208E+02 -0.24989904245E+02  0.34287935015E+02  0.00000000000E+00 0.  1.
</event>
<event>
 7    1  0.3752192E-015  0.9000773E+02  0.7816164E-02  0.1186339E+00
        -11   -1    0    0    0    0  0.00000000000E+00  0.00000000000E+00  0.45593999997E+02  0.45594000000E+02  0.51100000000E-03 0. -1.
         11   -1    0    0    0    0 -0.00000000000E+00 -0.00000000000E+00 -0.45593999997E+02  0.45594000000E+02  0.51100000000E-03 0.  1.
    9900012    2    1    2    0    0  0.28195487197E-01 -0.27819862426E+00  0.11466648051E+01  0.90007733236E+02  0.89999994514E+02 0.  0.
        -12    1    1    2    0    0 -0.28195487197E-01  0.27819862426E+00 -0.11466648051E+01  0.11802667644E+01  0.00000000000E+00 0.  1.
         11    1    3    3    0    0 -0.49211334406E+01 -0.30730586951E+02  0.19801757845E+02  0.36887615031E+02  0.51100000000E-03 0. -1.
        -11    1    3    3    0    0  0.31370026162E+01 -0.71980796621E+01  0.43341289531E+01  0.89687128553E+01  0.51100000000E-03 0.  1.
        -12    1    3    3    0    0  0.18123263115E+01  0.37650467989E+02 -0.22989221993E+02  0.44151405349E+02  0.00000000000E+00 0.  1.
</event>
<event>
 7    1  0.3752192E-015  0.9000773E+02  0.7816164E-02  0.1186339E+00
        -11   -1    0    0    0    0  0.00000000000E+00  0.00000000000E+00  0.45593999997E+02  0.45594000000E+02  0.51100000000E-03 0. -1.
         11   -1    0    0    0    0 -0.00000000000E+00 -0.00000000000E+00 -0.45593999997E+02  0.45594000000E+02  0.51100000000E-03 0.  1.
    9900012    2    1    2    0    0  0.89639755122E+00 -0.62406840699E+00  0.44727866803E+00  0.90007725391E+02  0.89999986566E+02 0.  0.
        -12    1    1    2    0    0 -0.89639755122E+00  0.62406840699E+00 -0.44727866803E+00  0.11802746093E+01  0.00000000000E+00 0.  1.
         11    1    3    3    0    0 -0.12861260801E+02  0.35561874867E+02  0.32999333072E+01  0.37959827891E+02  0.51100000000E-03 0. -1.
        -11    1    3    3    0    0 -0.37060771236E+01  0.54668289597E+01 -0.18988593611E+01  0.68721825976E+01  0.51100000000E-03 0.  1.
        -12    1    3    3    0    0  0.17463735476E+02 -0.41652772233E+02 -0.95379527803E+00  0.45175714902E+02  0.00000000000E+00 0.  1.
</event>
<event>
 7    1  0.3752192E-015  0.9000765E+02  0.7816164E-02  0.1186339E+00
        -11   -1    0    0    0    0  0.00000000000E+00  0.00000000000E+00  0.45593999997E+02  0.45594000000E+02  0.51100000000E-03 0. -1.
         11   -1    0    0    0    0 -0.00000000000E+00 -0.00000000000E+00 -0.45593999997E+02  0.45594000000E+02  0.51100000000E-03 0.  1.
    9900012    2    1    2    0    0  0.43983999937E+00 -0.20730621050E+00  0.10755412174E+01  0.90007650899E+02  0.89999911091E+02 0.  0.
        -12    1    1    2    0    0 -0.43983999937E+00  0.20730621050E+00 -0.10755412174E+01  0.11803491010E+01  0.00000000000E+00 0.  1.
         11    1    3    3    0    0 -0.23658385974E+02  0.24438484923E+02 -0.91262258994E+01  0.35217137471E+02  0.51100000000E-03 0. -1.
        -11    1    3    3    0    0 -0.26026593226E+01  0.92387576381E+01 -0.23098116197E+01  0.98723709525E+01  0.51100000000E-03 0.  1.
        -12    1    3    3    0    0  0.26700885296E+02 -0.33884548771E+02  0.12511578736E+02  0.44918142476E+02  0.00000000000E+00 0.  1.
</event>
<event>
 7    1  0.3752192E-015  0.9000777E+02  0.7816164E-02  0.1186339E+00
        -11   -1    0    0    0    0  0.00000000000E+00  0.00000000000E+00  0.45593999997E+02  0.45594000000E+02  0.51100000000E-03 0. -1.
         11   -1    0    0    0    0 -0.00000000000E+00 -0.00000000000E+00 -0.45593999997E+02  0.45594000000E+02  0.51100000000E-03 0.  1.
    9900012    2    1    2    0    0  0.25950160842E+00 -0.11491602165E+01  0.71005880775E-01  0.90007766073E+02  0.90000027785E+02 0.  0.
        -12    1    1    2    0    0 -0.25950160842E+00  0.11491602165E+01 -0.71005880775E-01  0.11802339272E+01  0.00000000000E+00 0.  1.
         11    1    3    3    0    0  0.20212448546E+02  0.17224983334E+02 -0.16764268328E+02  0.31405155945E+02  0.51100000000E-03 0. -1.
        -11    1    3    3    0    0  0.69275251440E+01  0.12618496024E+02  0.38043286914E+00  0.14400061665E+02  0.51100000000E-03 0.  1.
        -12    1    3    3    0    0 -0.26880472082E+02 -0.30992639574E+02  0.16454841340E+02  0.44202548463E+02  0.00000000000E+00 0.  1.
</event>
<event>
 7    1  0.3752192E-015  0.9000769E+02  0.7816164E-02  0.1186339E+00
        -11   -1    0    0    0    0  0.00000000000E+00  0.00000000000E+00  0.45593999997E+02  0.45594000000E+02  0.51100000000E-03 0.  1.
         11   -1    0    0    0    0 -0.00000000000E+00 -0.00000000000E+00 -0.45593999997E+02  0.45594000000E+02  0.51100000000E-03 0. -1.
    9900012    2    1    2    0    0  0.50082252667E+00 -0.10477116968E+01 -0.21118334317E+00  0.90007694359E+02  0.89999955124E+02 0.  0.
        -12    1    1    2    0    0 -0.50082252667E+00  0.10477116968E+01  0.21118334317E+00  0.11803056414E+01  0.00000000000E+00 0.  1.
         11    1    3    3    0    0 -0.42238980272E+01  0.47796296959E+01  0.56409922164E+01  0.85151023494E+01  0.51100000000E-03 0. -1.
        -11    1    3    3    0    0  0.35991035476E+01  0.24959429218E+02 -0.32238591738E+02  0.40929860136E+02  0.51100000000E-03 0.  1.
         12    1    3    3    0    0  0.11256170062E+01 -0.30786770610E+02  0.26386416179E+02  0.40562731873E+02  0.00000000000E+00 0. -1.
</event>
<event>
 7    1  0.3752192E-015  0.9000776E+02  0.7816164E-02  0.1186339E+00
        -11   -1    0    0    0    0  0.00000000000E+00  0.00000000000E+00  0.45593999997E+02  0.45594000000E+02  0.51100000000E-03 0.  1.
         11   -1    0    0    0    0 -0.00000000000E+00 -0.00000000000E+00 -0.45593999997E+02  0.45594000000E+02  0.51100000000E-03 0. -1.
    9900012    2    1    2    0    0 -0.83564655600E-01 -0.10152626042E+01 -0.59599928359E+00  0.90007764281E+02  0.90000025969E+02 0.  0.
        -12    1    1    2    0    0  0.83564655600E-01  0.10152626042E+01  0.59599928359E+00  0.11802357194E+01  0.00000000000E+00 0.  1.
         11    1    3    3    0    0  0.27105819426E+01 -0.89283658173E+01  0.26263636846E+00  0.93344495691E+01  0.51100000000E-03 0. -1.
        -11    1    3    3    0    0  0.24138727204E+01 -0.35303657903E+02 -0.87080827754E+01  0.36441813192E+02  0.51100000000E-03 0.  1.
         12    1    3    3    0    0 -0.52080193186E+01  0.43216761116E+02  0.78494471234E+01  0.44231501520E+02  0.00000000000E+00 0. -1.
</event>
<event>
 7    1  0.3752192E-015  0.9000788E+02  0.7816164E-02  0.1186339E+00
        -11   -1    0    0    0    0  0.00000000000E+00  0.00000000000E+00  0.45593999997E+02  0.45594000000E+02  0.51100000000E-03 0. -1.
         11   -1    0    0    0    0 -0.00000000000E+00 -0.00000000000E+00 -0.45593999997E+02  0.45594000000E+02  0.51100000000E-03 0.  1.
    9900012    2    1    2    0    0  0.20786997884E+00  0.23386046230E+00  0.11378870299E+01  0.90007878169E+02  0.90000141360E+02 0.  0.
        -12    1    1    2    0    0 -0.20786997884E+00 -0.23386046230E+00 -0.11378870299E+01  0.11801218313E+01  0.00000000000E+00 0.  1.
         11    1    3    3    0    0 -0.16700178080E+02  0.90384522035E+01  0.36190368452E+02  0.40869699474E+02  0.51100000000E-03 0. -1.
        -11    1    3    3    0    0 -0.68536187755E+00  0.77555948989E+01 -0.17260336694E+01  0.79748458060E+01  0.51100000000E-03 0.  1.
        -12    1    3    3    0    0  0.17593409936E+02 -0.16560186640E+02 -0.33326447752E+02  0.41163332889E+02  0.00000000000E+00 0.  1.
</event>
<event>
 7    1  0.3752192E-015  0.9000779E+02  0.7816164E-02  0.1186339E+00
        -11   -1    0    0    0    0  0.00000000000E+00  0.00000000000E+00  0.45593999997E+02  0.45594000000E+02  0.51100000000E-03 0.  1.
         11   -1    0    0    0    0 -0.00000000000E+00 -0.00000000000E+00 -0.45593999997E+02  0.45594000000E+02  0.51100000000E-03 0. -1.
    9900012    2    1    2    0    0  0.73062385987E+00 -0.19645965936E-01 -0.92666040918E+00  0.90007789552E+02  0.90000051574E+02 0.  0.
        -12    1    1    2    0    0 -0.73062385987E+00  0.19645965936E-01  0.92666040918E+00  0.11802104484E+01  0.00000000000E+00 0.  1.
         11    1    3    3    0    0  0.49834104173E+01  0.37998066849E+01  0.69996918949E+01  0.93951368864E+01  0.51100000000E-03 0. -1.
        -11    1    3    3    0    0  0.22310918541E+02 -0.31196790451E+02  0.81614488370E+01  0.39212575381E+02  0.51100000000E-03 0.  1.
         12    1    3    3    0    0 -0.26563705099E+02  0.27377337800E+02 -0.16087801141E+02  0.41400077284E+02  0.00000000000E+00 0. -1.
</event>
<event>
 7    1  0.3752192E-015  0.9000769E+02  0.7816164E-02  0.1186339E+00
        -11   -1    0    0    0    0  0.00000000000E+00  0.00000000000E+00  0.45593999997E+02  0.45594000000E+02  0.51100000000E-03 0. -1.
         11   -1    0    0    0    0 -0.00000000000E+00 -0.00000000000E+00 -0.45593999997E+02  0.45594000000E+02  0.51100000000E-03 0.  1.
    9900012    2    1    2    0    0 -0.68475556753E+00  0.41783729766E+00  0.86582884050E+00  0.90007687425E+02  0.89999948099E+02 0.  0.
        -12    1    1    2    0    0  0.68475556753E+00 -0.41783729766E+00 -0.86582884050E+00  0.11803125754E+01  0.00000000000E+00 0.  1.
         11    1    3    3    0    0  0.22807229418E+02 -0.41355777746E+00 -0.52265850984E+01  0.23402092552E+02  0.51100000000E-03 0.  1.
        -11    1    3    3    0    0 -0.68499872939E+01  0.30770072288E+02  0.71976276828E+01  0.32334587041E+02  0.51100000000E-03 0. -1.
        -12    1    3    3    0    0 -0.16641997691E+02 -0.29938677213E+02 -0.11052137439E+01  0.34271007833E+02  0.00000000000E+00 0.  1.
</event>
<event>
 7    1  0.3752192E-015  0.9000787E+02  0.7816164E-02  0.1186339E+00
        -11   -1    0    0    0    0  0.00000000000E+00  0.00000000000E+00  0.45593999997E+02  0.45594000000E+02  0.51100000000E-03 0.  1.
         11   -1    0    0    0    0 -0.00000000000E+00 -0.00000000000E+00 -0.45593999997E+02  0.45594000000E+02  0.51100000000E-03 0. -1.
    9900012    2    1    2    0    0  0.98186220511E+00  0.34257175940E-02  0.65470671219E+00  0.90007870344E+02  0.90000133433E+02 0.  0.
        -12    1    1    2    0    0 -0.98186220511E+00 -0.34257175940E-02 -0.65470671219E+00  0.11801296557E+01  0.00000000000E+00 0.  1.
         11    1    3    3    0    0  0.12554309046E+02 -0.36714533337E+02 -0.14546763270E+02  0.41438821842E+02  0.51100000000E-03 0. -1.
        -11    1    3    3    0    0  0.80364340282E+01  0.79939575872E+01  0.42654827644E+01  0.12111233350E+02  0.51100000000E-03 0.  1.
        -12    1    3    3    0    0 -0.19608880869E+02  0.28724001467E+02  0.10935987218E+02  0.36457815152E+02  0.00000000000E+00 0.  1.
</event>
<event>
 7    1  0.3752192E-015  0.9000764E+02  0.7816164E-02  0.1186339E+00
        -11   -1    0    0    0    0  0.00000000000E+00  0.00000000000E+00  0.45593999997E+02  0.45594000000E+02  0.51100000000E-03 0.  1.
         11   -1    0    0    0    0 -0.00000000000E+00 -0.00000000000E+00 -0.45593999997E+02  0.45594000000E+02  0.51100000000E-03 0. -1.
    9900012    2    1    2    0    0 -0.21128654072E+00 -0.10828194341E+01 -0.41966161418E+00  0.90007637429E+02  0.89999897443E+02 0.  0.
        -12    1    1    2    0    0  0.21128654072E+00  0.10828194341E+01  0.41966161418E+00  0.11803625713E+01  0.00000000000E+00 0.  1.
         11    1    3    3    0    0  0.41493092499E+01 -0.33820344081E+01 -0.14326528496E+01  0.55414274729E+01  0.51100000000E-03 0. -1.
        -11    1    3    3    0    0  0.32044684962E+02 -0.21893608124E+02  0.94615616696E+01  0.39946377314E+02  0.51100000000E-03 0.  1.
         12    1    3    3    0    0 -0.36405280752E+02  0.24192823098E+02 -0.84485704342E+01  0.44519832642E+02  0.00000000000E+00 0. -1.
</event>
<event>
 7    1  0.4788797E-015  0.9000772E+02  0.7816164E-02  0.1186339E+00
        -11   -1    0    0    0    0  0.00000000000E+00  0.00000000000E+00  0.45593999997E+02  0.45594000000E+02  0.51100000000E-03 0. -1.
         11   -1    0    0    0    0 -0.00000000000E+00 -0.00000000000E+00 -0.45593999997E+02  0.45594000000E+02  0.51100000000E-03 0.  1.
    9900012    2    1    2    0    0  0.64685152617E+00 -0.83531228626E+00  0.52621262439E+00  0.90007719000E+02  0.89999980091E+02 0.  0.
        -12    1    1    2    0    0 -0.64685152617E+00  0.83531228626E+00 -0.52621262439E+00  0.11802809998E+01  0.00000000000E+00 0.  1.
         11    1    3    3    0    0 -0.64057599082E+01 -0.62877237042E+01  0.27457061394E+01  0.93865931971E+01  0.51100000000E-03 0. -1.
        -11    1    3    3    0    0  0.23600540061E+01  0.37966512174E+02 -0.20306056152E+02  0.43120317929E+02  0.51100000000E-03 0.  1.
         12    1    3    3    0    0  0.46925574283E+01 -0.32514100756E+02  0.18086562637E+02  0.37500807874E+02  0.00000000000E+00 0. -1.
</event>
<event>
 7    1  0.3752192E-015  0.9000780E+02  0.7816164E-02  0.1186339E+00
        -11   -1    0    0    0    0  0.00000000000E+00  0.00000000000E+00  0.45593999997E+02  0.45594000000E+02  0.51100000000E-03 0. -1.
         11   -1    0    0    0    0 -0.00000000000E+00 -0.00000000000E+00 -0.45593999997E+02  0.45594000000E+02  0.51100000000E-03 0.  1.
    9900012    2    1    2    0    0  0.77672988023E+00 -0.85932745986E+00  0.22610263304E+00  0.90007798580E+02  0.90000060722E+02 0.  0.
        -12    1    1    2    0    0 -0.77672988023E+00  0.85932745986E+00 -0.22610263304E+00  0.11802014196E+01  0.00000000000E+00 0.  1.
         11    1    3    3    0    0  0.35631856376E+01  0.13098364858E+01  0.90986238605E+01  0.98588498276E+01  0.51100000000E-03 0. -1.
        -11    1    3    3    0    0 -0.39446207969E+02  0.10117959833E+02 -0.78406736700E+01  0.41471105582E+02  0.51100000000E-03 0.  1.
         12    1    3    3    0    0  0.36659752212E+02 -0.12287123779E+02 -0.10318475575E+01  0.38677843171E+02  0.00000000000E+00 0. -1.
</event>
<event>
 7    1  0.3752192E-015  0.9000773E+02  0.7816164E-02  0.1186339E+00
        -11   -1    0    0    0    0  0.00000000000E+00  0.00000000000E+00  0.45593999997E+02  0.45594000000E+02  0.51100000000E-03 0. -1.
         11   -1    0    0    0    0 -0.00000000000E+00 -0.00000000000E+00 -0.45593999997E+02  0.45594000000E+02  0.51100000000E-03 0.  1.
    9900012    2    1    2    0    0  0.33567167138E+00 -0.10501727333E+01  0.42129889409E+00  0.90007732658E+02  0.89999993929E+02 0.  0.
        -12    1    1    2    0    0 -0.33567167138E+00  0.10501727333E+01 -0.42129889409E+00  0.11802673422E+01  0.00000000000E+00 0.  1.
         11    1    3    3    0    0  0.20444797496E+02 -0.11227444331E+02  0.22666473027E+02  0.32524056491E+02  0.51100000000E-03 0. -1.
        -11    1    3    3    0    0  0.43927218091E+00  0.15953458908E+02  0.99855303419E+01  0.18825956221E+02  0.51100000000E-03 0.  1.
        -12    1    3    3    0    0 -0.20548398006E+02 -0.57761873106E+01 -0.32230704475E+02  0.38657719946E+02  0.00000000000E+00 0.  1.
</event>
<event>
 7    1  0.3752192E-015  0.9000770E+02  0.7816164E-02  0.1186339E+00
        -11   -1    0    0    0    0  0.00000000000E+00  0.00000000000E+00  0.45593999997E+02  0.45594000000E+02  0.51100000000E-03 0.  1.
         11   -1    0    0    0    0 -0.00000000000E+00 -0.00000000000E+00 -0.45593999997E+02  0.45594000000E+02  0.51100000000E-03 0. -1.
    9900012    2    1    2    0    0 -0.10719915282E+01 -0.49307949587E+00 -0.28444879295E-01  0.90007702437E+02  0.89999963309E+02 0.  0.
        -12    1    1    2    0    0  0.10719915282E+01  0.49307949587E+00  0.28444879295E-01  0.11802975629E+01  0.00000000000E+00 0.  1.
         11    1    3    3    0    0 -0.48841087432E+01 -0.28815040904E+02 -0.23163328990E+02  0.37292102525E+02  0.51100000000E-03 0. -1.
        -11    1    3    3    0    0 -0.67442301715E+01  0.81705398763E+01 -0.86163706423E+01  0.13655922004E+02  0.51100000000E-03 0.  1.
        -12    1    3    3    0    0  0.10556347386E+02  0.20151421532E+02  0.31751254753E+02  0.39059677908E+02  0.00000000000E+00 0.  1.
</event>
<event>
 7    1  0.3752192E-015  0.9000777E+02  0.7816164E-02  0.1186339E+00
        -11   -1    0    0    0    0  0.00000000000E+00  0.00000000000E+00  0.45593999997E+02  0.45594000000E+02  0.51100000000E-03 0. -1.
         11   -1    0    0    0    0 -0.00000000000E+00 -0.00000000000E+00 -0.45593999997E+02  0.45594000000E+02  0.51100000000E-03 0.  1.
    9900012    2    1    2    0    0 -0.39421276785E+00 -0.10048420942E+01  0.47730599010E+00  0.90007774450E+02  0.90000036273E+02 0.  0.
        -12    1    1    2    0    0  0.39421276785E+00  0.10048420942E+01 -0.47730599010E+00  0.11802255500E+01  0.00000000000E+00 0.  1.
         11    1    3    3    0    0 -0.90480077970E+01  0.71296395730E+01 -0.10148276547E+02  0.15352059232E+02  0.51100000000E-03 0. -1.
        -11    1    3    3    0    0  0.38204777926E+01  0.15058568968E+02 -0.26439472841E+02  0.30665979102E+02  0.51100000000E-03 0.  1.
         12    1    3    3    0    0  0.48333172366E+01 -0.23193050635E+02  0.37065055379E+02  0.43989736115E+02  0.00000000000E+00 0. -1.
</event>
<event>
 7    1  0.3752192E-015  0.9000789E+02  0.7816164E-02  0.1186339E+00
        -11   -1    0    0    0    0  0.00000000000E+00  0.00000000000E+00  0.45593999997E+02  0.45594000000E+02  0.51100000000E-03 0.  1.
         11   -1    0    0    0    0 -0.00000000000E+00 -0.00000000000E+00 -0.45593999997E+02  0.45594000000E+02  0.51100000000E-03 0. -1.
    9900012    2    1    2    0    0 -0.46901970888E-01 -0.11135922178E+01 -0.38777374202E+00  0.90007891574E+02  0.90000154942E+02 0.  0.
        -12    1    1    2    0    0  0.46901970888E-01  0.11135922178E+01  0.38777374202E+00  0.11801084262E+01  0.00000000000E+00 0.  1.
         11    1    3    3    0    0 -0.96657523579E+01  0.27074676120E+01 -0.41886132812E+01  0.10876655322E+02  0.51100000000E-03 0. -1.
        -11    1    3    3    0    0 -0.33550195615E+02  0.75668928091E+01  0.14447205340E+01  0.34423258275E+02  0.51100000000E-03 0.  1.
         12    1    3    3    0    0  0.43169046002E+02 -0.11387952639E+02  0.23561190053E+01  0.44707977977E+02  0.00000000000E+00 0. -1.
</event>
<event>
 7    1  0.3752192E-015  0.9000778E+02  0.7816164E-02  0.1186339E+00
        -11   -1    0    0    0    0  0.00000000000E+00  0.00000000000E+00  0.45593999997E+02  0.45594000000E+02  0.51100000000E-03 0.  1.
         11   -1    0    0    0    0 -0.00000000000E+00 -0.00000000000E+00 -0.45593999997E+02  0.45594000000E+02  0.51100000000E-03 0. -1.
    9900012    2    1    2    0    0 -0.89023611487E+00  0.26082319553E+00 -0.72962991701E+00  0.90007784386E+02  0.90000046340E+02 0.  0.
        -12    1    1    2    0    0  0.89023611487E+00 -0.26082319553E+00  0.72962991701E+00  0.11802156139E+01  0.00000000000E+00 0.  1.
         11    1    3    3    0    0  0.45340424862E+01 -0.34091402029E+01 -0.71652143110E+01  0.91389318071E+01  0.51100000000E-03 0. -1.
        -11    1    3    3    0    0  0.35676539788E+02  0.44293209672E+01  0.14870473245E+02  0.38904567216E+02  0.51100000000E-03 0.  1.
         12    1    3    3    0    0 -0.41100818389E+02 -0.75935756878E+00 -0.84348888505E+01  0.41964285363E+02  0.00000000000E+00 0. -1.
</event>
<event>
 7    1  0.3752192E-015  0.9000782E+02  0.7816164E-02  0.1186339E+00
        -11   -1    0    0    0    0  0.00000000000E+00  0.00000000000E+00  0.45593999997E+02  0.45594000000E+02  0.51100000000E-03 0.  1.
         11   -1    0    0    0    0 -0.00000000000E+00 -0.00000000000E+00 -0.45593999997E+02  0.45594000000E+02  0.51100000000E-03 0. -1.
    9900012    2    1    2    0    0  0.23504916543E+00  0.11559265415E+01 -0.37469278513E-01  0.90007822799E+02  0.90000085260E+02 0.  0.
        -12    1    1    2    0    0 -0.23504916543E+00 -0.11559265415E+01  0.37469278513E-01  0.11801772012E+01  0.00000000000E+00 0.  1.
         11    1    3    3    0    0  0.60271441330E+01  0.60325343158E+01  0.51459646480E+01  0.99598639093E+01  0.51100000000E-03 0. -1.
        -11    1    3    3    0    0 -0.20463180717E+02 -0.98534442488E+01  0.32301964915E+02  0.39487327920E+02  0.51100000000E-03 0.  1.
         12    1    3    3    0    0  0.14671085749E+02  0.49768364745E+01 -0.37485398842E+02  0.40560630970E+02  0.00000000000E+00 0. -1.
</event>
<event>
 7    1  0.3752192E-015  0.9000776E+02  0.7816164E-02  0.1186339E+00
        -11   -1    0    0    0    0  0.00000000000E+00  0.00000000000E+00  0.45593999997E+02  0.45594000000E+02  0.51100000000E-03 0. -1.
         11   -1    0    0    0    0 -0.00000000000E+00 -0.00000000000E+00 -0.45593999997E+02  0.45594000000E+02  0.51100000000E-03 0.  1.
    9900012    2    1    2    0    0  0.11738236478E+00 -0.52267838196E-01  0.11732239498E+01  0.90007760625E+02  0.90000022265E+02 0.  0.
        -12    1    1    2    0    0 -0.11738236478E+00  0.52267838196E-01 -0.11732239498E+01  0.11802393752E+01  0.00000000000E+00 0.  1.
         11    1    3    3    0    0  0.10713655620E+01  0.20073791359E+02  0.38593393141E+02  0.43514996473E+02  0.51100000000E-03 0. -1.
        -11    1    3    3    0    0 -0.56310884078E+01  0.12005733250E+01 -0.76758888000E+01  0.95953010425E+01  0.51100000000E-03 0.  1.
        -12    1    3    3    0    0  0.46771052107E+01 -0.21326632522E+02 -0.29744280391E+02  0.36897463109E+02  0.00000000000E+00 0.  1.
</event>
<event>
 7    1  0.3752192E-015  0.9000713E+02  0.7816164E-02  0.1186340E+00
        -11   -1    0    0    0    0  0.00000000000E+00  0.00000000000E+00  0.45593999997E+02  0.45594000000E+02  0.51100000000E-03 0. -1.
         11   -1    0    0    0    0 -0.00000000000E+00 -0.00000000000E+00 -0.45593999997E+02  0.45594000000E+02  0.51100000000E-03 0.  1.
    9900012    2    1    2    0    0  0.43889626877E+00 -0.99910833194E+00 -0.45123783558E+00  0.90007126180E+02  0.89999379444E+02 0.  0.
        -12    1    1    2    0    0 -0.43889626877E+00  0.99910833194E+00  0.45123783558E+00  0.11808738197E+01  0.00000000000E+00 0.  1.
         11    1    3    3    0    0 -0.65736715867E+01 -0.82111245412E+00 -0.52072660632E+01  0.84263280203E+01  0.51100000000E-03 0. -1.
        -11    1    3    3    0    0  0.37245540574E+01  0.39249921699E+02 -0.75577410785E+01  0.40144091804E+02  0.51100000000E-03 0.  1.
         12    1    3    3    0    0  0.32880137981E+01 -0.39427917576E+02  0.12313769306E+02  0.41436706356E+02  0.00000000000E+00 0. -1.
</event>
<event>
 7    1  0.3752192E-015  0.9000769E+02  0.7816164E-02  0.1186339E+00
        -11   -1    0    0    0    0  0.00000000000E+00  0.00000000000E+00  0.45593999997E+02  0.45594000000E+02  0.51100000000E-03 0. -1.
         11   -1    0    0    0    0 -0.00000000000E+00 -0.00000000000E+00 -0.45593999997E+02  0.45594000000E+02  0.51100000000E-03 0.  1.
    9900012    2    1    2    0    0 -0.78147899520E+00 -0.68942356549E+00  0.55417636255E+00  0.90007692534E+02  0.89999953276E+02 0.  0.
        -12    1    1    2    0    0  0.78147899520E+00  0.68942356549E+00 -0.55417636255E+00  0.11803074656E+01  0.00000000000E+00 0.  1.
         11    1    3    3    0    0  0.22334656863E+01  0.84666979299E+01 -0.68057482477E+00  0.87827401853E+01  0.51100000000E-03 0. -1.
        -11    1    3    3    0    0 -0.27831887433E+02  0.17484246822E+01 -0.29262348372E+02  0.40422221357E+02  0.51100000000E-03 0.  1.
         12    1    3    3    0    0  0.24816942752E+02 -0.10904546178E+02  0.30497099559E+02  0.40802730992E+02  0.00000000000E+00 0. -1.
</event>
<event>
 7    1  0.3752192E-015  0.9000770E+02  0.7816164E-02  0.1186339E+00
        -11   -1    0    0    0    0  0.00000000000E+00  0.00000000000E+00  0.45593999997E+02  0.45594000000E+02  0.51100000000E-03 0.  1.
         11   -1    0    0    0    0 -0.00000000000E+00 -0.00000000000E+00 -0.45593999997E+02  0.45594000000E+02  0.51100000000E-03 0. -1.
    9900012    2    1    2    0    0 -0.99486589780E+00  0.43169485964E+00 -0.46582293142E+00  0.90007699356E+02  0.89999960188E+02 0.  0.
        -12    1    1    2    0    0  0.99486589780E+00 -0.43169485964E+00  0.46582293142E+00  0.11803006439E+01  0.00000000000E+00 0.  1.
         11    1    3    3    0    0 -0.93144596090E+01 -0.38582524487E+02 -0.11731409133E+02  0.41388359645E+02  0.51100000000E-03 0. -1.
        -11    1    3    3    0    0  0.92806756068E+01  0.11310498016E+01  0.31406754546E+01  0.98627610710E+01  0.51100000000E-03 0.  1.
        -12    1    3    3    0    0 -0.96108189561E+00  0.37883169545E+02  0.81249107468E+01  0.38756578640E+02  0.00000000000E+00 0.  1.
</event>
<event>
 7    1  0.3752192E-015  0.9000767E+02  0.7816164E-02  0.1186339E+00
        -11   -1    0    0    0    0  0.00000000000E+00  0.00000000000E+00  0.45593999997E+02  0.45594000000E+02  0.51100000000E-03 0.  1.
         11   -1    0    0    0    0 -0.00000000000E+00 -0.00000000000E+00 -0.45593999997E+02  0.45594000000E+02  0.51100000000E-03 0. -1.
    9900012    2    1    2    0    0  0.73676345802E+00  0.73283465953E+00 -0.55974029997E+00  0.90007671133E+02  0.89999931592E+02 0.  0.
        -12    1    1    2    0    0 -0.73676345802E+00 -0.73283465953E+00  0.55974029997E+00  0.11803288672E+01  0.00000000000E+00 0.  1.
         11    1    3    3    0    0  0.67924772618E+01  0.21816742566E+01 -0.62321626263E+01  0.94729774187E+01  0.51100000000E-03 0. -1.
        -11    1    3    3    0    0  0.33862726835E+02  0.11760747469E+02 -0.71965569259E+01  0.36562137267E+02  0.51100000000E-03 0.  1.
         12    1    3    3    0    0 -0.39918440639E+02 -0.13209587066E+02  0.12868979252E+02  0.43972556447E+02  0.00000000000E+00 0. -1.
</event>
<event>
 7    1  0.3752192E-015  0.9000781E+02  0.7816164E-02  0.1186339E+00
        -11   -1    0    0    0    0  0.00000000000E+00  0.00000000000E+00  0.45593999997E+02  0.45594000000E+02  0.51100000000E-03 0. -1.
         11   -1    0    0    0    0 -0.00000000000E+00 -0.00000000000E+00 -0.45593999997E+02  0.45594000000E+02  0.51100000000E-03 0.  1.
    9900012    2    1    2    0    0 -0.13482923262E+00 -0.11180422751E+01  0.35304881835E+00  0.90007813185E+02  0.90000075519E+02 0.  0.
        -12    1    1    2    0    0  0.13482923262E+00  0.11180422751E+01 -0.35304881835E+00  0.11801868153E+01  0.00000000000E+00 0.  1.
         11    1    3    3    0    0  0.30934582638E+01 -0.35709063084E+02 -0.33056778544E+01  0.35994918762E+02  0.51100000000E-03 0. -1.
        -11    1    3    3    0    0 -0.65181366548E+01 -0.72774980747E+01  0.67918339501E+01  0.11898617245E+02  0.51100000000E-03 0.  1.
        -12    1    3    3    0    0  0.32898491584E+01  0.41868518883E+02 -0.31331072774E+01  0.42114277177E+02  0.00000000000E+00 0.  1.
</event>
<event>
 7    1  0.3752192E-015  0.9000761E+02  0.7816164E-02  0.1186339E+00
        -11   -1    0    0    0    0  0.00000000000E+00  0.00000000000E+00  0.45593999997E+02  0.45594000000E+02  0.51100000000E-03 0.  1.
         11   -1    0    0    0    0 -0.00000000000E+00 -0.00000000000E+00 -0.45593999997E+02  0.45594000000E+02  0.51100000000E-03 0. -1.
    9900012    2    1    2    0    0  0.79505373026E+00  0.45823992525E+00 -0.74244692658E+00  0.90007609513E+02  0.89999869158E+02 0.  0.
        -12    1    1    2    0    0 -0.79505373026E+00 -0.45823992525E+00  0.74244692658E+00  0.11803904870E+01  0.00000000000E+00 0.  1.
         11    1    3    3    0    0 -0.89139215089E+01 -0.33447628852E+01  0.15346427603E+01  0.96436800075E+01  0.51100000000E-03 0. -1.
        -11    1    3    3    0    0  0.20385973099E+01 -0.37431054534E+02 -0.70771545423E+01  0.38148733127E+02  0.51100000000E-03 0.  1.
         12    1    3    3    0    0  0.76703779292E+01  0.41234057344E+02  0.48000648554E+01  0.42215196378E+02  0.00000000000E+00 0. -1.
</event>
<event>
 7    1  0.3752192E-015  0.9000775E+02  0.7816164E-02  0.1186339E+00
        -11   -1    0    0    0    0  0.00000000000E+00  0.00000000000E+00  0.45593999997E+02  0.45594000000E+02  0.51100000000E-03 0.  1.
         11   -1    0    0    0    0 -0.00000000000E+00 -0.00000000000E+00 -0.45593999997E+02  0.45594000000E+02  0.51100000000E-03 0. -1.
    9900012    2    1    2    0    0 -0.79949776635E+00 -0.72653739051E+00 -0.47532519859E+00  0.90007751169E+02  0.90000012685E+02 0.  0.
        -12    1    1    2    0    0  0.79949776635E+00  0.72653739051E+00  0.47532519859E+00  0.11802488308E+01  0.00000000000E+00 0.  1.
         11    1    3    3    0    0 -0.78473014676E+01  0.19686980454E+02  0.95888332338E+01  0.23261622101E+02  0.51100000000E-03 0. -1.
        -11    1    3    3    0    0 -0.12081012810E+02  0.16720551777E+02  0.67689882396E+01  0.21710525657E+02  0.51100000000E-03 0.  1.
         12    1    3    3    0    0  0.19128816511E+02 -0.37134069622E+02 -0.16833146672E+02  0.45035603412E+02  0.00000000000E+00 0. -1.
</event>
<event>
 7    1  0.3752192E-015  0.9000782E+02  0.7816164E-02  0.1186339E+00
        -11   -1    0    0    0    0  0.00000000000E+00  0.00000000000E+00  0.45593999997E+02  0.45594000000E+02  0.51100000000E-03 0.  1.
         11   -1    0    0    0    0 -0.00000000000E+00 -0.00000000000E+00 -0.45593999997E+02  0.45594000000E+02  0.51100000000E-03 0. -1.
    9900012    2    1    2    0    0  0.33425312707E+00 -0.10191652809E+01 -0.49234906484E+00  0.90007817546E+02  0.90000079938E+02 0.  0.
        -12    1    1    2    0    0 -0.33425312707E+00  0.10191652809E+01  0.49234906484E+00  0.11801824539E+01  0.00000000000E+00 0.  1.
         11    1    3    3    0    0  0.31448767532E+02  0.18008730419E+02  0.72364653927E+01  0.36955456731E+02  0.51100000000E-03 0. -1.
        -11    1    3    3    0    0  0.34772541739E+01 -0.32495488856E+01 -0.13757094182E+02  0.14557077493E+02  0.51100000000E-03 0.  1.
        -12    1    3    3    0    0 -0.34591768579E+02 -0.15778346815E+02  0.60282797241E+01  0.38495283322E+02  0.00000000000E+00 0.  1.
</event>
<event>
 7    1  0.3752192E-015  0.9000775E+02  0.7816164E-02  0.1186339E+00
        -11   -1    0    0    0    0  0.00000000000E+00  0.00000000000E+00  0.45593999997E+02  0.45594000000E+02  0.51100000000E-03 0. -1.
         11   -1    0    0    0    0 -0.00000000000E+00 -0.00000000000E+00 -0.45593999997E+02  0.45594000000E+02  0.51100000000E-03 0.  1.
    9900012    2    1    2    0    0  0.32783680747E+00  0.11181905202E+01 -0.18751494714E+00  0.90007750506E+02  0.90000012013E+02 0.  0.
        -12    1    1    2    0    0 -0.32783680747E+00 -0.11181905202E+01  0.18751494714E+00  0.11802494936E+01  0.00000000000E+00 0.  1.
         11    1    3    3    0    0 -0.25634628736E+02 -0.23259900138E+02 -0.13342837455E+01  0.34640113427E+02  0.51100000000E-03 0. -1.
        -11    1    3    3    0    0 -0.37069771375E+01 -0.50642761538E+01 -0.10271788863E+02  0.12037367618E+02  0.51100000000E-03 0.  1.
        -12    1    3    3    0    0  0.29669442681E+02  0.29442366812E+02  0.11418557662E+02  0.43330269461E+02  0.00000000000E+00 0.  1.
</event>
<event>
 7    1  0.3817414E-015  0.9000775E+02  0.7816164E-02  0.1186339E+00
        -11   -1    0    0    0    0  0.00000000000E+00  0.00000000000E+00  0.45593999997E+02  0.45594000000E+02  0.51100000000E-03 0.  1.
         11   -1    0    0    0    0 -0.00000000000E+00 -0.00000000000E+00 -0.45593999997E+02  0.45594000000E+02  0.51100000000E-03 0. -1.
    9900012    2    1    2    0    0  0.76533792736E+00 -0.88687609022E+00 -0.14388159351E+00  0.90007748647E+02  0.90000010130E+02 0.  0.
        -12    1    1    2    0    0 -0.76533792736E+00  0.88687609022E+00  0.14388159351E+00  0.11802513526E+01  0.00000000000E+00 0.  1.
         11    1    3    3    0    0 -0.74412683150E+01  0.21964752340E+02 -0.29711395699E+02  0.37690713102E+02  0.51100000000E-03 0. -1.
        -11    1    3    3    0    0  0.79351176765E+01  0.34133924945E+01 -0.41440189850E+01  0.95807220224E+01  0.51100000000E-03 0.  1.
        -12    1    3    3    0    0  0.27148856586E+00 -0.26265020925E+02  0.33711533091E+02  0.42736313523E+02  0.00000000000E+00 0.  1.
</event>
<event>
 7    1  0.3752192E-015  0.9000773E+02  0.7816164E-02  0.1186339E+00
        -11   -1    0    0    0    0  0.00000000000E+00  0.00000000000E+00  0.45593999997E+02  0.45594000000E+02  0.51100000000E-03 0. -1.
         11   -1    0    0    0    0 -0.00000000000E+00 -0.00000000000E+00 -0.45593999997E+02  0.45594000000E+02  0.51100000000E-03 0.  1.
    9900012    2    1    2    0    0  0.83658515762E+00  0.33067513592E+00  0.76408442267E+00  0.90007726398E+02  0.89999987586E+02 0.  0.
        -12    1    1    2    0    0 -0.83658515762E+00 -0.33067513592E+00 -0.76408442267E+00  0.11802736024E+01  0.00000000000E+00 0.  1.
         11    1    3    3    0    0 -0.16274985059E+02 -0.10721916699E+01 -0.11697717706E+02  0.20071405866E+02  0.51100000000E-03 0.  1.
        -11    1    3    3    0    0 -0.81079673821E+01  0.26339158345E+02 -0.83735975429E+01  0.28802908420E+02  0.51100000000E-03 0. -1.
         12    1    3    3    0    0  0.25219537599E+02 -0.24936291539E+02  0.20835399672E+02  0.41133412111E+02  0.00000000000E+00 0. -1.
</event>
<event>
 7    1  0.3752192E-015  0.9000765E+02  0.7816164E-02  0.1186339E+00
        -11   -1    0    0    0    0  0.00000000000E+00  0.00000000000E+00  0.45593999997E+02  0.45594000000E+02  0.51100000000E-03 0.  1.
         11   -1    0    0    0    0 -0.00000000000E+00 -0.00000000000E+00 -0.45593999997E+02  0.45594000000E+02  0.51100000000E-03 0. -1.
    9900012    2    1    2    0    0  0.10662627092E+01  0.31490374656E+00 -0.39642683272E+00  0.90007646338E+02  0.89999906469E+02 0.  0.
        -12    1    1    2    0    0 -0.10662627092E+01 -0.31490374656E+00  0.39642683272E+00  0.11803536624E+01  0.00000000000E+00 0.  1.
         11    1    3    3    0    0  0.40880080061E+02  0.12568996314E+02  0.29336554212E+01  0.42869184136E+02  0.51100000000E-03 0. -1.
        -11    1    3    3    0    0 -0.78485860808E+01  0.53396684783E+00  0.76784894033E+01  0.10992935179E+02  0.51100000000E-03 0.  1.
        -12    1    3    3    0    0 -0.31965231271E+02 -0.12788059415E+02 -0.11008571657E+02  0.36145527023E+02  0.00000000000E+00 0.  1.
</event>
<event>
 7    1  0.3752192E-015  0.9000772E+02  0.7816164E-02  0.1186339E+00
        -11   -1    0    0    0    0  0.00000000000E+00  0.00000000000E+00  0.45593999997E+02  0.45594000000E+02  0.51100000000E-03 0.  1.
         11   -1    0    0    0    0 -0.00000000000E+00 -0.00000000000E+00 -0.45593999997E+02  0.45594000000E+02  0.51100000000E-03 0. -1.
    9900012    2    1    2    0    0 -0.20126451360E+00 -0.11383133348E+01  0.23833239626E+00  0.90007717414E+02  0.89999978483E+02 0.  0.
        -12    1    1    2    0    0  0.20126451360E+00  0.11383133348E+01 -0.23833239626E+00  0.11802825864E+01  0.00000000000E+00 0.  1.
         11    1    3    3    0    0 -0.30264937141E+01  0.80337270384E+01  0.64996083157E+01  0.10767791921E+02  0.51100000000E-03 0. -1.
        -11    1    3    3    0    0  0.67331392258E+01 -0.43663826287E+02 -0.54818816435E+01  0.44518714228E+02  0.51100000000E-03 0.  1.
         12    1    3    3    0    0 -0.39079100253E+01  0.34491785914E+02 -0.77939427592E+00  0.34721211265E+02  0.00000000000E+00 0. -1.
</event>
<event>
 7    1  0.3752192E-015  0.9000770E+02  0.7816164E-02  0.1186339E+00
        -11   -1    0    0    0    0  0.00000000000E+00  0.00000000000E+00  0.45593999997E+02  0.45594000000E+02  0.51100000000E-03 0.  1.
         11   -1    0    0    0    0 -0.00000000000E+00 -0.00000000000E+00 -0.45593999997E+02  0.45594000000E+02  0.51100000000E-03 0. -1.
    9900012    2    1    2    0    0  0.45248036978E-01 -0.37615888107E+00 -0.11178438495E+01  0.90007695903E+02  0.89999956689E+02 0.  0.
        -12    1    1    2    0    0 -0.45248036978E-01  0.37615888107E+00  0.11178438495E+01  0.11803040966E+01  0.00000000000E+00 0.  1.
         11    1    3    3    0    0 -0.36689888963E+02  0.11809382154E+02 -0.14196686349E+02  0.41074996804E+02  0.51100000000E-03 0. -1.
        -11    1    3    3    0    0 -0.18048681684E+01 -0.72888434872E+01  0.56056999647E+01  0.93706275586E+01  0.51100000000E-03 0.  1.
        -12    1    3    3    0    0  0.38540005168E+02 -0.48966975479E+01  0.74731425344E+01  0.39562071540E+02  0.00000000000E+00 0.  1.
</event>
<event>
 7    1  0.3752192E-015  0.9000761E+02  0.7816164E-02  0.1186339E+00
        -11   -1    0    0    0    0  0.00000000000E+00  0.00000000000E+00  0.45593999997E+02  0.45594000000E+02  0.51100000000E-03 0.  1.
         11   -1    0    0    0    0 -0.00000000000E+00 -0.00000000000E+00 -0.45593999997E+02  0.45594000000E+02  0.51100000000E-03 0. -1.
    9900012    2    1    2    0    0  0.11569049975E+01 -0.22068682066E+00 -0.78714240812E-01  0.90007606939E+02  0.89999866551E+02 0.  0.
        -12    1    1    2    0    0 -0.11569049975E+01  0.22068682066E+00  0.78714240812E-01  0.11803930607E+01  0.00000000000E+00 0.  1.
         11    1    3    3    0    0 -0.23612016341E+02 -0.50497859048E+01 -0.25396616573E+02  0.35043056187E+02  0.51100000000E-03 0. -1.
        -11    1    3    3    0    0 -0.10124901264E+02 -0.36787359165E+01 -0.41658385112E+00  0.10780550353E+02  0.51100000000E-03 0.  1.
        -12    1    3    3    0    0  0.34893822602E+02  0.85078350006E+01  0.25734486183E+02  0.44184000399E+02  0.00000000000E+00 0.  1.
</event>
<event>
 7    1  0.3752192E-015  0.9000764E+02  0.7816164E-02  0.1186339E+00
        -11   -1    0    0    0    0  0.00000000000E+00  0.00000000000E+00  0.45593999997E+02  0.45594000000E+02  0.51100000000E-03 0. -1.
         11   -1    0    0    0    0 -0.00000000000E+00 -0.00000000000E+00 -0.45593999997E+02  0.45594000000E+02  0.51100000000E-03 0.  1.
    9900012    2    1    2    0    0  0.78611083695E-01  0.34132738968E-01  0.11772488084E+01  0.90007635860E+02  0.89999895853E+02 0.  0.
        -12    1    1    2    0    0 -0.78611083695E-01 -0.34132738968E-01 -0.11772488084E+01  0.11803641401E+01  0.00000000000E+00 0.  1.
         11    1    3    3    0    0  0.41756215506E+01 -0.64781649160E+01  0.55542855786E+01  0.95001328708E+01  0.51100000000E-03 0. -1.
        -11    1    3    3    0    0 -0.31668764365E+02 -0.19060316237E+02  0.12865975736E+02  0.39137445284E+02  0.51100000000E-03 0.  1.
         12    1    3    3    0    0  0.27571753898E+02  0.25572613892E+02 -0.17243012506E+02  0.41370057705E+02  0.00000000000E+00 0. -1.
</event>
<event>
 7    1  0.3752192E-015  0.9000780E+02  0.7816164E-02  0.1186339E+00
        -11   -1    0    0    0    0  0.00000000000E+00  0.00000000000E+00  0.45593999997E+02  0.45594000000E+02  0.51100000000E-03 0.  1.
         11   -1    0    0    0    0 -0.00000000000E+00 -0.00000000000E+00 -0.45593999997E+02  0.45594000000E+02  0.51100000000E-03 0. -1.
    9900012    2    1    2    0    0  0.53633881375E+00  0.90680587485E-01 -0.10473698162E+01  0.90007802633E+02  0.90000064828E+02 0.  0.
        -12    1    1    2    0    0 -0.53633881375E+00 -0.90680587485E-01  0.10473698162E+01  0.11801973666E+01  0.00000000000E+00 0.  1.
         11    1    3    3    0    0  0.86157850303E+01  0.34427943100E+00 -0.49241407016E+01  0.99296244605E+01  0.51100000000E-03 0. -1.
        -11    1    3    3    0    0  0.13406430821E+02 -0.35633532878E+02  0.64091996706E+01  0.38607756907E+02  0.51100000000E-03 0.  1.
         12    1    3    3    0    0 -0.21485877038E+02  0.35379934035E+02 -0.25324287852E+01  0.41470421265E+02  0.00000000000E+00 0. -1.
</event>
<event>
 7    1  0.3752192E-015  0.9000772E+02  0.7816164E-02  0.1186339E+00
        -11   -1    0    0    0    0  0.00000000000E+00  0.00000000000E+00  0.45593999997E+02  0.45594000000E+02  0.51100000000E-03 0.  1.
         11   -1    0    0    0    0 -0.00000000000E+00 -0.00000000000E+00 -0.45593999997E+02  0.45594000000E+02  0.51100000000E-03 0. -1.
    9900012    2    1    2    0    0 -0.72870687138E-01 -0.94265125056E+00  0.70651624237E+00  0.90007717526E+02  0.89999978598E+02 0.  0.
        -12    1    1    2    0    0  0.72870687138E-01  0.94265125056E+00 -0.70651624237E+00  0.11802824738E+01  0.00000000000E+00 0.  1.
         11    1    3    3    0    0  0.33355144947E+01  0.73240481591E+01  0.43232601267E+01  0.91355304589E+01  0.51100000000E-03 0. -1.
        -11    1    3    3    0    0  0.16102001504E+02  0.25072300037E+02  0.19729245057E+02  0.35737064686E+02  0.51100000000E-03 0.  1.
         12    1    3    3    0    0 -0.19510386686E+02 -0.33338999447E+02 -0.23345988941E+02  0.45135122381E+02  0.00000000000E+00 0. -1.
</event>
<event>
 7    1  0.3752192E-015  0.9000768E+02  0.7816164E-02  0.1186339E+00
        -11   -1    0    0    0    0  0.00000000000E+00  0.00000000000E+00  0.45593999997E+02  0.45594000000E+02  0.51100000000E-03 0.  1.
         11   -1    0    0    0    0 -0.00000000000E+00 -0.00000000000E+00 -0.45593999997E+02  0.45594000000E+02  0.51100000000E-03 0. -1.
    9900012    2    1    2    0    0 -0.35936777283E+00 -0.40259747586E+00 -0.10497232077E+01  0.90007682781E+02  0.89999943394E+02 0.  0.
        -12    1    1    2    0    0  0.35936777283E+00  0.40259747586E+00  0.10497232077E+01  0.11803172186E+01  0.00000000000E+00 0.  1.
         11    1    3    3    0    0 -0.65077513984E+01 -0.23676616967E+01  0.37702047600E+01  0.78848648921E+01  0.51100000000E-03 0. -1.
        -11    1    3    3    0    0 -0.28536415875E+02 -0.24514937925E+02  0.31927746809E+01  0.37755834289E+02  0.51100000000E-03 0.  1.
         12    1    3    3    0    0  0.34684799500E+02  0.26480002146E+02 -0.80127026486E+01  0.44366983600E+02  0.00000000000E+00 0. -1.
</event>
<event>
 7    1  0.3752192E-015  0.9000775E+02  0.7816164E-02  0.1186339E+00
        -11   -1    0    0    0    0  0.00000000000E+00  0.00000000000E+00  0.45593999997E+02  0.45594000000E+02  0.51100000000E-03 0. -1.
         11   -1    0    0    0    0 -0.00000000000E+00 -0.00000000000E+00 -0.45593999997E+02  0.45594000000E+02  0.51100000000E-03 0.  1.
    9900012    2    1    2    0    0 -0.63983694816E+00 -0.52103206692E+00 -0.84387903773E+00  0.90007746822E+02  0.90000008280E+02 0.  0.
        -12    1    1    2    0    0  0.63983694816E+00  0.52103206692E+00  0.84387903773E+00  0.11802531785E+01  0.00000000000E+00 0.  1.
         11    1    3    3    0    0  0.59303663518E+01 -0.71279415119E+01  0.25513210008E+00  0.92758766655E+01  0.51100000000E-03 0. -1.
        -11    1    3    3    0    0 -0.28410483037E+02 -0.20152903888E+02 -0.21191246578E+02  0.40772098465E+02  0.51100000000E-03 0.  1.
         12    1    3    3    0    0  0.21840279737E+02  0.26759813333E+02  0.20092235440E+02  0.39959771691E+02  0.00000000000E+00 0. -1.
</event>
<event>
 7    1  0.3752192E-015  0.9000772E+02  0.7816164E-02  0.1186339E+00
        -11   -1    0    0    0    0  0.00000000000E+00  0.00000000000E+00  0.45593999997E+02  0.45594000000E+02  0.51100000000E-03 0. -1.
         11   -1    0    0    0    0 -0.00000000000E+00 -0.00000000000E+00 -0.45593999997E+02  0.45594000000E+02  0.51100000000E-03 0.  1.
    9900012    2    1    2    0    0 -0.95800011307E-01 -0.77070631727E+00  0.88875739595E+00  0.90007722245E+02  0.89999983379E+02 0.  0.
        -12    1    1    2    0    0  0.95800011307E-01  0.77070631727E+00 -0.88875739595E+00  0.11802777548E+01  0.00000000000E+00 0.  1.
         11    1    3    3    0    0  0.58837443919E+01 -0.97902792460E+00 -0.88824162593E+01  0.10699264583E+02  0.51100000000E-03 0. -1.
        -11    1    3    3    0    0  0.36135509328E+02 -0.39433254914E+01  0.56943732164E+01  0.36793351803E+02  0.51100000000E-03 0.  1.
         12    1    3    3    0    0 -0.42115053731E+02  0.41516470987E+01  0.40768004388E+01  0.42515105859E+02  0.00000000000E+00 0. -1.
</event>
<event>
 7    1  0.3752192E-015  0.9000764E+02  0.7816164E-02  0.1186339E+00
        -11   -1    0    0    0    0  0.00000000000E+00  0.00000000000E+00  0.45593999997E+02  0.45594000000E+02  0.51100000000E-03 0. -1.
         11   -1    0    0    0    0 -0.00000000000E+00 -0.00000000000E+00 -0.45593999997E+02  0.45594000000E+02  0.51100000000E-03 0.  1.
    9900012    2    1    2    0    0 -0.11685706924E+01 -0.68175271633E-01 -0.15176854565E+00  0.90007644536E+02  0.89999904643E+02 0.  0.
        -12    1    1    2    0    0  0.11685706924E+01  0.68175271633E-01  0.15176854565E+00  0.11803554644E+01  0.00000000000E+00 0.  1.
         11    1    3    3    0    0  0.52084162293E+01  0.42189115198E+01 -0.67527119881E+01  0.95145117313E+01  0.51100000000E-03 0. -1.
        -11    1    3    3    0    0 -0.14778304186E+02  0.69060697521E+01 -0.33911797894E+02  0.37631132200E+02  0.51100000000E-03 0.  1.
         12    1    3    3    0    0  0.84013172644E+01 -0.11193156544E+02  0.40512741336E+02  0.42862000604E+02  0.00000000000E+00 0. -1.
</event>
<event>
 7    1  0.3752192E-015  0.9000775E+02  0.7816164E-02  0.1186339E+00
        -11   -1    0    0    0    0  0.00000000000E+00  0.00000000000E+00  0.45593999997E+02  0.45594000000E+02  0.51100000000E-03 0.  1.
         11   -1    0    0    0    0 -0.00000000000E+00 -0.00000000000E+00 -0.45593999997E+02  0.45594000000E+02  0.51100000000E-03 0. -1.
    9900012    2    1    2    0    0  0.29035301083E+00 -0.28425697892E+00 -0.11080984164E+01  0.90007750450E+02  0.90000011955E+02 0.  0.
        -12    1    1    2    0    0 -0.29035301083E+00  0.28425697892E+00  0.11080984164E+01  0.11802495505E+01  0.00000000000E+00 0.  1.
         11    1    3    3    0    0  0.51211537707E+00 -0.30950828927E+00 -0.86175657929E+01  0.86383156921E+01  0.51100000000E-03 0. -1.
        -11    1    3    3    0    0  0.97090751566E+01 -0.39251936090E+02  0.20116550469E+01  0.40484903155E+02  0.51100000000E-03 0.  1.
         12    1    3    3    0    0 -0.99308375228E+01  0.39277187400E+02  0.54978123296E+01  0.40884531603E+02  0.00000000000E+00 0. -1.
</event>
<event>
 7    1  0.3752192E-015  0.9000774E+02  0.7816164E-02  0.1186339E+00
        -11   -1    0    0    0    0  0.00000000000E+00  0.00000000000E+00  0.45593999997E+02  0.45594000000E+02  0.51100000000E-03 0.  1.
         11   -1    0    0    0    0 -0.00000000000E+00 -0.00000000000E+00 -0.45593999997E+02  0.45594000000E+02  0.51100000000E-03 0. -1.
    9900012    2    1    2    0    0 -0.60424420068E+00  0.74136350419E+00 -0.69157688543E+00  0.90007741771E+02  0.90000003162E+02 0.  0.
        -12    1    1    2    0    0  0.60424420068E+00 -0.74136350419E+00  0.69157688543E+00  0.11802582293E+01  0.00000000000E+00 0.  1.
         11    1    3    3    0    0  0.75332431017E+01 -0.33298359965E+01 -0.38000035369E+01  0.90706993410E+01  0.51100000000E-03 0. -1.
        -11    1    3    3    0    0 -0.28843785885E+02 -0.53019632764E+01  0.32504236957E+02  0.43778992898E+02  0.51100000000E-03 0.  1.
         12    1    3    3    0    0  0.20706298583E+02  0.93731627771E+01 -0.29395810306E+02  0.37158049531E+02  0.00000000000E+00 0. -1.
</event>
<event>
 7    1  0.3752192E-015  0.9000782E+02  0.7816164E-02  0.1186339E+00
        -11   -1    0    0    0    0  0.00000000000E+00  0.00000000000E+00  0.45593999997E+02  0.45594000000E+02  0.51100000000E-03 0.  1.
         11   -1    0    0    0    0 -0.00000000000E+00 -0.00000000000E+00 -0.45593999997E+02  0.45594000000E+02  0.51100000000E-03 0. -1.
    9900012    2    1    2    0    0 -0.11172257269E+01  0.13015491074E+00  0.35732332481E+00  0.90007824766E+02  0.90000087252E+02 0.  0.
        -12    1    1    2    0    0  0.11172257269E+01 -0.13015491074E+00 -0.35732332481E+00  0.11801752345E+01  0.00000000000E+00 0.  1.
         11    1    3    3    0    0 -0.28640587512E+01  0.25369770997E+02 -0.27748329815E+02  0.37706735747E+02  0.51100000000E-03 0. -1.
        -11    1    3    3    0    0  0.91672705337E+01  0.64320020783E+01  0.43186666417E+01  0.12002515636E+02  0.51100000000E-03 0.  1.
        -12    1    3    3    0    0 -0.74204375093E+01 -0.31671618164E+02  0.23786986498E+02  0.40298573382E+02  0.00000000000E+00 0.  1.
</event>
<event>
 7    1  0.3752192E-015  0.9000770E+02  0.7816164E-02  0.1186339E+00
        -11   -1    0    0    0    0  0.00000000000E+00  0.00000000000E+00  0.45593999997E+02  0.45594000000E+02  0.51100000000E-03 0. -1.
         11   -1    0    0    0    0 -0.00000000000E+00 -0.00000000000E+00 -0.45593999997E+02  0.45594000000E+02  0.51100000000E-03 0.  1.
    9900012    2    1    2    0    0  0.45187271058E+00 -0.10478219109E+01 -0.30164225507E+00  0.90007700143E+02  0.89999960984E+02 0.  0.
        -12    1    1    2    0    0 -0.45187271058E+00  0.10478219109E+01  0.30164225507E+00  0.11802998575E+01  0.00000000000E+00 0.  1.
         11    1    3    3    0    0  0.59825797130E+01  0.16463985825E+02 -0.57724215656E+01  0.18443832039E+02  0.51100000000E-03 0. -1.
        -11    1    3    3    0    0 -0.21321597722E+02 -0.22952213809E+02 -0.22787634757E+02  0.38738752513E+02  0.51100000000E-03 0.  1.
         12    1    3    3    0    0  0.15790890720E+02  0.54404060723E+01  0.28258414068E+02  0.32825115591E+02  0.00000000000E+00 0. -1.
</event>
<event>
 7    1  0.3752192E-015  0.9000782E+02  0.7816164E-02  0.1186339E+00
        -11   -1    0    0    0    0  0.00000000000E+00  0.00000000000E+00  0.45593999997E+02  0.45594000000E+02  0.51100000000E-03 0.  1.
         11   -1    0    0    0    0 -0.00000000000E+00 -0.00000000000E+00 -0.45593999997E+02  0.45594000000E+02  0.51100000000E-03 0. -1.
    9900012    2    1    2    0    0 -0.41677105029E+00  0.67533419517E+00 -0.87353347216E+00  0.90007815646E+02  0.90000078012E+02 0.  0.
        -12    1    1    2    0    0  0.41677105029E+00 -0.67533419517E+00  0.87353347216E+00  0.11801843545E+01  0.00000000000E+00 0.  1.
         11    1    3    3    0    0 -0.46545309613E+01 -0.60655289838E+01 -0.31653104772E+01  0.82749314801E+01  0.51100000000E-03 0. -1.
        -11    1    3    3    0    0 -0.37365187406E+02  0.82195605226E+01 -0.74543494485E+01  0.38978015997E+02  0.51100000000E-03 0.  1.
         12    1    3    3    0    0  0.41602947317E+02 -0.14786973436E+01  0.97461264535E+01  0.42754868169E+02  0.00000000000E+00 0. -1.
</event>
<event>
 7    1  0.3752192E-015  0.9000776E+02  0.7816164E-02  0.1186339E+00
        -11   -1    0    0    0    0  0.00000000000E+00  0.00000000000E+00  0.45593999997E+02  0.45594000000E+02  0.51100000000E-03 0. -1.
         11   -1    0    0    0    0 -0.00000000000E+00 -0.00000000000E+00 -0.45593999997E+02  0.45594000000E+02  0.51100000000E-03 0.  1.
    9900012    2    1    2    0    0  0.22780218772E+00 -0.89270749293E+00  0.73766058238E+00  0.90007761194E+02  0.90000022842E+02 0.  0.
        -12    1    1    2    0    0 -0.22780218772E+00  0.89270749293E+00 -0.73766058238E+00  0.11802388061E+01  0.00000000000E+00 0.  1.
         11    1    3    3    0    0  0.65364670735E+01  0.92835529306E+01 -0.43828186494E+01  0.12170409048E+02  0.51100000000E-03 0. -1.
        -11    1    3    3    0    0 -0.15430128792E+02 -0.39558728526E+02 -0.99005685089E+01  0.43600494656E+02  0.51100000000E-03 0.  1.
         12    1    3    3    0    0  0.91214639060E+01  0.29382468103E+02  0.15021047741E+02  0.34236857490E+02  0.00000000000E+00 0. -1.
</event>
<event>
 7    1  0.3752192E-015  0.9000832E+02  0.7816164E-02  0.1186338E+00
        -11   -1    0    0    0    0  0.00000000000E+00  0.00000000000E+00  0.45593999997E+02  0.45594000000E+02  0.51100000000E-03 0. -1.
         11   -1    0    0    0    0 -0.00000000000E+00 -0.00000000000E+00 -0.45593999997E+02  0.45594000000E+02  0.51100000000E-03 0.  1.
    9900012    2    1    2    0    0  0.20307547033E+00  0.10713137027E+01  0.45022635593E+00  0.90008315098E+02  0.90000584055E+02 0.  0.
        -12    1    1    2    0    0 -0.20307547033E+00 -0.10713137027E+01 -0.45022635593E+00  0.11796849020E+01  0.00000000000E+00 0.  1.
         11    1    3    3    0    0 -0.77731706343E+01 -0.22644153037E+01 -0.24732920725E+01  0.84656324226E+01  0.51100000000E-03 0. -1.
        -11    1    3    3    0    0  0.11599266419E-01 -0.82017236189E+00 -0.38827453514E+02  0.38836116745E+02  0.51100000000E-03 0.  1.
         12    1    3    3    0    0  0.79646468382E+01  0.41559013683E+01  0.41750971942E+02  0.42706565930E+02  0.00000000000E+00 0. -1.
</event>
<event>
 7    1  0.3752192E-015  0.9000777E+02  0.7816164E-02  0.1186339E+00
        -11   -1    0    0    0    0  0.00000000000E+00  0.00000000000E+00  0.45593999997E+02  0.45594000000E+02  0.51100000000E-03 0. -1.
         11   -1    0    0    0    0 -0.00000000000E+00 -0.00000000000E+00 -0.45593999997E+02  0.45594000000E+02  0.51100000000E-03 0.  1.
    9900012    2    1    2    0    0 -0.35357756604E+00  0.73172769847E+00  0.85585862932E+00  0.90007772686E+02  0.90000034485E+02 0.  0.
        -12    1    1    2    0    0  0.35357756604E+00 -0.73172769847E+00 -0.85585862932E+00  0.11802273143E+01  0.00000000000E+00 0.  1.
         11    1    3    3    0    0  0.93868691960E+01 -0.24906068560E+01 -0.11554119908E+01  0.97801540348E+01  0.51100000000E-03 0. -1.
        -11    1    3    3    0    0 -0.33332586189E-01 -0.37905305999E+02  0.22066236865E+01  0.37969494628E+02  0.51100000000E-03 0.  1.
         12    1    3    3    0    0 -0.97071141759E+01  0.41127640554E+02 -0.19535306631E+00  0.42258124023E+02  0.00000000000E+00 0. -1.
</event>
<event>
 7    1  0.3752192E-015  0.9000778E+02  0.7816164E-02  0.1186339E+00
        -11   -1    0    0    0    0  0.00000000000E+00  0.00000000000E+00  0.45593999997E+02  0.45594000000E+02  0.51100000000E-03 0. -1.
         11   -1    0    0    0    0 -0.00000000000E+00 -0.00000000000E+00 -0.45593999997E+02  0.45594000000E+02  0.51100000000E-03 0.  1.
    9900012    2    1    2    0    0 -0.33061958751E+00 -0.97584615225E+00  0.57561330234E+00  0.90007781504E+02  0.90000043420E+02 0.  0.
        -12    1    1    2    0    0  0.33061958751E+00  0.97584615225E+00 -0.57561330234E+00  0.11802184960E+01  0.00000000000E+00 0.  1.
         11    1    3    3    0    0 -0.85896678238E+01  0.74805934190E+01  0.11101302533E+01  0.11444389921E+02  0.51100000000E-03 0. -1.
        -11    1    3    3    0    0 -0.28606813459E+02  0.15489364145E+02 -0.90927816736E+01  0.33777934465E+02  0.51100000000E-03 0.  1.
         12    1    3    3    0    0  0.36865861696E+02 -0.23945803716E+02  0.85582647227E+01  0.44785457118E+02  0.00000000000E+00 0. -1.
</event>
<event>
 7    1  0.3752192E-015  0.9000771E+02  0.7816164E-02  0.1186339E+00
        -11   -1    0    0    0    0  0.00000000000E+00  0.00000000000E+00  0.45593999997E+02  0.45594000000E+02  0.51100000000E-03 0.  1.
         11   -1    0    0    0    0 -0.00000000000E+00 -0.00000000000E+00 -0.45593999997E+02  0.45594000000E+02  0.51100000000E-03 0. -1.
    9900012    2    1    2    0    0  0.72814647205E+00 -0.86268717915E+00 -0.34448040235E+00  0.90007706307E+02  0.89999967230E+02 0.  0.
        -12    1    1    2    0    0 -0.72814647205E+00  0.86268717915E+00  0.34448040235E+00  0.11802936929E+01  0.00000000000E+00 0.  1.
         11    1    3    3    0    0  0.81531431022E+01 -0.95804160495E+00  0.42412217285E+01  0.92401054201E+01  0.51100000000E-03 0. -1.
        -11    1    3    3    0    0  0.35456809167E+02  0.94485307960E+01 -0.35490019802E+01  0.36865369465E+02  0.51100000000E-03 0.  1.
         12    1    3    3    0    0 -0.42881805797E+02 -0.93531763702E+01 -0.10367001507E+01  0.43902231422E+02  0.00000000000E+00 0. -1.
</event>
<event>
 7    1  0.3752192E-015  0.9000775E+02  0.7816164E-02  0.1186339E+00
        -11   -1    0    0    0    0  0.00000000000E+00  0.00000000000E+00  0.45593999997E+02  0.45594000000E+02  0.51100000000E-03 0. -1.
         11   -1    0    0    0    0 -0.00000000000E+00 -0.00000000000E+00 -0.45593999997E+02  0.45594000000E+02  0.51100000000E-03 0.  1.
    9900012    2    1    2    0    0 -0.36201859694E+00  0.18691103099E+00  0.11076955260E+01  0.90007753171E+02  0.90000014713E+02 0.  0.
        -12    1    1    2    0    0  0.36201859694E+00 -0.18691103099E+00 -0.11076955260E+01  0.11802468285E+01  0.00000000000E+00 0.  1.
         11    1    3    3    0    0 -0.50960882443E+01  0.91507188703E+01 -0.72785678085E+01  0.12754737192E+02  0.51100000000E-03 0. -1.
        -11    1    3    3    0    0 -0.29774079471E+02 -0.61985138167E+01 -0.16516416250E+02  0.34607938220E+02  0.51100000000E-03 0.  1.
         12    1    3    3    0    0  0.34508149118E+02 -0.27652940226E+01  0.24902679584E+02  0.42645077759E+02  0.00000000000E+00 0. -1.
</event>
<event>
 7    1  0.3752192E-015  0.9000762E+02  0.7816164E-02  0.1186339E+00
        -11   -1    0    0    0    0  0.00000000000E+00  0.00000000000E+00  0.45593999997E+02  0.45594000000E+02  0.51100000000E-03 0.  1.
         11   -1    0    0    0    0 -0.00000000000E+00 -0.00000000000E+00 -0.45593999997E+02  0.45594000000E+02  0.51100000000E-03 0. -1.
    9900012    2    1    2    0    0  0.54026996907E+00 -0.95330906069E+00  0.43885745884E+00  0.90007624774E+02  0.89999884621E+02 0.  0.
        -12    1    1    2    0    0 -0.54026996907E+00  0.95330906069E+00 -0.43885745884E+00  0.11803752259E+01  0.00000000000E+00 0.  1.
         11    1    3    3    0    0  0.36074028031E+02  0.48253317041E+01 -0.16713016237E+02  0.40049272608E+02  0.51100000000E-03 0. -1.
        -11    1    3    3    0    0 -0.68154669317E+01 -0.33121539754E+01 -0.84897345874E+01  0.11379654963E+02  0.51100000000E-03 0.  1.
        -12    1    3    3    0    0 -0.28718291130E+02 -0.24664867894E+01  0.25641608283E+02  0.38578697203E+02  0.00000000000E+00 0.  1.
</event>
<event>
 7    1  0.3752192E-015  0.9000770E+02  0.7816164E-02  0.1186339E+00
        -11   -1    0    0    0    0  0.00000000000E+00  0.00000000000E+00  0.45593999997E+02  0.45594000000E+02  0.51100000000E-03 0.  1.
         11   -1    0    0    0    0 -0.00000000000E+00 -0.00000000000E+00 -0.45593999997E+02  0.45594000000E+02  0.51100000000E-03 0. -1.
    9900012    2    1    2    0    0  0.86230567327E+00 -0.14209507934E+00  0.79330599376E+00  0.90007704916E+02  0.89999965821E+02 0.  0.
        -12    1    1    2    0    0 -0.86230567327E+00  0.14209507934E+00 -0.79330599376E+00  0.11802950841E+01  0.00000000000E+00 0.  1.
         11    1    3    3    0    0  0.53220468606E-01  0.17271321518E+02 -0.36555876957E+02  0.40430601278E+02  0.51100000000E-03 0. -1.
        -11    1    3    3    0    0 -0.12216739445E+02 -0.10911088486E+02  0.11858402293E+02  0.20221826817E+02  0.51100000000E-03 0.  1.
         12    1    3    3    0    0  0.13025824650E+02 -0.65023281107E+01  0.25490780657E+02  0.29355276820E+02  0.00000000000E+00 0. -1.
</event>
<event>
 7    1  0.3752192E-015  0.9000770E+02  0.7816164E-02  0.1186339E+00
        -11   -1    0    0    0    0  0.00000000000E+00  0.00000000000E+00  0.45593999997E+02  0.45594000000E+02  0.51100000000E-03 0.  1.
         11   -1    0    0    0    0 -0.00000000000E+00 -0.00000000000E+00 -0.45593999997E+02  0.45594000000E+02  0.51100000000E-03 0. -1.
    9900012    2    1    2    0    0  0.85216163484E+00 -0.81549640231E+00  0.43446030486E-01  0.90007702838E+02  0.89999963715E+02 0.  0.
        -12    1    1    2    0    0 -0.85216163484E+00  0.81549640231E+00 -0.43446030486E-01  0.11802971624E+01  0.00000000000E+00 0.  1.
         11    1    3    3    0    0  0.31312099338E+00  0.88758277289E+01  0.60448577399E+01  0.10743308056E+02  0.51100000000E-03 0. -1.
        -11    1    3    3    0    0  0.11845673051E+02  0.12493441655E+02  0.30532561825E+02  0.35052009733E+02  0.51100000000E-03 0.  1.
         12    1    3    3    0    0 -0.11306632410E+02 -0.22184765786E+02 -0.36533973535E+02  0.44212385049E+02  0.00000000000E+00 0. -1.
</event>
<event>
 7    1  0.3752192E-015  0.9000785E+02  0.7816164E-02  0.1186339E+00
        -11   -1    0    0    0    0  0.00000000000E+00  0.00000000000E+00  0.45593999997E+02  0.45594000000E+02  0.51100000000E-03 0. -1.
         11   -1    0    0    0    0 -0.00000000000E+00 -0.00000000000E+00 -0.45593999997E+02  0.45594000000E+02  0.51100000000E-03 0.  1.
    9900012    2    1    2    0    0 -0.70001674919E+00 -0.80250711794E+00  0.50864701017E+00  0.90007846237E+02  0.90000109007E+02 0.  0.
        -12    1    1    2    0    0  0.70001674919E+00  0.80250711794E+00 -0.50864701017E+00  0.11801537630E+01  0.00000000000E+00 0.  1.
         11    1    3    3    0    0  0.28067257197E+02 -0.20060860169E+02  0.13503280484E+01  0.34525822559E+02  0.51100000000E-03 0. -1.
        -11    1    3    3    0    0  0.10689429541E+02 -0.70837794937E+00 -0.32512432201E+01  0.11195368952E+02  0.51100000000E-03 0.  1.
        -12    1    3    3    0    0 -0.39456703487E+02  0.19966731001E+02  0.24095621818E+01  0.44286654726E+02  0.00000000000E+00 0.  1.
</event>
<event>
 7    1  0.3752192E-015  0.9000750E+02  0.7816164E-02  0.1186340E+00
        -11   -1    0    0    0    0  0.00000000000E+00  0.00000000000E+00  0.45593999997E+02  0.45594000000E+02  0.51100000000E-03 0. -1.
         11   -1    0    0    0    0 -0.00000000000E+00 -0.00000000000E+00 -0.45593999997E+02  0.45594000000E+02  0.51100000000E-03 0.  1.
    9900012    2    1    2    0    0 -0.89646467325E+00  0.55412477092E+00  0.53187229808E+00  0.90007495314E+02  0.89999753452E+02 0.  0.
        -12    1    1    2    0    0  0.89646467325E+00 -0.55412477092E+00 -0.53187229808E+00  0.11805046860E+01  0.00000000000E+00 0.  1.
         11    1    3    3    0    0 -0.28122202263E+01 -0.71234559720E+01  0.37370216848E+01  0.85215925108E+01  0.51100000000E-03 0. -1.
        -11    1    3    3    0    0  0.27017663874E+02 -0.20247836871E+02 -0.21179964548E+02  0.39856241138E+02  0.51100000000E-03 0.  1.
         12    1    3    3    0    0 -0.25101908321E+02  0.27925417614E+02  0.17974815161E+02  0.41629661665E+02  0.00000000000E+00 0. -1.
</event>
<event>
 7    1  0.3752192E-015  0.9000772E+02  0.7816164E-02  0.1186339E+00
        -11   -1    0    0    0    0  0.00000000000E+00  0.00000000000E+00  0.45593999997E+02  0.45594000000E+02  0.51100000000E-03 0. -1.
         11   -1    0    0    0    0 -0.00000000000E+00 -0.00000000000E+00 -0.45593999997E+02  0.45594000000E+02  0.51100000000E-03 0.  1.
    9900012    2    1    2    0    0 -0.89172347155E+00  0.27584238604E+00  0.72236516098E+00  0.90007715629E+02  0.89999976675E+02 0.  0.
        -12    1    1    2    0    0  0.89172347155E+00 -0.27584238604E+00 -0.72236516098E+00  0.11802843714E+01  0.00000000000E+00 0.  1.
         11    1    3    3    0    0  0.27937219601E+01 -0.23954743247E+01 -0.10908326111E+00  0.36817222940E+01  0.51100000000E-03 0. -1.
        -11    1    3    3    0    0 -0.87563973960E+01  0.19674565323E+02 -0.37974644118E+02  0.43655888631E+02  0.51100000000E-03 0.  1.
         12    1    3    3    0    0  0.50709519643E+01 -0.17003248612E+02  0.38806092540E+02  0.42670104704E+02  0.00000000000E+00 0. -1.
</event>
<event>
 7    1  0.3752192E-015  0.9000780E+02  0.7816164E-02  0.1186339E+00
        -11   -1    0    0    0    0  0.00000000000E+00  0.00000000000E+00  0.45593999997E+02  0.45594000000E+02  0.51100000000E-03 0.  1.
         11   -1    0    0    0    0 -0.00000000000E+00 -0.00000000000E+00 -0.45593999997E+02  0.45594000000E+02  0.51100000000E-03 0. -1.
    9900012    2    1    2    0    0 -0.87580469904E+00 -0.75611753149E+00 -0.23264752304E+00  0.90007799821E+02  0.90000061979E+02 0.  0.
        -12    1    1    2    0    0  0.87580469904E+00  0.75611753149E+00  0.23264752304E+00  0.11802001789E+01  0.00000000000E+00 0.  1.
         11    1    3    3    0    0  0.78594330080E+01 -0.16755351432E+01  0.33469914534E+01  0.87051971416E+01  0.51100000000E-03 0. -1.
        -11    1    3    3    0    0  0.31550777930E+02 -0.58332011693E+01  0.16171081276E+02  0.35930233700E+02  0.51100000000E-03 0.  1.
         12    1    3    3    0    0 -0.40286015637E+02  0.67526187810E+01 -0.19750720252E+02  0.45372368979E+02  0.00000000000E+00 0. -1.
</event>
<event>
 7    1  0.3752192E-015  0.9000810E+02  0.7816164E-02  0.1186338E+00
        -11   -1    0    0    0    0  0.00000000000E+00  0.00000000000E+00  0.45593999997E+02  0.45594000000E+02  0.51100000000E-03 0.  1.
         11   -1    0    0    0    0 -0.00000000000E+00 -0.00000000000E+00 -0.45593999997E+02  0.45594000000E+02  0.51100000000E-03 0. -1.
    9900012    2    1    2    0    0  0.44176633346E+00 -0.10617697694E+01 -0.26393761425E+00  0.90008095088E+02  0.90000361143E+02 0.  0.
        -12    1    1    2    0    0 -0.44176633346E+00  0.10617697694E+01  0.26393761425E+00  0.11799049118E+01  0.00000000000E+00 0.  1.
         11    1    3    3    0    0  0.62932038447E+01  0.57209314838E+01  0.42722806268E+01  0.95176600953E+01  0.51100000000E-03 0. -1.
        -11    1    3    3    0    0 -0.40497405782E+02  0.32115128093E+01  0.96275338849E+01  0.41749767647E+02  0.51100000000E-03 0.  1.
         12    1    3    3    0    0  0.34645968271E+02 -0.99942140625E+01 -0.14163752126E+02  0.38740667346E+02  0.00000000000E+00 0. -1.
</event>
<event>
 7    1  0.3752192E-015  0.9000775E+02  0.7816164E-02  0.1186339E+00
        -11   -1    0    0    0    0  0.00000000000E+00  0.00000000000E+00  0.45593999997E+02  0.45594000000E+02  0.51100000000E-03 0.  1.
         11   -1    0    0    0    0 -0.00000000000E+00 -0.00000000000E+00 -0.45593999997E+02  0.45594000000E+02  0.51100000000E-03 0. -1.
    9900012    2    1    2    0    0  0.82239900069E+00 -0.65585697941E+00 -0.53526627439E+00  0.90007746435E+02  0.90000007888E+02 0.  0.
        -12    1    1    2    0    0 -0.82239900069E+00  0.65585697941E+00  0.53526627439E+00  0.11802535653E+01  0.00000000000E+00 0.  1.
         11    1    3    3    0    0  0.30566241722E+01 -0.91383299246E+01  0.10893268735E+01  0.96973531667E+01  0.51100000000E-03 0. -1.
        -11    1    3    3    0    0 -0.37594063446E+02 -0.41582397559E+01 -0.14653935770E+02  0.40562820391E+02  0.51100000000E-03 0.  1.
         12    1    3    3    0    0  0.35359838275E+02  0.12640712701E+02  0.13029342623E+02  0.39747572877E+02  0.00000000000E+00 0. -1.
</event>
<event>
 7    1  0.3752192E-015  0.9000770E+02  0.7816164E-02  0.1186339E+00
        -11   -1    0    0    0    0  0.00000000000E+00  0.00000000000E+00  0.45593999997E+02  0.45594000000E+02  0.51100000000E-03 0. -1.
         11   -1    0    0    0    0 -0.00000000000E+00 -0.00000000000E+00 -0.45593999997E+02  0.45594000000E+02  0.51100000000E-03 0.  1.
    9900012    2    1    2    0    0 -0.94144110051E+00  0.14074726495E+00  0.69784409881E+00  0.90007700240E+02  0.89999961083E+02 0.  0.
        -12    1    1    2    0    0  0.94144110051E+00 -0.14074726495E+00 -0.69784409881E+00  0.11802997605E+01  0.00000000000E+00 0.  1.
         11    1    3    3    0    0 -0.15500100213E+02  0.11546282785E+02  0.29504743320E+02  0.35271796543E+02  0.51100000000E-03 0. -1.
        -11    1    3    3    0    0  0.60121225237E+01  0.28373759832E+01  0.10293466758E+02  0.12253643453E+02  0.51100000000E-03 0.  1.
        -12    1    3    3    0    0  0.85465365883E+01 -0.14242911504E+02 -0.39100365979E+02  0.42482260244E+02  0.00000000000E+00 0.  1.
</event>
<event>
 7    1  0.3752192E-015  0.9000777E+02  0.7816164E-02  0.1186339E+00
        -11   -1    0    0    0    0  0.00000000000E+00  0.00000000000E+00  0.45593999997E+02  0.45594000000E+02  0.51100000000E-03 0. -1.
         11   -1    0    0    0    0 -0.00000000000E+00 -0.00000000000E+00 -0.45593999997E+02  0.45594000000E+02  0.51100000000E-03 0.  1.
    9900012    2    1    2    0    0  0.10129052592E+01  0.48314742383E-01  0.60384126877E+00  0.90007773049E+02  0.90000034853E+02 0.  0.
        -12    1    1    2    0    0 -0.10129052592E+01 -0.48314742383E-01 -0.60384126877E+00  0.11802269512E+01  0.00000000000E+00 0.  1.
         11    1    3    3    0    0  0.29126062281E+01 -0.90944393043E+00 -0.82764778554E+01  0.88210231411E+01  0.51100000000E-03 0. -1.
        -11    1    3    3    0    0 -0.10739537082E+02 -0.16032040707E+02 -0.31245930764E+02  0.36724272294E+02  0.51100000000E-03 0.  1.
         12    1    3    3    0    0  0.88398361133E+01  0.16989799380E+02  0.40126249888E+02  0.44462477614E+02  0.00000000000E+00 0. -1.
</event>
<event>
 7    1  0.3752192E-015  0.9000779E+02  0.7816164E-02  0.1186339E+00
        -11   -1    0    0    0    0  0.00000000000E+00  0.00000000000E+00  0.45593999997E+02  0.45594000000E+02  0.51100000000E-03 0.  1.
         11   -1    0    0    0    0 -0.00000000000E+00 -0.00000000000E+00 -0.45593999997E+02  0.45594000000E+02  0.51100000000E-03 0. -1.
    9900012    2    1    2    0    0  0.13895330497E+00 -0.44495835222E+00 -0.10842511958E+01  0.90007789590E+02  0.90000051613E+02 0.  0.
        -12    1    1    2    0    0 -0.13895330497E+00  0.44495835222E+00  0.10842511958E+01  0.11802104100E+01  0.00000000000E+00 0.  1.
         11    1    3    3    0    0  0.13289656704E+02 -0.44557289450E+01  0.18708043195E+02  0.23376470568E+02  0.51100000000E-03 0. -1.
        -11    1    3    3    0    0 -0.40271393524E+00  0.15448651370E+02  0.18843162628E+02  0.24369813002E+02  0.51100000000E-03 0.  1.
         12    1    3    3    0    0 -0.12747989464E+02 -0.11437880777E+02 -0.38635457019E+02  0.42261506020E+02  0.00000000000E+00 0. -1.
</event>
<event>
 7    1  0.3752192E-015  0.9000775E+02  0.7816164E-02  0.1186339E+00
        -11   -1    0    0    0    0  0.00000000000E+00  0.00000000000E+00  0.45593999997E+02  0.45594000000E+02  0.51100000000E-03 0.  1.
         11   -1    0    0    0    0 -0.00000000000E+00 -0.00000000000E+00 -0.45593999997E+02  0.45594000000E+02  0.51100000000E-03 0. -1.
    9900012    2    1    2    0    0 -0.49927444871E-01  0.35592693579E+00 -0.11241963800E+01  0.90007748233E+02  0.90000009709E+02 0.  0.
        -12    1    1    2    0    0  0.49927444871E-01 -0.35592693579E+00  0.11241963800E+01  0.11802517673E+01  0.00000000000E+00 0.  1.
         11    1    3    3    0    0 -0.63513031087E+01  0.21727716682E+02  0.14704616140E+02  0.26993674435E+02  0.51100000000E-03 0. -1.
        -11    1    3    3    0    0  0.15054435960E+01  0.65255631684E+01  0.17823275960E+02  0.19039918626E+02  0.51100000000E-03 0.  1.
         12    1    3    3    0    0  0.47959320679E+01 -0.27897352915E+02 -0.33652088480E+02  0.43974155172E+02  0.00000000000E+00 0. -1.
</event>
<event>
 7    1  0.3752192E-015  0.9000762E+02  0.7816164E-02  0.1186339E+00
        -11   -1    0    0    0    0  0.00000000000E+00  0.00000000000E+00  0.45593999997E+02  0.45594000000E+02  0.51100000000E-03 0.  1.
         11   -1    0    0    0    0 -0.00000000000E+00 -0.00000000000E+00 -0.45593999997E+02  0.45594000000E+02  0.51100000000E-03 0. -1.
    9900012    2    1    2    0    0  0.12587719221E+00  0.11265323096E+01 -0.32922149366E+00  0.90007615781E+02  0.89999875509E+02 0.  0.
        -12    1    1    2    0    0 -0.12587719221E+00 -0.11265323096E+01  0.32922149366E+00  0.11803842188E+01  0.00000000000E+00 0.  1.
         11    1    3    3    0    0  0.36814602321E+01  0.38538633667E+02 -0.40914185970E+01  0.38929669158E+02  0.51100000000E-03 0. -1.
        -11    1    3    3    0    0 -0.77287148903E+01  0.44035846964E+01  0.12098753058E+01  0.89771036839E+01  0.51100000000E-03 0.  1.
        -12    1    3    3    0    0  0.41731318504E+01 -0.41815686054E+02  0.25523217975E+01  0.42100842939E+02  0.00000000000E+00 0.  1.
</event>
<event>
 7    1  0.3752192E-015  0.9000779E+02  0.7816164E-02  0.1186339E+00
        -11   -1    0    0    0    0  0.00000000000E+00  0.00000000000E+00  0.45593999997E+02  0.45594000000E+02  0.51100000000E-03 0. -1.
         11   -1    0    0    0    0 -0.00000000000E+00 -0.00000000000E+00 -0.45593999997E+02  0.45594000000E+02  0.51100000000E-03 0.  1.
    9900012    2    1    2    0    0 -0.64064820891E+00 -0.98836536382E+00 -0.74869458871E-01  0.90007787453E+02  0.90000049447E+02 0.  0.
        -12    1    1    2    0    0  0.64064820891E+00  0.98836536382E+00  0.74869458871E-01  0.11802125469E+01  0.00000000000E+00 0.  1.
         11    1    3    3    0    0 -0.26110169792E+01 -0.49380470445E+01 -0.73388543013E+01  0.92228250009E+01  0.51100000000E-03 0. -1.
        -11    1    3    3    0    0 -0.94999325764E+01 -0.30659822273E+02 -0.17644819248E+02  0.36628036629E+02  0.51100000000E-03 0.  1.
         12    1    3    3    0    0  0.11470301347E+02  0.34609503954E+02  0.24908804090E+02  0.44156925823E+02  0.00000000000E+00 0. -1.
</event>
<event>
 7    1  0.3752192E-015  0.9000768E+02  0.7816164E-02  0.1186339E+00
        -11   -1    0    0    0    0  0.00000000000E+00  0.00000000000E+00  0.45593999997E+02  0.45594000000E+02  0.51100000000E-03 0. -1.
         11   -1    0    0    0    0 -0.00000000000E+00 -0.00000000000E+00 -0.45593999997E+02  0.45594000000E+02  0.51100000000E-03 0.  1.
    9900012    2    1    2    0    0 -0.80661357206E+00  0.82326270812E+00  0.25448091242E+00  0.90007683315E+02  0.89999943935E+02 0.  0.
        -12    1    1    2    0    0  0.80661357206E+00 -0.82326270812E+00 -0.25448091242E+00  0.11803166846E+01  0.00000000000E+00 0.  1.
         11    1    3    3    0    0  0.19420938189E+01 -0.23244756476E+01 -0.98219478586E+01  0.10278403351E+02  0.51100000000E-03 0. -1.
        -11    1    3    3    0    0 -0.20495548362E+02 -0.11172682224E+02 -0.27316298727E+02  0.35931553086E+02  0.51100000000E-03 0.  1.
         12    1    3    3    0    0  0.17746840971E+02  0.14320420580E+02  0.37392727498E+02  0.43797726879E+02  0.00000000000E+00 0. -1.
</event>
<event>
 7    1  0.3752192E-015  0.9000773E+02  0.7816164E-02  0.1186339E+00
        -11   -1    0    0    0    0  0.00000000000E+00  0.00000000000E+00  0.45593999997E+02  0.45594000000E+02  0.51100000000E-03 0. -1.
         11   -1    0    0    0    0 -0.00000000000E+00 -0.00000000000E+00 -0.45593999997E+02  0.45594000000E+02  0.51100000000E-03 0.  1.
    9900012    2    1    2    0    0  0.28966332379E+00 -0.11173166170E+01 -0.24642965924E+00  0.90007733572E+02  0.89999994855E+02 0.  0.
        -12    1    1    2    0    0 -0.28966332379E+00  0.11173166170E+01  0.24642965924E+00  0.11802664279E+01  0.00000000000E+00 0.  1.
         11    1    3    3    0    0  0.19781127785E+02  0.31181114914E+02  0.73505390940E+01  0.37650834904E+02  0.51100000000E-03 0. -1.
        -11    1    3    3    0    0  0.58551382843E+01 -0.48990453923E+01  0.87470382177E+01  0.11610080444E+02  0.51100000000E-03 0.  1.
        -12    1    3    3    0    0 -0.25346602745E+02 -0.27399386139E+02 -0.16344006971E+02  0.40746818224E+02  0.00000000000E+00 0.  1.
</event>
<event>
 7    1  0.3752192E-015  0.9000761E+02  0.7816164E-02  0.1186339E+00
        -11   -1    0    0    0    0  0.00000000000E+00  0.00000000000E+00  0.45593999997E+02  0.45594000000E+02  0.51100000000E-03 0. -1.
         11   -1    0    0    0    0 -0.00000000000E+00 -0.00000000000E+00 -0.45593999997E+02  0.45594000000E+02  0.51100000000E-03 0.  1.
    9900012    2    1    2    0    0 -0.16761322528E+00 -0.32788844483E+00  0.11214823843E+01  0.90007606945E+02  0.89999866557E+02 0.  0.
        -12    1    1    2    0    0  0.16761322528E+00  0.32788844483E+00 -0.11214823843E+01  0.11803930548E+01  0.00000000000E+00 0.  1.
         11    1    3    3    0    0 -0.11982063936E+02  0.45089722277E+01  0.37532690915E+02  0.39656066047E+02  0.51100000000E-03 0. -1.
        -11    1    3    3    0    0  0.71097291096E+01  0.85237869421E+00  0.47113519683E+01  0.85715596644E+01  0.51100000000E-03 0.  1.
        -12    1    3    3    0    0  0.47047216009E+01 -0.56892393668E+01 -0.41122560499E+02  0.41779981234E+02  0.00000000000E+00 0.  1.
</event>
<event>
 7    1  0.3752192E-015  0.9000778E+02  0.7816164E-02  0.1186339E+00
        -11   -1    0    0    0    0  0.00000000000E+00  0.00000000000E+00  0.45593999997E+02  0.45594000000E+02  0.51100000000E-03 0.  1.
         11   -1    0    0    0    0 -0.00000000000E+00 -0.00000000000E+00 -0.45593999997E+02  0.45594000000E+02  0.51100000000E-03 0. -1.
    9900012    2    1    2    0    0  0.93353534550E+00 -0.53594553370E+00 -0.48394365930E+00  0.90007776580E+02  0.90000038431E+02 0.  0.
        -12    1    1    2    0    0 -0.93353534550E+00  0.53594553370E+00  0.48394365930E+00  0.11802234203E+01  0.00000000000E+00 0.  1.
         11    1    3    3    0    0 -0.67637371758E+00  0.79440077038E+01 -0.47511325395E+01  0.92810559999E+01  0.51100000000E-03 0. -1.
        -11    1    3    3    0    0 -0.22067295451E+02 -0.32035713481E+02  0.20075803013E+02  0.43775453551E+02  0.51100000000E-03 0.  1.
         12    1    3    3    0    0  0.23677204514E+02  0.23555760244E+02 -0.15808614133E+02  0.36951267029E+02  0.00000000000E+00 0. -1.
</event>
<event>
 7    1  0.3752192E-015  0.9000784E+02  0.7816164E-02  0.1186339E+00
        -11   -1    0    0    0    0  0.00000000000E+00  0.00000000000E+00  0.45593999997E+02  0.45594000000E+02  0.51100000000E-03 0. -1.
         11   -1    0    0    0    0 -0.00000000000E+00 -0.00000000000E+00 -0.45593999997E+02  0.45594000000E+02  0.51100000000E-03 0.  1.
    9900012    2    1    2    0    0  0.80071237608E+00 -0.68198011280E+00  0.53530085732E+00  0.90007837218E+02  0.90000099870E+02 0.  0.
        -12    1    1    2    0    0 -0.80071237608E+00  0.68198011280E+00 -0.53530085732E+00  0.11801627817E+01  0.00000000000E+00 0.  1.
         11    1    3    3    0    0 -0.61857998270E+01 -0.26411599615E+01 -0.84989217486E+01  0.10838427773E+02  0.51100000000E-03 0. -1.
        -11    1    3    3    0    0  0.64003060647E+01 -0.38120135376E+00 -0.34741025565E+02  0.35327724096E+02  0.51100000000E-03 0.  1.
         12    1    3    3    0    0  0.58620613832E+00  0.23403812025E+01  0.43775248171E+02  0.43841685349E+02  0.00000000000E+00 0. -1.
</event>
<event>
 7    1  0.4566623E-015  0.9000783E+02  0.7816164E-02  0.1186339E+00
        -11   -1    0    0    0    0  0.00000000000E+00  0.00000000000E+00  0.45593999997E+02  0.45594000000E+02  0.51100000000E-03 0.  1.
         11   -1    0    0    0    0 -0.00000000000E+00 -0.00000000000E+00 -0.45593999997E+02  0.45594000000E+02  0.51100000000E-03 0. -1.
    9900012    2    1    2    0    0 -0.73604296172E+00 -0.92243148723E+00 -0.12913260363E-01  0.90007828045E+02  0.90000090576E+02 0.  0.
        -12    1    1    2    0    0  0.73604296172E+00  0.92243148723E+00  0.12913260363E-01  0.11801719546E+01  0.00000000000E+00 0.  1.
         11    1    3    3    0    0  0.39938860399E+01 -0.47180898463E+01  0.78459085123E+01  0.99884822741E+01  0.51100000000E-03 0. -1.
        -11    1    3    3    0    0  0.11222442558E+02 -0.35432229724E+02 -0.58473678174E+01  0.37624165517E+02  0.51100000000E-03 0.  1.
         12    1    3    3    0    0 -0.15952371559E+02  0.39227888083E+02 -0.20114539552E+01  0.42395180255E+02  0.00000000000E+00 0. -1.
</event>
<event>
 7    1  0.3752192E-015  0.9000772E+02  0.7816164E-02  0.1186339E+00
        -11   -1    0    0    0    0  0.00000000000E+00  0.00000000000E+00  0.45593999997E+02  0.45594000000E+02  0.51100000000E-03 0. -1.
         11   -1    0    0    0    0 -0.00000000000E+00 -0.00000000000E+00 -0.45593999997E+02  0.45594000000E+02  0.51100000000E-03 0.  1.
    9900012    2    1    2    0    0 -0.45826248971E+00  0.10856755569E+01 -0.66153613697E-01  0.90007715193E+02  0.89999976234E+02 0.  0.
        -12    1    1    2    0    0  0.45826248971E+00 -0.10856755569E+01  0.66153613697E-01  0.11802848067E+01  0.00000000000E+00 0.  1.
         11    1    3    3    0    0  0.10500433219E+01 -0.66091228542E+01 -0.85958609022E+01  0.10893664250E+02  0.51100000000E-03 0. -1.
        -11    1    3    3    0    0 -0.69120422948E+01 -0.29156777435E+02 -0.16530876260E+02  0.34222271539E+02  0.51100000000E-03 0.  1.
         12    1    3    3    0    0  0.54037364831E+01  0.36851575846E+02  0.25060583549E+02  0.44891779405E+02  0.00000000000E+00 0. -1.
</event>
<event>
 7    1  0.3752192E-015  0.9000773E+02  0.7816164E-02  0.1186339E+00
        -11   -1    0    0    0    0  0.00000000000E+00  0.00000000000E+00  0.45593999997E+02  0.45594000000E+02  0.51100000000E-03 0.  1.
         11   -1    0    0    0    0 -0.00000000000E+00 -0.00000000000E+00 -0.45593999997E+02  0.45594000000E+02  0.51100000000E-03 0. -1.
    9900012    2    1    2    0    0 -0.76914129654E-01  0.98474854521E+00 -0.64606211576E+00  0.90007728108E+02  0.89999989319E+02 0.  0.
        -12    1    1    2    0    0  0.76914129654E-01 -0.98474854521E+00  0.64606211576E+00  0.11802718916E+01  0.00000000000E+00 0.  1.
         11    1    3    3    0    0  0.38661098113E+01 -0.37378500105E+02  0.24473244368E+01  0.37657515483E+02  0.51100000000E-03 0. -1.
        -11    1    3    3    0    0  0.68538813578E+01 -0.15149927942E+01  0.69020639164E+01  0.98442561629E+01  0.51100000000E-03 0.  1.
        -12    1    3    3    0    0 -0.10796905299E+02  0.39878241444E+02 -0.99954504689E+01  0.42505956463E+02  0.00000000000E+00 0.  1.
</event>
<event>
 7    1  0.3752192E-015  0.9000776E+02  0.7816164E-02  0.1186339E+00
        -11   -1    0    0    0    0  0.00000000000E+00  0.00000000000E+00  0.45593999997E+02  0.45594000000E+02  0.51100000000E-03 0. -1.
         11   -1    0    0    0    0 -0.00000000000E+00 -0.00000000000E+00 -0.45593999997E+02  0.45594000000E+02  0.51100000000E-03 0.  1.
    9900012    2    1    2    0    0 -0.90697607181E+00 -0.65069892257E+00 -0.38334143656E+00  0.90007760474E+02  0.90000022112E+02 0.  0.
        -12    1    1    2    0    0  0.90697607181E+00  0.65069892257E+00  0.38334143656E+00  0.11802395264E+01  0.00000000000E+00 0.  1.
         11    1    3    3    0    0 -0.17552981420E+01 -0.81135492809E+01  0.35880567516E+02  0.36828329843E+02  0.51100000000E-03 0. -1.
        -11    1    3    3    0    0 -0.76196412043E+01 -0.45451352354E+01  0.44280547560E+01  0.99158890460E+01  0.51100000000E-03 0.  1.
        -12    1    3    3    0    0  0.84679632744E+01  0.12007985594E+02 -0.40691963708E+02  0.43263541585E+02  0.00000000000E+00 0.  1.
</event>
<event>
 7    1  0.3752192E-015  0.9000774E+02  0.7816164E-02  0.1186339E+00
        -11   -1    0    0    0    0  0.00000000000E+00  0.00000000000E+00  0.45593999997E+02  0.45594000000E+02  0.51100000000E-03 0.  1.
         11   -1    0    0    0    0 -0.00000000000E+00 -0.00000000000E+00 -0.45593999997E+02  0.45594000000E+02  0.51100000000E-03 0. -1.
    9900012    2    1    2    0    0  0.10744929572E+01 -0.10940536342E+00 -0.47593811336E+00  0.90007736582E+02  0.89999997905E+02 0.  0.
        -12    1    1    2    0    0 -0.10744929572E+01  0.10940536342E+00  0.47593811336E+00  0.11802634182E+01  0.00000000000E+00 0.  1.
         11    1    3    3    0    0  0.33992092859E+02 -0.58669053699E+01  0.12682340717E+02  0.36752207034E+02  0.51100000000E-03 0. -1.
        -11    1    3    3    0    0  0.21744619539E+01  0.35629806371E+01  0.10215011524E+02  0.11034925306E+02  0.51100000000E-03 0.  1.
        -12    1    3    3    0    0 -0.35092061856E+02  0.21945193694E+01 -0.23373290354E+02  0.42220604242E+02  0.00000000000E+00 0.  1.
</event>
<event>
 7    1  0.3752192E-015  0.9000800E+02  0.7816164E-02  0.1186339E+00
        -11   -1    0    0    0    0  0.00000000000E+00  0.00000000000E+00  0.45593999997E+02  0.45594000000E+02  0.51100000000E-03 0. -1.
         11   -1    0    0    0    0 -0.00000000000E+00 -0.00000000000E+00 -0.45593999997E+02  0.45594000000E+02  0.51100000000E-03 0.  1.
    9900012    2    1    2    0    0  0.59997861135E+00  0.74887027651E+00  0.68673854103E+00  0.90008003878E+02  0.90000268728E+02 0.  0.
        -12    1    1    2    0    0 -0.59997861135E+00 -0.74887027651E+00 -0.68673854103E+00  0.11799961224E+01  0.00000000000E+00 0.  1.
         11    1    3    3    0    0  0.13399710982E+01 -0.12103232378E+02 -0.89763563327E+01  0.15128077532E+02  0.51100000000E-03 0. -1.
        -11    1    3    3    0    0  0.51516278376E+01 -0.21992916380E+02 -0.18890753602E+02  0.29446361612E+02  0.51100000000E-03 0.  1.
         12    1    3    3    0    0 -0.58916203244E+01  0.34845019035E+02  0.28553848476E+02  0.45433564733E+02  0.00000000000E+00 0. -1.
</event>
<event>
 7    1  0.3752192E-015  0.9000727E+02  0.7816164E-02  0.1186340E+00
        -11   -1    0    0    0    0  0.00000000000E+00  0.00000000000E+00  0.45593999997E+02  0.45594000000E+02  0.51100000000E-03 0. -1.
         11   -1    0    0    0    0 -0.00000000000E+00 -0.00000000000E+00 -0.45593999997E+02  0.45594000000E+02  0.51100000000E-03 0.  1.
    9900012    2    1    2    0    0  0.23143790419E+00 -0.41720810613E+00  0.10800443336E+01  0.90007270620E+02  0.89999525791E+02 0.  0.
        -12    1    1    2    0    0 -0.23143790419E+00  0.41720810613E+00 -0.10800443336E+01  0.11807293804E+01  0.00000000000E+00 0.  1.
         11    1    3    3    0    0 -0.22893446831E+02 -0.24745865508E+02  0.26394250973E+02  0.42815000318E+02  0.51100000000E-03 0. -1.
        -11    1    3    3    0    0  0.68197253885E+01 -0.34208396765E+01 -0.43723408011E+01  0.87936433183E+01  0.51100000000E-03 0.  1.
        -12    1    3    3    0    0  0.16305159347E+02  0.27749497078E+02 -0.20941865838E+02  0.38398626983E+02  0.00000000000E+00 0.  1.
</event>
<event>
 7    1  0.3752192E-015  0.9000773E+02  0.7816164E-02  0.1186339E+00
        -11   -1    0    0    0    0  0.00000000000E+00  0.00000000000E+00  0.45593999997E+02  0.45594000000E+02  0.51100000000E-03 0. -1.
         11   -1    0    0    0    0 -0.00000000000E+00 -0.00000000000E+00 -0.45593999997E+02  0.45594000000E+02  0.51100000000E-03 0.  1.
    9900012    2    1    2    0    0  0.10012129171E+01 -0.29942321756E+00  0.54859321545E+00  0.90007730503E+02  0.89999991746E+02 0.  0.
        -12    1    1    2    0    0 -0.10012129171E+01  0.29942321756E+00 -0.54859321545E+00  0.11802694966E+01  0.00000000000E+00 0.  1.
         11    1    3    3    0    0 -0.25130530060E+02 -0.12713072516E+01  0.27110047289E+02  0.36988030868E+02  0.51100000000E-03 0. -1.
        -11    1    3    3    0    0 -0.31438383400E+01 -0.10207850190E+02  0.17063435646E+01  0.10816447367E+02  0.51100000000E-03 0.  1.
        -12    1    3    3    0    0  0.29275581317E+02  0.11179734224E+02 -0.28267797638E+02  0.42203252269E+02  0.00000000000E+00 0.  1.
</event>
<event>
 7    1  0.3752192E-015  0.9000774E+02  0.7816164E-02  0.1186339E+00
        -11   -1    0    0    0    0  0.00000000000E+00  0.00000000000E+00  0.45593999997E+02  0.45594000000E+02  0.51100000000E-03 0.  1.
         11   -1    0    0    0    0 -0.00000000000E+00 -0.00000000000E+00 -0.45593999997E+02  0.45594000000E+02  0.51100000000E-03 0. -1.
    9900012    2    1    2    0    0  0.10535251298E+01  0.31803788275E+00 -0.42655363079E+00  0.90007741006E+02  0.90000002387E+02 0.  0.
        -12    1    1    2    0    0 -0.10535251298E+01 -0.31803788275E+00  0.42655363079E+00  0.11802589944E+01  0.00000000000E+00 0.  1.
         11    1    3    3    0    0  0.56486500355E+01  0.27927828007E+02 -0.27965143529E+02  0.39923928630E+02  0.51100000000E-03 0. -1.
        -11    1    3    3    0    0  0.46442712796E+00  0.68862317851E+01  0.56272788400E+01  0.89051753581E+01  0.51100000000E-03 0.  1.
        -12    1    3    3    0    0 -0.50595520337E+01 -0.34496021909E+02  0.21911311058E+02  0.41178637018E+02  0.00000000000E+00 0.  1.
</event>
<event>
 7    1  0.3752192E-015  0.9000777E+02  0.7816164E-02  0.1186339E+00
        -11   -1    0    0    0    0  0.00000000000E+00  0.00000000000E+00  0.45593999997E+02  0.45594000000E+02  0.51100000000E-03 0. -1.
         11   -1    0    0    0    0 -0.00000000000E+00 -0.00000000000E+00 -0.45593999997E+02  0.45594000000E+02  0.51100000000E-03 0.  1.
    9900012    2    1    2    0    0  0.11011057715E+01 -0.14862258693E+00  0.39803460413E+00  0.90007765218E+02  0.90000026919E+02 0.  0.
        -12    1    1    2    0    0 -0.11011057715E+01  0.14862258693E+00 -0.39803460413E+00  0.11802347815E+01  0.00000000000E+00 0.  1.
         11    1    3    3    0    0  0.56258331857E+01 -0.79106862289E+01 -0.26060531077E+01  0.10050893926E+02  0.51100000000E-03 0. -1.
        -11    1    3    3    0    0 -0.86426303193E+01 -0.29604101901E+01 -0.37116631109E+02  0.38224382173E+02  0.51100000000E-03 0.  1.
         12    1    3    3    0    0  0.41179029051E+01  0.10722473832E+02  0.40120718821E+02  0.41732489120E+02  0.00000000000E+00 0. -1.
</event>
<event>
 7    1  0.3752192E-015  0.9000769E+02  0.7816164E-02  0.1186339E+00
        -11   -1    0    0    0    0  0.00000000000E+00  0.00000000000E+00  0.45593999997E+02  0.45594000000E+02  0.51100000000E-03 0.  1.
         11   -1    0    0    0    0 -0.00000000000E+00 -0.00000000000E+00 -0.45593999997E+02  0.45594000000E+02  0.51100000000E-03 0. -1.
    9900012    2    1    2    0    0  0.32489291458E+00  0.38358966204E+00 -0.10679095508E+01  0.90007691886E+02  0.89999952619E+02 0.  0.
        -12    1    1    2    0    0 -0.32489291458E+00 -0.38358966204E+00  0.10679095508E+01  0.11803081138E+01  0.00000000000E+00 0.  1.
         11    1    3    3    0    0 -0.38345264183E+02  0.93978519735E+01  0.49432659157E+01  0.39788375000E+02  0.51100000000E-03 0. -1.
        -11    1    3    3    0    0 -0.22454118612E+01 -0.26345415340E+01 -0.80463656849E+01  0.87593769480E+01  0.51100000000E-03 0.  1.
        -12    1    3    3    0    0  0.40915568959E+02 -0.63797207774E+01  0.20351902183E+01  0.41459939938E+02  0.00000000000E+00 0.  1.
</event>
<event>
 7    1  0.4214829E-015  0.9000777E+02  0.7816164E-02  0.1186339E+00
        -11   -1    0    0    0    0  0.00000000000E+00  0.00000000000E+00  0.45593999997E+02  0.45594000000E+02  0.51100000000E-03 0. -1.
         11   -1    0    0    0    0 -0.00000000000E+00 -0.00000000000E+00 -0.45593999997E+02  0.45594000000E+02  0.51100000000E-03 0.  1.
    9900012    2    1    2    0    0 -0.28309919892E+00 -0.44569400454E+00  0.10555361260E+01  0.90007769169E+02  0.90000030922E+02 0.  0.
        -12    1    1    2    0    0  0.28309919892E+00  0.44569400454E+00 -0.10555361260E+01  0.11802308314E+01  0.00000000000E+00 0.  1.
         11    1    3    3    0    0  0.31009974742E+02 -0.18636644930E+02  0.21294651235E+02  0.41981010460E+02  0.51100000000E-03 0. -1.
        -11    1    3    3    0    0  0.18603265498E+01  0.86829774842E+01 -0.24104433388E+01  0.92013667579E+01  0.51100000000E-03 0.  1.
        -12    1    3    3    0    0 -0.33153400490E+02  0.95079734417E+01 -0.17828671770E+02  0.38825391951E+02  0.00000000000E+00 0.  1.
</event>
<event>
 7    1  0.3752192E-015  0.9000768E+02  0.7816164E-02  0.1186339E+00
        -11   -1    0    0    0    0  0.00000000000E+00  0.00000000000E+00  0.45593999997E+02  0.45594000000E+02  0.51100000000E-03 0.  1.
         11   -1    0    0    0    0 -0.00000000000E+00 -0.00000000000E+00 -0.45593999997E+02  0.45594000000E+02  0.51100000000E-03 0. -1.
    9900012    2    1    2    0    0 -0.33962223621E+00  0.68433024866E+00 -0.89972762285E+00  0.90007677608E+02  0.89999938153E+02 0.  0.
        -12    1    1    2    0    0  0.33962223621E+00 -0.68433024866E+00  0.89972762285E+00  0.11803223915E+01  0.00000000000E+00 0.  1.
         11    1    3    3    0    0 -0.93284936432E+00 -0.35148140395E+02 -0.97052601282E+01  0.36475389724E+02  0.51100000000E-03 0. -1.
        -11    1    3    3    0    0 -0.12678096661E+01 -0.67487445356E+01 -0.52596085797E+01  0.86496460522E+01  0.51100000000E-03 0.  1.
        -12    1    3    3    0    0  0.18610367942E+01  0.42581215179E+02  0.14065141085E+02  0.44882641832E+02  0.00000000000E+00 0.  1.
</event>
<event>
 7    1  0.3752192E-015  0.9000762E+02  0.7816164E-02  0.1186339E+00
        -11   -1    0    0    0    0  0.00000000000E+00  0.00000000000E+00  0.45593999997E+02  0.45594000000E+02  0.51100000000E-03 0.  1.
         11   -1    0    0    0    0 -0.00000000000E+00 -0.00000000000E+00 -0.45593999997E+02  0.45594000000E+02  0.51100000000E-03 0. -1.
    9900012    2    1    2    0    0 -0.44206050389E+00 -0.83752033406E+00 -0.70457720596E+00  0.90007624281E+02  0.89999884121E+02 0.  0.
        -12    1    1    2    0    0  0.44206050389E+00  0.83752033406E+00  0.70457720596E+00  0.11803757191E+01  0.00000000000E+00 0.  1.
         11    1    3    3    0    0 -0.10919120380E+02 -0.69716669380E+01  0.24039647441E+01  0.13176129042E+02  0.51100000000E-03 0. -1.
        -11    1    3    3    0    0  0.20116772524E+02 -0.28115333460E+02 -0.17137242374E+02  0.38585510088E+02  0.51100000000E-03 0.  1.
         12    1    3    3    0    0 -0.96397126473E+01  0.34249480064E+02  0.14028700424E+02  0.38245985151E+02  0.00000000000E+00 0. -1.
</event>
<event>
 7    1  0.3752192E-015  0.9000824E+02  0.7816164E-02  0.1186338E+00
        -11   -1    0    0    0    0  0.00000000000E+00  0.00000000000E+00  0.45593999997E+02  0.45594000000E+02  0.51100000000E-03 0.  1.
         11   -1    0    0    0    0 -0.00000000000E+00 -0.00000000000E+00 -0.45593999997E+02  0.45594000000E+02  0.51100000000E-03 0. -1.
    9900012    2    1    2    0    0  0.95410721750E+00  0.68057477733E+00 -0.13538612046E+00  0.90008240698E+02  0.90000508673E+02 0.  0.
        -12    1    1    2    0    0 -0.95410721750E+00 -0.68057477733E+00  0.13538612046E+00  0.11797593024E+01  0.00000000000E+00 0.  1.
         11    1    3    3    0    0 -0.94574709938E+01 -0.43340967714E+01 -0.40038748775E+01  0.11147159581E+02  0.51100000000E-03 0. -1.
        -11    1    3    3    0    0  0.64006515438E+01  0.33327234245E+02 -0.21882691512E+02  0.40379760656E+02  0.51100000000E-03 0.  1.
         12    1    3    3    0    0  0.40109266675E+01 -0.28312562696E+02  0.25751180269E+02  0.38481320461E+02  0.00000000000E+00 0. -1.
</event>
<event>
 7    1  0.3752192E-015  0.9000771E+02  0.7816164E-02  0.1186339E+00
        -11   -1    0    0    0    0  0.00000000000E+00  0.00000000000E+00  0.45593999997E+02  0.45594000000E+02  0.51100000000E-03 0.  1.
         11   -1    0    0    0    0 -0.00000000000E+00 -0.00000000000E+00 -0.45593999997E+02  0.45594000000E+02  0.51100000000E-03 0. -1.
    9900012    2    1    2    0    0 -0.78389640056E+00  0.32107844236E+00 -0.82189114992E+00  0.90007707665E+02  0.89999968607E+02 0.  0.
        -12    1    1    2    0    0  0.78389640056E+00 -0.32107844236E+00  0.82189114992E+00  0.11802923347E+01  0.00000000000E+00 0.  1.
         11    1    3    3    0    0  0.28534583725E+02  0.11535757071E+02  0.10514416167E+02  0.32524592344E+02  0.51100000000E-03 0. -1.
        -11    1    3    3    0    0 -0.92441246671E-01  0.10546603461E+02  0.10598790011E+02  0.14952382416E+02  0.51100000000E-03 0.  1.
        -12    1    3    3    0    0 -0.29226038878E+02 -0.21761282090E+02 -0.21935097328E+02  0.42530732906E+02  0.00000000000E+00 0.  1.
</event>
<event>
 7    1  0.3752192E-015  0.9000767E+02  0.7816164E-02  0.1186339E+00
        -11   -1    0    0    0    0  0.00000000000E+00  0.00000000000E+00  0.45593999997E+02  0.45594000000E+02  0.51100000000E-03 0.  1.
         11   -1    0    0    0    0 -0.00000000000E+00 -0.00000000000E+00 -0.45593999997E+02  0.45594000000E+02  0.51100000000E-03 0. -1.
    9900012    2    1    2    0    0  0.27082654575E+00 -0.42293218538E+00 -0.10681597078E+01  0.90007667923E+02  0.89999928339E+02 0.  0.
        -12    1    1    2    0    0 -0.27082654575E+00  0.42293218538E+00  0.10681597078E+01  0.11803320773E+01  0.00000000000E+00 0.  1.
         11    1    3    3    0    0  0.19276656818E+02 -0.24483179615E+02 -0.59340352066E+00  0.31166772533E+02  0.51100000000E-03 0. -1.
        -11    1    3    3    0    0  0.86633206742E+01 -0.73417991375E+01  0.10614009578E+02  0.15543884304E+02  0.51100000000E-03 0.  1.
        -12    1    3    3    0    0 -0.27669150946E+02  0.31402046567E+02 -0.11088765765E+02  0.43297011085E+02  0.00000000000E+00 0.  1.
</event>
<event>
 7    1  0.3752192E-015  0.9000773E+02  0.7816164E-02  0.1186339E+00
        -11   -1    0    0    0    0  0.00000000000E+00  0.00000000000E+00  0.45593999997E+02  0.45594000000E+02  0.51100000000E-03 0. -1.
         11   -1    0    0    0    0 -0.00000000000E+00 -0.00000000000E+00 -0.45593999997E+02  0.45594000000E+02  0.51100000000E-03 0.  1.
    9900012    2    1    2    0    0 -0.11259314103E+01 -0.31287927545E+00  0.16562711082E+00  0.90007725743E+02  0.89999986923E+02 0.  0.
        -12    1    1    2    0    0  0.11259314103E+01  0.31287927545E+00 -0.16562711082E+00  0.11802742569E+01  0.00000000000E+00 0.  1.
         11    1    3    3    0    0  0.46935978353E+00 -0.95828619821E+01  0.79333707169E+00  0.96270933487E+01  0.51100000000E-03 0. -1.
        -11    1    3    3    0    0  0.37131681132E+02  0.16285810530E+01 -0.12412670578E+02  0.39185308613E+02  0.51100000000E-03 0.  1.
         12    1    3    3    0    0 -0.38726972326E+02  0.76414016536E+01  0.11784960617E+02  0.41195323782E+02  0.00000000000E+00 0. -1.
</event>
<event>
 7    1  0.3752192E-015  0.9000769E+02  0.7816164E-02  0.1186339E+00
        -11   -1    0    0    0    0  0.00000000000E+00  0.00000000000E+00  0.45593999997E+02  0.45594000000E+02  0.51100000000E-03 0. -1.
         11   -1    0    0    0    0 -0.00000000000E+00 -0.00000000000E+00 -0.45593999997E+02  0.45594000000E+02  0.51100000000E-03 0.  1.
    9900012    2    1    2    0    0  0.29073333729E+00  0.96258578383E+00  0.61809406023E+00  0.90007687528E+02  0.89999948203E+02 0.  0.
        -12    1    1    2    0    0 -0.29073333729E+00 -0.96258578383E+00 -0.61809406023E+00  0.11803124722E+01  0.00000000000E+00 0.  1.
         11    1    3    3    0    0 -0.35937079733E+02 -0.18777594053E+02  0.11150125903E+02  0.42052313207E+02  0.51100000000E-03 0. -1.
        -11    1    3    3    0    0  0.87916869088E+01 -0.47555103445E+01 -0.18668997193E+01  0.10168281672E+02  0.51100000000E-03 0.  1.
        -12    1    3    3    0    0  0.27436126161E+02  0.24495690181E+02 -0.86651321234E+01  0.37787092649E+02  0.00000000000E+00 0.  1.
</event>
<event>
 7    1  0.3752192E-015  0.9000775E+02  0.7816164E-02  0.1186339E+00
        -11   -1    0    0    0    0  0.00000000000E+00  0.00000000000E+00  0.45593999997E+02  0.45594000000E+02  0.51100000000E-03 0. -1.
         11   -1    0    0    0    0 -0.00000000000E+00 -0.00000000000E+00 -0.45593999997E+02  0.45594000000E+02  0.51100000000E-03 0.  1.
    9900012    2    1    2    0    0  0.78234920338E+00 -0.88230413779E+00  0.49692329736E-01  0.90007745707E+02  0.90000007151E+02 0.  0.
        -12    1    1    2    0    0 -0.78234920338E+00  0.88230413779E+00 -0.49692329736E-01  0.11802542926E+01  0.00000000000E+00 0.  1.
         11    1    3    3    0    0  0.34713872406E+01  0.46673190350E+01 -0.49263736023E+01  0.76225686930E+01  0.51100000000E-03 0. -1.
        -11    1    3    3    0    0  0.38443175546E+02  0.53886631345E+01 -0.35389371688E+01  0.38979988622E+02  0.51100000000E-03 0.  1.
         12    1    3    3    0    0 -0.41132213583E+02 -0.10938286307E+02  0.85150031009E+01  0.43405188392E+02  0.00000000000E+00 0. -1.
</event>
<event>
 7    1  0.3752192E-015  0.9000775E+02  0.7816164E-02  0.1186339E+00
        -11   -1    0    0    0    0  0.00000000000E+00  0.00000000000E+00  0.45593999997E+02  0.45594000000E+02  0.51100000000E-03 0. -1.
         11   -1    0    0    0    0 -0.00000000000E+00 -0.00000000000E+00 -0.45593999997E+02  0.45594000000E+02  0.51100000000E-03 0.  1.
    9900012    2    1    2    0    0  0.99586396842E-02 -0.44278459226E+00  0.10939946407E+01  0.90007753567E+02  0.90000015114E+02 0.  0.
        -12    1    1    2    0    0 -0.99586396842E-02  0.44278459226E+00 -0.10939946407E+01  0.11802464333E+01  0.00000000000E+00 0.  1.
         11    1    3    3    0    0  0.41159349998E+01  0.23864552632E+01  0.75976767058E+01  0.89644175066E+01  0.51100000000E-03 0. -1.
        -11    1    3    3    0    0 -0.33204047397E+02  0.13343229798E+02 -0.24337941194E+02  0.43276852090E+02  0.51100000000E-03 0.  1.
         12    1    3    3    0    0  0.29098071037E+02 -0.16172469653E+02  0.17834259129E+02  0.37766483970E+02  0.00000000000E+00 0. -1.
</event>
<event>
 7    1  0.3752192E-015  0.9000765E+02  0.7816164E-02  0.1186339E+00
        -11   -1    0    0    0    0  0.00000000000E+00  0.00000000000E+00  0.45593999997E+02  0.45594000000E+02  0.51100000000E-03 0. -1.
         11   -1    0    0    0    0 -0.00000000000E+00 -0.00000000000E+00 -0.45593999997E+02  0.45594000000E+02  0.51100000000E-03 0.  1.
    9900012    2    1    2    0    0  0.88593917829E+00  0.63398218307E+00  0.45432593677E+00  0.90007646793E+02  0.89999906931E+02 0.  0.
        -12    1    1    2    0    0 -0.88593917829E+00 -0.63398218307E+00 -0.45432593677E+00  0.11803532068E+01  0.00000000000E+00 0.  1.
         11    1    3    3    0    0 -0.27824075521E+02  0.20609534635E+02  0.62317015836E+01  0.35181901616E+02  0.51100000000E-03 0. -1.
        -11    1    3    3    0    0 -0.97215091614E+01  0.23731322805E+01 -0.20304825173E+01  0.10210894021E+02  0.51100000000E-03 0.  1.
        -12    1    3    3    0    0  0.38431523861E+02 -0.22348684732E+02 -0.37468931295E+01  0.44614851156E+02  0.00000000000E+00 0.  1.
</event>
<event>
 7    1  0.3752192E-015  0.9000775E+02  0.7816164E-02  0.1186339E+00
        -11   -1    0    0    0    0  0.00000000000E+00  0.00000000000E+00  0.45593999997E+02  0.45594000000E+02  0.51100000000E-03 0. -1.
         11   -1    0    0    0    0 -0.00000000000E+00 -0.00000000000E+00 -0.45593999997E+02  0.45594000000E+02  0.51100000000E-03 0.  1.
    9900012    2    1    2    0    0 -0.74544455951E+00  0.22779826203E+00  0.88622806236E+00  0.90007754340E+02  0.90000015897E+02 0.  0.
        -12    1    1    2    0    0  0.74544455951E+00 -0.22779826203E+00 -0.88622806236E+00  0.11802456600E+01  0.00000000000E+00 0.  1.
         11    1    3    3    0    0  0.25450420674E+01  0.90382242170E+01  0.90905171028E+00  0.94336160296E+01  0.51100000000E-03 0. -1.
        -11    1    3    3    0    0  0.26012548535E+02  0.24498421986E+02  0.43447312199E+01  0.35995861578E+02  0.51100000000E-03 0.  1.
         12    1    3    3    0    0 -0.29303035162E+02 -0.33308847941E+02 -0.43675548679E+01  0.44578276732E+02  0.00000000000E+00 0. -1.
</event>
<event>
 7    1  0.3752192E-015  0.9000751E+02  0.7816164E-02  0.1186340E+00
        -11   -1    0    0    0    0  0.00000000000E+00  0.00000000000E+00  0.45593999997E+02  0.45594000000E+02  0.51100000000E-03 0. -1.
         11   -1    0    0    0    0 -0.00000000000E+00 -0.00000000000E+00 -0.45593999997E+02  0.45594000000E+02  0.51100000000E-03 0.  1.
    9900012    2    1    2    0    0  0.75313305725E+00  0.69926500637E+00  0.58084710689E+00  0.90007506750E+02  0.89999765039E+02 0.  0.
        -12    1    1    2    0    0 -0.75313305725E+00 -0.69926500637E+00 -0.58084710689E+00  0.11804932497E+01  0.00000000000E+00 0.  1.
         11    1    3    3    0    0  0.94576054715E+01 -0.45743078289E+01  0.64727903712E-01  0.10505940383E+02  0.51100000000E-03 0. -1.
        -11    1    3    3    0    0 -0.21359002450E+02  0.58407888285E+01 -0.35211212956E+02  0.41595087665E+02  0.51100000000E-03 0.  1.
         12    1    3    3    0    0  0.12654530036E+02 -0.56721599333E+00  0.35727332159E+02  0.37906478702E+02  0.00000000000E+00 0. -1.
</event>
<event>
 7    1  0.3752192E-015  0.9000770E+02  0.7816164E-02  0.1186339E+00
        -11   -1    0    0    0    0  0.00000000000E+00  0.00000000000E+00  0.45593999997E+02  0.45594000000E+02  0.51100000000E-03 0.  1.
         11   -1    0    0    0    0 -0.00000000000E+00 -0.00000000000E+00 -0.45593999997E+02  0.45594000000E+02  0.51100000000E-03 0. -1.
    9900012    2    1    2    0    0 -0.80859445692E+00  0.60744614581E+00  0.60851515644E+00  0.90007700669E+02  0.89999961518E+02 0.  0.
        -12    1    1    2    0    0  0.80859445692E+00 -0.60744614581E+00 -0.60851515644E+00  0.11802993313E+01  0.00000000000E+00 0.  1.
         11    1    3    3    0    0  0.16803694317E+02 -0.31174998821E+02  0.44341665412E+01  0.35691827179E+02  0.51100000000E-03 0. -1.
        -11    1    3    3    0    0  0.54655721462E+00 -0.92116800968E+01  0.68692981040E+00  0.92534127661E+01  0.51100000000E-03 0.  1.
        -12    1    3    3    0    0 -0.18158845989E+02  0.40994125064E+02 -0.45125811951E+01  0.45062460723E+02  0.00000000000E+00 0.  1.
</event>
<event>
 7    1  0.3752192E-015  0.9000773E+02  0.7816164E-02  0.1186339E+00
        -11   -1    0    0    0    0  0.00000000000E+00  0.00000000000E+00  0.45593999997E+02  0.45594000000E+02  0.51100000000E-03 0. -1.
         11   -1    0    0    0    0 -0.00000000000E+00 -0.00000000000E+00 -0.45593999997E+02  0.45594000000E+02  0.51100000000E-03 0.  1.
    9900012    2    1    2    0    0  0.10756760813E+01  0.99739855543E-01  0.47540716857E+00  0.90007729249E+02  0.89999990475E+02 0.  0.
        -12    1    1    2    0    0 -0.10756760813E+01 -0.99739855543E-01 -0.47540716857E+00  0.11802707514E+01  0.00000000000E+00 0.  1.
         11    1    3    3    0    0  0.81698423115E+01  0.21674835462E+01 -0.45243807864E+01  0.95871961532E+01  0.51100000000E-03 0. -1.
        -11    1    3    3    0    0  0.11847255841E+02  0.23652225574E+02 -0.25147018207E+02  0.36498736561E+02  0.51100000000E-03 0.  1.
         12    1    3    3    0    0 -0.18941422071E+02 -0.25719969265E+02  0.30146806162E+02  0.43921796535E+02  0.00000000000E+00 0. -1.
</event>
<event>
 7    1  0.3752192E-015  0.9000783E+02  0.7816164E-02  0.1186339E+00
        -11   -1    0    0    0    0  0.00000000000E+00  0.00000000000E+00  0.45593999997E+02  0.45594000000E+02  0.51100000000E-03 0.  1.
         11   -1    0    0    0    0 -0.00000000000E+00 -0.00000000000E+00 -0.45593999997E+02  0.45594000000E+02  0.51100000000E-03 0. -1.
    9900012    2    1    2    0    0  0.28845967944E+00  0.30111582345E+00 -0.11040484880E+01  0.90007829339E+02  0.90000091886E+02 0.  0.
        -12    1    1    2    0    0 -0.28845967944E+00 -0.30111582345E+00  0.11040484880E+01  0.11801706613E+01  0.00000000000E+00 0.  1.
         11    1    3    3    0    0 -0.52400056184E+01  0.76865717353E+01 -0.36196998909E+01  0.99821476389E+01  0.51100000000E-03 0. -1.
        -11    1    3    3    0    0  0.37194708481E+01 -0.23208124349E+02 -0.33340041719E+02  0.40792277226E+02  0.51100000000E-03 0.  1.
         12    1    3    3    0    0  0.18089944497E+01  0.15822668437E+02  0.35855693122E+02  0.39233404474E+02  0.00000000000E+00 0. -1.
</event>
<event>
 7    1  0.3752192E-015  0.9000813E+02  0.7816164E-02  0.1186338E+00
        -11   -1    0    0    0    0  0.00000000000E+00  0.00000000000E+00  0.45593999997E+02  0.45594000000E+02  0.51100000000E-03 0.  1.
         11   -1    0    0    0    0 -0.00000000000E+00 -0.00000000000E+00 -0.45593999997E+02  0.45594000000E+02  0.51100000000E-03 0. -1.
    9900012    2    1    2    0    0  0.21615336695E+00 -0.52479878091E+00 -0.10343867232E+01  0.90008130545E+02  0.90000397067E+02 0.  0.
        -12    1    1    2    0    0 -0.21615336695E+00  0.52479878091E+00  0.10343867232E+01  0.11798694553E+01  0.00000000000E+00 0.  1.
         11    1    3    3    0    0  0.18316123851E+02 -0.14290197396E+02  0.19874673388E+02  0.30572745658E+02  0.51100000000E-03 0. -1.
        -11    1    3    3    0    0 -0.87556401278E+01 -0.19339089171E+02 -0.74525517362E+01  0.22498936234E+02  0.51100000000E-03 0.  1.
        -12    1    3    3    0    0 -0.93443303561E+01  0.33104487786E+02 -0.13456508375E+02  0.36936448652E+02  0.00000000000E+00 0.  1.
</event>
<event>
 7    1  0.3752192E-015  0.9000771E+02  0.7816164E-02  0.1186339E+00
        -11   -1    0    0    0    0  0.00000000000E+00  0.00000000000E+00  0.45593999997E+02  0.45594000000E+02  0.51100000000E-03 0. -1.
         11   -1    0    0    0    0 -0.00000000000E+00 -0.00000000000E+00 -0.45593999997E+02  0.45594000000E+02  0.51100000000E-03 0.  1.
    9900012    2    1    2    0    0  0.59534837212E+00  0.76671272519E+00  0.67141747100E+00  0.90007707872E+02  0.89999968816E+02 0.  0.
        -12    1    1    2    0    0 -0.59534837212E+00 -0.76671272519E+00 -0.67141747100E+00  0.11802921280E+01  0.00000000000E+00 0.  1.
         11    1    3    3    0    0  0.63228131579E+01  0.24812076250E+01 -0.51285028914E+01  0.85109282500E+01  0.51100000000E-03 0. -1.
        -11    1    3    3    0    0 -0.15524191258E+02  0.34351258024E+02  0.18544555072E+02  0.42010831521E+02  0.51100000000E-03 0.  1.
         12    1    3    3    0    0  0.97967264722E+01 -0.36065752923E+02 -0.12744634710E+02  0.39485948101E+02  0.00000000000E+00 0. -1.
</event>
<event>
 7    1  0.3752192E-015  0.9000780E+02  0.7816164E-02  0.1186339E+00
        -11   -1    0    0    0    0  0.00000000000E+00  0.00000000000E+00  0.45593999997E+02  0.45594000000E+02  0.51100000000E-03 0.  1.
         11   -1    0    0    0    0 -0.00000000000E+00 -0.00000000000E+00 -0.45593999997E+02  0.45594000000E+02  0.51100000000E-03 0. -1.
    9900012    2    1    2    0    0  0.54129701939E+00 -0.22453406249E+00 -0.10244229187E+01  0.90007804963E+02  0.90000067189E+02 0.  0.
        -12    1    1    2    0    0 -0.54129701939E+00  0.22453406249E+00  0.10244229187E+01  0.11801950368E+01  0.00000000000E+00 0.  1.
         11    1    3    3    0    0  0.14986254385E+01 -0.88123317764E+01  0.39449031643E+01  0.97706361501E+01  0.51100000000E-03 0. -1.
        -11    1    3    3    0    0  0.16974703236E+01  0.58422123735E+01  0.37301392142E+02  0.37794268176E+02  0.51100000000E-03 0.  1.
         12    1    3    3    0    0 -0.26547987427E+01  0.27455853404E+01 -0.42270718225E+02  0.42442900637E+02  0.00000000000E+00 0. -1.
</event>
<event>
 7    1  0.3752192E-015  0.9000763E+02  0.7816164E-02  0.1186339E+00
        -11   -1    0    0    0    0  0.00000000000E+00  0.00000000000E+00  0.45593999997E+02  0.45594000000E+02  0.51100000000E-03 0. -1.
         11   -1    0    0    0    0 -0.00000000000E+00 -0.00000000000E+00 -0.45593999997E+02  0.45594000000E+02  0.51100000000E-03 0.  1.
    9900012    2    1    2    0    0 -0.12015323579E+00 -0.22982110212E-01  0.11740115209E+01  0.90007632249E+02  0.89999892194E+02 0.  0.
        -12    1    1    2    0    0  0.12015323579E+00  0.22982110212E-01 -0.11740115209E+01  0.11803677514E+01  0.00000000000E+00 0.  1.
         11    1    3    3    0    0  0.74396876539E+01  0.33921549539E+02 -0.33900218112E+01  0.34892874970E+02  0.51100000000E-03 0. -1.
        -11    1    3    3    0    0  0.82460360088E+01  0.49196505239E+01 -0.66579618753E+01  0.11684542256E+02  0.51100000000E-03 0.  1.
        -12    1    3    3    0    0 -0.15805876898E+02 -0.38864182173E+02  0.11221995207E+02  0.43430215023E+02  0.00000000000E+00 0.  1.
</event>
<event>
 7    1  0.3752192E-015  0.9000766E+02  0.7816164E-02  0.1186339E+00
        -11   -1    0    0    0    0  0.00000000000E+00  0.00000000000E+00  0.45593999997E+02  0.45594000000E+02  0.51100000000E-03 0.  1.
         11   -1    0    0    0    0 -0.00000000000E+00 -0.00000000000E+00 -0.45593999997E+02  0.45594000000E+02  0.51100000000E-03 0. -1.
    9900012    2    1    2    0    0 -0.11420999748E+01  0.29689190658E+00 -0.25601289230E-01  0.90007664208E+02  0.89999924575E+02 0.  0.
        -12    1    1    2    0    0  0.11420999748E+01 -0.29689190658E+00  0.25601289230E-01  0.11803357923E+01  0.00000000000E+00 0.  1.
         11    1    3    3    0    0 -0.44141314482E+01 -0.22010545119E+01  0.12217123822E+02  0.13175253779E+02  0.51100000000E-03 0. -1.
        -11    1    3    3    0    0  0.16684246357E+02 -0.33325457022E+02 -0.24615874538E+01  0.37349826977E+02  0.51100000000E-03 0.  1.
         12    1    3    3    0    0 -0.13412214883E+02  0.35823403440E+02 -0.97811376570E+01  0.39482583451E+02  0.00000000000E+00 0. -1.
</event>
<event>
 7    1  0.3752192E-015  0.9000676E+02  0.7816164E-02  0.1186341E+00
        -11   -1    0    0    0    0  0.00000000000E+00  0.00000000000E+00  0.45593999997E+02  0.45594000000E+02  0.51100000000E-03 0. -1.
         11   -1    0    0    0    0 -0.00000000000E+00 -0.00000000000E+00 -0.45593999997E+02  0.45594000000E+02  0.51100000000E-03 0.  1.
    9900012    2    1    2    0    0 -0.25813560739E+00 -0.10282319809E+01  0.52099930678E+00  0.90006756894E+02  0.89999005279E+02 0.  0.
        -12    1    1    2    0    0  0.25813560739E+00  0.10282319809E+01 -0.52099930678E+00  0.11812431062E+01  0.00000000000E+00 0.  1.
         11    1    3    3    0    0 -0.57407811728E+01  0.31251879625E+01  0.12146319606E+02  0.13793347980E+02  0.51100000000E-03 0. -1.
        -11    1    3    3    0    0 -0.59194837566E+01  0.32462477656E+02 -0.17604211853E+02  0.37400013619E+02  0.51100000000E-03 0.  1.
         12    1    3    3    0    0  0.11402129322E+02 -0.36615897599E+02  0.59788915543E+01  0.38813395294E+02  0.00000000000E+00 0. -1.
</event>
<event>
 7    1  0.3752192E-015  0.9000773E+02  0.7816164E-02  0.1186339E+00
        -11   -1    0    0    0    0  0.00000000000E+00  0.00000000000E+00  0.45593999997E+02  0.45594000000E+02  0.51100000000E-03 0. -1.
         11   -1    0    0    0    0 -0.00000000000E+00 -0.00000000000E+00 -0.45593999997E+02  0.45594000000E+02  0.51100000000E-03 0.  1.
    9900012    2    1    2    0    0 -0.50653995120E+00 -0.48388226884E+00  0.94989812561E+00  0.90007732564E+02  0.89999993833E+02 0.  0.
        -12    1    1    2    0    0  0.50653995120E+00  0.48388226884E+00 -0.94989812561E+00  0.11802674363E+01  0.00000000000E+00 0.  1.
         11    1    3    3    0    0  0.12259366928E-01 -0.11917386204E+01 -0.98000109489E+01  0.98722138394E+01  0.51100000000E-03 0. -1.
        -11    1    3    3    0    0  0.31332744615E+02  0.24350184925E+02  0.69583251292E+01  0.40287599580E+02  0.51100000000E-03 0.  1.
         12    1    3    3    0    0 -0.31851543933E+02 -0.23642328574E+02  0.37915839453E+01  0.39847919145E+02  0.00000000000E+00 0. -1.
</event>
<event>
 8    1  0.3752192E-015  0.9000769E+02  0.7816164E-02  0.1186339E+00
        -11   -1    0    0    0    0  0.00000000000E+00  0.00000000000E+00  0.45593999997E+02  0.45594000000E+02  0.51100000000E-03 0. -1.
         11   -1    0    0    0    0 -0.00000000000E+00 -0.00000000000E+00 -0.45593999997E+02  0.45594000000E+02  0.51100000000E-03 0.  1.
    9900012    2    1    2    0    0  0.68582360971E+00 -0.90360295596E+00 -0.32599409557E+00  0.90007693059E+02  0.89999953807E+02 0.  0.
         23    2    3    3    0    0 -0.16491861319E+02 -0.27455263371E+01  0.11403048578E+02  0.69126218415E+02  0.66097542699E+02 0.  0.
        -12    1    1    2    0    0 -0.68582360971E+00  0.90360295596E+00  0.32599409557E+00  0.11803069414E+01  0.00000000000E+00 0.  1.
         11    1    4    4    0    0 -0.11181963856E+02  0.13452312058E+02  0.35519699753E+02  0.39593561171E+02  0.51100000000E-03 0.  1.
        -11    1    4    4    0    0 -0.53098974634E+01 -0.16197838395E+02 -0.24116651175E+02  0.29532657244E+02  0.51100000000E-03 0. -1.
        -12    1    3    3    0    0  0.17177684929E+02  0.18419233811E+01 -0.11729042674E+02  0.20881474644E+02  0.00000000000E+00 0.  1.
</event>
<event>
 7    1  0.3752192E-015  0.9000776E+02  0.7816164E-02  0.1186339E+00
        -11   -1    0    0    0    0  0.00000000000E+00  0.00000000000E+00  0.45593999997E+02  0.45594000000E+02  0.51100000000E-03 0. -1.
         11   -1    0    0    0    0 -0.00000000000E+00 -0.00000000000E+00 -0.45593999997E+02  0.45594000000E+02  0.51100000000E-03 0.  1.
    9900012    2    1    2    0    0 -0.10696713475E+00 -0.80602529771E+00  0.85547529765E+00  0.90007764120E+02  0.90000025806E+02 0.  0.
        -12    1    1    2    0    0  0.10696713475E+00  0.80602529771E+00 -0.85547529765E+00  0.11802358804E+01  0.00000000000E+00 0.  1.
         11    1    3    3    0    0  0.65714532889E+01 -0.29897362802E+01  0.64855336205E+01  0.97048785648E+01  0.51100000000E-03 0. -1.
        -11    1    3    3    0    0  0.16415876777E+02  0.30167284049E+02  0.16184943711E+02  0.37967070475E+02  0.51100000000E-03 0.  1.
         12    1    3    3    0    0 -0.23094297200E+02 -0.27983573067E+02 -0.21815002034E+02  0.42335815080E+02  0.00000000000E+00 0. -1.
</event>
<event>
 7    1  0.3752192E-015  0.9000773E+02  0.7816164E-02  0.1186339E+00
        -11   -1    0    0    0    0  0.00000000000E+00  0.00000000000E+00  0.45593999997E+02  0.45594000000E+02  0.51100000000E-03 0. -1.
         11   -1    0    0    0    0 -0.00000000000E+00 -0.00000000000E+00 -0.45593999997E+02  0.45594000000E+02  0.51100000000E-03 0.  1.
    9900012    2    1    2    0    0  0.29838562950E+00  0.31422820817E-01  0.11414996967E+01  0.90007727601E+02  0.89999988806E+02 0.  0.
        -12    1    1    2    0    0 -0.29838562950E+00 -0.31422820817E-01 -0.11414996967E+01  0.11802723987E+01  0.00000000000E+00 0.  1.
         11    1    3    3    0    0  0.10714793444E+02  0.34434600594E+02  0.10252386994E+02  0.37492131921E+02  0.51100000000E-03 0. -1.
        -11    1    3    3    0    0 -0.37731781918E+01  0.68727390740E+01 -0.72317477447E+01  0.10666282940E+02  0.51100000000E-03 0.  1.
        -12    1    3    3    0    0 -0.66432296227E+01 -0.41275916847E+02 -0.18791395522E+01  0.41849312741E+02  0.00000000000E+00 0.  1.
</event>
<event>
 7    1  0.3752192E-015  0.9000759E+02  0.7816164E-02  0.1186339E+00
        -11   -1    0    0    0    0  0.00000000000E+00  0.00000000000E+00  0.45593999997E+02  0.45594000000E+02  0.51100000000E-03 0.  1.
         11   -1    0    0    0    0 -0.00000000000E+00 -0.00000000000E+00 -0.45593999997E+02  0.45594000000E+02  0.51100000000E-03 0. -1.
    9900012    2    1    2    0    0  0.11222889267E+01  0.27701424932E+00  0.23896079673E+00  0.90007588380E+02  0.89999847747E+02 0.  0.
        -12    1    1    2    0    0 -0.11222889267E+01 -0.27701424932E+00 -0.23896079673E+00  0.11804116196E+01  0.00000000000E+00 0.  1.
         11    1    3    3    0    0 -0.37571178600E+02 -0.46335281419E+01 -0.14446391091E+01  0.37883374016E+02  0.51100000000E-03 0. -1.
        -11    1    3    3    0    0 -0.39053681988E+01  0.75312318104E+01 -0.34073406084E+01  0.91422821896E+01  0.51100000000E-03 0.  1.
        -12    1    3    3    0    0  0.42598835725E+02 -0.26206894192E+01  0.50909405142E+01  0.42981932175E+02  0.00000000000E+00 0.  1.
</event>
<event>
 7    1  0.3752192E-015  0.9000780E+02  0.7816164E-02  0.1186339E+00
        -11   -1    0    0    0    0  0.00000000000E+00  0.00000000000E+00  0.45593999997E+02  0.45594000000E+02  0.51100000000E-03 0.  1.
         11   -1    0    0    0    0 -0.00000000000E+00 -0.00000000000E+00 -0.45593999997E+02  0.45594000000E+02  0.51100000000E-03 0. -1.
    9900012    2    1    2    0    0 -0.10982778469E+01  0.36860267070E+00 -0.22537902956E+00  0.90007797532E+02  0.90000059660E+02 0.  0.
        -12    1    1    2    0    0  0.10982778469E+01 -0.36860267070E+00  0.22537902956E+00  0.11802024677E+01  0.00000000000E+00 0.  1.
         11    1    3    3    0    0  0.82575177252E+00 -0.68105945687E+01  0.70015791957E+01  0.98024576441E+01  0.51100000000E-03 0. -1.
        -11    1    3    3    0    0  0.35623594652E+02  0.10900897114E+02  0.10226900531E+02  0.38632364004E+02  0.51100000000E-03 0.  1.
         12    1    3    3    0    0 -0.37547624272E+02 -0.37216998743E+01 -0.17453858756E+02  0.41572975884E+02  0.00000000000E+00 0. -1.
</event>
<event>
 7    1  0.3752192E-015  0.9000789E+02  0.7816164E-02  0.1186339E+00
        -11   -1    0    0    0    0  0.00000000000E+00  0.00000000000E+00  0.45593999997E+02  0.45594000000E+02  0.51100000000E-03 0.  1.
         11   -1    0    0    0    0 -0.00000000000E+00 -0.00000000000E+00 -0.45593999997E+02  0.45594000000E+02  0.51100000000E-03 0. -1.
    9900012    2    1    2    0    0  0.19082717828E+00  0.17243871693E+00 -0.11517426087E+01  0.90007889344E+02  0.90000152684E+02 0.  0.
        -12    1    1    2    0    0 -0.19082717828E+00 -0.17243871693E+00  0.11517426087E+01  0.11801106557E+01  0.00000000000E+00 0.  1.
         11    1    3    3    0    0 -0.55897679559E+01 -0.51510940001E+01 -0.32383167926E+02  0.33263325757E+02  0.51100000000E-03 0. -1.
        -11    1    3    3    0    0  0.24490285826E+01 -0.58843550318E+00 -0.12367148549E+02  0.12621028517E+02  0.51100000000E-03 0.  1.
        -12    1    3    3    0    0  0.33315665516E+01  0.59119682202E+01  0.43598573866E+02  0.44123535070E+02  0.00000000000E+00 0.  1.
</event>
<event>
 7    1  0.3752192E-015  0.9000771E+02  0.7816164E-02  0.1186339E+00
        -11   -1    0    0    0    0  0.00000000000E+00  0.00000000000E+00  0.45593999997E+02  0.45594000000E+02  0.51100000000E-03 0.  1.
         11   -1    0    0    0    0 -0.00000000000E+00 -0.00000000000E+00 -0.45593999997E+02  0.45594000000E+02  0.51100000000E-03 0. -1.
    9900012    2    1    2    0    0 -0.82346157905E+00 -0.82844796488E+00  0.16934672168E+00  0.90007706259E+02  0.89999967182E+02 0.  0.
        -12    1    1    2    0    0  0.82346157905E+00  0.82844796488E+00 -0.16934672168E+00  0.11802937409E+01  0.00000000000E+00 0.  1.
         11    1    3    3    0    0 -0.25149159075E+02  0.13650941065E+02 -0.16515582289E+02  0.33039262292E+02  0.51100000000E-03 0. -1.
        -11    1    3    3    0    0  0.19826991622E+01  0.73312141801E+01 -0.12240835343E+02  0.14405410354E+02  0.51100000000E-03 0.  1.
        -12    1    3    3    0    0  0.22342998334E+02 -0.21810603210E+02  0.28925764353E+02  0.42563033613E+02  0.00000000000E+00 0.  1.
</event>
<event>
 7    1  0.3752192E-015  0.9000776E+02  0.7816164E-02  0.1186339E+00
        -11   -1    0    0    0    0  0.00000000000E+00  0.00000000000E+00  0.45593999997E+02  0.45594000000E+02  0.51100000000E-03 0. -1.
         11   -1    0    0    0    0 -0.00000000000E+00 -0.00000000000E+00 -0.45593999997E+02  0.45594000000E+02  0.51100000000E-03 0.  1.
    9900012    2    1    2    0    0  0.98460674631E+00 -0.65076255450E+00  0.37275915763E-02  0.90007764328E+02  0.90000026017E+02 0.  0.
        -12    1    1    2    0    0 -0.98460674631E+00  0.65076255450E+00 -0.37275915763E-02  0.11802356723E+01  0.00000000000E+00 0.  1.
         11    1    3    3    0    0 -0.40675578747E+01  0.47104590516E+01 -0.53432632376E+01  0.82026772354E+01  0.51100000000E-03 0. -1.
        -11    1    3    3    0    0 -0.41474422617E+01 -0.11004832309E+02 -0.36625432649E+02  0.38467257876E+02  0.51100000000E-03 0.  1.
         12    1    3    3    0    0  0.91996068827E+01  0.56436107031E+01  0.41972423478E+02  0.43337829217E+02  0.00000000000E+00 0. -1.
</event>
<event>
 7    1  0.3752192E-015  0.9000781E+02  0.7816164E-02  0.1186339E+00
        -11   -1    0    0    0    0  0.00000000000E+00  0.00000000000E+00  0.45593999997E+02  0.45594000000E+02  0.51100000000E-03 0.  1.
         11   -1    0    0    0    0 -0.00000000000E+00 -0.00000000000E+00 -0.45593999997E+02  0.45594000000E+02  0.51100000000E-03 0. -1.
    9900012    2    1    2    0    0 -0.79000967102E+00 -0.81686222237E+00 -0.31853234223E+00  0.90007812717E+02  0.90000075045E+02 0.  0.
        -12    1    1    2    0    0  0.79000967102E+00  0.81686222237E+00  0.31853234223E+00  0.11801872833E+01  0.00000000000E+00 0.  1.
         11    1    3    3    0    0  0.16860745111E+01  0.19507608986E+02 -0.20882516737E+01  0.19691380117E+02  0.51100000000E-03 0. -1.
        -11    1    3    3    0    0  0.25808411399E+01  0.14491481617E+02  0.24392242267E+02  0.28489388612E+02  0.51100000000E-03 0.  1.
         12    1    3    3    0    0 -0.50569253220E+01 -0.34815952825E+02 -0.22622522935E+02  0.41827043988E+02  0.00000000000E+00 0. -1.
</event>
<event>
 7    1  0.3752192E-015  0.9000783E+02  0.7816164E-02  0.1186339E+00
        -11   -1    0    0    0    0  0.00000000000E+00  0.00000000000E+00  0.45593999997E+02  0.45594000000E+02  0.51100000000E-03 0.  1.
         11   -1    0    0    0    0 -0.00000000000E+00 -0.00000000000E+00 -0.45593999997E+02  0.45594000000E+02  0.51100000000E-03 0. -1.
    9900012    2    1    2    0    0 -0.96872330506E+00 -0.48501837463E+00 -0.46811696883E+00  0.90007830028E+02  0.90000092585E+02 0.  0.
        -12    1    1    2    0    0  0.96872330506E+00  0.48501837463E+00  0.46811696883E+00  0.11801699717E+01  0.00000000000E+00 0.  1.
         11    1    3    3    0    0  0.38672176669E+01 -0.38493005820E+01 -0.52176295658E+01  0.75495791937E+01  0.51100000000E-03 0. -1.
        -11    1    3    3    0    0  0.21453657030E+02  0.34892674731E+02  0.59464250060E+01  0.41389831124E+02  0.51100000000E-03 0.  1.
         12    1    3    3    0    0 -0.26289598001E+02 -0.31528392524E+02 -0.11969124090E+01  0.41068419711E+02  0.00000000000E+00 0. -1.
</event>
<event>
 7    1  0.3752192E-015  0.9000777E+02  0.7816164E-02  0.1186339E+00
        -11   -1    0    0    0    0  0.00000000000E+00  0.00000000000E+00  0.45593999997E+02  0.45594000000E+02  0.51100000000E-03 0.  1.
         11   -1    0    0    0    0 -0.00000000000E+00 -0.00000000000E+00 -0.45593999997E+02  0.45594000000E+02  0.51100000000E-03 0. -1.
    9900012    2    1    2    0    0  0.44219149528E+00  0.10651373036E+01  0.25079728082E+00  0.90007766942E+02  0.90000028666E+02 0.  0.
        -12    1    1    2    0    0 -0.44219149528E+00 -0.10651373036E+01 -0.25079728082E+00  0.11802330575E+01  0.00000000000E+00 0.  1.
         11    1    3    3    0    0  0.18835012404E+01  0.96630403921E+01 -0.36123067126E+01  0.10486690927E+02  0.51100000000E-03 0. -1.
        -11    1    3    3    0    0 -0.32984182495E+02  0.16428706088E+02  0.11367293307E+02  0.38562598927E+02  0.51100000000E-03 0.  1.
         12    1    3    3    0    0  0.31542872750E+02 -0.25026609176E+02 -0.75041893139E+01  0.40958477089E+02  0.00000000000E+00 0. -1.
</event>
<event>
 7    1  0.3752192E-015  0.9000789E+02  0.7816164E-02  0.1186339E+00
        -11   -1    0    0    0    0  0.00000000000E+00  0.00000000000E+00  0.45593999997E+02  0.45594000000E+02  0.51100000000E-03 0. -1.
         11   -1    0    0    0    0 -0.00000000000E+00 -0.00000000000E+00 -0.45593999997E+02  0.45594000000E+02  0.51100000000E-03 0.  1.
    9900012    2    1    2    0    0 -0.53261929919E+00 -0.36203995088E+00  0.98888599530E+00  0.90007893329E+02  0.90000156721E+02 0.  0.
        -12    1    1    2    0    0  0.53261929919E+00  0.36203995088E+00 -0.98888599530E+00  0.11801066713E+01  0.00000000000E+00 0.  1.
         11    1    3    3    0    0  0.30125057538E+02  0.17511075548E+02 -0.48481573578E+01  0.35180413422E+02  0.51100000000E-03 0. -1.
        -11    1    3    3    0    0  0.90095907423E+01  0.31979883025E+01  0.18177486225E+01  0.97316013504E+01  0.51100000000E-03 0.  1.
        -12    1    3    3    0    0 -0.39667267580E+02 -0.21071103801E+02  0.40192947306E+01  0.45095878556E+02  0.00000000000E+00 0.  1.
</event>
<event>
 7    1  0.3752192E-015  0.9000770E+02  0.7816164E-02  0.1186339E+00
        -11   -1    0    0    0    0  0.00000000000E+00  0.00000000000E+00  0.45593999997E+02  0.45594000000E+02  0.51100000000E-03 0.  1.
         11   -1    0    0    0    0 -0.00000000000E+00 -0.00000000000E+00 -0.45593999997E+02  0.45594000000E+02  0.51100000000E-03 0. -1.
    9900012    2    1    2    0    0 -0.70389739944E-01  0.11650649148E+01  0.17542771804E+00  0.90007700947E+02  0.89999961799E+02 0.  0.
        -12    1    1    2    0    0  0.70389739944E-01 -0.11650649148E+01 -0.17542771804E+00  0.11802990533E+01  0.00000000000E+00 0.  1.
         11    1    3    3    0    0 -0.61033674327E+00 -0.12782765120E+02 -0.35207842190E+02  0.37461496860E+02  0.51100000000E-03 0. -1.
        -11    1    3    3    0    0 -0.72701956563E+01 -0.43011045720E+01 -0.32986901612E+01  0.90684399133E+01  0.51100000000E-03 0.  1.
        -12    1    3    3    0    0  0.78101426597E+01  0.18248934607E+02  0.38681960070E+02  0.43477764173E+02  0.00000000000E+00 0.  1.
</event>
<event>
 7    1  0.3752192E-015  0.9000789E+02  0.7816164E-02  0.1186339E+00
        -11   -1    0    0    0    0  0.00000000000E+00  0.00000000000E+00  0.45593999997E+02  0.45594000000E+02  0.51100000000E-03 0.  1.
         11   -1    0    0    0    0 -0.00000000000E+00 -0.00000000000E+00 -0.45593999997E+02  0.45594000000E+02  0.51100000000E-03 0. -1.
    9900012    2    1    2    0    0  0.23087378871E+00  0.88366831650E+00 -0.74731776010E+00  0.90007891431E+02  0.90000154798E+02 0.  0.
        -12    1    1    2    0    0 -0.23087378871E+00 -0.88366831650E+00  0.74731776010E+00  0.11801085689E+01  0.00000000000E+00 0.  1.
         11    1    3    3    0    0 -0.13970775289E+02 -0.19258176087E+02  0.44368716566E+01  0.24202184586E+02  0.51100000000E-03 0. -1.
        -11    1    3    3    0    0  0.25005445659E+00 -0.11903660300E+02  0.19618368569E+02  0.22948639204E+02  0.51100000000E-03 0.  1.
        -12    1    3    3    0    0  0.13951594621E+02  0.32045504703E+02 -0.24802557985E+02  0.42857067641E+02  0.00000000000E+00 0.  1.
</event>
<event>
 7    1  0.3752192E-015  0.9000745E+02  0.7816164E-02  0.1186340E+00
        -11   -1    0    0    0    0  0.00000000000E+00  0.00000000000E+00  0.45593999997E+02  0.45594000000E+02  0.51100000000E-03 0.  1.
         11   -1    0    0    0    0 -0.00000000000E+00 -0.00000000000E+00 -0.45593999997E+02  0.45594000000E+02  0.51100000000E-03 0. -1.
    9900012    2    1    2    0    0 -0.98840471101E+00  0.51995282936E+00  0.38263028124E+00  0.90007448964E+02  0.89999706489E+02 0.  0.
        -12    1    1    2    0    0  0.98840471101E+00 -0.51995282936E+00 -0.38263028124E+00  0.11805510364E+01  0.00000000000E+00 0.  1.
         11    1    3    3    0    0  0.11902701955E+02 -0.32501943883E+02  0.11625329052E+02  0.36512996944E+02  0.51100000000E-03 0. -1.
        -11    1    3    3    0    0 -0.61729207013E+01 -0.38787176036E+01  0.84267041986E+01  0.11142654268E+02  0.51100000000E-03 0.  1.
        -12    1    3    3    0    0 -0.67181859650E+01  0.36900614316E+02 -0.19669402970E+02  0.42351797751E+02  0.00000000000E+00 0.  1.
</event>
<event>
 7    1  0.3752192E-015  0.9000767E+02  0.7816164E-02  0.1186339E+00
        -11   -1    0    0    0    0  0.00000000000E+00  0.00000000000E+00  0.45593999997E+02  0.45594000000E+02  0.51100000000E-03 0. -1.
         11   -1    0    0    0    0 -0.00000000000E+00 -0.00000000000E+00 -0.45593999997E+02  0.45594000000E+02  0.51100000000E-03 0.  1.
    9900012    2    1    2    0    0 -0.75093055460E+00 -0.70813200147E+00  0.57255588141E+00  0.90007674678E+02  0.89999935183E+02 0.  0.
        -12    1    1    2    0    0  0.75093055460E+00  0.70813200147E+00 -0.57255588141E+00  0.11803253224E+01  0.00000000000E+00 0.  1.
         11    1    3    3    0    0  0.65843146916E+01  0.28157516051E+02  0.24999955077E+02  0.38225602209E+02  0.51100000000E-03 0. -1.
        -11    1    3    3    0    0  0.52928343277E+01 -0.67212482255E+01  0.71849279185E+01  0.11171949802E+02  0.51100000000E-03 0.  1.
        -12    1    3    3    0    0 -0.12628079574E+02 -0.22144399826E+02 -0.31612327114E+02  0.40610122667E+02  0.00000000000E+00 0.  1.
</event>
<event>
 7    1  0.3752192E-015  0.9000776E+02  0.7816164E-02  0.1186339E+00
        -11   -1    0    0    0    0  0.00000000000E+00  0.00000000000E+00  0.45593999997E+02  0.45594000000E+02  0.51100000000E-03 0.  1.
         11   -1    0    0    0    0 -0.00000000000E+00 -0.00000000000E+00 -0.45593999997E+02  0.45594000000E+02  0.51100000000E-03 0. -1.
    9900012    2    1    2    0    0 -0.99669720312E+00 -0.87916434594E-01 -0.62596679328E+00  0.90007758906E+02  0.90000020523E+02 0.  0.
        -12    1    1    2    0    0  0.99669720312E+00  0.87916434594E-01  0.62596679328E+00  0.11802410942E+01  0.00000000000E+00 0.  1.
         11    1    3    3    0    0  0.45227104833E+00  0.48646775364E+01  0.79288194127E+01  0.93132064390E+01  0.51100000000E-03 0. -1.
        -11    1    3    3    0    0 -0.29514535886E+02  0.21611720666E+01 -0.31891905369E+02  0.43507150235E+02  0.51100000000E-03 0.  1.
         12    1    3    3    0    0  0.28065567634E+02 -0.71137660376E+01  0.23337119163E+02  0.37187402231E+02  0.00000000000E+00 0. -1.
</event>
<event>
 7    1  0.3752192E-015  0.9000768E+02  0.7816164E-02  0.1186339E+00
        -11   -1    0    0    0    0  0.00000000000E+00  0.00000000000E+00  0.45593999997E+02  0.45594000000E+02  0.51100000000E-03 0.  1.
         11   -1    0    0    0    0 -0.00000000000E+00 -0.00000000000E+00 -0.45593999997E+02  0.45594000000E+02  0.51100000000E-03 0. -1.
    9900012    2    1    2    0    0 -0.45715555430E+00  0.64144684099E+00 -0.87904207659E+00  0.90007677916E+02  0.89999938464E+02 0.  0.
        -12    1    1    2    0    0  0.45715555430E+00 -0.64144684099E+00  0.87904207659E+00  0.11803220845E+01  0.00000000000E+00 0.  1.
         11    1    3    3    0    0  0.21275962869E+02  0.71820803681E+01 -0.34420389383E+02  0.41097592143E+02  0.51100000000E-03 0. -1.
        -11    1    3    3    0    0  0.43925264606E+01 -0.68806750959E+01  0.29507913258E+01  0.86801583045E+01  0.51100000000E-03 0.  1.
        -12    1    3    3    0    0 -0.26125644883E+02  0.34004156873E+00  0.30590555981E+02  0.40229927468E+02  0.00000000000E+00 0.  1.
</event>
<event>
 7    1  0.3752192E-015  0.9000783E+02  0.7816164E-02  0.1186339E+00
        -11   -1    0    0    0    0  0.00000000000E+00  0.00000000000E+00  0.45593999997E+02  0.45594000000E+02  0.51100000000E-03 0. -1.
         11   -1    0    0    0    0 -0.00000000000E+00 -0.00000000000E+00 -0.45593999997E+02  0.45594000000E+02  0.51100000000E-03 0.  1.
    9900012    2    1    2    0    0  0.11816071923E+00  0.10924509701E+01 -0.43057143085E+00  0.90007829320E+02  0.90000091867E+02 0.  0.
        -12    1    1    2    0    0 -0.11816071923E+00 -0.10924509701E+01  0.43057143085E+00  0.11801706804E+01  0.00000000000E+00 0.  1.
         11    1    3    3    0    0  0.61215170130E+00  0.71185490003E+01 -0.54284882851E+01  0.89731240322E+01  0.51100000000E-03 0. -1.
        -11    1    3    3    0    0 -0.35938186394E+01 -0.21664480498E+02 -0.33107452112E+02  0.39728687787E+02  0.51100000000E-03 0.  1.
         12    1    3    3    0    0  0.30998276574E+01  0.15638382468E+02  0.38105368966E+02  0.41306017501E+02  0.00000000000E+00 0. -1.
</event>
<event>
 7    1  0.3752192E-015  0.9000773E+02  0.7816164E-02  0.1186339E+00
        -11   -1    0    0    0    0  0.00000000000E+00  0.00000000000E+00  0.45593999997E+02  0.45594000000E+02  0.51100000000E-03 0.  1.
         11   -1    0    0    0    0 -0.00000000000E+00 -0.00000000000E+00 -0.45593999997E+02  0.45594000000E+02  0.51100000000E-03 0. -1.
    9900012    2    1    2    0    0 -0.12077257074E+00  0.88265865591E+00  0.77419176910E+00  0.90007726637E+02  0.89999987828E+02 0.  0.
        -12    1    1    2    0    0  0.12077257074E+00 -0.88265865591E+00 -0.77419176910E+00  0.11802733633E+01  0.00000000000E+00 0.  1.
         11    1    3    3    0    0  0.55274263892E+01  0.84562769874E+01 -0.74526996538E+00  0.10129979791E+02  0.51100000000E-03 0. -1.
        -11    1    3    3    0    0  0.55578422771E+01 -0.80593314166E+01  0.39282539811E+02  0.40484075486E+02  0.51100000000E-03 0.  1.
         12    1    3    3    0    0 -0.11206041237E+02  0.48571308515E+00 -0.37763078077E+02  0.39393671360E+02  0.00000000000E+00 0. -1.
</event>
<event>
 7    1  0.3752192E-015  0.9000779E+02  0.7816164E-02  0.1186339E+00
        -11   -1    0    0    0    0  0.00000000000E+00  0.00000000000E+00  0.45593999997E+02  0.45594000000E+02  0.51100000000E-03 0. -1.
         11   -1    0    0    0    0 -0.00000000000E+00 -0.00000000000E+00 -0.45593999997E+02  0.45594000000E+02  0.51100000000E-03 0.  1.
    9900012    2    1    2    0    0  0.84118018784E+00  0.81803272684E+00  0.12703628478E+00  0.90007788210E+02  0.90000050215E+02 0.  0.
        -12    1    1    2    0    0 -0.84118018784E+00 -0.81803272684E+00 -0.12703628478E+00  0.11802117896E+01  0.00000000000E+00 0.  1.
         11    1    3    3    0    0 -0.41942364261E+01  0.92586241944E+01  0.40243199296E+01  0.10932012273E+02  0.51100000000E-03 0. -1.
        -11    1    3    3    0    0 -0.28798190502E+02  0.30723907200E+00  0.21445662065E+02  0.35907472672E+02  0.51100000000E-03 0.  1.
         12    1    3    3    0    0  0.33833607116E+02 -0.87478305396E+01 -0.25342945710E+02  0.43168303266E+02  0.00000000000E+00 0. -1.
</event>
<event>
 7    1  0.3752192E-015  0.9000775E+02  0.7816164E-02  0.1186339E+00
        -11   -1    0    0    0    0  0.00000000000E+00  0.00000000000E+00  0.45593999997E+02  0.45594000000E+02  0.51100000000E-03 0. -1.
         11   -1    0    0    0    0 -0.00000000000E+00 -0.00000000000E+00 -0.45593999997E+02  0.45594000000E+02  0.51100000000E-03 0.  1.
    9900012    2    1    2    0    0 -0.17129649103E-01  0.95603761937E+00  0.69188063764E+00  0.90007745718E+02  0.90000007161E+02 0.  0.
        -12    1    1    2    0    0  0.17129649103E-01 -0.95603761937E+00 -0.69188063764E+00  0.11802542825E+01  0.00000000000E+00 0.  1.
         11    1    3    3    0    0 -0.87549407309E+01  0.38282609893E+01 -0.30246708229E+01  0.10022634546E+02  0.51100000000E-03 0. -1.
        -11    1    3    3    0    0 -0.26371818905E+02 -0.26214475118E+02 -0.29466531676E+01  0.37300861964E+02  0.51100000000E-03 0.  1.
         12    1    3    3    0    0  0.35109629987E+02  0.23342251748E+02  0.66632046282E+01  0.42684249207E+02  0.00000000000E+00 0. -1.
</event>
<event>
 7    1  0.3752192E-015  0.9000770E+02  0.7816164E-02  0.1186339E+00
        -11   -1    0    0    0    0  0.00000000000E+00  0.00000000000E+00  0.45593999997E+02  0.45594000000E+02  0.51100000000E-03 0.  1.
         11   -1    0    0    0    0 -0.00000000000E+00 -0.00000000000E+00 -0.45593999997E+02  0.45594000000E+02  0.51100000000E-03 0. -1.
    9900012    2    1    2    0    0  0.60284527132E+00 -0.12284568886E+00 -0.10072679167E+01  0.90007702520E+02  0.89999963394E+02 0.  0.
        -12    1    1    2    0    0 -0.60284527132E+00  0.12284568886E+00  0.10072679167E+01  0.11802974796E+01  0.00000000000E+00 0.  1.
         11    1    3    3    0    0  0.19400734696E+01 -0.78658141479E+01  0.39190005443E+01  0.89996379262E+01  0.51100000000E-03 0. -1.
        -11    1    3    3    0    0 -0.28199245033E+01 -0.36301954509E+02  0.16580034579E+01  0.36449044584E+02  0.51100000000E-03 0.  1.
         12    1    3    3    0    0  0.14826963050E+01  0.44044922968E+02 -0.65842719188E+01  0.44559020010E+02  0.00000000000E+00 0. -1.
</event>
<event>
 7    1  0.3752192E-015  0.9000769E+02  0.7816164E-02  0.1186339E+00
        -11   -1    0    0    0    0  0.00000000000E+00  0.00000000000E+00  0.45593999997E+02  0.45594000000E+02  0.51100000000E-03 0.  1.
         11   -1    0    0    0    0 -0.00000000000E+00 -0.00000000000E+00 -0.45593999997E+02  0.45594000000E+02  0.51100000000E-03 0. -1.
    9900012    2    1    2    0    0 -0.10126228380E+01 -0.48356805246E+00  0.36590990999E+00  0.90007689390E+02  0.89999950090E+02 0.  0.
        -12    1    1    2    0    0  0.10126228380E+01  0.48356805246E+00 -0.36590990999E+00  0.11803106098E+01  0.00000000000E+00 0.  1.
         11    1    3    3    0    0 -0.20380816836E+02 -0.32024595144E+02 -0.13245891706E+02  0.40204552434E+02  0.51100000000E-03 0. -1.
        -11    1    3    3    0    0  0.44241478339E+01 -0.52631168561E+01  0.64753373988E+01  0.94447592762E+01  0.51100000000E-03 0.  1.
        -12    1    3    3    0    0  0.14944046164E+02  0.36804143947E+02  0.71364642174E+01  0.40358377680E+02  0.00000000000E+00 0.  1.
</event>
<event>
 7    1  0.3752192E-015  0.9000776E+02  0.7816164E-02  0.1186339E+00
        -11   -1    0    0    0    0  0.00000000000E+00  0.00000000000E+00  0.45593999997E+02  0.45594000000E+02  0.51100000000E-03 0.  1.
         11   -1    0    0    0    0 -0.00000000000E+00 -0.00000000000E+00 -0.45593999997E+02  0.45594000000E+02  0.51100000000E-03 0. -1.
    9900012    2    1    2    0    0  0.32105650146E+00  0.11236126988E+01 -0.16545721470E+00  0.90007763217E+02  0.90000024891E+02 0.  0.
        -12    1    1    2    0    0 -0.32105650146E+00 -0.11236126988E+01  0.16545721470E+00  0.11802367830E+01  0.00000000000E+00 0.  1.
         11    1    3    3    0    0  0.82679069949E+01  0.26899581674E+01 -0.10958116939E+01  0.87632736206E+01  0.51100000000E-03 0. -1.
        -11    1    3    3    0    0  0.25750316932E+02 -0.27821388929E+02  0.54057940954E+01  0.38292703145E+02  0.51100000000E-03 0.  1.
         12    1    3    3    0    0 -0.33697167426E+02  0.26255043461E+02 -0.44754396162E+01  0.42951786452E+02  0.00000000000E+00 0. -1.
</event>
<event>
 7    1  0.3752192E-015  0.9000773E+02  0.7816164E-02  0.1186339E+00
        -11   -1    0    0    0    0  0.00000000000E+00  0.00000000000E+00  0.45593999997E+02  0.45594000000E+02  0.51100000000E-03 0. -1.
         11   -1    0    0    0    0 -0.00000000000E+00 -0.00000000000E+00 -0.45593999997E+02  0.45594000000E+02  0.51100000000E-03 0.  1.
    9900012    2    1    2    0    0 -0.11697161571E+01  0.15500177248E+00  0.27911779277E-01  0.90007728631E+02  0.89999989849E+02 0.  0.
        -12    1    1    2    0    0  0.11697161571E+01 -0.15500177248E+00 -0.27911779277E-01  0.11802713692E+01  0.00000000000E+00 0.  1.
         11    1    3    3    0    0  0.59887652891E+01 -0.23453252876E+01 -0.71021900479E+01  0.95815950723E+01  0.51100000000E-03 0. -1.
        -11    1    3    3    0    0  0.29911497245E+02  0.64126411610E+01 -0.17977980892E+02  0.35482776545E+02  0.51100000000E-03 0.  1.
         12    1    3    3    0    0 -0.37069978692E+02 -0.39123141009E+01  0.25108082719E+02  0.44943357014E+02  0.00000000000E+00 0. -1.
</event>
<event>
 7    1  0.3752192E-015  0.9000782E+02  0.7816164E-02  0.1186339E+00
        -11   -1    0    0    0    0  0.00000000000E+00  0.00000000000E+00  0.45593999997E+02  0.45594000000E+02  0.51100000000E-03 0.  1.
         11   -1    0    0    0    0 -0.00000000000E+00 -0.00000000000E+00 -0.45593999997E+02  0.45594000000E+02  0.51100000000E-03 0. -1.
    9900012    2    1    2    0    0  0.81311736213E+00  0.64677107123E+00  0.55977260270E+00  0.90007822882E+02  0.90000085344E+02 0.  0.
        -12    1    1    2    0    0 -0.81311736213E+00 -0.64677107123E+00 -0.55977260270E+00  0.11801771180E+01  0.00000000000E+00 0.  1.
         11    1    3    3    0    0  0.25966073050E+01 -0.10101417352E+02 -0.26328859730E+01  0.10757001944E+02  0.51100000000E-03 0. -1.
        -11    1    3    3    0    0  0.14072535871E+02  0.41159384408E+02  0.91237658928E+01  0.44445183035E+02  0.51100000000E-03 0.  1.
         12    1    3    3    0    0 -0.15856025814E+02 -0.30411195985E+02 -0.59311073171E+01  0.34805637903E+02  0.00000000000E+00 0. -1.
</event>
<event>
 7    1  0.3752192E-015  0.9000773E+02  0.7816164E-02  0.1186339E+00
        -11   -1    0    0    0    0  0.00000000000E+00  0.00000000000E+00  0.45593999997E+02  0.45594000000E+02  0.51100000000E-03 0. -1.
         11   -1    0    0    0    0 -0.00000000000E+00 -0.00000000000E+00 -0.45593999997E+02  0.45594000000E+02  0.51100000000E-03 0.  1.
    9900012    2    1    2    0    0  0.90706490986E+00 -0.48316744720E+00  0.58036408803E+00  0.90007728842E+02  0.89999990062E+02 0.  0.
        -12    1    1    2    0    0 -0.90706490986E+00  0.48316744720E+00 -0.58036408803E+00  0.11802711584E+01  0.00000000000E+00 0.  1.
         11    1    3    3    0    0 -0.68281083203E+01  0.44161577020E+01  0.92113783997E+01  0.12287188627E+02  0.51100000000E-03 0. -1.
        -11    1    3    3    0    0 -0.26176752026E+02  0.10221333933E+02 -0.24556469647E+02  0.37319140073E+02  0.51100000000E-03 0.  1.
         12    1    3    3    0    0  0.33911925257E+02 -0.15120659083E+02  0.15925455335E+02  0.40401400141E+02  0.00000000000E+00 0. -1.
</event>
<event>
 7    1  0.3752192E-015  0.9000769E+02  0.7816164E-02  0.1186339E+00
        -11   -1    0    0    0    0  0.00000000000E+00  0.00000000000E+00  0.45593999997E+02  0.45594000000E+02  0.51100000000E-03 0.  1.
         11   -1    0    0    0    0 -0.00000000000E+00 -0.00000000000E+00 -0.45593999997E+02  0.45594000000E+02  0.51100000000E-03 0. -1.
    9900012    2    1    2    0    0  0.63063518992E+00 -0.63539048647E+00 -0.76922337941E+00  0.90007692235E+02  0.89999952972E+02 0.  0.
        -12    1    1    2    0    0 -0.63063518992E+00  0.63539048647E+00  0.76922337941E+00  0.11803077652E+01  0.00000000000E+00 0.  1.
         11    1    3    3    0    0 -0.46457425422E+00 -0.36809922915E+02 -0.24273492453E+01  0.36892794403E+02  0.51100000000E-03 0. -1.
        -11    1    3    3    0    0  0.75349911900E+01 -0.64819499925E+01 -0.86663777939E-01  0.99397826339E+01  0.51100000000E-03 0.  1.
        -12    1    3    3    0    0 -0.64397817459E+01  0.42656482421E+02  0.17447896438E+01  0.43175115198E+02  0.00000000000E+00 0.  1.
</event>
<event>
 7    1  0.3752192E-015  0.9000776E+02  0.7816164E-02  0.1186339E+00
        -11   -1    0    0    0    0  0.00000000000E+00  0.00000000000E+00  0.45593999997E+02  0.45594000000E+02  0.51100000000E-03 0. -1.
         11   -1    0    0    0    0 -0.00000000000E+00 -0.00000000000E+00 -0.45593999997E+02  0.45594000000E+02  0.51100000000E-03 0.  1.
    9900012    2    1    2    0    0 -0.23470436413E+00  0.59564431035E+00  0.99151352050E+00  0.90007755388E+02  0.90000016959E+02 0.  0.
        -12    1    1    2    0    0  0.23470436413E+00 -0.59564431035E+00 -0.99151352050E+00  0.11802446121E+01  0.00000000000E+00 0.  1.
         11    1    3    3    0    0 -0.42351220576E+01  0.71355887237E+01 -0.69618303208E+01  0.10831434206E+02  0.51100000000E-03 0. -1.
        -11    1    3    3    0    0  0.26257413069E+01  0.32256023913E+02  0.20582452229E+02  0.38353395366E+02  0.51100000000E-03 0.  1.
         12    1    3    3    0    0  0.13746763866E+01 -0.38795968326E+02 -0.12629108388E+02  0.40822925816E+02  0.00000000000E+00 0. -1.
</event>
<event>
 7    1  0.3752192E-015  0.9000779E+02  0.7816164E-02  0.1186339E+00
        -11   -1    0    0    0    0  0.00000000000E+00  0.00000000000E+00  0.45593999997E+02  0.45594000000E+02  0.51100000000E-03 0. -1.
         11   -1    0    0    0    0 -0.00000000000E+00 -0.00000000000E+00 -0.45593999997E+02  0.45594000000E+02  0.51100000000E-03 0.  1.
    9900012    2    1    2    0    0  0.99380335914E-01  0.51673489352E+00  0.10564124018E+01  0.90007788763E+02  0.90000050775E+02 0.  0.
        -12    1    1    2    0    0 -0.99380335914E-01 -0.51673489352E+00 -0.10564124018E+01  0.11802112371E+01  0.00000000000E+00 0.  1.
         11    1    3    3    0    0 -0.14274234695E+02  0.20268375058E+02  0.49702832323E+01  0.25283680889E+02  0.51100000000E-03 0. -1.
        -11    1    3    3    0    0 -0.20825817029E+02  0.34570331126E-01  0.84790150081E+01  0.22485763180E+02  0.51100000000E-03 0.  1.
        -12    1    3    3    0    0  0.35199432059E+02 -0.19786210496E+02 -0.12392885839E+02  0.42238344694E+02  0.00000000000E+00 0.  1.
</event>
<event>
 7    1  0.3752192E-015  0.9000779E+02  0.7816164E-02  0.1186339E+00
        -11   -1    0    0    0    0  0.00000000000E+00  0.00000000000E+00  0.45593999997E+02  0.45594000000E+02  0.51100000000E-03 0.  1.
         11   -1    0    0    0    0 -0.00000000000E+00 -0.00000000000E+00 -0.45593999997E+02  0.45594000000E+02  0.51100000000E-03 0. -1.
    9900012    2    1    2    0    0 -0.66614201476E+00  0.95651512280E+00 -0.18502084585E+00  0.90007788545E+02  0.90000050554E+02 0.  0.
        -12    1    1    2    0    0  0.66614201476E+00 -0.95651512280E+00  0.18502084585E+00  0.11802114545E+01  0.00000000000E+00 0.  1.
         11    1    3    3    0    0 -0.43258703346E+01  0.83058584208E+01  0.31768887401E+01  0.98890373944E+01  0.51100000000E-03 0. -1.
        -11    1    3    3    0    0 -0.59557436239E+01 -0.22873549257E+02  0.32317048148E+02  0.40038253446E+02  0.51100000000E-03 0.  1.
         12    1    3    3    0    0  0.96154719438E+01  0.15524205959E+02 -0.35678957734E+02  0.40080497706E+02  0.00000000000E+00 0. -1.
</event>
<event>
 7    1  0.3752192E-015  0.9000779E+02  0.7816164E-02  0.1186339E+00
        -11   -1    0    0    0    0  0.00000000000E+00  0.00000000000E+00  0.45593999997E+02  0.45594000000E+02  0.51100000000E-03 0. -1.
         11   -1    0    0    0    0 -0.00000000000E+00 -0.00000000000E+00 -0.45593999997E+02  0.45594000000E+02  0.51100000000E-03 0.  1.
    9900012    2    1    2    0    0 -0.21450992740E+00 -0.93996039056E+00 -0.68069480089E+00  0.90007794316E+02  0.90000056401E+02 0.  0.
        -12    1    1    2    0    0  0.21450992740E+00  0.93996039056E+00  0.68069480089E+00  0.11802056841E+01  0.00000000000E+00 0.  1.
         11    1    3    3    0    0 -0.28221308171E+02  0.21355583764E+02  0.13479570966E+02  0.37870859859E+02  0.51100000000E-03 0. -1.
        -11    1    3    3    0    0 -0.55722765115E+01  0.30649648759E+01 -0.69908914227E+01  0.94507586128E+01  0.51100000000E-03 0.  1.
        -12    1    3    3    0    0  0.33579074755E+02 -0.25360509031E+02 -0.71693743444E+01  0.42686175844E+02  0.00000000000E+00 0.  1.
</event>
<event>
 7    1  0.3752192E-015  0.9000778E+02  0.7816164E-02  0.1186339E+00
        -11   -1    0    0    0    0  0.00000000000E+00  0.00000000000E+00  0.45593999997E+02  0.45594000000E+02  0.51100000000E-03 0.  1.
         11   -1    0    0    0    0 -0.00000000000E+00 -0.00000000000E+00 -0.45593999997E+02  0.45594000000E+02  0.51100000000E-03 0. -1.
    9900012    2    1    2    0    0  0.39920530509E+00  0.18025835231E+00 -0.10959275939E+01  0.90007781698E+02  0.90000043616E+02 0.  0.
        -12    1    1    2    0    0 -0.39920530509E+00 -0.18025835231E+00  0.10959275939E+01  0.11802183019E+01  0.00000000000E+00 0.  1.
         11    1    3    3    0    0 -0.36048978420E+01  0.85233618517E+01  0.17482773227E+01  0.94180390509E+01  0.51100000000E-03 0. -1.
        -11    1    3    3    0    0 -0.11527888575E+02 -0.16930731206E+02  0.34000348869E+02  0.39693394887E+02  0.51100000000E-03 0.  1.
         12    1    3    3    0    0  0.15531991722E+02  0.85876277061E+01 -0.36844553786E+02  0.40896347760E+02  0.00000000000E+00 0. -1.
</event>
<event>
 7    1  0.3752192E-015  0.9000774E+02  0.7816164E-02  0.1186339E+00
        -11   -1    0    0    0    0  0.00000000000E+00  0.00000000000E+00  0.45593999997E+02  0.45594000000E+02  0.51100000000E-03 0.  1.
         11   -1    0    0    0    0 -0.00000000000E+00 -0.00000000000E+00 -0.45593999997E+02  0.45594000000E+02  0.51100000000E-03 0. -1.
    9900012    2    1    2    0    0 -0.10486036870E+01 -0.47750485566E+00 -0.25580641672E+00  0.90007738375E+02  0.89999999722E+02 0.  0.
        -12    1    1    2    0    0  0.10486036870E+01  0.47750485566E+00  0.25580641672E+00  0.11802616246E+01  0.00000000000E+00 0.  1.
         11    1    3    3    0    0  0.23684522263E+01  0.87956970243E+01 -0.54216267151E+01  0.10600372097E+02  0.51100000000E-03 0. -1.
        -11    1    3    3    0    0 -0.22831753779E+02 -0.55680498055E+01  0.35875111877E+02  0.42887245327E+02  0.51100000000E-03 0.  1.
         12    1    3    3    0    0  0.19414697865E+02 -0.37051520744E+01 -0.30709291579E+02  0.36520120952E+02  0.00000000000E+00 0. -1.
</event>
<event>
 7    1  0.3752192E-015  0.9000775E+02  0.7816164E-02  0.1186339E+00
        -11   -1    0    0    0    0  0.00000000000E+00  0.00000000000E+00  0.45593999997E+02  0.45594000000E+02  0.51100000000E-03 0.  1.
         11   -1    0    0    0    0 -0.00000000000E+00 -0.00000000000E+00 -0.45593999997E+02  0.45594000000E+02  0.51100000000E-03 0. -1.
    9900012    2    1    2    0    0  0.11329199610E+01  0.26429082247E+00  0.19905983025E+00  0.90007753376E+02  0.90000014921E+02 0.  0.
        -12    1    1    2    0    0 -0.11329199610E+01 -0.26429082247E+00 -0.19905983025E+00  0.11802466238E+01  0.00000000000E+00 0.  1.
         11    1    3    3    0    0  0.25369199044E+01 -0.93914381183E-01  0.62491063745E+01  0.67450806706E+01  0.51100000000E-03 0. -1.
        -11    1    3    3    0    0  0.23532307776E+02 -0.21227025969E+02  0.23123246265E+02  0.39230608698E+02  0.51100000000E-03 0.  1.
         12    1    3    3    0    0 -0.24936307719E+02  0.21585231172E+02 -0.29173292809E+02  0.44032064007E+02  0.00000000000E+00 0. -1.
</event>
<event>
 7    1  0.3752192E-015  0.9000715E+02  0.7816164E-02  0.1186340E+00
        -11   -1    0    0    0    0  0.00000000000E+00  0.00000000000E+00  0.45593999997E+02  0.45594000000E+02  0.51100000000E-03 0.  1.
         11   -1    0    0    0    0 -0.00000000000E+00 -0.00000000000E+00 -0.45593999997E+02  0.45594000000E+02  0.51100000000E-03 0. -1.
    9900012    2    1    2    0    0  0.77692112865E+00  0.80480753142E+00 -0.37827284636E+00  0.90007147787E+02  0.89999401336E+02 0.  0.
        -12    1    1    2    0    0 -0.77692112865E+00 -0.80480753142E+00  0.37827284636E+00  0.11808522130E+01  0.00000000000E+00 0.  1.
         11    1    3    3    0    0  0.29391232660E+02 -0.20045215257E+02 -0.20043467937E+02  0.40833758328E+02  0.51100000000E-03 0. -1.
        -11    1    3    3    0    0 -0.46233365362E+01 -0.63929747763E+01  0.75076733924E+01  0.10890846030E+02  0.51100000000E-03 0.  1.
        -12    1    3    3    0    0 -0.23990974995E+02  0.27242997565E+02  0.12157521698E+02  0.38282543429E+02  0.00000000000E+00 0.  1.
</event>
<event>
 7    1  0.3752192E-015  0.9000779E+02  0.7816164E-02  0.1186339E+00
        -11   -1    0    0    0    0  0.00000000000E+00  0.00000000000E+00  0.45593999997E+02  0.45594000000E+02  0.51100000000E-03 0. -1.
         11   -1    0    0    0    0 -0.00000000000E+00 -0.00000000000E+00 -0.45593999997E+02  0.45594000000E+02  0.51100000000E-03 0.  1.
    9900012    2    1    2    0    0  0.78899986026E-01 -0.11593362022E+01  0.20639689373E+00  0.90007794376E+02  0.90000056462E+02 0.  0.
        -12    1    1    2    0    0 -0.78899986026E-01  0.11593362022E+01 -0.20639689373E+00  0.11802056242E+01  0.00000000000E+00 0.  1.
         11    1    3    3    0    0 -0.37923988272E+02  0.10128424023E+02  0.42543482972E+00  0.39255507317E+02  0.51100000000E-03 0. -1.
        -11    1    3    3    0    0 -0.18513706985E+01  0.60527896940E+01  0.33157783877E+01  0.71455036996E+01  0.51100000000E-03 0.  1.
        -12    1    3    3    0    0  0.39854258957E+02 -0.17340549919E+02 -0.35348163236E+01  0.43606783359E+02  0.00000000000E+00 0.  1.
</event>
<event>
 7    1  0.3752192E-015  0.9000781E+02  0.7816164E-02  0.1186339E+00
        -11   -1    0    0    0    0  0.00000000000E+00  0.00000000000E+00  0.45593999997E+02  0.45594000000E+02  0.51100000000E-03 0.  1.
         11   -1    0    0    0    0 -0.00000000000E+00 -0.00000000000E+00 -0.45593999997E+02  0.45594000000E+02  0.51100000000E-03 0. -1.
    9900012    2    1    2    0    0  0.78432630898E-01  0.83574442953E+00 -0.82958861464E+00  0.90007814549E+02  0.90000076901E+02 0.  0.
        -12    1    1    2    0    0 -0.78432630898E-01 -0.83574442953E+00  0.82958861464E+00  0.11801854509E+01  0.00000000000E+00 0.  1.
         11    1    3    3    0    0 -0.79963175497E+01 -0.41481684482E+01  0.46878687008E+01  0.10155023833E+02  0.51100000000E-03 0. -1.
        -11    1    3    3    0    0  0.52307450679E+00  0.10695132356E+00  0.36692396796E+02  0.36696280853E+02  0.51100000000E-03 0.  1.
         12    1    3    3    0    0  0.75516756738E+01  0.48769615542E+01 -0.42209854111E+02  0.43156509863E+02  0.00000000000E+00 0. -1.
</event>
<event>
 7    1  0.3752192E-015  0.9000780E+02  0.7816164E-02  0.1186339E+00
        -11   -1    0    0    0    0  0.00000000000E+00  0.00000000000E+00  0.45593999997E+02  0.45594000000E+02  0.51100000000E-03 0. -1.
         11   -1    0    0    0    0 -0.00000000000E+00 -0.00000000000E+00 -0.45593999997E+02  0.45594000000E+02  0.51100000000E-03 0.  1.
    9900012    2    1    2    0    0  0.71544186124E+00 -0.91272782010E+00  0.21893713598E+00  0.90007803999E+02  0.90000066212E+02 0.  0.
        -12    1    1    2    0    0 -0.71544186124E+00  0.91272782010E+00 -0.21893713598E+00  0.11801960006E+01  0.00000000000E+00 0.  1.
         11    1    3    3    0    0 -0.97569784276E+01 -0.31165415506E+00  0.26094721180E+01  0.10104706891E+02  0.51100000000E-03 0. -1.
        -11    1    3    3    0    0  0.55200115250E+01  0.38838566218E+02 -0.71320810744E+01  0.39871936670E+02  0.51100000000E-03 0.  1.
         12    1    3    3    0    0  0.49524087638E+01 -0.39439639883E+02  0.47415460924E+01  0.40031160438E+02  0.00000000000E+00 0. -1.
</event>
<event>
 7    1  0.3796452E-015  0.9000732E+02  0.7816164E-02  0.1186340E+00
        -11   -1    0    0    0    0  0.00000000000E+00  0.00000000000E+00  0.45593999997E+02  0.45594000000E+02  0.51100000000E-03 0.  1.
         11   -1    0    0    0    0 -0.00000000000E+00 -0.00000000000E+00 -0.45593999997E+02  0.45594000000E+02  0.51100000000E-03 0. -1.
    9900012    2    1    2    0    0 -0.46430718698E+00 -0.81163037608E+00 -0.72088073127E+00  0.90007324744E+02  0.89999580630E+02 0.  0.
        -12    1    1    2    0    0  0.46430718698E+00  0.81163037608E+00  0.72088073127E+00  0.11806752559E+01  0.00000000000E+00 0.  1.
         11    1    3    3    0    0  0.10787758921E+02  0.60587946819E+01 -0.36635270194E+02  0.38668175001E+02  0.51100000000E-03 0. -1.
        -11    1    3    3    0    0 -0.27611680054E+01 -0.70866421513E+01 -0.52926278389E+01  0.92658758591E+01  0.51100000000E-03 0.  1.
        -12    1    3    3    0    0 -0.84908981022E+01  0.21621709332E+00  0.41207017301E+02  0.42073273884E+02  0.00000000000E+00 0.  1.
</event>
<event>
 7    1  0.4582930E-015  0.9000773E+02  0.7816164E-02  0.1186339E+00
        -11   -1    0    0    0    0  0.00000000000E+00  0.00000000000E+00  0.45593999997E+02  0.45594000000E+02  0.51100000000E-03 0.  1.
         11   -1    0    0    0    0 -0.00000000000E+00 -0.00000000000E+00 -0.45593999997E+02  0.45594000000E+02  0.51100000000E-03 0. -1.
    9900012    2    1    2    0    0  0.48885606880E+00 -0.10297871313E+01  0.30593696036E+00  0.90007729177E+02  0.89999990402E+02 0.  0.
        -12    1    1    2    0    0 -0.48885606880E+00  0.10297871313E+01 -0.30593696036E+00  0.11802708230E+01  0.00000000000E+00 0.  1.
         11    1    3    3    0    0 -0.33305604657E+02 -0.25294301477E+02  0.47333407041E+01  0.42088828722E+02  0.51100000000E-03 0. -1.
        -11    1    3    3    0    0  0.14999429246E+01  0.37311554003E+01 -0.85297360414E+01  0.94301509318E+01  0.51100000000E-03 0.  1.
        -12    1    3    3    0    0  0.32294517801E+02  0.20533358945E+02  0.41023322977E+01  0.38488749523E+02  0.00000000000E+00 0.  1.
</event>
<event>
 7    1  0.3752192E-015  0.9000775E+02  0.7816164E-02  0.1186339E+00
        -11   -1    0    0    0    0  0.00000000000E+00  0.00000000000E+00  0.45593999997E+02  0.45594000000E+02  0.51100000000E-03 0.  1.
         11   -1    0    0    0    0 -0.00000000000E+00 -0.00000000000E+00 -0.45593999997E+02  0.45594000000E+02  0.51100000000E-03 0. -1.
    9900012    2    1    2    0    0 -0.30748285915E+00 -0.10359598849E+01 -0.47459058007E+00  0.90007747989E+02  0.90000009462E+02 0.  0.
        -12    1    1    2    0    0  0.30748285915E+00  0.10359598849E+01  0.47459058007E+00  0.11802520115E+01  0.00000000000E+00 0.  1.
         11    1    3    3    0    0 -0.47760156129E+01 -0.78064790006E+01 -0.33411227364E+02  0.34641904592E+02  0.51100000000E-03 0. -1.
        -11    1    3    3    0    0  0.52648446978E+01 -0.13278019674E+02 -0.26359030430E+01  0.14524888339E+02  0.51100000000E-03 0.  1.
        -12    1    3    3    0    0 -0.79631194404E+00  0.20048538790E+02  0.35572539827E+02  0.40840955058E+02  0.00000000000E+00 0.  1.
</event>
<event>
 7    1  0.3752192E-015  0.9000776E+02  0.7816164E-02  0.1186339E+00
        -11   -1    0    0    0    0  0.00000000000E+00  0.00000000000E+00  0.45593999997E+02  0.45594000000E+02  0.51100000000E-03 0. -1.
         11   -1    0    0    0    0 -0.00000000000E+00 -0.00000000000E+00 -0.45593999997E+02  0.45594000000E+02  0.51100000000E-03 0.  1.
    9900012    2    1    2    0    0 -0.34889635383E+00 -0.34572433754E+00  0.10731832050E+01  0.90007755883E+02  0.90000017461E+02 0.  0.
        -12    1    1    2    0    0  0.34889635383E+00  0.34572433754E+00 -0.10731832050E+01  0.11802441166E+01  0.00000000000E+00 0.  1.
         11    1    3    3    0    0  0.85290701550E+01  0.47837675667E+01 -0.38641027736E+01  0.10514787699E+02  0.51100000000E-03 0. -1.
        -11    1    3    3    0    0  0.25239803329E+02 -0.26921025408E+02 -0.63974875004E+01  0.37452865414E+02  0.51100000000E-03 0.  1.
         12    1    3    3    0    0 -0.34117769838E+02  0.21791533504E+02  0.11334773479E+02  0.42040102771E+02  0.00000000000E+00 0. -1.
</event>
<event>
 7    1  0.3752192E-015  0.9000728E+02  0.7816164E-02  0.1186340E+00
        -11   -1    0    0    0    0  0.00000000000E+00  0.00000000000E+00  0.45593999997E+02  0.45594000000E+02  0.51100000000E-03 0.  1.
         11   -1    0    0    0    0 -0.00000000000E+00 -0.00000000000E+00 -0.45593999997E+02  0.45594000000E+02  0.51100000000E-03 0. -1.
    9900012    2    1    2    0    0 -0.47108670478E+00 -0.10184724527E+01 -0.36725923560E+00  0.90007284892E+02  0.89999540251E+02 0.  0.
        -12    1    1    2    0    0  0.47108670478E+00  0.10184724527E+01  0.36725923560E+00  0.11807151081E+01  0.00000000000E+00 0.  1.
         11    1    3    3    0    0 -0.54462350677E+01  0.46250721002E+00  0.47465290176E+01  0.72391247612E+01  0.51100000000E-03 0. -1.
        -11    1    3    3    0    0 -0.23948883117E+02  0.39540265421E+01  0.28931793995E+02  0.37765487320E+02  0.51100000000E-03 0.  1.
         12    1    3    3    0    0  0.28924031480E+02 -0.54350062048E+01 -0.34045582249E+02  0.45002672811E+02  0.00000000000E+00 0. -1.
</event>
<event>
 7    1  0.3752192E-015  0.9000773E+02  0.7816164E-02  0.1186339E+00
        -11   -1    0    0    0    0  0.00000000000E+00  0.00000000000E+00  0.45593999997E+02  0.45594000000E+02  0.51100000000E-03 0. -1.
         11   -1    0    0    0    0 -0.00000000000E+00 -0.00000000000E+00 -0.45593999997E+02  0.45594000000E+02  0.51100000000E-03 0.  1.
    9900012    2    1    2    0    0  0.19431783275E-01 -0.70483932710E+00  0.94650253147E+00  0.90007727526E+02  0.89999988729E+02 0.  0.
        -12    1    1    2    0    0 -0.19431783275E-01  0.70483932710E+00 -0.94650253147E+00  0.11802724742E+01  0.00000000000E+00 0.  1.
         11    1    3    3    0    0 -0.70873605776E+01  0.12198252384E+02  0.67283449304E+01  0.15630056524E+02  0.51100000000E-03 0. -1.
        -11    1    3    3    0    0  0.70119429679E+00 -0.25228650920E+02 -0.34342014905E+02  0.42618663619E+02  0.51100000000E-03 0.  1.
         12    1    3    3    0    0  0.64055980641E+01  0.12325559209E+02  0.28560172506E+02  0.31759007383E+02  0.00000000000E+00 0. -1.
</event>
<event>
 7    1  0.3752192E-015  0.9000771E+02  0.7816164E-02  0.1186339E+00
        -11   -1    0    0    0    0  0.00000000000E+00  0.00000000000E+00  0.45593999997E+02  0.45594000000E+02  0.51100000000E-03 0. -1.
         11   -1    0    0    0    0 -0.00000000000E+00 -0.00000000000E+00 -0.45593999997E+02  0.45594000000E+02  0.51100000000E-03 0.  1.
    9900012    2    1    2    0    0  0.83499963002E+00  0.42661005810E+00  0.71684179146E+00  0.90007710765E+02  0.89999971747E+02 0.  0.
        -12    1    1    2    0    0 -0.83499963002E+00 -0.42661005810E+00 -0.71684179146E+00  0.11802892348E+01  0.00000000000E+00 0.  1.
         11    1    3    3    0    0 -0.54389962535E+01 -0.40439413844E+02 -0.38218739065E+01  0.40982137483E+02  0.51100000000E-03 0. -1.
        -11    1    3    3    0    0 -0.39251737322E+01  0.69356791918E+01 -0.81434011802E+01  0.11394104516E+02  0.51100000000E-03 0.  1.
        -12    1    3    3    0    0  0.10199169616E+02  0.33930344710E+02  0.12682116878E+02  0.37631468766E+02  0.00000000000E+00 0.  1.
</event>
<event>
 7    1  0.3752192E-015  0.9000775E+02  0.7816164E-02  0.1186339E+00
        -11   -1    0    0    0    0  0.00000000000E+00  0.00000000000E+00  0.45593999997E+02  0.45594000000E+02  0.51100000000E-03 0. -1.
         11   -1    0    0    0    0 -0.00000000000E+00 -0.00000000000E+00 -0.45593999997E+02  0.45594000000E+02  0.51100000000E-03 0.  1.
    9900012    2    1    2    0    0 -0.40643177464E+00  0.27503742055E-01  0.11077230765E+01  0.90007748477E+02  0.90000009957E+02 0.  0.
        -12    1    1    2    0    0  0.40643177464E+00 -0.27503742055E-01 -0.11077230765E+01  0.11802515229E+01  0.00000000000E+00 0.  1.
         11    1    3    3    0    0  0.18376304208E+02 -0.25442338476E+02  0.26447431119E+02  0.41042267926E+02  0.51100000000E-03 0. -1.
        -11    1    3    3    0    0 -0.15699915107E+01 -0.58674788518E+01 -0.27005623567E+01  0.66471963055E+01  0.51100000000E-03 0.  1.
        -12    1    3    3    0    0 -0.17212744472E+02  0.31337321070E+02 -0.22639145686E+02  0.42318284245E+02  0.00000000000E+00 0.  1.
</event>
<event>
 7    1  0.3752192E-015  0.9000830E+02  0.7816164E-02  0.1186338E+00
        -11   -1    0    0    0    0  0.00000000000E+00  0.00000000000E+00  0.45593999997E+02  0.45594000000E+02  0.51100000000E-03 0.  1.
         11   -1    0    0    0    0 -0.00000000000E+00 -0.00000000000E+00 -0.45593999997E+02  0.45594000000E+02  0.51100000000E-03 0. -1.
    9900012    2    1    2    0    0 -0.94161936560E-01 -0.79780808176E+00 -0.86389818062E+00  0.90008303314E+02  0.90000572115E+02 0.  0.
        -12    1    1    2    0    0  0.94161936560E-01  0.79780808176E+00  0.86389818062E+00  0.11796966865E+01  0.00000000000E+00 0.  1.
         11    1    3    3    0    0 -0.24027172495E+02 -0.26882423004E+02  0.65962709612E+01  0.36653519279E+02  0.51100000000E-03 0. -1.
        -11    1    3    3    0    0  0.48036578753E+01 -0.89983069093E+01 -0.86554343945E+01  0.13377638096E+02  0.51100000000E-03 0.  1.
        -12    1    3    3    0    0  0.19129352683E+02  0.35082921832E+02  0.11952652526E+01  0.39977145938E+02  0.00000000000E+00 0.  1.
</event>
<event>
 7    1  0.3752192E-015  0.9000774E+02  0.7816164E-02  0.1186339E+00
        -11   -1    0    0    0    0  0.00000000000E+00  0.00000000000E+00  0.45593999997E+02  0.45594000000E+02  0.51100000000E-03 0. -1.
         11   -1    0    0    0    0 -0.00000000000E+00 -0.00000000000E+00 -0.45593999997E+02  0.45594000000E+02  0.51100000000E-03 0.  1.
    9900012    2    1    2    0    0 -0.62518040234E+00 -0.16024661301E+00 -0.98817791408E+00  0.90007735156E+02  0.89999996460E+02 0.  0.
        -12    1    1    2    0    0  0.62518040234E+00  0.16024661301E+00  0.98817791408E+00  0.11802648441E+01  0.00000000000E+00 0.  1.
         11    1    3    3    0    0 -0.73293164249E+01 -0.21796027968E+01 -0.50989788810E+01  0.91907090857E+01  0.51100000000E-03 0. -1.
        -11    1    3    3    0    0 -0.13607587055E+02  0.15983891502E+02 -0.31290623190E+02  0.37679627292E+02  0.51100000000E-03 0.  1.
         12    1    3    3    0    0  0.20311723077E+02 -0.13964535318E+02  0.35401424157E+02  0.43137398778E+02  0.00000000000E+00 0. -1.
</event>
<event>
 7    1  0.3752192E-015  0.9000750E+02  0.7816164E-02  0.1186340E+00
        -11   -1    0    0    0    0  0.00000000000E+00  0.00000000000E+00  0.45593999997E+02  0.45594000000E+02  0.51100000000E-03 0.  1.
         11   -1    0    0    0    0 -0.00000000000E+00 -0.00000000000E+00 -0.45593999997E+02  0.45594000000E+02  0.51100000000E-03 0. -1.
    9900012    2    1    2    0    0  0.97966994085E+00 -0.64826843710E+00 -0.11655604495E+00  0.90007495671E+02  0.89999753813E+02 0.  0.
        -12    1    1    2    0    0 -0.97966994085E+00  0.64826843710E+00  0.11655604495E+00  0.11805043292E+01  0.00000000000E+00 0.  1.
         11    1    3    3    0    0 -0.13515908158E+01 -0.27783467628E+02  0.10802539597E+02  0.29840287083E+02  0.51100000000E-03 0. -1.
        -11    1    3    3    0    0  0.23796367368E+02  0.10364210228E+02  0.78155716716E+01  0.27106588026E+02  0.51100000000E-03 0.  1.
         12    1    3    3    0    0 -0.21465106611E+02  0.16770988963E+02 -0.18734667314E+02  0.33060620563E+02  0.00000000000E+00 0. -1.
</event>
<event>
 7    1  0.3752192E-015  0.9000780E+02  0.7816164E-02  0.1186339E+00
        -11   -1    0    0    0    0  0.00000000000E+00  0.00000000000E+00  0.45593999997E+02  0.45594000000E+02  0.51100000000E-03 0.  1.
         11   -1    0    0    0    0 -0.00000000000E+00 -0.00000000000E+00 -0.45593999997E+02  0.45594000000E+02  0.51100000000E-03 0. -1.
    9900012    2    1    2    0    0 -0.93266588835E+00 -0.72251734075E+00 -0.31117956766E-01  0.90007802858E+02  0.90000065056E+02 0.  0.
        -12    1    1    2    0    0  0.93266588835E+00  0.72251734075E+00  0.31117956766E-01  0.11801971421E+01  0.00000000000E+00 0.  1.
         11    1    3    3    0    0  0.11031825474E+02 -0.32447663556E+02  0.13707659708E+02  0.36911407159E+02  0.51100000000E-03 0. -1.
        -11    1    3    3    0    0  0.65437189924E+01  0.13259100556E+01  0.87424511003E+01  0.11000397594E+02  0.51100000000E-03 0.  1.
        -12    1    3    3    0    0 -0.18508210354E+02  0.30399236160E+02 -0.22481228765E+02  0.42095998105E+02  0.00000000000E+00 0.  1.
</event>
<event>
 7    1  0.3752192E-015  0.9000770E+02  0.7816164E-02  0.1186339E+00
        -11   -1    0    0    0    0  0.00000000000E+00  0.00000000000E+00  0.45593999997E+02  0.45594000000E+02  0.51100000000E-03 0.  1.
         11   -1    0    0    0    0 -0.00000000000E+00 -0.00000000000E+00 -0.45593999997E+02  0.45594000000E+02  0.51100000000E-03 0. -1.
    9900012    2    1    2    0    0 -0.91580415958E+00 -0.66504580131E-02 -0.74456482870E+00  0.90007695687E+02  0.89999956470E+02 0.  0.
        -12    1    1    2    0    0  0.91580415958E+00  0.66504580131E-02  0.74456482870E+00  0.11803043131E+01  0.00000000000E+00 0.  1.
         11    1    3    3    0    0 -0.11999749954E+02 -0.54768910434E+01 -0.38998058865E+02  0.41168421514E+02  0.51100000000E-03 0. -1.
        -11    1    3    3    0    0 -0.92019713095E+01  0.31252543860E+01  0.15207384817E+02  0.18047383306E+02  0.51100000000E-03 0.  1.
        -12    1    3    3    0    0  0.20285917104E+02  0.23449861994E+01  0.23046109219E+02  0.30791890867E+02  0.00000000000E+00 0.  1.
</event>
<event>
 7    1  0.3752192E-015  0.9000773E+02  0.7816164E-02  0.1186339E+00
        -11   -1    0    0    0    0  0.00000000000E+00  0.00000000000E+00  0.45593999997E+02  0.45594000000E+02  0.51100000000E-03 0. -1.
         11   -1    0    0    0    0 -0.00000000000E+00 -0.00000000000E+00 -0.45593999997E+02  0.45594000000E+02  0.51100000000E-03 0.  1.
    9900012    2    1    2    0    0 -0.55939670360E+00 -0.61341742294E+00  0.83894582380E+00  0.90007730665E+02  0.89999991910E+02 0.  0.
        -12    1    1    2    0    0  0.55939670360E+00  0.61341742294E+00 -0.83894582380E+00  0.11802693345E+01  0.00000000000E+00 0.  1.
         11    1    3    3    0    0 -0.33514099927E+01  0.23207890063E+02  0.32439213140E+02  0.40026749300E+02  0.51100000000E-03 0. -1.
        -11    1    3    3    0    0  0.70906294962E+01  0.55718072223E+01 -0.73679704588E+01  0.11645129940E+02  0.51100000000E-03 0.  1.
        -12    1    3    3    0    0 -0.42986162071E+01 -0.29393114709E+02 -0.24232296857E+02  0.38335851426E+02  0.00000000000E+00 0.  1.
</event>
<event>
 7    1  0.3752192E-015  0.9000778E+02  0.7816164E-02  0.1186339E+00
        -11   -1    0    0    0    0  0.00000000000E+00  0.00000000000E+00  0.45593999997E+02  0.45594000000E+02  0.51100000000E-03 0.  1.
         11   -1    0    0    0    0 -0.00000000000E+00 -0.00000000000E+00 -0.45593999997E+02  0.45594000000E+02  0.51100000000E-03 0. -1.
    9900012    2    1    2    0    0  0.47538723261E-01  0.11792229006E+01  0.90052433396E-02  0.90007784904E+02  0.90000046864E+02 0.  0.
        -12    1    1    2    0    0 -0.47538723261E-01 -0.11792229006E+01 -0.90052433396E-02  0.11802150964E+01  0.00000000000E+00 0.  1.
         11    1    3    3    0    0 -0.52468278670E+01 -0.31136733589E+00 -0.16371535592E+02  0.17194572696E+02  0.51100000000E-03 0. -1.
        -11    1    3    3    0    0  0.29781764095E+02 -0.76801568238E+01 -0.13080170041E+02  0.33421985728E+02  0.51100000000E-03 0.  1.
         12    1    3    3    0    0 -0.24487397505E+02  0.91707470602E+01  0.29460710876E+02  0.39391226479E+02  0.00000000000E+00 0. -1.
</event>
<event>
 7    1  0.3752192E-015  0.9000816E+02  0.7816164E-02  0.1186338E+00
        -11   -1    0    0    0    0  0.00000000000E+00  0.00000000000E+00  0.45593999997E+02  0.45594000000E+02  0.51100000000E-03 0.  1.
         11   -1    0    0    0    0 -0.00000000000E+00 -0.00000000000E+00 -0.45593999997E+02  0.45594000000E+02  0.51100000000E-03 0. -1.
    9900012    2    1    2    0    0  0.56757276594E+00 -0.10208672034E+01 -0.16647168125E+00  0.90008160387E+02  0.90000427303E+02 0.  0.
        -12    1    1    2    0    0 -0.56757276594E+00  0.10208672034E+01  0.16647168125E+00  0.11798396129E+01  0.00000000000E+00 0.  1.
         11    1    3    3    0    0 -0.72084837335E+01  0.85025363467E+01  0.59732590642E+01  0.12646548390E+02  0.51100000000E-03 0. -1.
        -11    1    3    3    0    0 -0.95357695651E+01 -0.20243961110E+02  0.29071517885E+02  0.36686537244E+02  0.51100000000E-03 0.  1.
         12    1    3    3    0    0  0.17311826065E+02  0.10720557559E+02 -0.35211248630E+02  0.40675074753E+02  0.00000000000E+00 0. -1.
</event>
<event>
 7    1  0.3805051E-015  0.9000780E+02  0.7816164E-02  0.1186339E+00
        -11   -1    0    0    0    0  0.00000000000E+00  0.00000000000E+00  0.45593999997E+02  0.45594000000E+02  0.51100000000E-03 0. -1.
         11   -1    0    0    0    0 -0.00000000000E+00 -0.00000000000E+00 -0.45593999997E+02  0.45594000000E+02  0.51100000000E-03 0.  1.
    9900012    2    1    2    0    0  0.36939152894E+00 -0.31604244516E+00  0.10754282815E+01  0.90007797086E+02  0.90000059208E+02 0.  0.
        -12    1    1    2    0    0 -0.36939152894E+00  0.31604244516E+00 -0.10754282815E+01  0.11802029137E+01  0.00000000000E+00 0.  1.
         11    1    3    3    0    0  0.81103738087E+01  0.28051257627E+01 -0.49008706701E+01  0.98825820233E+01  0.51100000000E-03 0. -1.
        -11    1    3    3    0    0  0.17754103407E+02  0.20743998605E+02 -0.22250315536E+02  0.35222126677E+02  0.51100000000E-03 0.  1.
         12    1    3    3    0    0 -0.25495085687E+02 -0.23865166813E+02  0.28226614488E+02  0.44903088386E+02  0.00000000000E+00 0. -1.
</event>
<event>
 7    1  0.3752192E-015  0.9000759E+02  0.7816164E-02  0.1186339E+00
        -11   -1    0    0    0    0  0.00000000000E+00  0.00000000000E+00  0.45593999997E+02  0.45594000000E+02  0.51100000000E-03 0. -1.
         11   -1    0    0    0    0 -0.00000000000E+00 -0.00000000000E+00 -0.45593999997E+02  0.45594000000E+02  0.51100000000E-03 0.  1.
    9900012    2    1    2    0    0  0.37319800746E+00  0.11162151271E+01 -0.90350035433E-01  0.90007586474E+02  0.89999845816E+02 0.  0.
        -12    1    1    2    0    0 -0.37319800746E+00 -0.11162151271E+01  0.90350035433E-01  0.11804135257E+01  0.00000000000E+00 0.  1.
         11    1    3    3    0    0 -0.64317485896E+01 -0.24215326274E+02  0.20207794317E+02  0.32188575114E+02  0.51100000000E-03 0. -1.
        -11    1    3    3    0    0 -0.69424425875E+01 -0.58656448269E+01  0.90565793505E+01  0.12830624619E+02  0.51100000000E-03 0.  1.
        -12    1    3    3    0    0  0.13747389185E+02  0.31197186228E+02 -0.29354723702E+02  0.44988386741E+02  0.00000000000E+00 0.  1.
</event>
<event>
 7    1  0.3752192E-015  0.9000777E+02  0.7816164E-02  0.1186339E+00
        -11   -1    0    0    0    0  0.00000000000E+00  0.00000000000E+00  0.45593999997E+02  0.45594000000E+02  0.51100000000E-03 0. -1.
         11   -1    0    0    0    0 -0.00000000000E+00 -0.00000000000E+00 -0.45593999997E+02  0.45594000000E+02  0.51100000000E-03 0.  1.
    9900012    2    1    2    0    0  0.47695235846E+00 -0.90629671248E+00  0.58658913199E+00  0.90007769475E+02  0.90000031232E+02 0.  0.
        -12    1    1    2    0    0 -0.47695235846E+00  0.90629671248E+00 -0.58658913199E+00  0.11802305254E+01  0.00000000000E+00 0.  1.
         11    1    3    3    0    0  0.39060099386E+02 -0.53619528038E+01  0.16394502756E+02  0.42699199323E+02  0.51100000000E-03 0. -1.
        -11    1    3    3    0    0 -0.41913212812E+01 -0.58742606310E+01  0.16159602921E+01  0.73949604441E+01  0.51100000000E-03 0.  1.
        -12    1    3    3    0    0 -0.34391825747E+02  0.10329916722E+02 -0.17423873916E+02  0.39913609708E+02  0.00000000000E+00 0.  1.
</event>
<event>
 7    1  0.3752192E-015  0.9000783E+02  0.7816164E-02  0.1186339E+00
        -11   -1    0    0    0    0  0.00000000000E+00  0.00000000000E+00  0.45593999997E+02  0.45594000000E+02  0.51100000000E-03 0.  1.
         11   -1    0    0    0    0 -0.00000000000E+00 -0.00000000000E+00 -0.45593999997E+02  0.45594000000E+02  0.51100000000E-03 0. -1.
    9900012    2    1    2    0    0  0.51646351318E+00 -0.54390309506E+00 -0.91116662311E+00  0.90007834862E+02  0.90000097482E+02 0.  0.
        -12    1    1    2    0    0 -0.51646351318E+00  0.54390309506E+00  0.91116662311E+00  0.11801651377E+01  0.00000000000E+00 0.  1.
         11    1    3    3    0    0 -0.57143467012E+01  0.70518486887E+01  0.51753849541E+01  0.10448298322E+02  0.51100000000E-03 0. -1.
        -11    1    3    3    0    0  0.22212787076E+02  0.66262200346E+01  0.29815830090E+02  0.37766366330E+02  0.51100000000E-03 0.  1.
         12    1    3    3    0    0 -0.15981976861E+02 -0.14221971818E+02 -0.35902381667E+02  0.41793170209E+02  0.00000000000E+00 0. -1.
</event>
<event>
 7    1  0.3752192E-015  0.9000774E+02  0.7816164E-02  0.1186339E+00
        -11   -1    0    0    0    0  0.00000000000E+00  0.00000000000E+00  0.45593999997E+02  0.45594000000E+02  0.51100000000E-03 0.  1.
         11   -1    0    0    0    0 -0.00000000000E+00 -0.00000000000E+00 -0.45593999997E+02  0.45594000000E+02  0.51100000000E-03 0. -1.
    9900012    2    1    2    0    0  0.56942951185E+00  0.78989983301E+00 -0.66694138963E+00  0.90007744717E+02  0.90000006148E+02 0.  0.
        -12    1    1    2    0    0 -0.56942951185E+00 -0.78989983301E+00  0.66694138963E+00  0.11802552827E+01  0.00000000000E+00 0.  1.
         11    1    3    3    0    0 -0.92393452896E+01 -0.52171047010E+01 -0.10547738598E+02  0.14961232323E+02  0.51100000000E-03 0. -1.
        -11    1    3    3    0    0 -0.15240868523E+02 -0.15767180274E+02  0.29296217822E+02  0.36594486279E+02  0.51100000000E-03 0.  1.
         12    1    3    3    0    0  0.25049643324E+02  0.21774184808E+02 -0.19415420614E+02  0.38452026115E+02  0.00000000000E+00 0. -1.
</event>
<event>
 7    1  0.3752192E-015  0.9000776E+02  0.7816164E-02  0.1186339E+00
        -11   -1    0    0    0    0  0.00000000000E+00  0.00000000000E+00  0.45593999997E+02  0.45594000000E+02  0.51100000000E-03 0.  1.
         11   -1    0    0    0    0 -0.00000000000E+00 -0.00000000000E+00 -0.45593999997E+02  0.45594000000E+02  0.51100000000E-03 0. -1.
    9900012    2    1    2    0    0 -0.25468425290E+00 -0.81521290670E+00 -0.81456812360E+00  0.90007763846E+02  0.90000025528E+02 0.  0.
        -12    1    1    2    0    0  0.25468425290E+00  0.81521290670E+00  0.81456812360E+00  0.11802361543E+01  0.00000000000E+00 0.  1.
         11    1    3    3    0    0 -0.29884206880E+00  0.84309982933E+01 -0.23246236768E+01  0.87507093600E+01  0.51100000000E-03 0. -1.
        -11    1    3    3    0    0  0.23067975350E+02  0.53571472999E+01  0.32350945631E+02  0.40092570351E+02  0.51100000000E-03 0.  1.
         12    1    3    3    0    0 -0.23023817534E+02 -0.14603358500E+02 -0.30840890077E+02  0.41164484134E+02  0.00000000000E+00 0. -1.
</event>
<event>
 7    1  0.3752192E-015  0.9000787E+02  0.7816164E-02  0.1186339E+00
        -11   -1    0    0    0    0  0.00000000000E+00  0.00000000000E+00  0.45593999997E+02  0.45594000000E+02  0.51100000000E-03 0.  1.
         11   -1    0    0    0    0 -0.00000000000E+00 -0.00000000000E+00 -0.45593999997E+02  0.45594000000E+02  0.51100000000E-03 0. -1.
    9900012    2    1    2    0    0  0.48532542648E-01  0.59291482848E+00 -0.10192205586E+01  0.90007866978E+02  0.90000130022E+02 0.  0.
        -12    1    1    2    0    0 -0.48532542648E-01 -0.59291482848E+00  0.10192205586E+01  0.11801330216E+01  0.00000000000E+00 0.  1.
         11    1    3    3    0    0  0.70692250434E+01 -0.15435336686E+01 -0.32345553056E+02  0.33145003268E+02  0.51100000000E-03 0. -1.
        -11    1    3    3    0    0  0.15585576606E+02  0.29864373652E+01 -0.26052149832E+01  0.16081546929E+02  0.51100000000E-03 0.  1.
        -12    1    3    3    0    0 -0.22606269106E+02 -0.84998886807E+00  0.33931547480E+02  0.40781316781E+02  0.00000000000E+00 0.  1.
</event>
<event>
 7    1  0.3752192E-015  0.9000766E+02  0.7816164E-02  0.1186339E+00
        -11   -1    0    0    0    0  0.00000000000E+00  0.00000000000E+00  0.45593999997E+02  0.45594000000E+02  0.51100000000E-03 0.  1.
         11   -1    0    0    0    0 -0.00000000000E+00 -0.00000000000E+00 -0.45593999997E+02  0.45594000000E+02  0.51100000000E-03 0. -1.
    9900012    2    1    2    0    0 -0.91464349946E+00 -0.15910309097E+00 -0.72890825190E+00  0.90007663707E+02  0.89999924068E+02 0.  0.
        -12    1    1    2    0    0  0.91464349946E+00  0.15910309097E+00  0.72890825190E+00  0.11803362929E+01  0.00000000000E+00 0.  1.
         11    1    3    3    0    0 -0.26486014230E+01 -0.24497140898E+02 -0.21270079747E+02  0.32550595914E+02  0.51100000000E-03 0. -1.
        -11    1    3    3    0    0 -0.25429453551E+01  0.18504827240E+01 -0.14920914762E+02  0.15248755851E+02  0.51100000000E-03 0.  1.
        -12    1    3    3    0    0  0.42769032787E+01  0.22487555083E+02  0.35462086257E+02  0.42208311942E+02  0.00000000000E+00 0.  1.
</event>
<event>
 7    1  0.3752192E-015  0.9000770E+02  0.7816164E-02  0.1186339E+00
        -11   -1    0    0    0    0  0.00000000000E+00  0.00000000000E+00  0.45593999997E+02  0.45594000000E+02  0.51100000000E-03 0.  1.
         11   -1    0    0    0    0 -0.00000000000E+00 -0.00000000000E+00 -0.45593999997E+02  0.45594000000E+02  0.51100000000E-03 0. -1.
    9900012    2    1    2    0    0  0.26287928530E+00 -0.10884265995E+01  0.37327465046E+00  0.90007698367E+02  0.89999959185E+02 0.  0.
        -12    1    1    2    0    0 -0.26287928530E+00  0.10884265995E+01 -0.37327465046E+00  0.11803016334E+01  0.00000000000E+00 0.  1.
         11    1    3    3    0    0  0.15551735803E+02  0.12264757112E+02  0.10967122445E+02  0.22639755486E+02  0.51100000000E-03 0. -1.
        -11    1    3    3    0    0  0.11189291679E+00  0.24072497528E+02  0.38872847863E+01  0.24384598429E+02  0.51100000000E-03 0.  1.
        -12    1    3    3    0    0 -0.15400749435E+02 -0.37425681239E+02 -0.14481132581E+02  0.42983344451E+02  0.00000000000E+00 0.  1.
</event>
<event>
 7    1  0.3752192E-015  0.9000775E+02  0.7816164E-02  0.1186339E+00
        -11   -1    0    0    0    0  0.00000000000E+00  0.00000000000E+00  0.45593999997E+02  0.45594000000E+02  0.51100000000E-03 0.  1.
         11   -1    0    0    0    0 -0.00000000000E+00 -0.00000000000E+00 -0.45593999997E+02  0.45594000000E+02  0.51100000000E-03 0. -1.
    9900012    2    1    2    0    0 -0.43515077080E-01 -0.11735643551E+01 -0.11769422140E+00  0.90007746304E+02  0.90000007755E+02 0.  0.
        -12    1    1    2    0    0  0.43515077080E-01  0.11735643551E+01  0.11769422140E+00  0.11802536961E+01  0.00000000000E+00 0.  1.
         11    1    3    3    0    0  0.75272033364E+01 -0.10910828746E+02  0.13794471571E+02  0.19130928367E+02  0.51100000000E-03 0. -1.
        -11    1    3    3    0    0  0.29010834116E+02 -0.10086450433E+01 -0.15120736052E+02  0.32730452486E+02  0.51100000000E-03 0.  1.
         12    1    3    3    0    0 -0.36581552530E+02  0.10745909434E+02  0.12085702593E+01  0.38146365451E+02  0.00000000000E+00 0. -1.
</event>
<event>
 7    1  0.3752192E-015  0.9000814E+02  0.7816164E-02  0.1186338E+00
        -11   -1    0    0    0    0  0.00000000000E+00  0.00000000000E+00  0.45593999997E+02  0.45594000000E+02  0.51100000000E-03 0. -1.
         11   -1    0    0    0    0 -0.00000000000E+00 -0.00000000000E+00 -0.45593999997E+02  0.45594000000E+02  0.51100000000E-03 0.  1.
    9900012    2    1    2    0    0 -0.48270896441E+00  0.10759620322E+01 -0.37083667375E-01  0.90008136687E+02  0.90000403290E+02 0.  0.
        -12    1    1    2    0    0  0.48270896441E+00 -0.10759620322E+01  0.37083667375E-01  0.11798633130E+01  0.00000000000E+00 0.  1.
         11    1    3    3    0    0  0.30169437294E+01  0.13487918585E+01 -0.80603477402E+01  0.87115093353E+01  0.51100000000E-03 0. -1.
        -11    1    3    3    0    0  0.37210776706E+02  0.98932924946E+01  0.80502109760E+01  0.39336052629E+02  0.51100000000E-03 0.  1.
         12    1    3    3    0    0 -0.40710429399E+02 -0.10166122321E+02 -0.26946903138E-01  0.41960574723E+02  0.00000000000E+00 0. -1.
</event>
<event>
 7    1  0.3752192E-015  0.9000775E+02  0.7816164E-02  0.1186339E+00
        -11   -1    0    0    0    0  0.00000000000E+00  0.00000000000E+00  0.45593999997E+02  0.45594000000E+02  0.51100000000E-03 0.  1.
         11   -1    0    0    0    0 -0.00000000000E+00 -0.00000000000E+00 -0.45593999997E+02  0.45594000000E+02  0.51100000000E-03 0. -1.
    9900012    2    1    2    0    0 -0.49554829613E+00 -0.10411154860E+01 -0.25198468540E+00  0.90007751784E+02  0.90000013308E+02 0.  0.
        -12    1    1    2    0    0  0.49554829613E+00  0.10411154860E+01  0.25198468540E+00  0.11802482157E+01  0.00000000000E+00 0.  1.
         11    1    3    3    0    0 -0.20044147187E+02 -0.32629339736E+02 -0.20742499181E+02  0.43551038112E+02  0.51100000000E-03 0. -1.
        -11    1    3    3    0    0  0.60453994562E+01  0.25313660621E-02  0.77275386705E+01  0.98113054768E+01  0.51100000000E-03 0.  1.
        -12    1    3    3    0    0  0.13503199435E+02  0.31585692884E+02  0.12762975825E+02  0.36645408196E+02  0.00000000000E+00 0.  1.
</event>
<event>
 7    1  0.3752192E-015  0.9000781E+02  0.7816164E-02  0.1186339E+00
        -11   -1    0    0    0    0  0.00000000000E+00  0.00000000000E+00  0.45593999997E+02  0.45594000000E+02  0.51100000000E-03 0.  1.
         11   -1    0    0    0    0 -0.00000000000E+00 -0.00000000000E+00 -0.45593999997E+02  0.45594000000E+02  0.51100000000E-03 0. -1.
    9900012    2    1    2    0    0 -0.11044905323E+01  0.32867896890E+00  0.25479773658E+00  0.90007808877E+02  0.90000071154E+02 0.  0.
        -12    1    1    2    0    0  0.11044905323E+01 -0.32867896890E+00 -0.25479773658E+00  0.11801911231E+01  0.00000000000E+00 0.  1.
         11    1    3    3    0    0  0.80147507369E+01 -0.61761325281E+01 -0.27061964402E+01  0.10473984047E+02  0.51100000000E-03 0. -1.
        -11    1    3    3    0    0  0.25290911664E+02 -0.20969326573E+02 -0.86948362780E+01  0.33984453032E+02  0.51100000000E-03 0.  1.
         12    1    3    3    0    0 -0.34410152933E+02  0.27474138070E+02  0.11655830455E+02  0.45549371798E+02  0.00000000000E+00 0. -1.
</event>
<event>
 7    1  0.4342920E-015  0.9000777E+02  0.7816164E-02  0.1186339E+00
        -11   -1    0    0    0    0  0.00000000000E+00  0.00000000000E+00  0.45593999997E+02  0.45594000000E+02  0.51100000000E-03 0. -1.
         11   -1    0    0    0    0 -0.00000000000E+00 -0.00000000000E+00 -0.45593999997E+02  0.45594000000E+02  0.51100000000E-03 0.  1.
    9900012    2    1    2    0    0  0.10023950530E+01  0.26676955000E+00  0.56300437623E+00  0.90007773004E+02  0.90000034807E+02 0.  0.
        -12    1    1    2    0    0 -0.10023950530E+01 -0.26676955000E+00 -0.56300437623E+00  0.11802269962E+01  0.00000000000E+00 0.  1.
         11    1    3    3    0    0  0.13862204585E+02 -0.22050099857E+02  0.29566295876E+02  0.39402201357E+02  0.51100000000E-03 0. -1.
        -11    1    3    3    0    0  0.80551906056E+01  0.56266785298E+01  0.15985618568E+01  0.99549488819E+01  0.51100000000E-03 0.  1.
        -12    1    3    3    0    0 -0.20915000138E+02  0.16690190877E+02 -0.30601853357E+02  0.40650622765E+02  0.00000000000E+00 0.  1.
</event>
<event>
 7    1  0.3752192E-015  0.9000727E+02  0.7816164E-02  0.1186340E+00
        -11   -1    0    0    0    0  0.00000000000E+00  0.00000000000E+00  0.45593999997E+02  0.45594000000E+02  0.51100000000E-03 0. -1.
         11   -1    0    0    0    0 -0.00000000000E+00 -0.00000000000E+00 -0.45593999997E+02  0.45594000000E+02  0.51100000000E-03 0.  1.
    9900012    2    1    2    0    0 -0.11063605253E+01  0.54077769583E-01 -0.40884515814E+00  0.90007274638E+02  0.89999529862E+02 0.  0.
        -12    1    1    2    0    0  0.11063605253E+01 -0.54077769583E-01  0.40884515814E+00  0.11807253620E+01  0.00000000000E+00 0.  1.
         11    1    3    3    0    0  0.50872646787E+01 -0.35525943072E+01  0.64221333464E+01  0.89300047706E+01  0.51100000000E-03 0. -1.
        -11    1    3    3    0    0  0.83055585139E+01  0.40392205832E+02 -0.41812438872E+01  0.41448708000E+02  0.51100000000E-03 0.  1.
         12    1    3    3    0    0 -0.14499183718E+02 -0.36785533755E+02 -0.26497346174E+01  0.39628561867E+02  0.00000000000E+00 0. -1.
</event>
<event>
 7    1  0.3752192E-015  0.9000784E+02  0.7816164E-02  0.1186339E+00
        -11   -1    0    0    0    0  0.00000000000E+00  0.00000000000E+00  0.45593999997E+02  0.45594000000E+02  0.51100000000E-03 0.  1.
         11   -1    0    0    0    0 -0.00000000000E+00 -0.00000000000E+00 -0.45593999997E+02  0.45594000000E+02  0.51100000000E-03 0. -1.
    9900012    2    1    2    0    0 -0.84050033477E+00 -0.54943546498E+00 -0.62005402283E+00  0.90007835972E+02  0.90000098606E+02 0.  0.
        -12    1    1    2    0    0  0.84050033477E+00  0.54943546498E+00  0.62005402283E+00  0.11801640285E+01  0.00000000000E+00 0.  1.
         11    1    3    3    0    0 -0.27630138602E+02 -0.98537055312E+01 -0.19940851050E+02  0.35470517514E+02  0.51100000000E-03 0. -1.
        -11    1    3    3    0    0 -0.11379041586E+02 -0.46588080483E+00  0.64542567611E+01  0.13090342354E+02  0.51100000000E-03 0.  1.
        -12    1    3    3    0    0  0.38168679853E+02  0.97701508711E+01  0.12866540266E+02  0.41446976104E+02  0.00000000000E+00 0.  1.
</event>
<event>
 7    1  0.3752192E-015  0.9000750E+02  0.7816164E-02  0.1186340E+00
        -11   -1    0    0    0    0  0.00000000000E+00  0.00000000000E+00  0.45593999997E+02  0.45594000000E+02  0.51100000000E-03 0.  1.
         11   -1    0    0    0    0 -0.00000000000E+00 -0.00000000000E+00 -0.45593999997E+02  0.45594000000E+02  0.51100000000E-03 0. -1.
    9900012    2    1    2    0    0 -0.86826278588E+00 -0.76717557160E+00 -0.22613414083E+00  0.90007502108E+02  0.89999760336E+02 0.  0.
        -12    1    1    2    0    0  0.86826278588E+00  0.76717557160E+00  0.22613414083E+00  0.11804978918E+01  0.00000000000E+00 0.  1.
         11    1    3    3    0    0 -0.33202362005E+02  0.66746761907E+00  0.18126485413E+02  0.37834003613E+02  0.51100000000E-03 0. -1.
        -11    1    3    3    0    0  0.44391293391E+01 -0.40998918619E+00  0.10877709627E+02  0.11755786976E+02  0.51100000000E-03 0.  1.
        -12    1    3    3    0    0  0.27894969880E+02 -0.10246540045E+01 -0.29230329181E+02  0.40417711519E+02  0.00000000000E+00 0.  1.
</event>
<event>
 7    1  0.3752192E-015  0.9000771E+02  0.7816164E-02  0.1186339E+00
        -11   -1    0    0    0    0  0.00000000000E+00  0.00000000000E+00  0.45593999997E+02  0.45594000000E+02  0.51100000000E-03 0.  1.
         11   -1    0    0    0    0 -0.00000000000E+00 -0.00000000000E+00 -0.45593999997E+02  0.45594000000E+02  0.51100000000E-03 0. -1.
    9900012    2    1    2    0    0 -0.10844169161E+01 -0.45025878427E+00 -0.11995226432E+00  0.90007711236E+02  0.89999972224E+02 0.  0.
        -12    1    1    2    0    0  0.10844169161E+01  0.45025878427E+00  0.11995226432E+00  0.11802887641E+01  0.00000000000E+00 0.  1.
         11    1    3    3    0    0 -0.23438059104E+02 -0.18187526883E+02 -0.20401472692E+02  0.36004844631E+02  0.51100000000E-03 0. -1.
        -11    1    3    3    0    0 -0.56354810891E+01 -0.92810942339E+01  0.20899386353E+01  0.11057359587E+02  0.51100000000E-03 0.  1.
        -12    1    3    3    0    0  0.27989123276E+02  0.27018362332E+02  0.18191581792E+02  0.42945507018E+02  0.00000000000E+00 0.  1.
</event>
<event>
 7    1  0.3752192E-015  0.9000772E+02  0.7816164E-02  0.1186339E+00
        -11   -1    0    0    0    0  0.00000000000E+00  0.00000000000E+00  0.45593999997E+02  0.45594000000E+02  0.51100000000E-03 0.  1.
         11   -1    0    0    0    0 -0.00000000000E+00 -0.00000000000E+00 -0.45593999997E+02  0.45594000000E+02  0.51100000000E-03 0. -1.
    9900012    2    1    2    0    0  0.61539674822E+00  0.79301915126E+00 -0.62086393102E+00  0.90007718443E+02  0.89999979527E+02 0.  0.
        -12    1    1    2    0    0 -0.61539674822E+00 -0.79301915126E+00  0.62086393102E+00  0.11802815566E+01  0.00000000000E+00 0.  1.
         11    1    3    3    0    0 -0.91445084032E+01 -0.54651947824E+01 -0.11093668837E+02  0.15380503128E+02  0.51100000000E-03 0. -1.
        -11    1    3    3    0    0 -0.23637455527E+02  0.10308582976E+02 -0.17257684415E+02  0.31029403127E+02  0.51100000000E-03 0.  1.
         12    1    3    3    0    0  0.33397360678E+02 -0.40503690426E+01  0.27730489321E+02  0.43597812189E+02  0.00000000000E+00 0. -1.
</event>
<event>
 7    1  0.3752192E-015  0.9000791E+02  0.7816164E-02  0.1186339E+00
        -11   -1    0    0    0    0  0.00000000000E+00  0.00000000000E+00  0.45593999997E+02  0.45594000000E+02  0.51100000000E-03 0.  1.
         11   -1    0    0    0    0 -0.00000000000E+00 -0.00000000000E+00 -0.45593999997E+02  0.45594000000E+02  0.51100000000E-03 0. -1.
    9900012    2    1    2    0    0 -0.93135299930E+00  0.25187804158E+00 -0.67951553728E+00  0.90007914273E+02  0.90000177941E+02 0.  0.
        -12    1    1    2    0    0  0.93135299930E+00 -0.25187804158E+00  0.67951553728E+00  0.11800857268E+01  0.00000000000E+00 0.  1.
         11    1    3    3    0    0  0.20989572158E+02 -0.10100404386E+02 -0.15499916041E+02  0.27979058342E+02  0.51100000000E-03 0. -1.
        -11    1    3    3    0    0  0.12837253257E+02 -0.10967184856E+02 -0.36352369458E+01  0.17271049846E+02  0.51100000000E-03 0.  1.
        -12    1    3    3    0    0 -0.34758178414E+02  0.21319467284E+02  0.18455637450E+02  0.44757806086E+02  0.00000000000E+00 0.  1.
</event>
<event>
 7    1  0.3752192E-015  0.9000783E+02  0.7816164E-02  0.1186339E+00
        -11   -1    0    0    0    0  0.00000000000E+00  0.00000000000E+00  0.45593999997E+02  0.45594000000E+02  0.51100000000E-03 0. -1.
         11   -1    0    0    0    0 -0.00000000000E+00 -0.00000000000E+00 -0.45593999997E+02  0.45594000000E+02  0.51100000000E-03 0.  1.
    9900012    2    1    2    0    0  0.60171261064E+00  0.10137361135E+01  0.55512842079E-01  0.90007830246E+02  0.90000092805E+02 0.  0.
        -12    1    1    2    0    0 -0.60171261064E+00 -0.10137361135E+01 -0.55512842079E-01  0.11801697544E+01  0.00000000000E+00 0.  1.
         11    1    3    3    0    0  0.69988122545E+01  0.41342597159E+01 -0.54670746011E+00  0.81470464391E+01  0.51100000000E-03 0. -1.
        -11    1    3    3    0    0  0.17658495496E+02 -0.14045604982E+02 -0.32464528431E+02  0.39535390336E+02  0.51100000000E-03 0.  1.
         12    1    3    3    0    0 -0.24055595140E+02  0.10925081379E+02  0.33066748733E+02  0.42325393471E+02  0.00000000000E+00 0. -1.
</event>
<event>
 7    1  0.3752192E-015  0.9000785E+02  0.7816164E-02  0.1186339E+00
        -11   -1    0    0    0    0  0.00000000000E+00  0.00000000000E+00  0.45593999997E+02  0.45594000000E+02  0.51100000000E-03 0.  1.
         11   -1    0    0    0    0 -0.00000000000E+00 -0.00000000000E+00 -0.45593999997E+02  0.45594000000E+02  0.51100000000E-03 0. -1.
    9900012    2    1    2    0    0 -0.87649033258E+00  0.54222975664E+00 -0.57490472780E+00  0.90007845833E+02  0.90000108598E+02 0.  0.
        -12    1    1    2    0    0  0.87649033258E+00 -0.54222975664E+00  0.57490472780E+00  0.11801541671E+01  0.00000000000E+00 0.  1.
         11    1    3    3    0    0  0.19390801963E+01  0.59948410396E+01 -0.56359951423E+01  0.84535550275E+01  0.51100000000E-03 0. -1.
        -11    1    3    3    0    0  0.22646898561E+02 -0.89391401072E+01 -0.29649393018E+02  0.38365045900E+02  0.51100000000E-03 0.  1.
         12    1    3    3    0    0 -0.25462469089E+02  0.34865288243E+01  0.34710483433E+02  0.43189244906E+02  0.00000000000E+00 0. -1.
</event>
<event>
 7    1  0.3752192E-015  0.9000750E+02  0.7816164E-02  0.1186340E+00
        -11   -1    0    0    0    0  0.00000000000E+00  0.00000000000E+00  0.45593999997E+02  0.45594000000E+02  0.51100000000E-03 0.  1.
         11   -1    0    0    0    0 -0.00000000000E+00 -0.00000000000E+00 -0.45593999997E+02  0.45594000000E+02  0.51100000000E-03 0. -1.
    9900012    2    1    2    0    0  0.72006851321E+00 -0.29191013313E-01 -0.93500422462E+00  0.90007498548E+02  0.89999756728E+02 0.  0.
        -12    1    1    2    0    0 -0.72006851321E+00  0.29191013313E-01  0.93500422462E+00  0.11805014524E+01  0.00000000000E+00 0.  1.
         11    1    3    3    0    0  0.36350904024E+02  0.18684585173E+02  0.10572180534E+02  0.42216974642E+02  0.51100000000E-03 0. -1.
        -11    1    3    3    0    0 -0.11884353653E+01 -0.98223437706E+01  0.13098399406E+01  0.99803054410E+01  0.51100000000E-03 0.  1.
        -12    1    3    3    0    0 -0.34442400145E+02 -0.88914324157E+01 -0.12817024699E+02  0.37810218464E+02  0.00000000000E+00 0.  1.
</event>
<event>
 7    1  0.3752192E-015  0.9000742E+02  0.7816164E-02  0.1186340E+00
        -11   -1    0    0    0    0  0.00000000000E+00  0.00000000000E+00  0.45593999997E+02  0.45594000000E+02  0.51100000000E-03 0.  1.
         11   -1    0    0    0    0 -0.00000000000E+00 -0.00000000000E+00 -0.45593999997E+02  0.45594000000E+02  0.51100000000E-03 0. -1.
    9900012    2    1    2    0    0 -0.42511129511E+00  0.82499166394E+00 -0.72968373745E+00  0.90007419967E+02  0.89999677109E+02 0.  0.
        -12    1    1    2    0    0  0.42511129511E+00 -0.82499166394E+00  0.72968373745E+00  0.11805800335E+01  0.00000000000E+00 0.  1.
         11    1    3    3    0    0 -0.68685261016E+01 -0.12660883924E+02  0.11326633889E+02  0.18323953396E+02  0.51100000000E-03 0. -1.
        -11    1    3    3    0    0  0.95037039067E+01  0.24189975387E+02  0.23121391091E+02  0.34786118258E+02  0.51100000000E-03 0.  1.
         12    1    3    3    0    0 -0.30602891002E+01 -0.10704099800E+02 -0.35177708718E+02  0.36897348313E+02  0.00000000000E+00 0. -1.
</event>
<event>
 7    1  0.3752192E-015  0.9000778E+02  0.7816164E-02  0.1186339E+00
        -11   -1    0    0    0    0  0.00000000000E+00  0.00000000000E+00  0.45593999997E+02  0.45594000000E+02  0.51100000000E-03 0.  1.
         11   -1    0    0    0    0 -0.00000000000E+00 -0.00000000000E+00 -0.45593999997E+02  0.45594000000E+02  0.51100000000E-03 0. -1.
    9900012    2    1    2    0    0  0.66670658214E+00  0.92399012637E+00 -0.30767872598E+00  0.90007778996E+02  0.90000040879E+02 0.  0.
        -12    1    1    2    0    0 -0.66670658214E+00 -0.92399012637E+00  0.30767872598E+00  0.11802210042E+01  0.00000000000E+00 0.  1.
         11    1    3    3    0    0  0.40488418280E+00 -0.91498320731E+01 -0.18361306364E+01  0.93410242555E+01  0.51100000000E-03 0. -1.
        -11    1    3    3    0    0  0.28982178605E+02 -0.18183066552E+02  0.16112626391E+02  0.37818081858E+02  0.51100000000E-03 0.  1.
         12    1    3    3    0    0 -0.28720356206E+02  0.28256888751E+02 -0.14584174481E+02  0.42848672882E+02  0.00000000000E+00 0. -1.
</event>
<event>
 7    1  0.3752192E-015  0.9000779E+02  0.7816164E-02  0.1186339E+00
        -11   -1    0    0    0    0  0.00000000000E+00  0.00000000000E+00  0.45593999997E+02  0.45594000000E+02  0.51100000000E-03 0. -1.
         11   -1    0    0    0    0 -0.00000000000E+00 -0.00000000000E+00 -0.45593999997E+02  0.45594000000E+02  0.51100000000E-03 0.  1.
    9900012    2    1    2    0    0 -0.26521593720E+00  0.11392328793E+01 -0.15715540196E+00  0.90007792871E+02  0.90000054937E+02 0.  0.
        -12    1    1    2    0    0  0.26521593720E+00 -0.11392328793E+01  0.15715540196E+00  0.11802071289E+01  0.00000000000E+00 0.  1.
         11    1    3    3    0    0 -0.33170695100E+02  0.20842846580E+01  0.18295075544E+02  0.37938753872E+02  0.51100000000E-03 0. -1.
        -11    1    3    3    0    0 -0.49314716331E+01 -0.82678960775E+01 -0.74200889788E+00  0.96554697184E+01  0.51100000000E-03 0.  1.
        -12    1    3    3    0    0  0.37836950796E+02  0.73228442989E+01 -0.17710222048E+02  0.42413569281E+02  0.00000000000E+00 0.  1.
</event>
<event>
 7    1  0.3752192E-015  0.9000768E+02  0.7816164E-02  0.1186339E+00
        -11   -1    0    0    0    0  0.00000000000E+00  0.00000000000E+00  0.45593999997E+02  0.45594000000E+02  0.51100000000E-03 0. -1.
         11   -1    0    0    0    0 -0.00000000000E+00 -0.00000000000E+00 -0.45593999997E+02  0.45594000000E+02  0.51100000000E-03 0.  1.
    9900012    2    1    2    0    0  0.95555895129E+00 -0.34021970511E+00 -0.60357893626E+00  0.90007682293E+02  0.89999942899E+02 0.  0.
        -12    1    1    2    0    0 -0.95555895129E+00  0.34021970511E+00  0.60357893626E+00  0.11803177070E+01  0.00000000000E+00 0.  1.
         11    1    3    3    0    0 -0.57690266171E+01 -0.43401976364E+00 -0.41577797757E+01  0.71244069359E+01  0.51100000000E-03 0. -1.
        -11    1    3    3    0    0  0.18749700809E+02 -0.16726541590E+02 -0.32645046502E+02  0.41194994057E+02  0.51100000000E-03 0.  1.
         12    1    3    3    0    0 -0.12025115240E+02  0.16820341649E+02  0.36199247341E+02  0.41688281300E+02  0.00000000000E+00 0. -1.
</event>
<event>
 7    1  0.3752192E-015  0.9000772E+02  0.7816164E-02  0.1186339E+00
        -11   -1    0    0    0    0  0.00000000000E+00  0.00000000000E+00  0.45593999997E+02  0.45594000000E+02  0.51100000000E-03 0.  1.
         11   -1    0    0    0    0 -0.00000000000E+00 -0.00000000000E+00 -0.45593999997E+02  0.45594000000E+02  0.51100000000E-03 0. -1.
    9900012    2    1    2    0    0  0.77803002930E+00  0.65482340060E-01 -0.88512742699E+00  0.90007716464E+02  0.89999977521E+02 0.  0.
        -12    1    1    2    0    0 -0.77803002930E+00 -0.65482340060E-01  0.88512742699E+00  0.11802835360E+01  0.00000000000E+00 0.  1.
         11    1    3    3    0    0 -0.19174262621E+02  0.33966407458E+02 -0.73257476024E+01  0.39686720208E+02  0.51100000000E-03 0. -1.
        -11    1    3    3    0    0  0.66703512022E+01  0.52816444863E+01  0.17170047814E+01  0.86797153940E+01  0.51100000000E-03 0.  1.
        -12    1    3    3    0    0  0.13281941448E+02 -0.39182569605E+02  0.47236153941E+01  0.41641280862E+02  0.00000000000E+00 0.  1.
</event>
<event>
 7    1  0.3752192E-015  0.9000776E+02  0.7816164E-02  0.1186339E+00
        -11   -1    0    0    0    0  0.00000000000E+00  0.00000000000E+00  0.45593999997E+02  0.45594000000E+02  0.51100000000E-03 0.  1.
         11   -1    0    0    0    0 -0.00000000000E+00 -0.00000000000E+00 -0.45593999997E+02  0.45594000000E+02  0.51100000000E-03 0. -1.
    9900012    2    1    2    0    0 -0.30502682863E+00 -0.11286798116E+01 -0.16127153932E+00  0.90007759350E+02  0.90000020973E+02 0.  0.
        -12    1    1    2    0    0  0.30502682863E+00  0.11286798116E+01  0.16127153932E+00  0.11802406503E+01  0.00000000000E+00 0.  1.
         11    1    3    3    0    0  0.73168403880E+00 -0.31118027645E+01 -0.98207919640E+01  0.10327953962E+02  0.51100000000E-03 0. -1.
        -11    1    3    3    0    0 -0.35629066089E+02 -0.12208921418E+02 -0.77227828148E+01  0.38446449605E+02  0.51100000000E-03 0.  1.
         12    1    3    3    0    0  0.34592355222E+02  0.14192044371E+02  0.17382303240E+02  0.41233355783E+02  0.00000000000E+00 0. -1.
</event>
<event>
 7    1  0.3752192E-015  0.9000751E+02  0.7816164E-02  0.1186340E+00
        -11   -1    0    0    0    0  0.00000000000E+00  0.00000000000E+00  0.45593999997E+02  0.45594000000E+02  0.51100000000E-03 0. -1.
         11   -1    0    0    0    0 -0.00000000000E+00 -0.00000000000E+00 -0.45593999997E+02  0.45594000000E+02  0.51100000000E-03 0.  1.
    9900012    2    1    2    0    0 -0.21674391578E+00  0.11560396663E+01 -0.10079478090E+00  0.90007506365E+02  0.89999764648E+02 0.  0.
        -12    1    1    2    0    0  0.21674391578E+00 -0.11560396663E+01  0.10079478090E+00  0.11804936353E+01  0.00000000000E+00 0.  1.
         11    1    3    3    0    0  0.62658368967E+01 -0.37550841694E+02  0.16743707128E+02  0.41589399522E+02  0.51100000000E-03 0. -1.
        -11    1    3    3    0    0  0.78427809367E+01  0.69491207945E+01 -0.27297859102E+01  0.10828260433E+02  0.51100000000E-03 0.  1.
        -12    1    3    3    0    0 -0.14325361749E+02  0.31757760565E+02 -0.14114715999E+02  0.37589846410E+02  0.00000000000E+00 0.  1.
</event>
<event>
 7    1  0.3752192E-015  0.9000775E+02  0.7816164E-02  0.1186339E+00
        -11   -1    0    0    0    0  0.00000000000E+00  0.00000000000E+00  0.45593999997E+02  0.45594000000E+02  0.51100000000E-03 0.  1.
         11   -1    0    0    0    0 -0.00000000000E+00 -0.00000000000E+00 -0.45593999997E+02  0.45594000000E+02  0.51100000000E-03 0. -1.
    9900012    2    1    2    0    0  0.52063714589E+00 -0.31812030581E+00 -0.10103081883E+01  0.90007751635E+02  0.90000013157E+02 0.  0.
        -12    1    1    2    0    0 -0.52063714589E+00  0.31812030581E+00  0.10103081883E+01  0.11802483646E+01  0.00000000000E+00 0.  1.
         11    1    3    3    0    0 -0.25736448470E+01 -0.90778414343E+01  0.21012149200E+01  0.96667449178E+01  0.51100000000E-03 0. -1.
        -11    1    3    3    0    0 -0.24253989466E+02 -0.26221260608E+02 -0.39044576086E+01  0.35931258012E+02  0.51100000000E-03 0.  1.
         12    1    3    3    0    0  0.27348271458E+02  0.34980981736E+02  0.79293450023E+00  0.44409748706E+02  0.00000000000E+00 0. -1.
</event>
<event>
 7    1  0.4011548E-015  0.9000771E+02  0.7816164E-02  0.1186339E+00
        -11   -1    0    0    0    0  0.00000000000E+00  0.00000000000E+00  0.45593999997E+02  0.45594000000E+02  0.51100000000E-03 0. -1.
         11   -1    0    0    0    0 -0.00000000000E+00 -0.00000000000E+00 -0.45593999997E+02  0.45594000000E+02  0.51100000000E-03 0.  1.
    9900012    2    1    2    0    0  0.48788235069E+00 -0.32094274898E+00  0.10256909834E+01  0.90007713836E+02  0.89999974858E+02 0.  0.
        -12    1    1    2    0    0 -0.48788235069E+00  0.32094274898E+00 -0.10256909834E+01  0.11802861643E+01  0.00000000000E+00 0.  1.
         11    1    3    3    0    0  0.99785022367E+01  0.64486980778E+00  0.37948086402E+02  0.39243389581E+02  0.51100000000E-03 0. -1.
        -11    1    3    3    0    0 -0.59780741605E+01  0.30973925416E+01  0.50709688040E+01  0.84288751383E+01  0.51100000000E-03 0.  1.
        -12    1    3    3    0    0 -0.35125457255E+01 -0.40632050983E+01 -0.41993364223E+02  0.42335449116E+02  0.00000000000E+00 0.  1.
</event>
<event>
 7    1  0.3752192E-015  0.9000792E+02  0.7816164E-02  0.1186339E+00
        -11   -1    0    0    0    0  0.00000000000E+00  0.00000000000E+00  0.45593999997E+02  0.45594000000E+02  0.51100000000E-03 0. -1.
         11   -1    0    0    0    0 -0.00000000000E+00 -0.00000000000E+00 -0.45593999997E+02  0.45594000000E+02  0.51100000000E-03 0.  1.
    9900012    2    1    2    0    0  0.27514108746E+00 -0.95035871187E+00  0.64320002825E+00  0.90007919250E+02  0.90000182984E+02 0.  0.
        -12    1    1    2    0    0 -0.27514108746E+00  0.95035871187E+00 -0.64320002825E+00  0.11800807496E+01  0.00000000000E+00 0.  1.
         11    1    3    3    0    0 -0.22224178928E+01 -0.17093567728E-01 -0.90129376486E+01  0.92829132711E+01  0.51100000000E-03 0. -1.
        -11    1    3    3    0    0  0.36258986478E+02 -0.18614411018E+02  0.12155722869E+02  0.42532011435E+02  0.51100000000E-03 0.  1.
         12    1    3    3    0    0 -0.33761427498E+02  0.17681145874E+02 -0.24995851924E+01  0.38192994544E+02  0.00000000000E+00 0. -1.
</event>
<event>
 7    1  0.3752192E-015  0.9000773E+02  0.7816164E-02  0.1186339E+00
        -11   -1    0    0    0    0  0.00000000000E+00  0.00000000000E+00  0.45593999997E+02  0.45594000000E+02  0.51100000000E-03 0. -1.
         11   -1    0    0    0    0 -0.00000000000E+00 -0.00000000000E+00 -0.45593999997E+02  0.45594000000E+02  0.51100000000E-03 0.  1.
    9900012    2    1    2    0    0 -0.63169622632E+00  0.83593495038E+00  0.54333576790E+00  0.90007728370E+02  0.89999989585E+02 0.  0.
        -12    1    1    2    0    0  0.63169622632E+00 -0.83593495038E+00 -0.54333576790E+00  0.11802716299E+01  0.00000000000E+00 0.  1.
         11    1    3    3    0    0  0.76290919739E+01  0.62752373502E+01 -0.14122624496E+01  0.99787841762E+01  0.51100000000E-03 0. -1.
        -11    1    3    3    0    0 -0.17120434717E+02  0.60935698842E+01 -0.35482500322E+02  0.39865382328E+02  0.51100000000E-03 0.  1.
         12    1    3    3    0    0  0.88596465170E+01 -0.11532872284E+02  0.37438098539E+02  0.40163561866E+02  0.00000000000E+00 0. -1.
</event>
<event>
 7    1  0.3752192E-015  0.9000787E+02  0.7816164E-02  0.1186339E+00
        -11   -1    0    0    0    0  0.00000000000E+00  0.00000000000E+00  0.45593999997E+02  0.45594000000E+02  0.51100000000E-03 0. -1.
         11   -1    0    0    0    0 -0.00000000000E+00 -0.00000000000E+00 -0.45593999997E+02  0.45594000000E+02  0.51100000000E-03 0.  1.
    9900012    2    1    2    0    0  0.11608155054E+01  0.20530941651E+00 -0.55350782346E-01  0.90007869370E+02  0.90000132446E+02 0.  0.
        -12    1    1    2    0    0 -0.11608155054E+01 -0.20530941651E+00  0.55350782346E-01  0.11801306297E+01  0.00000000000E+00 0.  1.
         11    1    3    3    0    0  0.46806089163E+00  0.25501383295E+02  0.36285638623E+02  0.44352984133E+02  0.51100000000E-03 0. -1.
        -11    1    3    3    0    0 -0.41511634449E+01 -0.39565530921E+01 -0.68899984622E+01  0.89642930222E+01  0.51100000000E-03 0.  1.
        -12    1    3    3    0    0  0.48439180587E+01 -0.21339520786E+02 -0.29450990944E+02  0.36690592215E+02  0.00000000000E+00 0.  1.
</event>
<event>
 7    1  0.3752192E-015  0.9000773E+02  0.7816164E-02  0.1186339E+00
        -11   -1    0    0    0    0  0.00000000000E+00  0.00000000000E+00  0.45593999997E+02  0.45594000000E+02  0.51100000000E-03 0.  1.
         11   -1    0    0    0    0 -0.00000000000E+00 -0.00000000000E+00 -0.45593999997E+02  0.45594000000E+02  0.51100000000E-03 0. -1.
    9900012    2    1    2    0    0 -0.65706385632E+00 -0.98016190439E+00 -0.24162936046E-01  0.90007731337E+02  0.89999992590E+02 0.  0.
        -12    1    1    2    0    0  0.65706385632E+00  0.98016190439E+00  0.24162936046E-01  0.11802686633E+01  0.00000000000E+00 0.  1.
         11    1    3    3    0    0 -0.17612379765E+01  0.38195085703E+02 -0.18051308953E+01  0.38278257914E+02  0.51100000000E-03 0. -1.
        -11    1    3    3    0    0 -0.64740089355E+01  0.53712561012E+00  0.85497829279E+01  0.10737787668E+02  0.51100000000E-03 0.  1.
        -12    1    3    3    0    0  0.75781830557E+01 -0.39712373218E+02 -0.67688149686E+01  0.40991685756E+02  0.00000000000E+00 0.  1.
</event>
<event>
 7    1  0.3752192E-015  0.9000743E+02  0.7816164E-02  0.1186340E+00
        -11   -1    0    0    0    0  0.00000000000E+00  0.00000000000E+00  0.45593999997E+02  0.45594000000E+02  0.51100000000E-03 0.  1.
         11   -1    0    0    0    0 -0.00000000000E+00 -0.00000000000E+00 -0.45593999997E+02  0.45594000000E+02  0.51100000000E-03 0. -1.
    9900012    2    1    2    0    0  0.11717438385E+01  0.34512370719E-01 -0.13992588312E+00  0.90007426419E+02  0.89999683647E+02 0.  0.
        -12    1    1    2    0    0 -0.11717438385E+01 -0.34512370719E-01  0.13992588312E+00  0.11805735807E+01  0.00000000000E+00 0.  1.
         11    1    3    3    0    0 -0.12003364299E+02  0.84848541198E+01 -0.40651371659E+02  0.43227393190E+02  0.51100000000E-03 0. -1.
        -11    1    3    3    0    0  0.78942477008E+01  0.15935161985E+01  0.49525739809E+01  0.94544396943E+01  0.51100000000E-03 0.  1.
        -12    1    3    3    0    0  0.52808604370E+01 -0.10043857948E+02  0.35558871795E+02  0.37325593535E+02  0.00000000000E+00 0.  1.
</event>
<event>
 7    1  0.3752192E-015  0.9000771E+02  0.7816164E-02  0.1186339E+00
        -11   -1    0    0    0    0  0.00000000000E+00  0.00000000000E+00  0.45593999997E+02  0.45594000000E+02  0.51100000000E-03 0.  1.
         11   -1    0    0    0    0 -0.00000000000E+00 -0.00000000000E+00 -0.45593999997E+02  0.45594000000E+02  0.51100000000E-03 0. -1.
    9900012    2    1    2    0    0 -0.10105350633E+01 -0.24899403233E+00 -0.55669369480E+00  0.90007708929E+02  0.89999969887E+02 0.  0.
        -12    1    1    2    0    0  0.10105350633E+01  0.24899403233E+00  0.55669369480E+00  0.11802910710E+01  0.00000000000E+00 0.  1.
         11    1    3    3    0    0 -0.24979880172E+01  0.74918133969E+01 -0.79230015650E+01  0.11186651249E+02  0.51100000000E-03 0. -1.
        -11    1    3    3    0    0 -0.32644524937E+02 -0.41682940145E+01  0.23953830356E+02  0.40704123530E+02  0.51100000000E-03 0.  1.
         12    1    3    3    0    0  0.34131977890E+02 -0.35725134147E+01 -0.16587522486E+02  0.38116934150E+02  0.00000000000E+00 0. -1.
</event>
<event>
 7    1  0.3752192E-015  0.9000793E+02  0.7816164E-02  0.1186339E+00
        -11   -1    0    0    0    0  0.00000000000E+00  0.00000000000E+00  0.45593999997E+02  0.45594000000E+02  0.51100000000E-03 0.  1.
         11   -1    0    0    0    0 -0.00000000000E+00 -0.00000000000E+00 -0.45593999997E+02  0.45594000000E+02  0.51100000000E-03 0. -1.
    9900012    2    1    2    0    0 -0.43504568423E-01 -0.11698750260E+01  0.14850630404E+00  0.90007934601E+02  0.90000198537E+02 0.  0.
        -12    1    1    2    0    0  0.43504568423E-01  0.11698750260E+01 -0.14850630404E+00  0.11800653992E+01  0.00000000000E+00 0.  1.
         11    1    3    3    0    0 -0.19537753030E+01 -0.15281639241E+01  0.99487834797E+01  0.10253331941E+02  0.51100000000E-03 0. -1.
        -11    1    3    3    0    0  0.77658650140E+01 -0.37955474800E+02 -0.12998425014E+02  0.40864235951E+02  0.51100000000E-03 0.  1.
         12    1    3    3    0    0 -0.58555942795E+01  0.38313763699E+02  0.31981478388E+01  0.38890366708E+02  0.00000000000E+00 0. -1.
</event>
<event>
 7    1  0.3752192E-015  0.9000661E+02  0.7816164E-02  0.1186341E+00
        -11   -1    0    0    0    0  0.00000000000E+00  0.00000000000E+00  0.45593999997E+02  0.45594000000E+02  0.51100000000E-03 0.  1.
         11   -1    0    0    0    0 -0.00000000000E+00 -0.00000000000E+00 -0.45593999997E+02  0.45594000000E+02  0.51100000000E-03 0. -1.
    9900012    2    1    2    0    0 -0.94249905554E+00  0.55424830406E+00  0.44741631481E+00  0.90006612252E+02  0.89998858727E+02 0.  0.
        -12    1    1    2    0    0  0.94249905554E+00 -0.55424830406E+00 -0.44741631481E+00  0.11813877480E+01  0.00000000000E+00 0.  1.
         11    1    3    3    0    0  0.66592928000E+01  0.53317003860E+01 -0.32432435353E+01  0.91264362427E+01  0.51100000000E-03 0. -1.
        -11    1    3    3    0    0  0.20662695282E+01 -0.33958150541E+01  0.41571256780E+02  0.41760871880E+02  0.51100000000E-03 0.  1.
         12    1    3    3    0    0 -0.96680613837E+01 -0.13816370278E+01 -0.37880596930E+02  0.39119304129E+02  0.00000000000E+00 0. -1.
</event>
<event>
 7    1  0.3752192E-015  0.9000739E+02  0.7816164E-02  0.1186340E+00
        -11   -1    0    0    0    0  0.00000000000E+00  0.00000000000E+00  0.45593999997E+02  0.45594000000E+02  0.51100000000E-03 0.  1.
         11   -1    0    0    0    0 -0.00000000000E+00 -0.00000000000E+00 -0.45593999997E+02  0.45594000000E+02  0.51100000000E-03 0. -1.
    9900012    2    1    2    0    0  0.32590766165E+00 -0.79824524548E+00 -0.80649241601E+00  0.90007389441E+02  0.89999646181E+02 0.  0.
        -12    1    1    2    0    0 -0.32590766165E+00  0.79824524548E+00  0.80649241601E+00  0.11806105594E+01  0.00000000000E+00 0.  1.
         11    1    3    3    0    0  0.23941280583E+02 -0.24324426511E+02  0.27391245958E+02  0.43762346788E+02  0.51100000000E-03 0. -1.
        -11    1    3    3    0    0 -0.65278308483E+00  0.85932948921E+01 -0.32968737159E+01  0.92271457894E+01  0.51100000000E-03 0.  1.
        -12    1    3    3    0    0 -0.22962589837E+02  0.14932886374E+02 -0.24900864658E+02  0.37017896863E+02  0.00000000000E+00 0.  1.
</event>
<event>
 7    1  0.3752192E-015  0.9000768E+02  0.7816164E-02  0.1186339E+00
        -11   -1    0    0    0    0  0.00000000000E+00  0.00000000000E+00  0.45593999997E+02  0.45594000000E+02  0.51100000000E-03 0. -1.
         11   -1    0    0    0    0 -0.00000000000E+00 -0.00000000000E+00 -0.45593999997E+02  0.45594000000E+02  0.51100000000E-03 0.  1.
    9900012    2    1    2    0    0  0.31472286408E-01 -0.11572096767E+01 -0.23025985826E+00  0.90007684643E+02  0.89999945280E+02 0.  0.
        -12    1    1    2    0    0 -0.31472286408E-01  0.11572096767E+01  0.23025985826E+00  0.11803153574E+01  0.00000000000E+00 0.  1.
         11    1    3    3    0    0  0.16659926315E+02 -0.18099554515E+02  0.28853102332E+02  0.37916335964E+02  0.51100000000E-03 0. -1.
        -11    1    3    3    0    0  0.26038539814E+01  0.46499693500E+00  0.72983509355E+01  0.77628734592E+01  0.51100000000E-03 0.  1.
        -12    1    3    3    0    0 -0.19232308010E+02  0.16477347904E+02 -0.36381713126E+02  0.44328475220E+02  0.00000000000E+00 0.  1.
</event>
<event>
 7    1  0.3752192E-015  0.9000775E+02  0.7816164E-02  0.1186339E+00
        -11   -1    0    0    0    0  0.00000000000E+00  0.00000000000E+00  0.45593999997E+02  0.45594000000E+02  0.51100000000E-03 0. -1.
         11   -1    0    0    0    0 -0.00000000000E+00 -0.00000000000E+00 -0.45593999997E+02  0.45594000000E+02  0.51100000000E-03 0.  1.
    9900012    2    1    2    0    0  0.57428465189E+00  0.88691279231E+00 -0.52590760092E+00  0.90007747499E+02  0.90000008965E+02 0.  0.
        -12    1    1    2    0    0 -0.57428465189E+00 -0.88691279231E+00  0.52590760092E+00  0.11802525015E+01  0.00000000000E+00 0.  1.
         11    1    3    3    0    0 -0.32966928293E+02  0.18782609200E+02  0.24294588065E+01  0.38019824300E+02  0.51100000000E-03 0. -1.
        -11    1    3    3    0    0  0.13589155032E+01  0.68936982647E+01  0.72569097421E+01  0.10101112136E+02  0.51100000000E-03 0.  1.
        -12    1    3    3    0    0  0.32182297442E+02 -0.24789394673E+02 -0.10212276149E+02  0.41886811063E+02  0.00000000000E+00 0.  1.
</event>
<event>
 7    1  0.3752192E-015  0.9000777E+02  0.7816164E-02  0.1186339E+00
        -11   -1    0    0    0    0  0.00000000000E+00  0.00000000000E+00  0.45593999997E+02  0.45594000000E+02  0.51100000000E-03 0. -1.
         11   -1    0    0    0    0 -0.00000000000E+00 -0.00000000000E+00 -0.45593999997E+02  0.45594000000E+02  0.51100000000E-03 0.  1.
    9900012    2    1    2    0    0  0.80557663866E+00  0.10465653115E+00 -0.85617851467E+00  0.90007767667E+02  0.90000029400E+02 0.  0.
        -12    1    1    2    0    0 -0.80557663866E+00 -0.10465653115E+00  0.85617851467E+00  0.11802323327E+01  0.00000000000E+00 0.  1.
         11    1    3    3    0    0  0.27210415402E+02  0.17100426404E+02 -0.20776212679E+02  0.38268555016E+02  0.51100000000E-03 0. -1.
        -11    1    3    3    0    0  0.13517952707E+01 -0.67776785196E+01 -0.83398077497E+01  0.10831282017E+02  0.51100000000E-03 0.  1.
        -12    1    3    3    0    0 -0.27756634034E+02 -0.10218091353E+02  0.28259841914E+02  0.40907930634E+02  0.00000000000E+00 0.  1.
</event>
<event>
 7    1  0.3752192E-015  0.9000767E+02  0.7816164E-02  0.1186339E+00
        -11   -1    0    0    0    0  0.00000000000E+00  0.00000000000E+00  0.45593999997E+02  0.45594000000E+02  0.51100000000E-03 0.  1.
         11   -1    0    0    0    0 -0.00000000000E+00 -0.00000000000E+00 -0.45593999997E+02  0.45594000000E+02  0.51100000000E-03 0. -1.
    9900012    2    1    2    0    0 -0.78288679955E-01  0.22291576354E+00 -0.11564459401E+01  0.90007666247E+02  0.89999926642E+02 0.  0.
        -12    1    1    2    0    0  0.78288679955E-01 -0.22291576354E+00  0.11564459401E+01  0.11803337526E+01  0.00000000000E+00 0.  1.
         11    1    3    3    0    0  0.27633240949E+01  0.17376521798E+01  0.10045862548E+02  0.10562894951E+02  0.51100000000E-03 0. -1.
        -11    1    3    3    0    0 -0.18098211831E+02  0.28800434584E+02  0.14395570342E+02  0.36935656884E+02  0.51100000000E-03 0.  1.
         12    1    3    3    0    0  0.15256599056E+02 -0.30315171000E+02 -0.25597878830E+02  0.42509114413E+02  0.00000000000E+00 0. -1.
</event>
<event>
 7    1  0.3752192E-015  0.9000810E+02  0.7816164E-02  0.1186338E+00
        -11   -1    0    0    0    0  0.00000000000E+00  0.00000000000E+00  0.45593999997E+02  0.45594000000E+02  0.51100000000E-03 0. -1.
         11   -1    0    0    0    0 -0.00000000000E+00 -0.00000000000E+00 -0.45593999997E+02  0.45594000000E+02  0.51100000000E-03 0.  1.
    9900012    2    1    2    0    0  0.90143912665E+00 -0.25747424000E+00  0.71644115641E+00  0.90008096015E+02  0.90000362082E+02 0.  0.
        -12    1    1    2    0    0 -0.90143912665E+00  0.25747424000E+00 -0.71644115641E+00  0.11799039850E+01  0.00000000000E+00 0.  1.
         11    1    3    3    0    0  0.22220985733E+02  0.43516022734E+01  0.29558571788E+02  0.37234631940E+02  0.51100000000E-03 0. -1.
        -11    1    3    3    0    0  0.70791413852E+01 -0.11982967291E+02 -0.44317363143E+01  0.14606369667E+02  0.51100000000E-03 0.  1.
        -12    1    3    3    0    0 -0.28398687991E+02  0.73738907773E+01 -0.24410394317E+02  0.38167094408E+02  0.00000000000E+00 0.  1.
</event>
<event>
 7    1  0.3752192E-015  0.9000776E+02  0.7816164E-02  0.1186339E+00
        -11   -1    0    0    0    0  0.00000000000E+00  0.00000000000E+00  0.45593999997E+02  0.45594000000E+02  0.51100000000E-03 0.  1.
         11   -1    0    0    0    0 -0.00000000000E+00 -0.00000000000E+00 -0.45593999997E+02  0.45594000000E+02  0.51100000000E-03 0. -1.
    9900012    2    1    2    0    0 -0.13359927866E+00  0.99873268587E+00 -0.61453631899E+00  0.90007758231E+02  0.90000019840E+02 0.  0.
        -12    1    1    2    0    0  0.13359927866E+00 -0.99873268587E+00  0.61453631899E+00  0.11802417686E+01  0.00000000000E+00 0.  1.
         11    1    3    3    0    0 -0.32322846916E+02 -0.48416864870E+01 -0.19168120136E+02  0.37889644900E+02  0.51100000000E-03 0. -1.
        -11    1    3    3    0    0 -0.48481046921E+01 -0.63270767348E+01 -0.17533153226E+01  0.81615031701E+01  0.51100000000E-03 0.  1.
        -12    1    3    3    0    0  0.37037352330E+02  0.12167495908E+02  0.20306899139E+02  0.43956610162E+02  0.00000000000E+00 0.  1.
</event>
<event>
 7    1  0.3752192E-015  0.9000772E+02  0.7816164E-02  0.1186339E+00
        -11   -1    0    0    0    0  0.00000000000E+00  0.00000000000E+00  0.45593999997E+02  0.45594000000E+02  0.51100000000E-03 0.  1.
         11   -1    0    0    0    0 -0.00000000000E+00 -0.00000000000E+00 -0.45593999997E+02  0.45594000000E+02  0.51100000000E-03 0. -1.
    9900012    2    1    2    0    0  0.72164156705E+00  0.16551963855E+00 -0.91917845787E+00  0.90007723617E+02  0.89999984769E+02 0.  0.
        -12    1    1    2    0    0 -0.72164156705E+00 -0.16551963855E+00  0.91917845787E+00  0.11802763826E+01  0.00000000000E+00 0.  1.
         11    1    3    3    0    0 -0.10212396007E+02  0.21481522095E+02  0.26706626853E+01  0.23934938128E+02  0.51100000000E-03 0. -1.
        -11    1    3    3    0    0 -0.10728579004E+02 -0.11886668232E+02  0.24562244127E+02  0.29320626288E+02  0.51100000000E-03 0.  1.
         12    1    3    3    0    0  0.21662616578E+02 -0.94293342250E+01 -0.28152085270E+02  0.36752159202E+02  0.00000000000E+00 0. -1.
</event>
<event>
 7    1  0.3752192E-015  0.9000864E+02  0.7816164E-02  0.1186337E+00
        -11   -1    0    0    0    0  0.00000000000E+00  0.00000000000E+00  0.45593999997E+02  0.45594000000E+02  0.51100000000E-03 0. -1.
         11   -1    0    0    0    0 -0.00000000000E+00 -0.00000000000E+00 -0.45593999997E+02  0.45594000000E+02  0.51100000000E-03 0.  1.
    9900012    2    1    2    0    0 -0.14626176956E+00  0.48009112946E-02  0.11702477458E+01  0.90008637740E+02  0.90000910953E+02 0.  0.
        -12    1    1    2    0    0  0.14626176956E+00 -0.48009112946E-02 -0.11702477458E+01  0.11793622601E+01  0.00000000000E+00 0.  1.
         11    1    3    3    0    0 -0.67466649457E+00 -0.39993631857E+01  0.91559046308E+01  0.10014023699E+02  0.51100000000E-03 0. -1.
        -11    1    3    3    0    0 -0.68426671923E+01 -0.26502483514E+02  0.23103434378E+02  0.35818604203E+02  0.51100000000E-03 0.  1.
         12    1    3    3    0    0  0.73710719173E+01  0.30506647611E+02 -0.31089091263E+02  0.44176009838E+02  0.00000000000E+00 0. -1.
</event>
<event>
 7    1  0.3752192E-015  0.9000764E+02  0.7816164E-02  0.1186339E+00
        -11   -1    0    0    0    0  0.00000000000E+00  0.00000000000E+00  0.45593999997E+02  0.45594000000E+02  0.51100000000E-03 0.  1.
         11   -1    0    0    0    0 -0.00000000000E+00 -0.00000000000E+00 -0.45593999997E+02  0.45594000000E+02  0.51100000000E-03 0. -1.
    9900012    2    1    2    0    0 -0.61566977753E-02 -0.11609994298E+01 -0.21282246035E+00  0.90007639470E+02  0.89999899511E+02 0.  0.
        -12    1    1    2    0    0  0.61566977753E-02  0.11609994298E+01  0.21282246035E+00  0.11803605299E+01  0.00000000000E+00 0.  1.
         11    1    3    3    0    0 -0.93119305026E+01  0.24678905847E+01  0.53892763450E+00  0.96484701834E+01  0.51100000000E-03 0. -1.
        -11    1    3    3    0    0  0.17279718793E+02  0.77632335066E+01  0.36211280215E+02  0.40867019602E+02  0.51100000000E-03 0.  1.
         12    1    3    3    0    0 -0.79739449885E+01 -0.11392123521E+02 -0.36963030310E+02  0.39492149685E+02  0.00000000000E+00 0. -1.
</event>
<event>
 7    1  0.3752192E-015  0.9000775E+02  0.7816164E-02  0.1186339E+00
        -11   -1    0    0    0    0  0.00000000000E+00  0.00000000000E+00  0.45593999997E+02  0.45594000000E+02  0.51100000000E-03 0.  1.
         11   -1    0    0    0    0 -0.00000000000E+00 -0.00000000000E+00 -0.45593999997E+02  0.45594000000E+02  0.51100000000E-03 0. -1.
    9900012    2    1    2    0    0 -0.76099578290E+00 -0.37004438916E+00  0.82276633708E+00  0.90007749231E+02  0.90000010721E+02 0.  0.
        -12    1    1    2    0    0  0.76099578290E+00  0.37004438916E+00 -0.82276633708E+00  0.11802507687E+01  0.00000000000E+00 0.  1.
         11    1    3    3    0    0 -0.30889752505E+02 -0.16208133651E+02 -0.44525263310E+01  0.35166822394E+02  0.51100000000E-03 0. -1.
        -11    1    3    3    0    0 -0.41180181571E+01 -0.79992671501E+01 -0.69411028465E+01  0.11363329506E+02  0.51100000000E-03 0.  1.
        -12    1    3    3    0    0  0.34246774880E+02  0.23837356411E+02  0.12216395515E+02  0.43477597331E+02  0.00000000000E+00 0.  1.
</event>
<event>
 7    1  0.3752192E-015  0.9000778E+02  0.7816164E-02  0.1186339E+00
        -11   -1    0    0    0    0  0.00000000000E+00  0.00000000000E+00  0.45593999997E+02  0.45594000000E+02  0.51100000000E-03 0. -1.
         11   -1    0    0    0    0 -0.00000000000E+00 -0.00000000000E+00 -0.45593999997E+02  0.45594000000E+02  0.51100000000E-03 0.  1.
    9900012    2    1    2    0    0 -0.31298479777E+00  0.11373808479E+01 -0.36339526988E-01  0.90007781699E+02  0.90000043617E+02 0.  0.
        -12    1    1    2    0    0  0.31298479777E+00 -0.11373808479E+01  0.36339526988E-01  0.11802183010E+01  0.00000000000E+00 0.  1.
         11    1    3    3    0    0 -0.23593627060E+02 -0.30644415509E+02  0.21843844278E+01  0.38736429563E+02  0.51100000000E-03 0. -1.
        -11    1    3    3    0    0  0.96567264877E-02 -0.55819043548E+01 -0.45358960567E+01  0.71925032344E+01  0.51100000000E-03 0.  1.
        -12    1    3    3    0    0  0.23270985535E+02  0.37363700711E+02  0.23151721019E+01  0.44078848902E+02  0.00000000000E+00 0.  1.
</event>
<event>
 7    1  0.4148734E-015  0.9000772E+02  0.7816164E-02  0.1186339E+00
        -11   -1    0    0    0    0  0.00000000000E+00  0.00000000000E+00  0.45593999997E+02  0.45594000000E+02  0.51100000000E-03 0.  1.
         11   -1    0    0    0    0 -0.00000000000E+00 -0.00000000000E+00 -0.45593999997E+02  0.45594000000E+02  0.51100000000E-03 0. -1.
    9900012    2    1    2    0    0  0.59609111836E+00  0.69129674501E+00 -0.74822960472E+00  0.90007718952E+02  0.89999980042E+02 0.  0.
        -12    1    1    2    0    0 -0.59609111836E+00 -0.69129674501E+00  0.74822960472E+00  0.11802810481E+01  0.00000000000E+00 0.  1.
         11    1    3    3    0    0 -0.13442874037E+02  0.17255437749E+02 -0.33257576639E+02  0.39806122626E+02  0.51100000000E-03 0. -1.
        -11    1    3    3    0    0 -0.78512869280E+01 -0.52948824431E+01  0.61267756701E-01  0.94700707764E+01  0.51100000000E-03 0.  1.
        -12    1    3    3    0    0  0.21890252083E+02 -0.11269258561E+02  0.32448079278E+02  0.40731525550E+02  0.00000000000E+00 0.  1.
</event>
<event>
 7    1  0.4431117E-015  0.9000772E+02  0.7816164E-02  0.1186339E+00
        -11   -1    0    0    0    0  0.00000000000E+00  0.00000000000E+00  0.45593999997E+02  0.45594000000E+02  0.51100000000E-03 0.  1.
         11   -1    0    0    0    0 -0.00000000000E+00 -0.00000000000E+00 -0.45593999997E+02  0.45594000000E+02  0.51100000000E-03 0. -1.
    9900012    2    1    2    0    0  0.11703592890E+01  0.83802910585E-01  0.12767108230E+00  0.90007718805E+02  0.89999979894E+02 0.  0.
        -12    1    1    2    0    0 -0.11703592890E+01 -0.83802910585E-01 -0.12767108230E+00  0.11802811946E+01  0.00000000000E+00 0.  1.
         11    1    3    3    0    0  0.22964245635E+02 -0.35795868531E+02  0.87947502021E+00  0.42537915535E+02  0.51100000000E-03 0. -1.
        -11    1    3    3    0    0 -0.64224668713E+00  0.58281340955E+01 -0.80939287518E+01  0.99945640596E+01  0.51100000000E-03 0.  1.
        -12    1    3    3    0    0 -0.21151639659E+02  0.30051537346E+02  0.73421248139E+01  0.37475239211E+02  0.00000000000E+00 0.  1.
</event>
<event>
 7    1  0.4716664E-015  0.9000775E+02  0.7816164E-02  0.1186339E+00
        -11   -1    0    0    0    0  0.00000000000E+00  0.00000000000E+00  0.45593999997E+02  0.45594000000E+02  0.51100000000E-03 0.  1.
         11   -1    0    0    0    0 -0.00000000000E+00 -0.00000000000E+00 -0.45593999997E+02  0.45594000000E+02  0.51100000000E-03 0. -1.
    9900012    2    1    2    0    0 -0.88270787911E+00  0.19670634475E+00 -0.75836306654E+00  0.90007753786E+02  0.90000015336E+02 0.  0.
        -12    1    1    2    0    0  0.88270787911E+00 -0.19670634475E+00  0.75836306654E+00  0.11802462144E+01  0.00000000000E+00 0.  1.
         11    1    3    3    0    0 -0.75081836251E+00  0.42672074575E+01 -0.37486674255E+02  0.37736236361E+02  0.51100000000E-03 0. -1.
        -11    1    3    3    0    0 -0.88019320871E+01 -0.21728242912E+01 -0.44839642075E+01  0.10114401077E+02  0.51100000000E-03 0.  1.
        -12    1    3    3    0    0  0.86700425705E+01 -0.18976768216E+01  0.41212275396E+02  0.42157116348E+02  0.00000000000E+00 0.  1.
</event>
<event>
 7    1  0.3752192E-015  0.9000775E+02  0.7816164E-02  0.1186339E+00
        -11   -1    0    0    0    0  0.00000000000E+00  0.00000000000E+00  0.45593999997E+02  0.45594000000E+02  0.51100000000E-03 0.  1.
         11   -1    0    0    0    0 -0.00000000000E+00 -0.00000000000E+00 -0.45593999997E+02  0.45594000000E+02  0.51100000000E-03 0. -1.
    9900012    2    1    2    0    0  0.41522709276E+00 -0.10972483561E+00 -0.10993317939E+01  0.90007752792E+02  0.90000014329E+02 0.  0.
        -12    1    1    2    0    0 -0.41522709276E+00  0.10972483561E+00  0.10993317939E+01  0.11802472077E+01  0.00000000000E+00 0.  1.
         11    1    3    3    0    0 -0.57259803045E+01 -0.69386914661E+01 -0.45331830946E+01  0.10073829408E+02  0.51100000000E-03 0. -1.
        -11    1    3    3    0    0  0.38362386377E+02 -0.94244914151E+01 -0.11093471782E+02  0.41031193541E+02  0.51100000000E-03 0.  1.
         12    1    3    3    0    0 -0.32221178980E+02  0.16253458046E+02  0.14527323083E+02  0.38902729843E+02  0.00000000000E+00 0. -1.
</event>
<event>
 7    1  0.3752192E-015  0.9000789E+02  0.7816164E-02  0.1186339E+00
        -11   -1    0    0    0    0  0.00000000000E+00  0.00000000000E+00  0.45593999997E+02  0.45594000000E+02  0.51100000000E-03 0. -1.
         11   -1    0    0    0    0 -0.00000000000E+00 -0.00000000000E+00 -0.45593999997E+02  0.45594000000E+02  0.51100000000E-03 0.  1.
    9900012    2    1    2    0    0  0.11578945082E+01 -0.10804265696E-01  0.22765171729E+00  0.90007889103E+02  0.90000152439E+02 0.  0.
        -12    1    1    2    0    0 -0.11578945082E+01  0.10804265696E-01 -0.22765171729E+00  0.11801108968E+01  0.00000000000E+00 0.  1.
         11    1    3    3    0    0  0.20595600297E+01 -0.71738627360E+01 -0.10396353673E+02  0.12798057041E+02  0.51100000000E-03 0. -1.
        -11    1    3    3    0    0 -0.33642090744E+02  0.12627991940E+02 -0.11016922215E+02  0.37584957435E+02  0.51100000000E-03 0.  1.
         12    1    3    3    0    0  0.32740425223E+02 -0.54649334692E+01  0.21640927605E+02  0.39624874627E+02  0.00000000000E+00 0. -1.
</event>
<event>
 7    1  0.3752192E-015  0.9000772E+02  0.7816164E-02  0.1186339E+00
        -11   -1    0    0    0    0  0.00000000000E+00  0.00000000000E+00  0.45593999997E+02  0.45594000000E+02  0.51100000000E-03 0. -1.
         11   -1    0    0    0    0 -0.00000000000E+00 -0.00000000000E+00 -0.45593999997E+02  0.45594000000E+02  0.51100000000E-03 0.  1.
    9900012    2    1    2    0    0 -0.45072604632E+00  0.10747205050E+01  0.18674852192E+00  0.90007723277E+02  0.89999984424E+02 0.  0.
        -12    1    1    2    0    0  0.45072604632E+00 -0.10747205050E+01 -0.18674852192E+00  0.11802767231E+01  0.00000000000E+00 0.  1.
         11    1    3    3    0    0 -0.32499243553E+02  0.87289942104E+01  0.12208573638E+02  0.35797282605E+02  0.51100000000E-03 0. -1.
        -11    1    3    3    0    0 -0.42968610789E+01  0.11138834875E+02 -0.23987591205E+01  0.12177467023E+02  0.51100000000E-03 0.  1.
        -12    1    3    3    0    0  0.36345378585E+02 -0.18793108581E+02 -0.96230659952E+01  0.42032973649E+02  0.00000000000E+00 0.  1.
</event>
<event>
 7    1  0.3752192E-015  0.9000770E+02  0.7816164E-02  0.1186339E+00
        -11   -1    0    0    0    0  0.00000000000E+00  0.00000000000E+00  0.45593999997E+02  0.45594000000E+02  0.51100000000E-03 0.  1.
         11   -1    0    0    0    0 -0.00000000000E+00 -0.00000000000E+00 -0.45593999997E+02  0.45594000000E+02  0.51100000000E-03 0. -1.
    9900012    2    1    2    0    0 -0.34556143059E+00 -0.81609682352E-01 -0.11256280974E+01  0.90007698574E+02  0.89999959395E+02 0.  0.
        -12    1    1    2    0    0  0.34556143059E+00  0.81609682352E-01  0.11256280974E+01  0.11803014260E+01  0.00000000000E+00 0.  1.
         11    1    3    3    0    0 -0.16812539415E+02  0.13471768948E+02 -0.35182336414E+02  0.41254658355E+02  0.51100000000E-03 0. -1.
        -11    1    3    3    0    0 -0.40347785012E+01 -0.88756115714E+01  0.13120646611E+01  0.98375521476E+01  0.51100000000E-03 0.  1.
        -12    1    3    3    0    0  0.20501756486E+02 -0.46777670594E+01  0.32744643656E+02  0.38915488071E+02  0.00000000000E+00 0.  1.
</event>
<event>
 7    1  0.3752192E-015  0.9000761E+02  0.7816164E-02  0.1186339E+00
        -11   -1    0    0    0    0  0.00000000000E+00  0.00000000000E+00  0.45593999997E+02  0.45594000000E+02  0.51100000000E-03 0.  1.
         11   -1    0    0    0    0 -0.00000000000E+00 -0.00000000000E+00 -0.45593999997E+02  0.45594000000E+02  0.51100000000E-03 0. -1.
    9900012    2    1    2    0    0 -0.10968371657E+00 -0.11675198554E+01  0.13488337948E+00  0.90007607414E+02  0.89999867032E+02 0.  0.
        -12    1    1    2    0    0  0.10968371657E+00  0.11675198554E+01 -0.13488337948E+00  0.11803925858E+01  0.00000000000E+00 0.  1.
         11    1    3    3    0    0  0.11331073857E+01 -0.13988047409E+01  0.10026232425E+02  0.10186556040E+02  0.51100000000E-03 0. -1.
        -11    1    3    3    0    0 -0.14623178025E+02  0.16295423293E+02  0.28599871631E+02  0.36018478777E+02  0.51100000000E-03 0.  1.
         12    1    3    3    0    0  0.13380386923E+02 -0.16064138407E+02 -0.38491220677E+02  0.43802572597E+02  0.00000000000E+00 0. -1.
</event>
<event>
 7    1  0.3752192E-015  0.9000775E+02  0.7816164E-02  0.1186339E+00
        -11   -1    0    0    0    0  0.00000000000E+00  0.00000000000E+00  0.45593999997E+02  0.45594000000E+02  0.51100000000E-03 0.  1.
         11   -1    0    0    0    0 -0.00000000000E+00 -0.00000000000E+00 -0.45593999997E+02  0.45594000000E+02  0.51100000000E-03 0. -1.
    9900012    2    1    2    0    0 -0.39918859273E+00  0.10391058639E+01 -0.39228917216E+00  0.90007752855E+02  0.90000014393E+02 0.  0.
        -12    1    1    2    0    0  0.39918859273E+00 -0.10391058639E+01  0.39228917216E+00  0.11802471451E+01  0.00000000000E+00 0.  1.
         11    1    3    3    0    0 -0.30098771818E+02  0.22459097339E+02  0.86256397802E+01  0.38532438025E+02  0.51100000000E-03 0. -1.
        -11    1    3    3    0    0 -0.39668958673E+01 -0.93976781116E+00 -0.11289899490E+02  0.12003385235E+02  0.51100000000E-03 0.  1.
        -12    1    3    3    0    0  0.33666479093E+02 -0.20480223664E+02  0.22719705372E+01  0.39471929595E+02  0.00000000000E+00 0.  1.
</event>
<event>
 7    1  0.3752192E-015  0.9000730E+02  0.7816164E-02  0.1186340E+00
        -11   -1    0    0    0    0  0.00000000000E+00  0.00000000000E+00  0.45593999997E+02  0.45594000000E+02  0.51100000000E-03 0.  1.
         11   -1    0    0    0    0 -0.00000000000E+00 -0.00000000000E+00 -0.45593999997E+02  0.45594000000E+02  0.51100000000E-03 0. -1.
    9900012    2    1    2    0    0  0.11349516651E+01 -0.27394830247E+00 -0.17572703195E+00  0.90007304042E+02  0.89999559655E+02 0.  0.
        -12    1    1    2    0    0 -0.11349516651E+01  0.27394830247E+00  0.17572703195E+00  0.11806959576E+01  0.00000000000E+00 0.  1.
         11    1    3    3    0    0  0.23309759062E+02  0.26491840623E+02  0.70676658821E+01  0.35987697737E+02  0.51100000000E-03 0. -1.
        -11    1    3    3    0    0  0.10799367513E+02 -0.75475006461E+01  0.47626950406E+01  0.14009795466E+02  0.51100000000E-03 0.  1.
        -12    1    3    3    0    0 -0.32974174910E+02 -0.19218288280E+02 -0.12006087955E+02  0.40009810839E+02  0.00000000000E+00 0.  1.
</event>
<event>
 7    1  0.3752192E-015  0.9000865E+02  0.7816164E-02  0.1186337E+00
        -11   -1    0    0    0    0  0.00000000000E+00  0.00000000000E+00  0.45593999997E+02  0.45594000000E+02  0.51100000000E-03 0.  1.
         11   -1    0    0    0    0 -0.00000000000E+00 -0.00000000000E+00 -0.45593999997E+02  0.45594000000E+02  0.51100000000E-03 0. -1.
    9900012    2    1    2    0    0 -0.86449445629E+00  0.80207368471E+00  0.13905411065E-01  0.90008650085E+02  0.90000923462E+02 0.  0.
        -12    1    1    2    0    0  0.86449445629E+00 -0.80207368471E+00 -0.13905411065E-01  0.11793499146E+01  0.00000000000E+00 0.  1.
         11    1    3    3    0    0 -0.25195007284E+02  0.14302401227E+02  0.26741436475E+02  0.39426532918E+02  0.51100000000E-03 0. -1.
        -11    1    3    3    0    0 -0.60970971711E+01  0.44129516013E+01 -0.61100145929E+01  0.96943805545E+01  0.51100000000E-03 0.  1.
        -12    1    3    3    0    0  0.30427609999E+02 -0.17913279144E+02 -0.20617516471E+02  0.40887736613E+02  0.00000000000E+00 0.  1.
</event>
<event>
 7    1  0.3752192E-015  0.9000743E+02  0.7816164E-02  0.1186340E+00
        -11   -1    0    0    0    0  0.00000000000E+00  0.00000000000E+00  0.45593999997E+02  0.45594000000E+02  0.51100000000E-03 0.  1.
         11   -1    0    0    0    0 -0.00000000000E+00 -0.00000000000E+00 -0.45593999997E+02  0.45594000000E+02  0.51100000000E-03 0. -1.
    9900012    2    1    2    0    0  0.10877703937E+01  0.47135899452E-01  0.45637629285E+00  0.90007429992E+02  0.89999687268E+02 0.  0.
        -12    1    1    2    0    0 -0.10877703937E+01 -0.47135899452E-01 -0.45637629285E+00  0.11805700077E+01  0.00000000000E+00 0.  1.
         11    1    3    3    0    0 -0.71470324114E+01 -0.70333465733E+01 -0.25589188181E+01  0.10348724660E+02  0.51100000000E-03 0. -1.
        -11    1    3    3    0    0  0.43613416793E+02  0.13237831493E+01 -0.55847703738E+00  0.43637076244E+02  0.51100000000E-03 0.  1.
         12    1    3    3    0    0 -0.35378613988E+02  0.57566993234E+01  0.35737721483E+01  0.36021629089E+02  0.00000000000E+00 0. -1.
</event>
<event>
 7    1  0.3752192E-015  0.9000772E+02  0.7816164E-02  0.1186339E+00
        -11   -1    0    0    0    0  0.00000000000E+00  0.00000000000E+00  0.45593999997E+02  0.45594000000E+02  0.51100000000E-03 0.  1.
         11   -1    0    0    0    0 -0.00000000000E+00 -0.00000000000E+00 -0.45593999997E+02  0.45594000000E+02  0.51100000000E-03 0. -1.
    9900012    2    1    2    0    0  0.79265514386E+00  0.87033178639E+00  0.85362972229E-01  0.90007717647E+02  0.89999978720E+02 0.  0.
        -12    1    1    2    0    0 -0.79265514386E+00 -0.87033178639E+00 -0.85362972229E-01  0.11802823529E+01  0.00000000000E+00 0.  1.
         11    1    3    3    0    0  0.42494565376E+01 -0.41660422427E+01 -0.69257345705E+01  0.91312424366E+01  0.51100000000E-03 0. -1.
        -11    1    3    3    0    0 -0.18208077359E+02 -0.21220384733E+02  0.31456464851E+02  0.42087385171E+02  0.51100000000E-03 0.  1.
         12    1    3    3    0    0  0.14751275965E+02  0.26256758762E+02 -0.24445367308E+02  0.38789090040E+02  0.00000000000E+00 0. -1.
</event>
<event>
 7    1  0.3752192E-015  0.9000775E+02  0.7816164E-02  0.1186339E+00
        -11   -1    0    0    0    0  0.00000000000E+00  0.00000000000E+00  0.45593999997E+02  0.45594000000E+02  0.51100000000E-03 0. -1.
         11   -1    0    0    0    0 -0.00000000000E+00 -0.00000000000E+00 -0.45593999997E+02  0.45594000000E+02  0.51100000000E-03 0.  1.
    9900012    2    1    2    0    0 -0.82215564950E+00  0.18896641252E+00  0.82544029674E+00  0.90007745832E+02  0.90000007277E+02 0.  0.
        -12    1    1    2    0    0  0.82215564950E+00 -0.18896641252E+00 -0.82544029674E+00  0.11802541678E+01  0.00000000000E+00 0.  1.
         11    1    3    3    0    0  0.23147775358E+01  0.22255092267E+02 -0.30752597632E+02  0.38031166012E+02  0.51100000000E-03 0. -1.
        -11    1    3    3    0    0 -0.19449811214E+00  0.86289759624E+01  0.12419327989E+01  0.87200603790E+01  0.51100000000E-03 0.  1.
        -12    1    3    3    0    0 -0.29424350731E+01 -0.30695101817E+02  0.30336105130E+02  0.43256519441E+02  0.00000000000E+00 0.  1.
</event>
<event>
 7    1  0.3752192E-015  0.9000767E+02  0.7816164E-02  0.1186339E+00
        -11   -1    0    0    0    0  0.00000000000E+00  0.00000000000E+00  0.45593999997E+02  0.45594000000E+02  0.51100000000E-03 0.  1.
         11   -1    0    0    0    0 -0.00000000000E+00 -0.00000000000E+00 -0.45593999997E+02  0.45594000000E+02  0.51100000000E-03 0. -1.
    9900012    2    1    2    0    0 -0.11631115121E+00 -0.96508127983E+00 -0.66952220053E+00  0.90007673716E+02  0.89999934209E+02 0.  0.
        -12    1    1    2    0    0  0.11631115121E+00  0.96508127983E+00  0.66952220053E+00  0.11803262844E+01  0.00000000000E+00 0.  1.
         11    1    3    3    0    0  0.22478539680E+01 -0.96305441388E+01  0.34312822269E+01  0.10467756486E+02  0.51100000000E-03 0. -1.
        -11    1    3    3    0    0  0.86634758189E+01 -0.33722972334E+00  0.35978018575E+02  0.37007936419E+02  0.51100000000E-03 0.  1.
         12    1    3    3    0    0 -0.11027640938E+02  0.90026925823E+01 -0.40078823002E+02  0.42531980810E+02  0.00000000000E+00 0. -1.
</event>
<event>
 7    1  0.3752192E-015  0.9000754E+02  0.7816164E-02  0.1186339E+00
        -11   -1    0    0    0    0  0.00000000000E+00  0.00000000000E+00  0.45593999997E+02  0.45594000000E+02  0.51100000000E-03 0.  1.
         11   -1    0    0    0    0 -0.00000000000E+00 -0.00000000000E+00 -0.45593999997E+02  0.45594000000E+02  0.51100000000E-03 0. -1.
    9900012    2    1    2    0    0  0.91943156482E+00 -0.21499530872E+00 -0.70845120360E+00  0.90007542253E+02  0.89999801010E+02 0.  0.
        -12    1    1    2    0    0 -0.91943156482E+00  0.21499530872E+00  0.70845120360E+00  0.11804577473E+01  0.00000000000E+00 0.  1.
         11    1    3    3    0    0 -0.53555929945E+01  0.23440638124E+01  0.70439644108E+01  0.91539306509E+01  0.51100000000E-03 0. -1.
        -11    1    3    3    0    0 -0.11186741147E+02  0.18885026296E+02  0.28048261234E+02  0.35615900301E+02  0.51100000000E-03 0.  1.
         12    1    3    3    0    0  0.17461765706E+02 -0.21444085417E+02 -0.35800676849E+02  0.45237711301E+02  0.00000000000E+00 0. -1.
</event>
<event>
 7    1  0.3752192E-015  0.9000752E+02  0.7816164E-02  0.1186339E+00
        -11   -1    0    0    0    0  0.00000000000E+00  0.00000000000E+00  0.45593999997E+02  0.45594000000E+02  0.51100000000E-03 0.  1.
         11   -1    0    0    0    0 -0.00000000000E+00 -0.00000000000E+00 -0.45593999997E+02  0.45594000000E+02  0.51100000000E-03 0. -1.
    9900012    2    1    2    0    0  0.97722894332E+00 -0.21064205486E+00 -0.62783743644E+00  0.90007522838E+02  0.89999781339E+02 0.  0.
        -12    1    1    2    0    0 -0.97722894332E+00  0.21064205486E+00  0.62783743644E+00  0.11804771618E+01  0.00000000000E+00 0.  1.
         11    1    3    3    0    0 -0.65296431177E+01  0.28479644029E+01  0.66738475575E+01  0.97615255963E+01  0.51100000000E-03 0. -1.
        -11    1    3    3    0    0  0.11410681401E+02 -0.40227300197E+02  0.15344821185E+01  0.41842489969E+02  0.51100000000E-03 0.  1.
         12    1    3    3    0    0 -0.39038093397E+01  0.37168693739E+02 -0.88361671125E+01  0.38403507273E+02  0.00000000000E+00 0. -1.
</event>
<event>
 7    1  0.3752192E-015  0.9000779E+02  0.7816164E-02  0.1186339E+00
        -11   -1    0    0    0    0  0.00000000000E+00  0.00000000000E+00  0.45593999997E+02  0.45594000000E+02  0.51100000000E-03 0.  1.
         11   -1    0    0    0    0 -0.00000000000E+00 -0.00000000000E+00 -0.45593999997E+02  0.45594000000E+02  0.51100000000E-03 0. -1.
    9900012    2    1    2    0    0 -0.63371542287E+00  0.99284006246E+00 -0.74552034480E-01  0.90007794665E+02  0.90000056755E+02 0.  0.
        -12    1    1    2    0    0  0.63371542287E+00 -0.99284006246E+00  0.74552034480E-01  0.11802053350E+01  0.00000000000E+00 0.  1.
         11    1    3    3    0    0 -0.11572236722E+02 -0.57620825854E+01 -0.63106451390E+00  0.12942816585E+02  0.51100000000E-03 0. -1.
        -11    1    3    3    0    0  0.30304703361E+01  0.38661906076E+02  0.14439171314E+02  0.41381353294E+02  0.51100000000E-03 0.  1.
         12    1    3    3    0    0  0.79080509633E+01 -0.31906983429E+02 -0.13882658835E+02  0.35683624786E+02  0.00000000000E+00 0. -1.
</event>
<event>
 7    1  0.3752192E-015  0.9000770E+02  0.7816164E-02  0.1186339E+00
        -11   -1    0    0    0    0  0.00000000000E+00  0.00000000000E+00  0.45593999997E+02  0.45594000000E+02  0.51100000000E-03 0. -1.
         11   -1    0    0    0    0 -0.00000000000E+00 -0.00000000000E+00 -0.45593999997E+02  0.45594000000E+02  0.51100000000E-03 0.  1.
    9900012    2    1    2    0    0 -0.32419611058E+00 -0.29795915572E-03  0.11348980552E+01  0.90007704782E+02  0.89999965685E+02 0.  0.
        -12    1    1    2    0    0  0.32419611058E+00  0.29795915572E-03 -0.11348980552E+01  0.11802952184E+01  0.00000000000E+00 0.  1.
         11    1    3    3    0    0 -0.13937392353E+02  0.18886451918E+02  0.30506705519E+02  0.38491662130E+02  0.51100000000E-03 0. -1.
        -11    1    3    3    0    0 -0.49923581286E+00 -0.12657545565E+02  0.51733768935E+01  0.13683074394E+02  0.51100000000E-03 0.  1.
        -12    1    3    3    0    0  0.14112432055E+02 -0.62292043117E+01 -0.34545184357E+02  0.37832968257E+02  0.00000000000E+00 0.  1.
</event>
<event>
 7    1  0.3752192E-015  0.9000773E+02  0.7816164E-02  0.1186339E+00
        -11   -1    0    0    0    0  0.00000000000E+00  0.00000000000E+00  0.45593999997E+02  0.45594000000E+02  0.51100000000E-03 0.  1.
         11   -1    0    0    0    0 -0.00000000000E+00 -0.00000000000E+00 -0.45593999997E+02  0.45594000000E+02  0.51100000000E-03 0. -1.
    9900012    2    1    2    0    0  0.11579534574E+01 -0.11194006618E+00 -0.19913491041E+00  0.90007728209E+02  0.89999989421E+02 0.  0.
        -12    1    1    2    0    0 -0.11579534574E+01  0.11194006618E+00  0.19913491041E+00  0.11802717910E+01  0.00000000000E+00 0.  1.
         11    1    3    3    0    0  0.18031395086E+01 -0.25257573849E+02  0.24519852018E+02  0.35247971460E+02  0.51100000000E-03 0. -1.
        -11    1    3    3    0    0 -0.91204155206E+01 -0.77044731590E+01  0.12939244650E+01  0.12008960268E+02  0.51100000000E-03 0.  1.
        -12    1    3    3    0    0  0.84752294694E+01  0.32850106941E+02 -0.26012911394E+02  0.42750796481E+02  0.00000000000E+00 0.  1.
</event>
<event>
 7    1  0.3752192E-015  0.9000785E+02  0.7816164E-02  0.1186339E+00
        -11   -1    0    0    0    0  0.00000000000E+00  0.00000000000E+00  0.45593999997E+02  0.45594000000E+02  0.51100000000E-03 0.  1.
         11   -1    0    0    0    0 -0.00000000000E+00 -0.00000000000E+00 -0.45593999997E+02  0.45594000000E+02  0.51100000000E-03 0. -1.
    9900012    2    1    2    0    0  0.10175981733E+01 -0.10109986425E-01 -0.59761852331E+00  0.90007849097E+02  0.90000111905E+02 0.  0.
        -12    1    1    2    0    0 -0.10175981733E+01  0.10109986425E-01  0.59761852331E+00  0.11801509029E+01  0.00000000000E+00 0.  1.
         11    1    3    3    0    0  0.52127834221E+01  0.37574172819E+01 -0.19348279693E+01  0.67108013805E+01  0.51100000000E-03 0. -1.
        -11    1    3    3    0    0  0.10462330021E+02  0.34902861056E+02  0.15481928676E+02  0.39589899913E+02  0.51100000000E-03 0.  1.
         12    1    3    3    0    0 -0.14657515269E+02 -0.38670388324E+02 -0.14144719230E+02  0.43707147804E+02  0.00000000000E+00 0. -1.
</event>
<event>
 7    1  0.3752192E-015  0.9000768E+02  0.7816164E-02  0.1186339E+00
        -11   -1    0    0    0    0  0.00000000000E+00  0.00000000000E+00  0.45593999997E+02  0.45594000000E+02  0.51100000000E-03 0.  1.
         11   -1    0    0    0    0 -0.00000000000E+00 -0.00000000000E+00 -0.45593999997E+02  0.45594000000E+02  0.51100000000E-03 0. -1.
    9900012    2    1    2    0    0 -0.95750085363E+00 -0.67369579553E+00 -0.14993534484E+00  0.90007680333E+02  0.89999940913E+02 0.  0.
        -12    1    1    2    0    0  0.95750085363E+00  0.67369579553E+00  0.14993534484E+00  0.11803196674E+01  0.00000000000E+00 0.  1.
         11    1    3    3    0    0  0.15824117440E+02  0.96665939799E+01 -0.33665162103E+02  0.38434214856E+02  0.51100000000E-03 0. -1.
        -11    1    3    3    0    0  0.85382804517E+00 -0.64312865264E+01 -0.55477074516E+01  0.85362478259E+01  0.51100000000E-03 0.  1.
        -12    1    3    3    0    0 -0.17635446339E+02 -0.39090032491E+01  0.39062934210E+02  0.43037217650E+02  0.00000000000E+00 0.  1.
</event>
<event>
 7    1  0.3752192E-015  0.9000803E+02  0.7816164E-02  0.1186338E+00
        -11   -1    0    0    0    0  0.00000000000E+00  0.00000000000E+00  0.45593999997E+02  0.45594000000E+02  0.51100000000E-03 0.  1.
         11   -1    0    0    0    0 -0.00000000000E+00 -0.00000000000E+00 -0.45593999997E+02  0.45594000000E+02  0.51100000000E-03 0. -1.
    9900012    2    1    2    0    0  0.39110357788E+00  0.11129032474E+01  0.28445113028E-01  0.90008031877E+02  0.90000297097E+02 0.  0.
        -12    1    1    2    0    0 -0.39110357788E+00 -0.11129032474E+01 -0.28445113028E-01  0.11799681229E+01  0.00000000000E+00 0.  1.
         11    1    3    3    0    0  0.34772652189E+00 -0.53148522537E+00 -0.94734094701E+01  0.94946762730E+01  0.51100000000E-03 0. -1.
        -11    1    3    3    0    0  0.24690321562E+02 -0.87293430614E+01 -0.25441855775E+02  0.36511661625E+02  0.51100000000E-03 0.  1.
         12    1    3    3    0    0 -0.24646944506E+02  0.10373731534E+02  0.34943710358E+02  0.44001693979E+02  0.00000000000E+00 0. -1.
</event>
<event>
 7    1  0.3752192E-015  0.9000767E+02  0.7816164E-02  0.1186339E+00
        -11   -1    0    0    0    0  0.00000000000E+00  0.00000000000E+00  0.45593999997E+02  0.45594000000E+02  0.51100000000E-03 0.  1.
         11   -1    0    0    0    0 -0.00000000000E+00 -0.00000000000E+00 -0.45593999997E+02  0.45594000000E+02  0.51100000000E-03 0. -1.
    9900012    2    1    2    0    0 -0.78643596770E+00 -0.85795232668E+00 -0.19651953550E+00  0.90007667990E+02  0.89999928407E+02 0.  0.
        -12    1    1    2    0    0  0.78643596770E+00  0.85795232668E+00  0.19651953550E+00  0.11803320101E+01  0.00000000000E+00 0.  1.
         11    1    3    3    0    0  0.69544247474E+01  0.41674156122E+01 -0.63700373654E+01  0.10310613597E+02  0.51100000000E-03 0. -1.
        -11    1    3    3    0    0  0.13519803026E+02 -0.14949535016E+02  0.36294713970E+02  0.41516020203E+02  0.51100000000E-03 0.  1.
         12    1    3    3    0    0 -0.21260663741E+02  0.99241670775E+01 -0.30121196140E+02  0.38181034190E+02  0.00000000000E+00 0. -1.
</event>
<event>
 7    1  0.3752192E-015  0.9000774E+02  0.7816164E-02  0.1186339E+00
        -11   -1    0    0    0    0  0.00000000000E+00  0.00000000000E+00  0.45593999997E+02  0.45594000000E+02  0.51100000000E-03 0.  1.
         11   -1    0    0    0    0 -0.00000000000E+00 -0.00000000000E+00 -0.45593999997E+02  0.45594000000E+02  0.51100000000E-03 0. -1.
    9900012    2    1    2    0    0 -0.72722584641E+00 -0.79601963236E+00 -0.48011240893E+00  0.90007740447E+02  0.90000001821E+02 0.  0.
        -12    1    1    2    0    0  0.72722584641E+00  0.79601963236E+00  0.48011240893E+00  0.11802595528E+01  0.00000000000E+00 0.  1.
         11    1    3    3    0    0 -0.80574875935E+00 -0.83191994787E+01  0.56039138727E+01  0.10062910214E+02  0.51100000000E-03 0. -1.
        -11    1    3    3    0    0 -0.21698447539E+02  0.22752234244E+02  0.24185000629E+02  0.39666119603E+02  0.51100000000E-03 0.  1.
         12    1    3    3    0    0  0.21776970452E+02 -0.15229054397E+02 -0.30269026911E+02  0.40278710630E+02  0.00000000000E+00 0. -1.
</event>
<event>
 7    1  0.3752192E-015  0.9000776E+02  0.7816164E-02  0.1186339E+00
        -11   -1    0    0    0    0  0.00000000000E+00  0.00000000000E+00  0.45593999997E+02  0.45594000000E+02  0.51100000000E-03 0.  1.
         11   -1    0    0    0    0 -0.00000000000E+00 -0.00000000000E+00 -0.45593999997E+02  0.45594000000E+02  0.51100000000E-03 0. -1.
    9900012    2    1    2    0    0  0.14573997915E+00  0.10875323860E+01 -0.43474480689E+00  0.90007758550E+02  0.90000020163E+02 0.  0.
        -12    1    1    2    0    0 -0.14573997915E+00 -0.10875323860E+01  0.43474480689E+00  0.11802414496E+01  0.00000000000E+00 0.  1.
         11    1    3    3    0    0  0.44329863617E+02 -0.38597707603E+01 -0.83170539892E-01  0.44497657874E+02  0.51100000000E-03 0. -1.
        -11    1    3    3    0    0 -0.81210249268E+01 -0.15533661042E+01 -0.29377407414E+01  0.87746403368E+01  0.51100000000E-03 0.  1.
        -12    1    3    3    0    0 -0.36063098711E+02  0.65006692506E+01  0.25861664744E+01  0.36735460340E+02  0.00000000000E+00 0.  1.
</event>
<event>
 7    1  0.3752192E-015  0.9000777E+02  0.7816164E-02  0.1186339E+00
        -11   -1    0    0    0    0  0.00000000000E+00  0.00000000000E+00  0.45593999997E+02  0.45594000000E+02  0.51100000000E-03 0. -1.
         11   -1    0    0    0    0 -0.00000000000E+00 -0.00000000000E+00 -0.45593999997E+02  0.45594000000E+02  0.51100000000E-03 0.  1.
    9900012    2    1    2    0    0  0.52100086532E+00  0.64406152316E+00  0.84064328616E+00  0.90007771937E+02  0.90000033726E+02 0.  0.
        -12    1    1    2    0    0 -0.52100086532E+00 -0.64406152316E+00 -0.84064328616E+00  0.11802280635E+01  0.00000000000E+00 0.  1.
         11    1    3    3    0    0 -0.36038917631E+02  0.11323043031E+01  0.53774728939E+01  0.36455492206E+02  0.51100000000E-03 0. -1.
        -11    1    3    3    0    0 -0.53406487483E+01 -0.43849592688E+01 -0.88749469726E+01  0.11247892286E+02  0.51100000000E-03 0.  1.
        -12    1    3    3    0    0  0.41900567244E+02  0.38967164888E+01  0.43381173648E+01  0.42304387445E+02  0.00000000000E+00 0.  1.
</event>
<event>
 7    1  0.3752192E-015  0.9000778E+02  0.7816164E-02  0.1186339E+00
        -11   -1    0    0    0    0  0.00000000000E+00  0.00000000000E+00  0.45593999997E+02  0.45594000000E+02  0.51100000000E-03 0.  1.
         11   -1    0    0    0    0 -0.00000000000E+00 -0.00000000000E+00 -0.45593999997E+02  0.45594000000E+02  0.51100000000E-03 0. -1.
    9900012    2    1    2    0    0 -0.10613576582E+01  0.10265174950E+00 -0.50586801651E+00  0.90007779720E+02  0.90000041612E+02 0.  0.
        -12    1    1    2    0    0  0.10613576582E+01 -0.10265174950E+00  0.50586801651E+00  0.11802202805E+01  0.00000000000E+00 0.  1.
         11    1    3    3    0    0  0.48770205203E+01  0.47636020046E+01  0.80210612007E+01  0.10526854053E+02  0.51100000000E-03 0. -1.
        -11    1    3    3    0    0  0.29790383875E+02 -0.13609620482E+02 -0.22878399138E+02  0.39951344014E+02  0.51100000000E-03 0.  1.
         12    1    3    3    0    0 -0.35728762054E+02  0.89486702273E+01  0.14351469921E+02  0.39529581653E+02  0.00000000000E+00 0. -1.
</event>
<event>
 7    1  0.3752192E-015  0.9000798E+02  0.7816164E-02  0.1186339E+00
        -11   -1    0    0    0    0  0.00000000000E+00  0.00000000000E+00  0.45593999997E+02  0.45594000000E+02  0.51100000000E-03 0.  1.
         11   -1    0    0    0    0 -0.00000000000E+00 -0.00000000000E+00 -0.45593999997E+02  0.45594000000E+02  0.51100000000E-03 0. -1.
    9900012    2    1    2    0    0 -0.11485010196E+01  0.11140575383E-01 -0.27069266236E+00  0.90007977449E+02  0.90000241951E+02 0.  0.
        -12    1    1    2    0    0  0.11485010196E+01 -0.11140575383E-01  0.27069266236E+00  0.11800225514E+01  0.00000000000E+00 0.  1.
         11    1    3    3    0    0 -0.10875490614E+02 -0.34028496355E+02 -0.12273100149E-01  0.35724151650E+02  0.51100000000E-03 0. -1.
        -11    1    3    3    0    0 -0.11204556938E+02 -0.18976111297E+01  0.49019066327E+01  0.12376256020E+02  0.51100000000E-03 0.  1.
        -12    1    3    3    0    0  0.20931546532E+02  0.35937248060E+02 -0.51603261949E+01  0.41907569779E+02  0.00000000000E+00 0.  1.
</event>
<event>
 7    1  0.3752192E-015  0.9000773E+02  0.7816164E-02  0.1186339E+00
        -11   -1    0    0    0    0  0.00000000000E+00  0.00000000000E+00  0.45593999997E+02  0.45594000000E+02  0.51100000000E-03 0.  1.
         11   -1    0    0    0    0 -0.00000000000E+00 -0.00000000000E+00 -0.45593999997E+02  0.45594000000E+02  0.51100000000E-03 0. -1.
    9900012    2    1    2    0    0 -0.83559990964E+00 -0.72601722691E+00 -0.40951534018E+00  0.90007732642E+02  0.89999993913E+02 0.  0.
        -12    1    1    2    0    0  0.83559990964E+00  0.72601722691E+00  0.40951534018E+00  0.11802673581E+01  0.00000000000E+00 0.  1.
         11    1    3    3    0    0 -0.18289350067E+02  0.68573450710E+01 -0.27045685852E+02  0.33361544190E+02  0.51100000000E-03 0. -1.
        -11    1    3    3    0    0  0.21350011265E+01  0.22115242973E+01 -0.12829927409E+02  0.13193032521E+02  0.51100000000E-03 0.  1.
        -12    1    3    3    0    0  0.15318749031E+02 -0.97948865952E+01  0.39466097920E+02  0.43453155931E+02  0.00000000000E+00 0.  1.
</event>
<event>
 7    1  0.3752192E-015  0.9000649E+02  0.7816164E-02  0.1186342E+00
        -11   -1    0    0    0    0  0.00000000000E+00  0.00000000000E+00  0.45593999997E+02  0.45594000000E+02  0.51100000000E-03 0.  1.
         11   -1    0    0    0    0 -0.00000000000E+00 -0.00000000000E+00 -0.45593999997E+02  0.45594000000E+02  0.51100000000E-03 0. -1.
    9900012    2    1    2    0    0 -0.87285605199E+00 -0.53145408854E+00 -0.59300153393E+00  0.90006487429E+02  0.89998732254E+02 0.  0.
        -12    1    1    2    0    0  0.87285605199E+00  0.53145408854E+00  0.59300153393E+00  0.11815125708E+01  0.00000000000E+00 0.  1.
         11    1    3    3    0    0 -0.98973455492E+01 -0.46368759723E+01 -0.18550037856E+01  0.11085986966E+02  0.51100000000E-03 0. -1.
        -11    1    3    3    0    0  0.76687018815E+01 -0.31396682027E+02  0.20741506330E+02  0.38402743599E+02  0.51100000000E-03 0.  1.
         12    1    3    3    0    0  0.13557876156E+01  0.35502103911E+02 -0.19479504078E+02  0.40517756864E+02  0.00000000000E+00 0. -1.
</event>
<event>
 7    1  0.3752192E-015  0.9000767E+02  0.7816164E-02  0.1186339E+00
        -11   -1    0    0    0    0  0.00000000000E+00  0.00000000000E+00  0.45593999997E+02  0.45594000000E+02  0.51100000000E-03 0.  1.
         11   -1    0    0    0    0 -0.00000000000E+00 -0.00000000000E+00 -0.45593999997E+02  0.45594000000E+02  0.51100000000E-03 0. -1.
    9900012    2    1    2    0    0 -0.11783393936E+01 -0.43411535609E-01  0.52975683303E-01  0.90007671778E+02  0.89999932246E+02 0.  0.
        -12    1    1    2    0    0  0.11783393936E+01  0.43411535609E-01 -0.52975683303E-01  0.11803282217E+01  0.00000000000E+00 0.  1.
         11    1    3    3    0    0 -0.99586871371E+01  0.29938379193E+02  0.14520515289E+02  0.34732223693E+02  0.51100000000E-03 0. -1.
        -11    1    3    3    0    0 -0.52384723856E+01  0.59360067570E+01  0.74953578296E+01  0.10902208878E+02  0.51100000000E-03 0.  1.
        -12    1    3    3    0    0  0.14018820129E+02 -0.35917797485E+02 -0.21962897435E+02  0.44373239207E+02  0.00000000000E+00 0.  1.
</event>
<event>
 7    1  0.3752192E-015  0.9000814E+02  0.7816164E-02  0.1186338E+00
        -11   -1    0    0    0    0  0.00000000000E+00  0.00000000000E+00  0.45593999997E+02  0.45594000000E+02  0.51100000000E-03 0.  1.
         11   -1    0    0    0    0 -0.00000000000E+00 -0.00000000000E+00 -0.45593999997E+02  0.45594000000E+02  0.51100000000E-03 0. -1.
    9900012    2    1    2    0    0  0.81721672911E-01 -0.70017588351E+00 -0.94612154181E+00  0.90008139554E+02  0.90000406195E+02 0.  0.
        -12    1    1    2    0    0 -0.81721672911E-01  0.70017588351E+00  0.94612154181E+00  0.11798604458E+01  0.00000000000E+00 0.  1.
         11    1    3    3    0    0 -0.71228654812E+01 -0.37710164625E+01 -0.64708610934E+01  0.10335754514E+02  0.51100000000E-03 0. -1.
        -11    1    3    3    0    0 -0.26286374828E+02 -0.24437660047E+02 -0.63518390865E+00  0.35896743432E+02  0.51100000000E-03 0.  1.
         12    1    3    3    0    0  0.33490961982E+02  0.27508500626E+02  0.61599234602E+01  0.43775641608E+02  0.00000000000E+00 0. -1.
</event>
<event>
 7    1  0.3752192E-015  0.9000773E+02  0.7816164E-02  0.1186339E+00
        -11   -1    0    0    0    0  0.00000000000E+00  0.00000000000E+00  0.45593999997E+02  0.45594000000E+02  0.51100000000E-03 0. -1.
         11   -1    0    0    0    0 -0.00000000000E+00 -0.00000000000E+00 -0.45593999997E+02  0.45594000000E+02  0.51100000000E-03 0.  1.
    9900012    2    1    2    0    0 -0.90521838408E+00 -0.35007711114E+00  0.67161417034E+00  0.90007728887E+02  0.89999990108E+02 0.  0.
        -12    1    1    2    0    0  0.90521838408E+00  0.35007711114E+00 -0.67161417034E+00  0.11802711131E+01  0.00000000000E+00 0.  1.
         11    1    3    3    0    0  0.10365515532E+02  0.55449464467E+01  0.19751435096E+01  0.11920215413E+02  0.51100000000E-03 0. -1.
        -11    1    3    3    0    0  0.11596093045E+02 -0.30851716536E+02 -0.20850254207E+02  0.39000395997E+02  0.51100000000E-03 0.  1.
         12    1    3    3    0    0 -0.22866826961E+02  0.24956692978E+02  0.19546724868E+02  0.39087117478E+02  0.00000000000E+00 0. -1.
</event>
<event>
 7    1  0.3752192E-015  0.9000769E+02  0.7816164E-02  0.1186339E+00
        -11   -1    0    0    0    0  0.00000000000E+00  0.00000000000E+00  0.45593999997E+02  0.45594000000E+02  0.51100000000E-03 0.  1.
         11   -1    0    0    0    0 -0.00000000000E+00 -0.00000000000E+00 -0.45593999997E+02  0.45594000000E+02  0.51100000000E-03 0. -1.
    9900012    2    1    2    0    0  0.59770816012E+00 -0.18872507819E+00 -0.10001269252E+01  0.90007692385E+02  0.89999953124E+02 0.  0.
        -12    1    1    2    0    0 -0.59770816012E+00  0.18872507819E+00  0.10001269252E+01  0.11803076152E+01  0.00000000000E+00 0.  1.
         11    1    3    3    0    0  0.74724902979E+01 -0.15557141757E+01 -0.25714838287E+01  0.80542465316E+01  0.51100000000E-03 0. -1.
        -11    1    3    3    0    0  0.48493979402E+01  0.31778769702E+02  0.25899374980E+02  0.41281769448E+02  0.51100000000E-03 0.  1.
         12    1    3    3    0    0 -0.11724180078E+02 -0.30411780604E+02 -0.24328018077E+02  0.40671676405E+02  0.00000000000E+00 0. -1.
</event>
<event>
 7    1  0.3752192E-015  0.9000772E+02  0.7816164E-02  0.1186339E+00
        -11   -1    0    0    0    0  0.00000000000E+00  0.00000000000E+00  0.45593999997E+02  0.45594000000E+02  0.51100000000E-03 0. -1.
         11   -1    0    0    0    0 -0.00000000000E+00 -0.00000000000E+00 -0.45593999997E+02  0.45594000000E+02  0.51100000000E-03 0.  1.
    9900012    2    1    2    0    0 -0.79167305979E+00 -0.14567123250E-03  0.87539619612E+00  0.90007718358E+02  0.89999979440E+02 0.  0.
        -12    1    1    2    0    0  0.79167305979E+00  0.14567123251E-03 -0.87539619612E+00  0.11802816422E+01  0.00000000000E+00 0.  1.
         11    1    3    3    0    0  0.67657046203E+01  0.32965827487E+02  0.74550677492E+01  0.34468805844E+02  0.51100000000E-03 0. -1.
        -11    1    3    3    0    0  0.61415684425E+01  0.90600174172E+01 -0.12847096100E+01  0.11020583359E+02  0.51100000000E-03 0.  1.
        -12    1    3    3    0    0 -0.13698946123E+02 -0.42025990576E+02 -0.52949619431E+01  0.44518329154E+02  0.00000000000E+00 0.  1.
</event>
<event>
 7    1  0.3752192E-015  0.9000765E+02  0.7816164E-02  0.1186339E+00
        -11   -1    0    0    0    0  0.00000000000E+00  0.00000000000E+00  0.45593999997E+02  0.45594000000E+02  0.51100000000E-03 0. -1.
         11   -1    0    0    0    0 -0.00000000000E+00 -0.00000000000E+00 -0.45593999997E+02  0.45594000000E+02  0.51100000000E-03 0.  1.
    9900012    2    1    2    0    0  0.63579492932E+00  0.90689741752E+00  0.40806664809E+00  0.90007654073E+02  0.89999914307E+02 0.  0.
        -12    1    1    2    0    0 -0.63579492932E+00 -0.90689741752E+00 -0.40806664809E+00  0.11803459270E+01  0.00000000000E+00 0.  1.
         11    1    3    3    0    0 -0.16547754475E+02 -0.28616845012E+02  0.19551441100E+02  0.38405869942E+02  0.51100000000E-03 0. -1.
        -11    1    3    3    0    0 -0.29535987791E+01  0.14997799741E+01  0.73724176207E+01  0.80824270831E+01  0.51100000000E-03 0.  1.
        -12    1    3    3    0    0  0.20137148183E+02  0.28023962456E+02 -0.26515792072E+02  0.43519357048E+02  0.00000000000E+00 0.  1.
</event>
<event>
 7    1  0.3752192E-015  0.9000777E+02  0.7816164E-02  0.1186339E+00
        -11   -1    0    0    0    0  0.00000000000E+00  0.00000000000E+00  0.45593999997E+02  0.45594000000E+02  0.51100000000E-03 0.  1.
         11   -1    0    0    0    0 -0.00000000000E+00 -0.00000000000E+00 -0.45593999997E+02  0.45594000000E+02  0.51100000000E-03 0. -1.
    9900012    2    1    2    0    0  0.23437978088E+00 -0.52325470104E+00 -0.10316080937E+01  0.90007769250E+02  0.90000031004E+02 0.  0.
        -12    1    1    2    0    0 -0.23437978088E+00  0.52325470104E+00  0.10316080937E+01  0.11802307498E+01  0.00000000000E+00 0.  1.
         11    1    3    3    0    0  0.39464728270E+02 -0.34648266597E+01 -0.10421790429E+01  0.39630240204E+02  0.51100000000E-03 0. -1.
        -11    1    3    3    0    0  0.13178831349E+01 -0.44656869953E+01 -0.71584686845E+01  0.85394877168E+01  0.51100000000E-03 0.  1.
        -12    1    3    3    0    0 -0.40548231624E+02  0.74072589540E+01  0.71690396337E+01  0.41838041330E+02  0.00000000000E+00 0.  1.
</event>
<event>
 7    1  0.3752192E-015  0.9000773E+02  0.7816164E-02  0.1186339E+00
        -11   -1    0    0    0    0  0.00000000000E+00  0.00000000000E+00  0.45593999997E+02  0.45594000000E+02  0.51100000000E-03 0. -1.
         11   -1    0    0    0    0 -0.00000000000E+00 -0.00000000000E+00 -0.45593999997E+02  0.45594000000E+02  0.51100000000E-03 0.  1.
    9900012    2    1    2    0    0 -0.48695669711E+00  0.10220368082E+01  0.33369720912E+00  0.90007728891E+02  0.89999990113E+02 0.  0.
        -12    1    1    2    0    0  0.48695669711E+00 -0.10220368082E+01 -0.33369720912E+00  0.11802711085E+01  0.00000000000E+00 0.  1.
         11    1    3    3    0    0  0.33331395292E+02 -0.21884786185E+02 -0.61856843690E+01  0.40350817462E+02  0.51100000000E-03 0. -1.
        -11    1    3    3    0    0 -0.79344209899E+01 -0.51117297883E+01 -0.37466399437E+01  0.10154906647E+02  0.51100000000E-03 0.  1.
        -12    1    3    3    0    0 -0.25883930999E+02  0.28018552782E+02  0.10266021522E+02  0.39502004783E+02  0.00000000000E+00 0.  1.
</event>
<event>
 7    1  0.3752192E-015  0.9000778E+02  0.7816164E-02  0.1186339E+00
        -11   -1    0    0    0    0  0.00000000000E+00  0.00000000000E+00  0.45593999997E+02  0.45594000000E+02  0.51100000000E-03 0. -1.
         11   -1    0    0    0    0 -0.00000000000E+00 -0.00000000000E+00 -0.45593999997E+02  0.45594000000E+02  0.51100000000E-03 0.  1.
    9900012    2    1    2    0    0 -0.77764090596E+00 -0.64410256253E+00  0.61101294744E+00  0.90007775313E+02  0.90000037147E+02 0.  0.
        -12    1    1    2    0    0  0.77764090596E+00  0.64410256253E+00 -0.61101294744E+00  0.11802246869E+01  0.00000000000E+00 0.  1.
         11    1    3    3    0    0  0.46556780955E+01  0.29728997214E+01 -0.95744292213E+01  0.11053649463E+02  0.51100000000E-03 0. -1.
        -11    1    3    3    0    0 -0.41579020736E+02 -0.30240155731E+01  0.12118250222E+01  0.41706452207E+02  0.51100000000E-03 0.  1.
         12    1    3    3    0    0  0.36145701734E+02 -0.59298671085E+00  0.89736171465E+01  0.37247673643E+02  0.00000000000E+00 0. -1.
</event>
<event>
 7    1  0.3752192E-015  0.9000773E+02  0.7816164E-02  0.1186339E+00
        -11   -1    0    0    0    0  0.00000000000E+00  0.00000000000E+00  0.45593999997E+02  0.45594000000E+02  0.51100000000E-03 0. -1.
         11   -1    0    0    0    0 -0.00000000000E+00 -0.00000000000E+00 -0.45593999997E+02  0.45594000000E+02  0.51100000000E-03 0.  1.
    9900012    2    1    2    0    0  0.70693531360E-01 -0.67853654652E+00  0.96313805466E+00  0.90007727009E+02  0.89999988206E+02 0.  0.
        -12    1    1    2    0    0 -0.70693531360E-01  0.67853654652E+00 -0.96313805466E+00  0.11802729907E+01  0.00000000000E+00 0.  1.
         11    1    3    3    0    0  0.29624939822E+02 -0.55262685241E+01  0.24988617139E+02  0.39148533689E+02  0.51100000000E-03 0. -1.
        -11    1    3    3    0    0 -0.42910934494E+01  0.19948272415E+01  0.84083767466E+01  0.96485034326E+01  0.51100000000E-03 0.  1.
        -12    1    3    3    0    0 -0.25263152841E+02  0.28529047361E+01 -0.32433855831E+02  0.41210689887E+02  0.00000000000E+00 0.  1.
</event>
<event>
 7    1  0.3912746E-015  0.9000770E+02  0.7816164E-02  0.1186339E+00
        -11   -1    0    0    0    0  0.00000000000E+00  0.00000000000E+00  0.45593999997E+02  0.45594000000E+02  0.51100000000E-03 0. -1.
         11   -1    0    0    0    0 -0.00000000000E+00 -0.00000000000E+00 -0.45593999997E+02  0.45594000000E+02  0.51100000000E-03 0.  1.
    9900012    2    1    2    0    0 -0.96913711441E+00  0.65042041575E+00  0.17562676934E+00  0.90007695706E+02  0.89999956490E+02 0.  0.
        -12    1    1    2    0    0  0.96913711441E+00 -0.65042041575E+00 -0.17562676934E+00  0.11803042938E+01  0.00000000000E+00 0.  1.
         11    1    3    3    0    0 -0.31723143803E+02  0.50294950210E+01  0.21387954348E+02  0.38588836007E+02  0.51100000000E-03 0. -1.
        -11    1    3    3    0    0  0.11271115034E+01  0.69204701892E+01  0.63091963155E+01  0.94323510531E+01  0.51100000000E-03 0.  1.
        -12    1    3    3    0    0  0.29626895185E+02 -0.11299544795E+02 -0.27521523894E+02  0.41986508646E+02  0.00000000000E+00 0.  1.
</event>
<event>
 7    1  0.3752192E-015  0.9000768E+02  0.7816164E-02  0.1186339E+00
        -11   -1    0    0    0    0  0.00000000000E+00  0.00000000000E+00  0.45593999997E+02  0.45594000000E+02  0.51100000000E-03 0.  1.
         11   -1    0    0    0    0 -0.00000000000E+00 -0.00000000000E+00 -0.45593999997E+02  0.45594000000E+02  0.51100000000E-03 0. -1.
    9900012    2    1    2    0    0 -0.33497887486E+00  0.76254909030E+00 -0.83634173891E+00  0.90007678236E+02  0.89999938789E+02 0.  0.
        -12    1    1    2    0    0  0.33497887486E+00 -0.76254909030E+00  0.83634173891E+00  0.11803217637E+01  0.00000000000E+00 0.  1.
         11    1    3    3    0    0 -0.24056972397E+02  0.16314720433E+02 -0.27885151666E+02  0.40280140360E+02  0.51100000000E-03 0. -1.
        -11    1    3    3    0    0 -0.11665438528E+01 -0.41907028896E+01 -0.56256511123E+01  0.71113125348E+01  0.51100000000E-03 0.  1.
        -12    1    3    3    0    0  0.24888537375E+02 -0.11361468453E+02  0.32674461040E+02  0.42616225341E+02  0.00000000000E+00 0.  1.
</event>
<event>
 7    1  0.3752192E-015  0.9000771E+02  0.7816164E-02  0.1186339E+00
        -11   -1    0    0    0    0  0.00000000000E+00  0.00000000000E+00  0.45593999997E+02  0.45594000000E+02  0.51100000000E-03 0.  1.
         11   -1    0    0    0    0 -0.00000000000E+00 -0.00000000000E+00 -0.45593999997E+02  0.45594000000E+02  0.51100000000E-03 0. -1.
    9900012    2    1    2    0    0 -0.10303818854E+01  0.48250026457E+00 -0.31398514672E+00  0.90007711896E+02  0.89999972893E+02 0.  0.
        -12    1    1    2    0    0  0.10303818854E+01 -0.48250026457E+00  0.31398514672E+00  0.11802881035E+01  0.00000000000E+00 0.  1.
         11    1    3    3    0    0  0.66672393958E+01 -0.20042252535E+01 -0.57466503112E+01  0.90273467912E+01  0.51100000000E-03 0. -1.
        -11    1    3    3    0    0 -0.27414288922E+02 -0.22474556830E+02  0.25232538204E+02  0.43512411175E+02  0.51100000000E-03 0.  1.
         12    1    3    3    0    0  0.19716667641E+02  0.24961282348E+02 -0.19799873040E+02  0.37467953930E+02  0.00000000000E+00 0. -1.
</event>
<event>
 7    1  0.3752192E-015  0.9000777E+02  0.7816164E-02  0.1186339E+00
        -11   -1    0    0    0    0  0.00000000000E+00  0.00000000000E+00  0.45593999997E+02  0.45594000000E+02  0.51100000000E-03 0.  1.
         11   -1    0    0    0    0 -0.00000000000E+00 -0.00000000000E+00 -0.45593999997E+02  0.45594000000E+02  0.51100000000E-03 0. -1.
    9900012    2    1    2    0    0 -0.96580474955E+00  0.44858038238E+00  0.50886975029E+00  0.90007766296E+02  0.90000028011E+02 0.  0.
        -12    1    1    2    0    0  0.96580474955E+00 -0.44858038238E+00 -0.50886975029E+00  0.11802337042E+01  0.00000000000E+00 0.  1.
         11    1    3    3    0    0  0.84850005715E+01  0.23672689878E+02 -0.28010653049E+02  0.37642903252E+02  0.51100000000E-03 0. -1.
        -11    1    3    3    0    0  0.53846599828E+01 -0.26349688653E+01 -0.66772189779E+01  0.89734540502E+01  0.51100000000E-03 0.  1.
        -12    1    3    3    0    0 -0.14835465304E+02 -0.20589140631E+02  0.35196741777E+02  0.43391408993E+02  0.00000000000E+00 0.  1.
</event>
<event>
 7    1  0.3752192E-015  0.9000764E+02  0.7816164E-02  0.1186339E+00
        -11   -1    0    0    0    0  0.00000000000E+00  0.00000000000E+00  0.45593999997E+02  0.45594000000E+02  0.51100000000E-03 0. -1.
         11   -1    0    0    0    0 -0.00000000000E+00 -0.00000000000E+00 -0.45593999997E+02  0.45594000000E+02  0.51100000000E-03 0.  1.
    9900012    2    1    2    0    0 -0.30406404564E+00  0.10623959542E+01  0.41485109731E+00  0.90007643469E+02  0.89999903563E+02 0.  0.
        -12    1    1    2    0    0  0.30406404564E+00 -0.10623959542E+01 -0.41485109731E+00  0.11803565310E+01  0.00000000000E+00 0.  1.
         11    1    3    3    0    0  0.10851850181E+01  0.22998667109E+02  0.33790617806E+02  0.40889144859E+02  0.51100000000E-03 0. -1.
        -11    1    3    3    0    0  0.25868913116E+01  0.66367277246E+01 -0.78301273730E+01  0.10585322692E+02  0.51100000000E-03 0.  1.
        -12    1    3    3    0    0 -0.39761403753E+01 -0.28572998880E+02 -0.25545639336E+02  0.38533175918E+02  0.00000000000E+00 0.  1.
</event>
<event>
 7    1  0.3752192E-015  0.9000768E+02  0.7816164E-02  0.1186339E+00
        -11   -1    0    0    0    0  0.00000000000E+00  0.00000000000E+00  0.45593999997E+02  0.45594000000E+02  0.51100000000E-03 0. -1.
         11   -1    0    0    0    0 -0.00000000000E+00 -0.00000000000E+00 -0.45593999997E+02  0.45594000000E+02  0.51100000000E-03 0.  1.
    9900012    2    1    2    0    0  0.10335143600E+01  0.53250007491E+00 -0.20356188356E+00  0.90007684067E+02  0.89999944696E+02 0.  0.
        -12    1    1    2    0    0 -0.10335143600E+01 -0.53250007491E+00  0.20356188356E+00  0.11803159334E+01  0.00000000000E+00 0.  1.
         11    1    3    3    0    0 -0.90479684925E+01 -0.16116948264E+01 -0.44586096239E+00  0.92012002649E+01  0.51100000000E-03 0. -1.
        -11    1    3    3    0    0 -0.30364769884E+02 -0.10112139791E+02 -0.15686515712E+02  0.35641848952E+02  0.51100000000E-03 0.  1.
         12    1    3    3    0    0  0.40446252737E+02  0.12256334692E+02  0.15928814791E+02  0.45164634850E+02  0.00000000000E+00 0. -1.
</event>
<event>
 7    1  0.3752192E-015  0.9000766E+02  0.7816164E-02  0.1186339E+00
        -11   -1    0    0    0    0  0.00000000000E+00  0.00000000000E+00  0.45593999997E+02  0.45594000000E+02  0.51100000000E-03 0.  1.
         11   -1    0    0    0    0 -0.00000000000E+00 -0.00000000000E+00 -0.45593999997E+02  0.45594000000E+02  0.51100000000E-03 0. -1.
    9900012    2    1    2    0    0 -0.87043921177E-01  0.31529649220E+00 -0.11341112409E+01  0.90007662409E+02  0.89999922753E+02 0.  0.
        -12    1    1    2    0    0  0.87043921177E-01 -0.31529649220E+00  0.11341112409E+01  0.11803375911E+01  0.00000000000E+00 0.  1.
         11    1    3    3    0    0 -0.56753077780E+01  0.29417113994E+01  0.52371093565E+01  0.82637823668E+01  0.51100000000E-03 0. -1.
        -11    1    3    3    0    0  0.21471035473E+02  0.34364398130E+02 -0.86099563168E+01  0.41425216610E+02  0.51100000000E-03 0.  1.
         12    1    3    3    0    0 -0.15882771616E+02 -0.36990813037E+02  0.22387357194E+01  0.40318663433E+02  0.00000000000E+00 0. -1.
</event>
<event>
 7    1  0.3752192E-015  0.9000782E+02  0.7816164E-02  0.1186339E+00
        -11   -1    0    0    0    0  0.00000000000E+00  0.00000000000E+00  0.45593999997E+02  0.45594000000E+02  0.51100000000E-03 0.  1.
         11   -1    0    0    0    0 -0.00000000000E+00 -0.00000000000E+00 -0.45593999997E+02  0.45594000000E+02  0.51100000000E-03 0. -1.
    9900012    2    1    2    0    0 -0.11018106267E+01 -0.30165867363E+00 -0.29635871026E+00  0.90007824972E+02  0.90000087461E+02 0.  0.
        -12    1    1    2    0    0  0.11018106267E+01  0.30165867363E+00  0.29635871026E+00  0.11801750284E+01  0.00000000000E+00 0.  1.
         11    1    3    3    0    0  0.14289050414E+02 -0.13820713458E+02 -0.36725727343E+02  0.41760844476E+02  0.51100000000E-03 0. -1.
        -11    1    3    3    0    0 -0.39959858438E+01 -0.68333339716E+01  0.61443808219E+01  0.10020767035E+02  0.51100000000E-03 0.  1.
        -12    1    3    3    0    0 -0.11394875197E+02  0.20352388756E+02  0.30284987811E+02  0.38226213460E+02  0.00000000000E+00 0.  1.
</event>
<event>
 7    1  0.3752192E-015  0.9000763E+02  0.7816164E-02  0.1186339E+00
        -11   -1    0    0    0    0  0.00000000000E+00  0.00000000000E+00  0.45593999997E+02  0.45594000000E+02  0.51100000000E-03 0.  1.
         11   -1    0    0    0    0 -0.00000000000E+00 -0.00000000000E+00 -0.45593999997E+02  0.45594000000E+02  0.51100000000E-03 0. -1.
    9900012    2    1    2    0    0 -0.11012959971E+01  0.28331689390E+00  0.31645237587E+00  0.90007634192E+02  0.89999894163E+02 0.  0.
        -12    1    1    2    0    0  0.11012959971E+01 -0.28331689390E+00 -0.31645237587E+00  0.11803658085E+01  0.00000000000E+00 0.  1.
         11    1    3    3    0    0 -0.48679697819E+01 -0.31561278440E+01  0.82341824498E+01  0.10072737148E+02  0.51100000000E-03 0. -1.
        -11    1    3    3    0    0  0.35941295392E+02 -0.15550767235E+02  0.68600826770E+01  0.39757562936E+02  0.51100000000E-03 0.  1.
         12    1    3    3    0    0 -0.32174621607E+02  0.18990211973E+02 -0.14777812751E+02  0.40177334108E+02  0.00000000000E+00 0. -1.
</event>
<event>
 7    1  0.3752192E-015  0.9000800E+02  0.7816164E-02  0.1186339E+00
        -11   -1    0    0    0    0  0.00000000000E+00  0.00000000000E+00  0.45593999997E+02  0.45594000000E+02  0.51100000000E-03 0.  1.
         11   -1    0    0    0    0 -0.00000000000E+00 -0.00000000000E+00 -0.45593999997E+02  0.45594000000E+02  0.51100000000E-03 0. -1.
    9900012    2    1    2    0    0  0.37371763203E-01 -0.29537026993E+00 -0.11418185965E+01  0.90008004257E+02  0.90000269113E+02 0.  0.
        -12    1    1    2    0    0 -0.37371763203E-01  0.29537026993E+00  0.11418185965E+01  0.11799957425E+01  0.00000000000E+00 0.  1.
         11    1    3    3    0    0 -0.23676333294E+02  0.60235166845E+01 -0.28449056296E+02  0.37499337539E+02  0.51100000000E-03 0. -1.
        -11    1    3    3    0    0 -0.96994227171E+01 -0.59999383628E+01  0.61261069168E+01  0.12946321780E+02  0.51100000000E-03 0.  1.
        -12    1    3    3    0    0  0.33413127774E+02 -0.31894859164E+00  0.21181130783E+02  0.39562344939E+02  0.00000000000E+00 0.  1.
</event>
<event>
 7    1  0.3752192E-015  0.9000770E+02  0.7816164E-02  0.1186339E+00
        -11   -1    0    0    0    0  0.00000000000E+00  0.00000000000E+00  0.45593999997E+02  0.45594000000E+02  0.51100000000E-03 0.  1.
         11   -1    0    0    0    0 -0.00000000000E+00 -0.00000000000E+00 -0.45593999997E+02  0.45594000000E+02  0.51100000000E-03 0. -1.
    9900012    2    1    2    0    0 -0.10862949679E+01 -0.21542357441E+00 -0.40823908269E+00  0.90007702062E+02  0.89999962929E+02 0.  0.
        -12    1    1    2    0    0  0.10862949679E+01  0.21542357441E+00  0.40823908269E+00  0.11802979379E+01  0.00000000000E+00 0.  1.
         11    1    3    3    0    0  0.35339876417E+02 -0.83122288686E+01  0.58528045518E+01  0.36773024561E+02  0.51100000000E-03 0. -1.
        -11    1    3    3    0    0  0.59800403634E+01 -0.55924615705E+01  0.30095375531E+00  0.81931118990E+01  0.51100000000E-03 0.  1.
        -12    1    3    3    0    0 -0.42406211749E+02  0.13689266865E+02 -0.65619973898E+01  0.45041565602E+02  0.00000000000E+00 0.  1.
</event>
<event>
 7    1  0.3752192E-015  0.9000766E+02  0.7816164E-02  0.1186339E+00
        -11   -1    0    0    0    0  0.00000000000E+00  0.00000000000E+00  0.45593999997E+02  0.45594000000E+02  0.51100000000E-03 0. -1.
         11   -1    0    0    0    0 -0.00000000000E+00 -0.00000000000E+00 -0.45593999997E+02  0.45594000000E+02  0.51100000000E-03 0.  1.
    9900012    2    1    2    0    0  0.53852420477E+00  0.10489808064E+01 -0.53178809771E-01  0.90007662321E+02  0.89999922663E+02 0.  0.
        -12    1    1    2    0    0 -0.53852420477E+00 -0.10489808064E+01  0.53178809771E-01  0.11803376793E+01  0.00000000000E+00 0.  1.
         11    1    3    3    0    0 -0.65479904772E+01 -0.69572174093E+01  0.18490923937E+01  0.97312998264E+01  0.51100000000E-03 0. -1.
        -11    1    3    3    0    0  0.38907302368E+02  0.21777766884E+02  0.51799588057E+01  0.44887428992E+02  0.51100000000E-03 0.  1.
         12    1    3    3    0    0 -0.31820787686E+02 -0.13771568668E+02 -0.70822300092E+01  0.35388933503E+02  0.00000000000E+00 0. -1.
</event>
<event>
 7    1  0.3752192E-015  0.9000779E+02  0.7816164E-02  0.1186339E+00
        -11   -1    0    0    0    0  0.00000000000E+00  0.00000000000E+00  0.45593999997E+02  0.45594000000E+02  0.51100000000E-03 0. -1.
         11   -1    0    0    0    0 -0.00000000000E+00 -0.00000000000E+00 -0.45593999997E+02  0.45594000000E+02  0.51100000000E-03 0.  1.
    9900012    2    1    2    0    0 -0.36048193082E+00 -0.10777286824E+01  0.31849868829E+00  0.90007793345E+02  0.90000055417E+02 0.  0.
        -12    1    1    2    0    0  0.36048193082E+00  0.10777286824E+01 -0.31849868829E+00  0.11802066555E+01  0.00000000000E+00 0.  1.
         11    1    3    3    0    0 -0.48754239737E+00  0.59526186495E+01  0.60965062189E+01  0.85345623621E+01  0.51100000000E-03 0. -1.
        -11    1    3    3    0    0 -0.17895240250E+02  0.75923911525E+01 -0.37458009550E+02  0.42201735826E+02  0.51100000000E-03 0.  1.
         12    1    3    3    0    0  0.18022300716E+02 -0.14622738484E+02  0.31680002019E+02  0.39271495157E+02  0.00000000000E+00 0. -1.
</event>
<event>
 7    1  0.3752192E-015  0.9000777E+02  0.7816164E-02  0.1186339E+00
        -11   -1    0    0    0    0  0.00000000000E+00  0.00000000000E+00  0.45593999997E+02  0.45594000000E+02  0.51100000000E-03 0.  1.
         11   -1    0    0    0    0 -0.00000000000E+00 -0.00000000000E+00 -0.45593999997E+02  0.45594000000E+02  0.51100000000E-03 0. -1.
    9900012    2    1    2    0    0  0.99149837745E+00  0.94766074000E-01  0.63316507748E+00  0.90007767965E+02  0.90000029702E+02 0.  0.
        -12    1    1    2    0    0 -0.99149837745E+00 -0.94766074000E-01 -0.63316507748E+00  0.11802320351E+01  0.00000000000E+00 0.  1.
         11    1    3    3    0    0  0.17479157370E+01  0.18850547935E+00  0.12263575266E+02  0.12388947587E+02  0.51100000000E-03 0. -1.
        -11    1    3    3    0    0  0.24092705634E+02  0.20572851590E+02  0.15639573892E+02  0.35331246215E+02  0.51100000000E-03 0.  1.
         12    1    3    3    0    0 -0.24849122993E+02 -0.20666590996E+02 -0.27269984080E+02  0.42287574164E+02  0.00000000000E+00 0. -1.
</event>
<event>
 7    1  0.3752192E-015  0.9000851E+02  0.7816164E-02  0.1186338E+00
        -11   -1    0    0    0    0  0.00000000000E+00  0.00000000000E+00  0.45593999997E+02  0.45594000000E+02  0.51100000000E-03 0.  1.
         11   -1    0    0    0    0 -0.00000000000E+00 -0.00000000000E+00 -0.45593999997E+02  0.45594000000E+02  0.51100000000E-03 0. -1.
    9900012    2    1    2    0    0 -0.63513342449E+00  0.93412827932E+00  0.33942808297E+00  0.90008507934E+02  0.90000779436E+02 0.  0.
        -12    1    1    2    0    0  0.63513342449E+00 -0.93412827932E+00 -0.33942808297E+00  0.11794920655E+01  0.00000000000E+00 0.  1.
         11    1    3    3    0    0  0.34659063171E+01 -0.19811559085E+02 -0.41137251242E+01  0.20528836173E+02  0.51100000000E-03 0. -1.
        -11    1    3    3    0    0 -0.26337296246E+01 -0.19781083892E+02  0.17846674469E+02  0.26771843447E+02  0.51100000000E-03 0.  1.
         12    1    3    3    0    0 -0.14673101170E+01  0.40526771257E+02 -0.13393521262E+02  0.42707828314E+02  0.00000000000E+00 0. -1.
</event>
<event>
 7    1  0.3752192E-015  0.9000770E+02  0.7816164E-02  0.1186339E+00
        -11   -1    0    0    0    0  0.00000000000E+00  0.00000000000E+00  0.45593999997E+02  0.45594000000E+02  0.51100000000E-03 0. -1.
         11   -1    0    0    0    0 -0.00000000000E+00 -0.00000000000E+00 -0.45593999997E+02  0.45594000000E+02  0.51100000000E-03 0.  1.
    9900012    2    1    2    0    0  0.13985034558E-01 -0.91507442481E+00  0.74534576086E+00  0.90007704661E+02  0.89999965562E+02 0.  0.
        -12    1    1    2    0    0 -0.13985034558E-01  0.91507442481E+00 -0.74534576086E+00  0.11802953390E+01  0.00000000000E+00 0.  1.
         11    1    3    3    0    0 -0.52144577790E+01 -0.43760985827E+02 -0.34570306676E+01  0.44205944303E+02  0.51100000000E-03 0. -1.
        -11    1    3    3    0    0  0.71715478134E-01  0.79374629297E+01 -0.49399449555E+01  0.93494126711E+01  0.51100000000E-03 0.  1.
        -12    1    3    3    0    0  0.51567273355E+01  0.34908448472E+02  0.91423213840E+01  0.36452347686E+02  0.00000000000E+00 0.  1.
</event>
<event>
 7    1  0.3752192E-015  0.9000774E+02  0.7816164E-02  0.1186339E+00
        -11   -1    0    0    0    0  0.00000000000E+00  0.00000000000E+00  0.45593999997E+02  0.45594000000E+02  0.51100000000E-03 0. -1.
         11   -1    0    0    0    0 -0.00000000000E+00 -0.00000000000E+00 -0.45593999997E+02  0.45594000000E+02  0.51100000000E-03 0.  1.
    9900012    2    1    2    0    0  0.19482478842E+00  0.46639789738E+00  0.10665482352E+01  0.90007742047E+02  0.90000003442E+02 0.  0.
        -12    1    1    2    0    0 -0.19482478842E+00 -0.46639789738E+00 -0.10665482352E+01  0.11802579526E+01  0.00000000000E+00 0.  1.
         11    1    3    3    0    0 -0.38272185417E+02 -0.19712100685E+02 -0.43949032497E+01  0.43274036845E+02  0.51100000000E-03 0. -1.
        -11    1    3    3    0    0  0.25180808410E+01  0.51584172910E+01  0.52403635459E+01  0.77724777532E+01  0.51100000000E-03 0.  1.
        -12    1    3    3    0    0  0.35948929365E+02  0.15020081291E+02  0.22108793901E+00  0.38961227449E+02  0.00000000000E+00 0.  1.
</event>
<event>
 7    1  0.3752192E-015  0.9000779E+02  0.7816164E-02  0.1186339E+00
        -11   -1    0    0    0    0  0.00000000000E+00  0.00000000000E+00  0.45593999997E+02  0.45594000000E+02  0.51100000000E-03 0.  1.
         11   -1    0    0    0    0 -0.00000000000E+00 -0.00000000000E+00 -0.45593999997E+02  0.45594000000E+02  0.51100000000E-03 0. -1.
    9900012    2    1    2    0    0 -0.11448722090E+01 -0.15603446364E+00 -0.24046224121E+00  0.90007787638E+02  0.90000049635E+02 0.  0.
        -12    1    1    2    0    0  0.11448722090E+01  0.15603446364E+00  0.24046224121E+00  0.11802123615E+01  0.00000000000E+00 0.  1.
         11    1    3    3    0    0  0.15827134394E+01  0.74931112128E+01 -0.41960121874E+01  0.87325950333E+01  0.51100000000E-03 0. -1.
        -11    1    3    3    0    0 -0.18452271019E+02  0.24476329461E+02 -0.21442089682E+02  0.37407756146E+02  0.51100000000E-03 0.  1.
         12    1    3    3    0    0  0.15724685370E+02 -0.32125475138E+02  0.25397639629E+02  0.43867436459E+02  0.00000000000E+00 0. -1.
</event>
<event>
 7    1  0.3752192E-015  0.9000776E+02  0.7816164E-02  0.1186339E+00
        -11   -1    0    0    0    0  0.00000000000E+00  0.00000000000E+00  0.45593999997E+02  0.45594000000E+02  0.51100000000E-03 0.  1.
         11   -1    0    0    0    0 -0.00000000000E+00 -0.00000000000E+00 -0.45593999997E+02  0.45594000000E+02  0.51100000000E-03 0. -1.
    9900012    2    1    2    0    0  0.37075149651E+00 -0.37132411713E+00 -0.10571748831E+01  0.90007764004E+02  0.90000025689E+02 0.  0.
        -12    1    1    2    0    0 -0.37075149651E+00  0.37132411713E+00  0.10571748831E+01  0.11802359957E+01  0.00000000000E+00 0.  1.
         11    1    3    3    0    0 -0.69774343485E+01 -0.34967670541E+01 -0.15425241134E+01  0.79555861393E+01  0.51100000000E-03 0. -1.
        -11    1    3    3    0    0  0.19870930345E+02 -0.31121702771E+02  0.18590141082E+02  0.41340145160E+02  0.51100000000E-03 0.  1.
         12    1    3    3    0    0 -0.12522744500E+02  0.34247145708E+02 -0.18104791852E+02  0.40712032705E+02  0.00000000000E+00 0. -1.
</event>
<event>
 7    1  0.3752192E-015  0.9000772E+02  0.7816164E-02  0.1186339E+00
        -11   -1    0    0    0    0  0.00000000000E+00  0.00000000000E+00  0.45593999997E+02  0.45594000000E+02  0.51100000000E-03 0. -1.
         11   -1    0    0    0    0 -0.00000000000E+00 -0.00000000000E+00 -0.45593999997E+02  0.45594000000E+02  0.51100000000E-03 0.  1.
    9900012    2    1    2    0    0 -0.17994470374E+00  0.77542348026E+00  0.87144063615E+00  0.90007715944E+02  0.89999976995E+02 0.  0.
        -12    1    1    2    0    0  0.17994470374E+00 -0.77542348026E+00 -0.87144063615E+00  0.11802840558E+01  0.00000000000E+00 0.  1.
         11    1    3    3    0    0  0.34837042075E+02  0.94833451485E+01  0.56645170280E+01  0.36546410072E+02  0.51100000000E-03 0. -1.
        -11    1    3    3    0    0  0.79822174615E+01 -0.55447798772E+01  0.16784453739E+01  0.98629386404E+01  0.51100000000E-03 0.  1.
        -12    1    3    3    0    0 -0.42999204240E+02 -0.31631417910E+01 -0.64715217658E+01  0.43598367232E+02  0.00000000000E+00 0.  1.
</event>
<event>
 7    1  0.3752192E-015  0.9000778E+02  0.7816164E-02  0.1186339E+00
        -11   -1    0    0    0    0  0.00000000000E+00  0.00000000000E+00  0.45593999997E+02  0.45594000000E+02  0.51100000000E-03 0.  1.
         11   -1    0    0    0    0 -0.00000000000E+00 -0.00000000000E+00 -0.45593999997E+02  0.45594000000E+02  0.51100000000E-03 0. -1.
    9900012    2    1    2    0    0  0.61831576919E+00 -0.68096868141E+00 -0.73952094760E+00  0.90007778001E+02  0.90000039870E+02 0.  0.
        -12    1    1    2    0    0 -0.61831576919E+00  0.68096868141E+00  0.73952094760E+00  0.11802219992E+01  0.00000000000E+00 0.  1.
         11    1    3    3    0    0 -0.60285228002E+01 -0.58187510657E+01 -0.40864084462E+01  0.93220000734E+01  0.51100000000E-03 0. -1.
        -11    1    3    3    0    0 -0.37963507650E+01  0.89113102248E+00  0.41100407832E+02  0.41284984169E+02  0.51100000000E-03 0.  1.
         12    1    3    3    0    0  0.10443189334E+02  0.42466513618E+01 -0.37753520333E+02  0.39400793759E+02  0.00000000000E+00 0. -1.
</event>
<event>
 7    1  0.3752192E-015  0.9000646E+02  0.7816164E-02  0.1186342E+00
        -11   -1    0    0    0    0  0.00000000000E+00  0.00000000000E+00  0.45593999997E+02  0.45594000000E+02  0.51100000000E-03 0. -1.
         11   -1    0    0    0    0 -0.00000000000E+00 -0.00000000000E+00 -0.45593999997E+02  0.45594000000E+02  0.51100000000E-03 0.  1.
    9900012    2    1    2    0    0 -0.11545001131E+01  0.91865189672E-01  0.23395685632E+00  0.90006456292E+02  0.89998700705E+02 0.  0.
        -12    1    1    2    0    0  0.11545001131E+01 -0.91865189672E-01 -0.23395685632E+00  0.11815437084E+01  0.00000000000E+00 0.  1.
         11    1    3    3    0    0  0.46872083791E+01 -0.12849536458E+02 -0.81251727638E+01  0.15909083640E+02  0.51100000000E-03 0. -1.
        -11    1    3    3    0    0 -0.21943397988E+02 -0.16937466708E+02 -0.16288027898E+02  0.32151055143E+02  0.51100000000E-03 0.  1.
         12    1    3    3    0    0  0.16101689496E+02  0.29878868355E+02  0.24647157518E+02  0.41946317508E+02  0.00000000000E+00 0. -1.
</event>
<event>
 7    1  0.3752192E-015  0.9000777E+02  0.7816164E-02  0.1186339E+00
        -11   -1    0    0    0    0  0.00000000000E+00  0.00000000000E+00  0.45593999997E+02  0.45594000000E+02  0.51100000000E-03 0.  1.
         11   -1    0    0    0    0 -0.00000000000E+00 -0.00000000000E+00 -0.45593999997E+02  0.45594000000E+02  0.51100000000E-03 0. -1.
    9900012    2    1    2    0    0 -0.25747924422E+00  0.51113356037E+00 -0.10321728477E+01  0.90007773808E+02  0.90000035622E+02 0.  0.
        -12    1    1    2    0    0  0.25747924422E+00 -0.51113356037E+00  0.10321728477E+01  0.11802261924E+01  0.00000000000E+00 0.  1.
         11    1    3    3    0    0 -0.22023279063E+02 -0.12348755570E+02  0.88021470009E+01  0.26739378768E+02  0.51100000000E-03 0. -1.
        -11    1    3    3    0    0 -0.44085331676E+01  0.14270104881E+02  0.19086993339E+02  0.24236013966E+02  0.51100000000E-03 0.  1.
        -12    1    3    3    0    0  0.26174332987E+02 -0.14102157502E+01 -0.28921313187E+02  0.39032381073E+02  0.00000000000E+00 0.  1.
</event>
<event>
 7    1  0.3752192E-015  0.9000779E+02  0.7816164E-02  0.1186339E+00
        -11   -1    0    0    0    0  0.00000000000E+00  0.00000000000E+00  0.45593999997E+02  0.45594000000E+02  0.51100000000E-03 0.  1.
         11   -1    0    0    0    0 -0.00000000000E+00 -0.00000000000E+00 -0.45593999997E+02  0.45594000000E+02  0.51100000000E-03 0. -1.
    9900012    2    1    2    0    0 -0.12852639808E+00 -0.64218579641E+00 -0.98181758121E+00  0.90007793495E+02  0.90000055569E+02 0.  0.
        -12    1    1    2    0    0  0.12852639808E+00  0.64218579641E+00  0.98181758121E+00  0.11802065052E+01  0.00000000000E+00 0.  1.
         11    1    3    3    0    0  0.18930458314E+02  0.23759820765E+02 -0.21603516512E+02  0.37277382697E+02  0.51100000000E-03 0. -1.
        -11    1    3    3    0    0  0.52590197634E+01  0.42351766698E+01 -0.39655408591E+01  0.78306784420E+01  0.51100000000E-03 0.  1.
        -12    1    3    3    0    0 -0.24318004476E+02 -0.28637183231E+02  0.24587239790E+02  0.44899732356E+02  0.00000000000E+00 0.  1.
</event>
<event>
 7    1  0.3752192E-015  0.9000769E+02  0.7816164E-02  0.1186339E+00
        -11   -1    0    0    0    0  0.00000000000E+00  0.00000000000E+00  0.45593999997E+02  0.45594000000E+02  0.51100000000E-03 0.  1.
         11   -1    0    0    0    0 -0.00000000000E+00 -0.00000000000E+00 -0.45593999997E+02  0.45594000000E+02  0.51100000000E-03 0. -1.
    9900012    2    1    2    0    0  0.11518992160E-01 -0.96339377754E+00  0.68181261267E+00  0.90007691271E+02  0.89999951995E+02 0.  0.
        -12    1    1    2    0    0 -0.11518992160E-01  0.96339377754E+00 -0.68181261267E+00  0.11803087294E+01  0.00000000000E+00 0.  1.
         11    1    3    3    0    0  0.69428610645E+01 -0.69840816221E+01 -0.40763922290E+02  0.41936595911E+02  0.51100000000E-03 0. -1.
        -11    1    3    3    0    0  0.21138870071E-01 -0.75791167355E+01  0.66983616425E+01  0.10114915041E+02  0.51100000000E-03 0.  1.
        -12    1    3    3    0    0 -0.69524809424E+01  0.13599804580E+02  0.34747373260E+02  0.37956180318E+02  0.00000000000E+00 0.  1.
</event>
<event>
 7    1  0.3752192E-015  0.9000773E+02  0.7816164E-02  0.1186339E+00
        -11   -1    0    0    0    0  0.00000000000E+00  0.00000000000E+00  0.45593999997E+02  0.45594000000E+02  0.51100000000E-03 0.  1.
         11   -1    0    0    0    0 -0.00000000000E+00 -0.00000000000E+00 -0.45593999997E+02  0.45594000000E+02  0.51100000000E-03 0. -1.
    9900012    2    1    2    0    0 -0.75167918481E+00 -0.31371824648E+00 -0.85416721641E+00  0.90007727841E+02  0.89999989049E+02 0.  0.
        -12    1    1    2    0    0  0.75167918481E+00  0.31371824648E+00  0.85416721641E+00  0.11802721587E+01  0.00000000000E+00 0.  1.
         11    1    3    3    0    0 -0.55866247990E+01 -0.24065230862E+02 -0.21060504879E+02  0.32463680923E+02  0.51100000000E-03 0. -1.
        -11    1    3    3    0    0  0.23486931976E+02  0.77319262531E+01 -0.14639766101E+01  0.24770181368E+02  0.51100000000E-03 0.  1.
        -12    1    3    3    0    0 -0.18651986362E+02  0.16019586362E+02  0.21670314272E+02  0.32773865550E+02  0.00000000000E+00 0.  1.
</event>
<event>
 7    1  0.3752192E-015  0.9000773E+02  0.7816164E-02  0.1186339E+00
        -11   -1    0    0    0    0  0.00000000000E+00  0.00000000000E+00  0.45593999997E+02  0.45594000000E+02  0.51100000000E-03 0.  1.
         11   -1    0    0    0    0 -0.00000000000E+00 -0.00000000000E+00 -0.45593999997E+02  0.45594000000E+02  0.51100000000E-03 0. -1.
    9900012    2    1    2    0    0 -0.66480484559E+00  0.56062569560E+00  0.79797754919E+00  0.90007731038E+02  0.89999992288E+02 0.  0.
        -12    1    1    2    0    0  0.66480484559E+00 -0.56062569560E+00 -0.79797754919E+00  0.11802689618E+01  0.00000000000E+00 0.  1.
         11    1    3    3    0    0  0.34743262807E+02  0.37506736461E+01 -0.17752875027E+02  0.39196000246E+02  0.51100000000E-03 0. -1.
        -11    1    3    3    0    0  0.24526151594E+01 -0.86752108998E+01  0.42929966623E+01  0.99852103573E+01  0.51100000000E-03 0.  1.
        -12    1    3    3    0    0 -0.37860682812E+02  0.54851629493E+01  0.14257855914E+02  0.40826520435E+02  0.00000000000E+00 0.  1.
</event>
<event>
 7    1  0.3752192E-015  0.9000774E+02  0.7816164E-02  0.1186339E+00
        -11   -1    0    0    0    0  0.00000000000E+00  0.00000000000E+00  0.45593999997E+02  0.45594000000E+02  0.51100000000E-03 0. -1.
         11   -1    0    0    0    0 -0.00000000000E+00 -0.00000000000E+00 -0.45593999997E+02  0.45594000000E+02  0.51100000000E-03 0.  1.
    9900012    2    1    2    0    0 -0.23640233373E+00 -0.41348437595E+00  0.10798830236E+01  0.90007744631E+02  0.90000006060E+02 0.  0.
        -12    1    1    2    0    0  0.23640233373E+00  0.41348437595E+00 -0.10798830236E+01  0.11802553695E+01  0.00000000000E+00 0.  1.
         11    1    3    3    0    0  0.14715440778E+02  0.62381673540E+01  0.31698781440E+02  0.35500305270E+02  0.51100000000E-03 0. -1.
        -11    1    3    3    0    0  0.23006558695E+01  0.10376157399E+02  0.47400723216E+01  0.11637265387E+02  0.51100000000E-03 0.  1.
        -12    1    3    3    0    0 -0.17252498982E+02 -0.17027809129E+02 -0.35358970738E+02  0.42870173973E+02  0.00000000000E+00 0.  1.
</event>
<event>
 7    1  0.3752192E-015  0.9000775E+02  0.7816164E-02  0.1186339E+00
        -11   -1    0    0    0    0  0.00000000000E+00  0.00000000000E+00  0.45593999997E+02  0.45594000000E+02  0.51100000000E-03 0. -1.
         11   -1    0    0    0    0 -0.00000000000E+00 -0.00000000000E+00 -0.45593999997E+02  0.45594000000E+02  0.51100000000E-03 0.  1.
    9900012    2    1    2    0    0  0.96490083232E+00  0.21577342584E+00  0.64451906087E+00  0.90007747227E+02  0.90000008691E+02 0.  0.
        -12    1    1    2    0    0 -0.96490083232E+00 -0.21577342584E+00 -0.64451906087E+00  0.11802527726E+01  0.00000000000E+00 0.  1.
         11    1    3    3    0    0 -0.35655684526E+02  0.17541899358E+02  0.54551540255E+01  0.40109908723E+02  0.51100000000E-03 0. -1.
        -11    1    3    3    0    0 -0.30116533766E+01 -0.62095929555E+01 -0.53505024337E+01  0.87325241075E+01  0.51100000000E-03 0.  1.
        -12    1    3    3    0    0  0.39632238734E+02 -0.11116532976E+02  0.53986746908E+00  0.41165314397E+02  0.00000000000E+00 0.  1.
</event>
<event>
 7    1  0.3752192E-015  0.9000764E+02  0.7816164E-02  0.1186339E+00
        -11   -1    0    0    0    0  0.00000000000E+00  0.00000000000E+00  0.45593999997E+02  0.45594000000E+02  0.51100000000E-03 0.  1.
         11   -1    0    0    0    0 -0.00000000000E+00 -0.00000000000E+00 -0.45593999997E+02  0.45594000000E+02  0.51100000000E-03 0. -1.
    9900012    2    1    2    0    0 -0.83373344210E-01 -0.98048324557E+00 -0.65187507803E+00  0.90007644280E+02  0.89999904384E+02 0.  0.
        -12    1    1    2    0    0  0.83373344210E-01  0.98048324557E+00  0.65187507803E+00  0.11803557204E+01  0.00000000000E+00 0.  1.
         11    1    3    3    0    0 -0.35245818065E+02  0.16771220775E+02  0.81301499448E+01  0.39870300673E+02  0.51100000000E-03 0. -1.
        -11    1    3    3    0    0  0.15297821193E+01 -0.25367773363E+01  0.87743987499E+01  0.92609689703E+01  0.51100000000E-03 0.  1.
        -12    1    3    3    0    0  0.33632662602E+02 -0.15214926684E+02 -0.17556423773E+02  0.40876374636E+02  0.00000000000E+00 0.  1.
</event>
<event>
 7    1  0.3752192E-015  0.9000786E+02  0.7816164E-02  0.1186339E+00
        -11   -1    0    0    0    0  0.00000000000E+00  0.00000000000E+00  0.45593999997E+02  0.45594000000E+02  0.51100000000E-03 0.  1.
         11   -1    0    0    0    0 -0.00000000000E+00 -0.00000000000E+00 -0.45593999997E+02  0.45594000000E+02  0.51100000000E-03 0. -1.
    9900012    2    1    2    0    0  0.84688186884E+00  0.78456834319E+00 -0.24491341280E+00  0.90007856380E+02  0.90000119284E+02 0.  0.
        -12    1    1    2    0    0 -0.84688186884E+00 -0.78456834319E+00  0.24491341280E+00  0.11801436204E+01  0.00000000000E+00 0.  1.
         11    1    3    3    0    0  0.30623571333E+02  0.17588555048E+02  0.11795863187E+02  0.37233087146E+02  0.51100000000E-03 0. -1.
        -11    1    3    3    0    0  0.84079598487E+01  0.19320569762E+01 -0.22315071143E+00  0.86299727391E+01  0.51100000000E-03 0.  1.
        -12    1    3    3    0    0 -0.38184649312E+02 -0.18736043681E+02 -0.11817625888E+02  0.44144796495E+02  0.00000000000E+00 0.  1.
</event>
<event>
 7    1  0.3752192E-015  0.9000769E+02  0.7816164E-02  0.1186339E+00
        -11   -1    0    0    0    0  0.00000000000E+00  0.00000000000E+00  0.45593999997E+02  0.45594000000E+02  0.51100000000E-03 0. -1.
         11   -1    0    0    0    0 -0.00000000000E+00 -0.00000000000E+00 -0.45593999997E+02  0.45594000000E+02  0.51100000000E-03 0.  1.
    9900012    2    1    2    0    0  0.52479564837E+00  0.59318349172E+00  0.87512889893E+00  0.90007691686E+02  0.89999952416E+02 0.  0.
        -12    1    1    2    0    0 -0.52479564837E+00 -0.59318349172E+00 -0.87512889893E+00  0.11803083144E+01  0.00000000000E+00 0.  1.
         11    1    3    3    0    0 -0.16697070507E+02  0.26378974008E+02  0.21012175505E+02  0.37631821016E+02  0.51100000000E-03 0. -1.
        -11    1    3    3    0    0  0.22817208791E+01  0.62528430093E+01  0.55594042820E+01  0.86724432602E+01  0.51100000000E-03 0.  1.
        -12    1    3    3    0    0  0.14940145277E+02 -0.32038633525E+02 -0.25696450889E+02  0.43703427409E+02  0.00000000000E+00 0.  1.
</event>
<event>
 7    1  0.3752192E-015  0.9000772E+02  0.7816164E-02  0.1186339E+00
        -11   -1    0    0    0    0  0.00000000000E+00  0.00000000000E+00  0.45593999997E+02  0.45594000000E+02  0.51100000000E-03 0. -1.
         11   -1    0    0    0    0 -0.00000000000E+00 -0.00000000000E+00 -0.45593999997E+02  0.45594000000E+02  0.51100000000E-03 0.  1.
    9900012    2    1    2    0    0  0.29559160607E+00  0.11290506212E+01 -0.17586489584E+00  0.90007721150E+02  0.89999982269E+02 0.  0.
        -12    1    1    2    0    0 -0.29559160607E+00 -0.11290506212E+01  0.17586489584E+00  0.11802788503E+01  0.00000000000E+00 0.  1.
         11    1    3    3    0    0  0.15225944125E+02  0.28787765607E+02  0.18571525372E+02  0.37489550252E+02  0.51100000000E-03 0. -1.
        -11    1    3    3    0    0  0.43291052437E+01  0.69744004160E+01  0.95215271187E+00  0.82637768861E+01  0.51100000000E-03 0.  1.
        -12    1    3    3    0    0 -0.19259457763E+02 -0.34633115402E+02 -0.19699542979E+02  0.44254394012E+02  0.00000000000E+00 0.  1.
</event>
<event>
 7    1  0.3752192E-015  0.9000771E+02  0.7816164E-02  0.1186339E+00
        -11   -1    0    0    0    0  0.00000000000E+00  0.00000000000E+00  0.45593999997E+02  0.45594000000E+02  0.51100000000E-03 0.  1.
         11   -1    0    0    0    0 -0.00000000000E+00 -0.00000000000E+00 -0.45593999997E+02  0.45594000000E+02  0.51100000000E-03 0. -1.
    9900012    2    1    2    0    0  0.10893671992E+01 -0.36325890100E+00  0.27278344037E+00  0.90007708202E+02  0.89999969150E+02 0.  0.
        -12    1    1    2    0    0 -0.10893671992E+01  0.36325890100E+00 -0.27278344037E+00  0.11802917983E+01  0.00000000000E+00 0.  1.
         11    1    3    3    0    0 -0.32232396720E+02  0.10275622023E+02 -0.21285874473E+02  0.39970042014E+02  0.51100000000E-03 0. -1.
        -11    1    3    3    0    0 -0.53783119427E+00  0.61767806958E+01  0.74334249066E+01  0.96797566219E+01  0.51100000000E-03 0.  1.
        -12    1    3    3    0    0  0.33859595114E+02 -0.16815661620E+02  0.14125233007E+02  0.40357909565E+02  0.00000000000E+00 0.  1.
</event>
<event>
 7    1  0.3752192E-015  0.9000777E+02  0.7816164E-02  0.1186339E+00
        -11   -1    0    0    0    0  0.00000000000E+00  0.00000000000E+00  0.45593999997E+02  0.45594000000E+02  0.51100000000E-03 0. -1.
         11   -1    0    0    0    0 -0.00000000000E+00 -0.00000000000E+00 -0.45593999997E+02  0.45594000000E+02  0.51100000000E-03 0.  1.
    9900012    2    1    2    0    0  0.57182558490E-02  0.89230088848E+00  0.77246277334E+00  0.90007774466E+02  0.90000036289E+02 0.  0.
        -12    1    1    2    0    0 -0.57182558490E-02 -0.89230088848E+00 -0.77246277334E+00  0.11802255336E+01  0.00000000000E+00 0.  1.
         11    1    3    3    0    0  0.41948932655E+01  0.70065531451E+01 -0.46328557968E+01  0.93889440077E+01  0.51100000000E-03 0. -1.
        -11    1    3    3    0    0  0.24502638255E+02 -0.24987345580E+02 -0.17709268854E+02  0.39221995413E+02  0.51100000000E-03 0.  1.
         12    1    3    3    0    0 -0.28691813264E+02  0.18873093323E+02  0.23114587425E+02  0.41396835046E+02  0.00000000000E+00 0. -1.
</event>
<event>
 7    1  0.3752192E-015  0.9000852E+02  0.7816164E-02  0.1186337E+00
        -11   -1    0    0    0    0  0.00000000000E+00  0.00000000000E+00  0.45593999997E+02  0.45594000000E+02  0.51100000000E-03 0. -1.
         11   -1    0    0    0    0 -0.00000000000E+00 -0.00000000000E+00 -0.45593999997E+02  0.45594000000E+02  0.51100000000E-03 0.  1.
    9900012    2    1    2    0    0 -0.37524926432E+00  0.10999676325E+01 -0.20105349494E+00  0.90008524137E+02  0.90000795852E+02 0.  0.
        -12    1    1    2    0    0  0.37524926432E+00 -0.10999676325E+01  0.20105349494E+00  0.11794758627E+01  0.00000000000E+00 0.  1.
         11    1    3    3    0    0 -0.40586733707E+01 -0.10034108381E+02 -0.44532280118E+01  0.11704161675E+02  0.51100000000E-03 0. -1.
        -11    1    3    3    0    0 -0.16377518722E+02  0.13350361979E+02 -0.31098682067E+02  0.37597650339E+02  0.51100000000E-03 0.  1.
         12    1    3    3    0    0  0.20060942828E+02 -0.22162859660E+01  0.35350856584E+02  0.40706712123E+02  0.00000000000E+00 0. -1.
</event>
<event>
 7    1  0.3752192E-015  0.9000778E+02  0.7816164E-02  0.1186339E+00
        -11   -1    0    0    0    0  0.00000000000E+00  0.00000000000E+00  0.45593999997E+02  0.45594000000E+02  0.51100000000E-03 0.  1.
         11   -1    0    0    0    0 -0.00000000000E+00 -0.00000000000E+00 -0.45593999997E+02  0.45594000000E+02  0.51100000000E-03 0. -1.
    9900012    2    1    2    0    0 -0.10815022611E+01  0.37687848204E+00 -0.28503368876E+00  0.90007775981E+02  0.90000037824E+02 0.  0.
        -12    1    1    2    0    0  0.10815022611E+01 -0.37687848204E+00  0.28503368876E+00  0.11802240188E+01  0.00000000000E+00 0.  1.
         11    1    3    3    0    0 -0.28398605974E+02 -0.42717247344E+01 -0.24049699302E+02  0.37458196570E+02  0.51100000000E-03 0. -1.
        -11    1    3    3    0    0 -0.94339542455E+01 -0.70850529408E+00  0.71737719601E+01  0.11872846199E+02  0.51100000000E-03 0.  1.
        -12    1    3    3    0    0  0.36751057958E+02  0.53571085105E+01  0.16590893653E+02  0.40676733213E+02  0.00000000000E+00 0.  1.
</event>
<event>
 7    1  0.3752192E-015  0.9000776E+02  0.7816164E-02  0.1186339E+00
        -11   -1    0    0    0    0  0.00000000000E+00  0.00000000000E+00  0.45593999997E+02  0.45594000000E+02  0.51100000000E-03 0.  1.
         11   -1    0    0    0    0 -0.00000000000E+00 -0.00000000000E+00 -0.45593999997E+02  0.45594000000E+02  0.51100000000E-03 0. -1.
    9900012    2    1    2    0    0  0.11340878043E+01 -0.21684838909E+00 -0.24451124684E+00  0.90007760990E+02  0.90000022635E+02 0.  0.
        -12    1    1    2    0    0 -0.11340878043E+01  0.21684838909E+00  0.24451124684E+00  0.11802390104E+01  0.00000000000E+00 0.  1.
         11    1    3    3    0    0 -0.53204409337E+01 -0.24472418686E+01  0.54034513964E+01  0.79682728208E+01  0.51100000000E-03 0. -1.
        -11    1    3    3    0    0 -0.29155736900E+02  0.21612027328E+02  0.11425107751E+02  0.38048256291E+02  0.51100000000E-03 0.  1.
         12    1    3    3    0    0  0.35610265638E+02 -0.19381633849E+02 -0.17073070395E+02  0.43991231878E+02  0.00000000000E+00 0. -1.
</event>
<event>
 7    1  0.3752192E-015  0.9000775E+02  0.7816164E-02  0.1186339E+00
        -11   -1    0    0    0    0  0.00000000000E+00  0.00000000000E+00  0.45593999997E+02  0.45594000000E+02  0.51100000000E-03 0. -1.
         11   -1    0    0    0    0 -0.00000000000E+00 -0.00000000000E+00 -0.45593999997E+02  0.45594000000E+02  0.51100000000E-03 0.  1.
    9900012    2    1    2    0    0 -0.53581692888E+00 -0.27310565402E+00 -0.10155288406E+01  0.90007752015E+02  0.90000013542E+02 0.  0.
        -12    1    1    2    0    0  0.53581692888E+00  0.27310565402E+00  0.10155288406E+01  0.11802479848E+01  0.00000000000E+00 0.  1.
         11    1    3    3    0    0  0.72400416792E+00 -0.14479082610E+01 -0.90335335726E+01  0.91774369754E+01  0.51100000000E-03 0. -1.
        -11    1    3    3    0    0  0.28915783337E+02 -0.22877493196E+02 -0.10056832210E+02  0.38218347626E+02  0.51100000000E-03 0.  1.
         12    1    3    3    0    0 -0.30175604434E+02  0.24052295803E+02  0.18074836942E+02  0.42611967413E+02  0.00000000000E+00 0. -1.
</event>
<event>
 7    1  0.3752192E-015  0.9000779E+02  0.7816164E-02  0.1186339E+00
        -11   -1    0    0    0    0  0.00000000000E+00  0.00000000000E+00  0.45593999997E+02  0.45594000000E+02  0.51100000000E-03 0.  1.
         11   -1    0    0    0    0 -0.00000000000E+00 -0.00000000000E+00 -0.45593999997E+02  0.45594000000E+02  0.51100000000E-03 0. -1.
    9900012    2    1    2    0    0 -0.77086400059E+00 -0.46644071365E+00 -0.76229856652E+00  0.90007789277E+02  0.90000051295E+02 0.  0.
        -12    1    1    2    0    0  0.77086400059E+00  0.46644071365E+00  0.76229856652E+00  0.11802107233E+01  0.00000000000E+00 0.  1.
         11    1    3    3    0    0 -0.76393297469E+01  0.18246508321E+01  0.11071193742E+02  0.13574241812E+02  0.51100000000E-03 0. -1.
        -11    1    3    3    0    0  0.10828013935E+02 -0.19033777166E+02  0.26523303116E+02  0.34395002070E+02  0.51100000000E-03 0.  1.
         12    1    3    3    0    0 -0.39595481883E+01  0.16742685620E+02 -0.38356795425E+02  0.42038545394E+02  0.00000000000E+00 0. -1.
</event>
<event>
 7    1  0.3752192E-015  0.9000774E+02  0.7816164E-02  0.1186339E+00
        -11   -1    0    0    0    0  0.00000000000E+00  0.00000000000E+00  0.45593999997E+02  0.45594000000E+02  0.51100000000E-03 0.  1.
         11   -1    0    0    0    0 -0.00000000000E+00 -0.00000000000E+00 -0.45593999997E+02  0.45594000000E+02  0.51100000000E-03 0. -1.
    9900012    2    1    2    0    0 -0.32880878277E-01 -0.67374434650E+00  0.96850424602E+00  0.90007740253E+02  0.90000001624E+02 0.  0.
        -12    1    1    2    0    0  0.32880878277E-01  0.67374434650E+00 -0.96850424602E+00  0.11802597473E+01  0.00000000000E+00 0.  1.
         11    1    3    3    0    0 -0.85169278589E+01 -0.33443747303E+01  0.10116141279E+00  0.91505812047E+01  0.51100000000E-03 0. -1.
        -11    1    3    3    0    0 -0.19884713708E+02 -0.25901980436E+02 -0.16991161777E+02  0.36810514919E+02  0.51100000000E-03 0.  1.
         12    1    3    3    0    0  0.28368760689E+02  0.28572610820E+02  0.17858504611E+02  0.44046644129E+02  0.00000000000E+00 0. -1.
</event>
<event>
 7    1  0.3752192E-015  0.9000777E+02  0.7816164E-02  0.1186339E+00
        -11   -1    0    0    0    0  0.00000000000E+00  0.00000000000E+00  0.45593999997E+02  0.45594000000E+02  0.51100000000E-03 0.  1.
         11   -1    0    0    0    0 -0.00000000000E+00 -0.00000000000E+00 -0.45593999997E+02  0.45594000000E+02  0.51100000000E-03 0. -1.
    9900012    2    1    2    0    0  0.43188562857E+00  0.88461634164E+00  0.65105579026E+00  0.90007769128E+02  0.90000030881E+02 0.  0.
        -12    1    1    2    0    0 -0.43188562857E+00 -0.88461634164E+00 -0.65105579026E+00  0.11802308715E+01  0.00000000000E+00 0.  1.
         11    1    3    3    0    0  0.26597183812E+02 -0.30496554009E+02  0.12111173121E+02  0.42238969066E+02  0.51100000000E-03 0. -1.
        -11    1    3    3    0    0 -0.13742515542E+02  0.49235905122E+01  0.33862764403E+01  0.14985504508E+02  0.51100000000E-03 0.  1.
        -12    1    3    3    0    0 -0.12422782642E+02  0.26457579838E+02 -0.14846393771E+02  0.32783295555E+02  0.00000000000E+00 0.  1.
</event>
<event>
 7    1  0.3752192E-015  0.9000773E+02  0.7816164E-02  0.1186339E+00
        -11   -1    0    0    0    0  0.00000000000E+00  0.00000000000E+00  0.45593999997E+02  0.45594000000E+02  0.51100000000E-03 0. -1.
         11   -1    0    0    0    0 -0.00000000000E+00 -0.00000000000E+00 -0.45593999997E+02  0.45594000000E+02  0.51100000000E-03 0.  1.
    9900012    2    1    2    0    0  0.69329854095E+00 -0.48410459703E+00  0.82341699898E+00  0.90007730674E+02  0.89999991919E+02 0.  0.
        -12    1    1    2    0    0 -0.69329854095E+00  0.48410459703E+00 -0.82341699898E+00  0.11802693260E+01  0.00000000000E+00 0.  1.
         11    1    3    3    0    0 -0.56164817632E+01 -0.76035396827E+01 -0.13966886530E+02  0.16865129787E+02  0.51100000000E-03 0. -1.
        -11    1    3    3    0    0 -0.17473180634E+02  0.11763027422E+02 -0.21115308301E+02  0.29825108558E+02  0.51100000000E-03 0.  1.
         12    1    3    3    0    0  0.23782960938E+02 -0.46435923362E+01  0.35905611830E+02  0.43317492329E+02  0.00000000000E+00 0. -1.
</event>
<event>
 7    1  0.3752192E-015  0.9000769E+02  0.7816164E-02  0.1186339E+00
        -11   -1    0    0    0    0  0.00000000000E+00  0.00000000000E+00  0.45593999997E+02  0.45594000000E+02  0.51100000000E-03 0. -1.
         11   -1    0    0    0    0 -0.00000000000E+00 -0.00000000000E+00 -0.45593999997E+02  0.45594000000E+02  0.51100000000E-03 0.  1.
    9900012    2    1    2    0    0  0.11704413299E+00  0.27287013943E+00  0.11423538378E+01  0.90007690832E+02  0.89999951551E+02 0.  0.
        -12    1    1    2    0    0 -0.11704413299E+00 -0.27287013943E+00 -0.11423538378E+01  0.11803091683E+01  0.00000000000E+00 0.  1.
         11    1    3    3    0    0 -0.57625752633E+01 -0.52735586100E+01  0.36961621635E+01  0.86417191043E+01  0.51100000000E-03 0. -1.
        -11    1    3    3    0    0 -0.57551461000E+01  0.71026667462E+01 -0.40565645094E+02  0.41582942942E+02  0.51100000000E-03 0.  1.
         12    1    3    3    0    0  0.11634765496E+02 -0.15562379968E+01  0.38011836768E+02  0.39783028786E+02  0.00000000000E+00 0. -1.
</event>
<event>
 7    1  0.3752192E-015  0.9000767E+02  0.7816164E-02  0.1186339E+00
        -11   -1    0    0    0    0  0.00000000000E+00  0.00000000000E+00  0.45593999997E+02  0.45594000000E+02  0.51100000000E-03 0. -1.
         11   -1    0    0    0    0 -0.00000000000E+00 -0.00000000000E+00 -0.45593999997E+02  0.45594000000E+02  0.51100000000E-03 0.  1.
    9900012    2    1    2    0    0 -0.10871642348E+01 -0.15027299135E+00  0.43437091354E+00  0.90007666939E+02  0.89999927342E+02 0.  0.
        -12    1    1    2    0    0  0.10871642348E+01  0.15027299135E+00 -0.43437091354E+00  0.11803330615E+01  0.00000000000E+00 0.  1.
         11    1    3    3    0    0 -0.17696569835E+01  0.63925497118E+01  0.69507331534E+01  0.96077608883E+01  0.51100000000E-03 0. -1.
        -11    1    3    3    0    0 -0.29568305351E+02 -0.25193191866E+02  0.11559526529E+02  0.40529054412E+02  0.51100000000E-03 0.  1.
         12    1    3    3    0    0  0.30250798099E+02  0.18650369163E+02 -0.18075888769E+02  0.39870851638E+02  0.00000000000E+00 0. -1.
</event>
<event>
 7    1  0.3752192E-015  0.9000767E+02  0.7816164E-02  0.1186339E+00
        -11   -1    0    0    0    0  0.00000000000E+00  0.00000000000E+00  0.45593999997E+02  0.45594000000E+02  0.51100000000E-03 0.  1.
         11   -1    0    0    0    0 -0.00000000000E+00 -0.00000000000E+00 -0.45593999997E+02  0.45594000000E+02  0.51100000000E-03 0. -1.
    9900012    2    1    2    0    0  0.88417046090E+00 -0.53520224510E+00 -0.57006992880E+00  0.90007670143E+02  0.89999930589E+02 0.  0.
        -12    1    1    2    0    0 -0.88417046090E+00  0.53520224510E+00  0.57006992880E+00  0.11803298568E+01  0.00000000000E+00 0.  1.
         11    1    3    3    0    0 -0.45657449673E+01 -0.50226919591E+01 -0.69689365711E+01  0.97282855023E+01  0.51100000000E-03 0. -1.
        -11    1    3    3    0    0  0.66235163986E+01  0.38240756122E+02 -0.13486240514E+02  0.41086555973E+02  0.51100000000E-03 0.  1.
         12    1    3    3    0    0 -0.11736009705E+01 -0.33753266408E+02  0.19885107156E+02  0.39192828668E+02  0.00000000000E+00 0. -1.
</event>
<event>
 7    1  0.3752192E-015  0.9000792E+02  0.7816164E-02  0.1186339E+00
        -11   -1    0    0    0    0  0.00000000000E+00  0.00000000000E+00  0.45593999997E+02  0.45594000000E+02  0.51100000000E-03 0.  1.
         11   -1    0    0    0    0 -0.00000000000E+00 -0.00000000000E+00 -0.45593999997E+02  0.45594000000E+02  0.51100000000E-03 0. -1.
    9900012    2    1    2    0    0 -0.35918455721E+00 -0.60081416830E+00 -0.95005019391E+00  0.90007920943E+02  0.90000184699E+02 0.  0.
        -12    1    1    2    0    0  0.35918455721E+00  0.60081416830E+00  0.95005019391E+00  0.11800790575E+01  0.00000000000E+00 0.  1.
         11    1    3    3    0    0  0.18542467581E+01  0.31283762306E+02  0.16442631449E+02  0.35390283190E+02  0.51100000000E-03 0. -1.
        -11    1    3    3    0    0 -0.81814090891E+00  0.84639624822E+01  0.34568059445E+01  0.91791896726E+01  0.51100000000E-03 0.  1.
        -12    1    3    3    0    0 -0.13952904064E+01 -0.40348538957E+02 -0.20849487587E+02  0.45438448080E+02  0.00000000000E+00 0.  1.
</event>
<event>
 7    1  0.3752192E-015  0.9000775E+02  0.7816164E-02  0.1186339E+00
        -11   -1    0    0    0    0  0.00000000000E+00  0.00000000000E+00  0.45593999997E+02  0.45594000000E+02  0.51100000000E-03 0.  1.
         11   -1    0    0    0    0 -0.00000000000E+00 -0.00000000000E+00 -0.45593999997E+02  0.45594000000E+02  0.51100000000E-03 0. -1.
    9900012    2    1    2    0    0 -0.14571376152E+00  0.10863175428E+00 -0.11661699637E+01  0.90007751830E+02  0.90000013354E+02 0.  0.
        -12    1    1    2    0    0  0.14571376152E+00 -0.10863175428E+00  0.11661699637E+01  0.11802481699E+01  0.00000000000E+00 0.  1.
         11    1    3    3    0    0  0.37315688557E+01  0.24667990061E+02 -0.25442704343E+02  0.35633769718E+02  0.51100000000E-03 0. -1.
        -11    1    3    3    0    0  0.11205334994E+01  0.11828375435E+02  0.69269311787E+01  0.13753124611E+02  0.51100000000E-03 0.  1.
        -12    1    3    3    0    0 -0.49978161166E+01 -0.36387733742E+02  0.17349603201E+02  0.40620857500E+02  0.00000000000E+00 0.  1.
</event>
<event>
 7    1  0.3752192E-015  0.9000779E+02  0.7816164E-02  0.1186339E+00
        -11   -1    0    0    0    0  0.00000000000E+00  0.00000000000E+00  0.45593999997E+02  0.45594000000E+02  0.51100000000E-03 0.  1.
         11   -1    0    0    0    0 -0.00000000000E+00 -0.00000000000E+00 -0.45593999997E+02  0.45594000000E+02  0.51100000000E-03 0. -1.
    9900012    2    1    2    0    0  0.64737830933E+00 -0.98677393809E+00 -0.89968133711E-02  0.90007787128E+02  0.90000049118E+02 0.  0.
        -12    1    1    2    0    0 -0.64737830933E+00  0.98677393809E+00  0.89968133711E-02  0.11802128719E+01  0.00000000000E+00 0.  1.
         11    1    3    3    0    0 -0.21624839652E+02 -0.23502709676E+02 -0.20485825756E+02  0.37943116757E+02  0.51100000000E-03 0. -1.
        -11    1    3    3    0    0 -0.73047584174E+01  0.28532687877E+01 -0.41238179640E+01  0.88603901253E+01  0.51100000000E-03 0.  1.
        -12    1    3    3    0    0  0.29576976378E+02  0.19662666951E+02  0.24600646907E+02  0.43204280245E+02  0.00000000000E+00 0.  1.
</event>
<event>
 7    1  0.3752192E-015  0.9000762E+02  0.7816164E-02  0.1186339E+00
        -11   -1    0    0    0    0  0.00000000000E+00  0.00000000000E+00  0.45593999997E+02  0.45594000000E+02  0.51100000000E-03 0.  1.
         11   -1    0    0    0    0 -0.00000000000E+00 -0.00000000000E+00 -0.45593999997E+02  0.45594000000E+02  0.51100000000E-03 0. -1.
    9900012    2    1    2    0    0 -0.10919059510E+01 -0.32245801393E+00 -0.31152724963E+00  0.90007624211E+02  0.89999884050E+02 0.  0.
        -12    1    1    2    0    0  0.10919059510E+01  0.32245801393E+00  0.31152724963E+00  0.11803757893E+01  0.00000000000E+00 0.  1.
         11    1    3    3    0    0  0.10151904725E+02 -0.20538964652E+02 -0.33029743665E+02  0.40197937824E+02  0.51100000000E-03 0. -1.
        -11    1    3    3    0    0  0.55897617736E+01  0.47415185399E+00 -0.24378781353E+01  0.61166581341E+01  0.51100000000E-03 0.  1.
        -12    1    3    3    0    0 -0.16833572450E+02  0.19742354784E+02  0.35156094550E+02  0.43693028252E+02  0.00000000000E+00 0.  1.
</event>
<event>
 7    1  0.3752192E-015  0.9000798E+02  0.7816164E-02  0.1186339E+00
        -11   -1    0    0    0    0  0.00000000000E+00  0.00000000000E+00  0.45593999997E+02  0.45594000000E+02  0.51100000000E-03 0.  1.
         11   -1    0    0    0    0 -0.00000000000E+00 -0.00000000000E+00 -0.45593999997E+02  0.45594000000E+02  0.51100000000E-03 0. -1.
    9900012    2    1    2    0    0  0.33283939614E+00 -0.99608401885E+00 -0.53803503319E+00  0.90007980028E+02  0.90000244565E+02 0.  0.
        -12    1    1    2    0    0 -0.33283939614E+00  0.99608401885E+00  0.53803503319E+00  0.11800199715E+01  0.00000000000E+00 0.  1.
         11    1    3    3    0    0 -0.26827799689E+01  0.20457943624E+02 -0.36469700226E+02  0.41901835289E+02  0.51100000000E-03 0. -1.
        -11    1    3    3    0    0  0.61512962060E+01  0.32393377608E+01  0.98116850378E+01  0.12025012170E+02  0.51100000000E-03 0.  1.
        -12    1    3    3    0    0 -0.31356768410E+01 -0.24693365404E+02  0.26119980155E+02  0.36081132570E+02  0.00000000000E+00 0.  1.
</event>
<event>
 7    1  0.3752192E-015  0.9000825E+02  0.7816164E-02  0.1186338E+00
        -11   -1    0    0    0    0  0.00000000000E+00  0.00000000000E+00  0.45593999997E+02  0.45594000000E+02  0.51100000000E-03 0.  1.
         11   -1    0    0    0    0 -0.00000000000E+00 -0.00000000000E+00 -0.45593999997E+02  0.45594000000E+02  0.51100000000E-03 0. -1.
    9900012    2    1    2    0    0  0.51950671847E+00 -0.10583931930E+01 -0.41646949783E-01  0.90008246700E+02  0.90000514754E+02 0.  0.
        -12    1    1    2    0    0 -0.51950671847E+00  0.10583931930E+01  0.41646949783E-01  0.11797533005E+01  0.00000000000E+00 0.  1.
         11    1    3    3    0    0  0.74504266381E+01 -0.16709687232E+01 -0.73371385881E+01  0.10589362421E+02  0.51100000000E-03 0. -1.
        -11    1    3    3    0    0 -0.30180469865E+02  0.29197614553E+02  0.69975193343E+01  0.42571430960E+02  0.51100000000E-03 0.  1.
         12    1    3    3    0    0  0.23249549945E+02 -0.28585039023E+02  0.29797230403E+00  0.36847453319E+02  0.00000000000E+00 0. -1.
</event>
<event>
 7    1  0.3752192E-015  0.9000783E+02  0.7816164E-02  0.1186339E+00
        -11   -1    0    0    0    0  0.00000000000E+00  0.00000000000E+00  0.45593999997E+02  0.45594000000E+02  0.51100000000E-03 0.  1.
         11   -1    0    0    0    0 -0.00000000000E+00 -0.00000000000E+00 -0.45593999997E+02  0.45594000000E+02  0.51100000000E-03 0. -1.
    9900012    2    1    2    0    0  0.39977297448E+00 -0.32519966597E+00 -0.10617129287E+01  0.90007827302E+02  0.90000089822E+02 0.  0.
        -12    1    1    2    0    0 -0.39977297448E+00  0.32519966597E+00  0.10617129287E+01  0.11801726979E+01  0.00000000000E+00 0.  1.
         11    1    3    3    0    0 -0.71462094095E+01 -0.26859916650E+01 -0.41809617214E+01  0.87042117005E+01  0.51100000000E-03 0. -1.
        -11    1    3    3    0    0 -0.66810571690E+01 -0.32238828767E+02  0.21801452020E+02  0.39487743866E+02  0.51100000000E-03 0.  1.
         12    1    3    3    0    0  0.14227039553E+02  0.34599620766E+02 -0.18682203227E+02  0.41815871736E+02  0.00000000000E+00 0. -1.
</event>
<event>
 7    1  0.3752192E-015  0.9000775E+02  0.7816164E-02  0.1186339E+00
        -11   -1    0    0    0    0  0.00000000000E+00  0.00000000000E+00  0.45593999997E+02  0.45594000000E+02  0.51100000000E-03 0.  1.
         11   -1    0    0    0    0 -0.00000000000E+00 -0.00000000000E+00 -0.45593999997E+02  0.45594000000E+02  0.51100000000E-03 0. -1.
    9900012    2    1    2    0    0 -0.82709561668E+00 -0.13919161051E+00 -0.83037971578E+00  0.90007749206E+02  0.90000010696E+02 0.  0.
        -12    1    1    2    0    0  0.82709561668E+00  0.13919161051E+00  0.83037971578E+00  0.11802507937E+01  0.00000000000E+00 0.  1.
         11    1    3    3    0    0 -0.20335593943E+01 -0.30647151207E+02 -0.22575210794E+02  0.38118543828E+02  0.51100000000E-03 0. -1.
        -11    1    3    3    0    0  0.11312824466E+01 -0.73055152170E+01 -0.14431946755E+01  0.75321420388E+01  0.51100000000E-03 0.  1.
        -12    1    3    3    0    0  0.75181330959E-01  0.37813474814E+02  0.23188025754E+02  0.44357063339E+02  0.00000000000E+00 0.  1.
</event>
<event>
 7    1  0.3752192E-015  0.9000734E+02  0.7816164E-02  0.1186340E+00
        -11   -1    0    0    0    0  0.00000000000E+00  0.00000000000E+00  0.45593999997E+02  0.45594000000E+02  0.51100000000E-03 0.  1.
         11   -1    0    0    0    0 -0.00000000000E+00 -0.00000000000E+00 -0.45593999997E+02  0.45594000000E+02  0.51100000000E-03 0. -1.
    9900012    2    1    2    0    0 -0.11503801235E+01 -0.23447578161E+00 -0.12495953000E+00  0.90007335693E+02  0.89999591724E+02 0.  0.
        -12    1    1    2    0    0  0.11503801235E+01  0.23447578161E+00  0.12495953000E+00  0.11806643066E+01  0.00000000000E+00 0.  1.
         11    1    3    3    0    0  0.41701641666E+01 -0.21384488606E+01 -0.85001930129E+01  0.97065191610E+01  0.51100000000E-03 0. -1.
        -11    1    3    3    0    0  0.76175226922E+01  0.38143682444E+02 -0.57308227658E+01  0.39316783849E+02  0.51100000000E-03 0.  1.
         12    1    3    3    0    0 -0.12938066982E+02 -0.36239709365E+02  0.14106056249E+02  0.40984032684E+02  0.00000000000E+00 0. -1.
</event>
<event>
 7    1  0.3752192E-015  0.9000779E+02  0.7816164E-02  0.1186339E+00
        -11   -1    0    0    0    0  0.00000000000E+00  0.00000000000E+00  0.45593999997E+02  0.45594000000E+02  0.51100000000E-03 0.  1.
         11   -1    0    0    0    0 -0.00000000000E+00 -0.00000000000E+00 -0.45593999997E+02  0.45594000000E+02  0.51100000000E-03 0. -1.
    9900012    2    1    2    0    0  0.39543484122E+00  0.75246301243E-01 -0.11094480076E+01  0.90007785782E+02  0.90000047754E+02 0.  0.
        -12    1    1    2    0    0 -0.39543484122E+00 -0.75246301243E-01  0.11094480076E+01  0.11802142183E+01  0.00000000000E+00 0.  1.
         11    1    3    3    0    0 -0.21315696244E+02  0.30633817406E+02  0.61700459034E+01  0.37826698798E+02  0.51100000000E-03 0. -1.
        -11    1    3    3    0    0  0.85766927675E+01 -0.56123759292E+00  0.11557372045E+02  0.14403037711E+02  0.51100000000E-03 0.  1.
        -12    1    3    3    0    0  0.13134438318E+02 -0.29997333512E+02 -0.18836865956E+02  0.37778049272E+02  0.00000000000E+00 0.  1.
</event>
<event>
 7    1  0.3752192E-015  0.9000788E+02  0.7816164E-02  0.1186339E+00
        -11   -1    0    0    0    0  0.00000000000E+00  0.00000000000E+00  0.45593999997E+02  0.45594000000E+02  0.51100000000E-03 0. -1.
         11   -1    0    0    0    0 -0.00000000000E+00 -0.00000000000E+00 -0.45593999997E+02  0.45594000000E+02  0.51100000000E-03 0.  1.
    9900012    2    1    2    0    0 -0.11119172823E+01 -0.37423890771E+00  0.12759387165E+00  0.90007875007E+02  0.90000138157E+02 0.  0.
        -12    1    1    2    0    0  0.11119172823E+01  0.37423890771E+00 -0.12759387165E+00  0.11801249929E+01  0.00000000000E+00 0.  1.
         11    1    3    3    0    0  0.35537421332E+02  0.17250203669E+02  0.13085046659E+02  0.41613655065E+02  0.51100000000E-03 0. -1.
        -11    1    3    3    0    0 -0.48508309723E+01 -0.13336457255E+02 -0.67424388506E+01  0.15711528733E+02  0.51100000000E-03 0.  1.
        -12    1    3    3    0    0 -0.31798507642E+02 -0.42879853223E+01 -0.62150139369E+01  0.32682691208E+02  0.00000000000E+00 0.  1.
</event>
<event>
 7    1  0.3752192E-015  0.9000766E+02  0.7816164E-02  0.1186339E+00
        -11   -1    0    0    0    0  0.00000000000E+00  0.00000000000E+00  0.45593999997E+02  0.45594000000E+02  0.51100000000E-03 0.  1.
         11   -1    0    0    0    0 -0.00000000000E+00 -0.00000000000E+00 -0.45593999997E+02  0.45594000000E+02  0.51100000000E-03 0. -1.
    9900012    2    1    2    0    0 -0.31521452702E+00  0.13323862552E+00 -0.11296417642E+01  0.90007659691E+02  0.89999919999E+02 0.  0.
        -12    1    1    2    0    0  0.31521452702E+00 -0.13323862552E+00  0.11296417642E+01  0.11803403089E+01  0.00000000000E+00 0.  1.
         11    1    3    3    0    0 -0.94686552829E+01  0.50762198932E+00 -0.57797602201E+01  0.11104897182E+02  0.51100000000E-03 0. -1.
        -11    1    3    3    0    0  0.26075628274E+02 -0.19111256011E+02 -0.24334394374E+02  0.40464073523E+02  0.51100000000E-03 0.  1.
         12    1    3    3    0    0 -0.16922187519E+02  0.18736872647E+02  0.28984512830E+02  0.38438688987E+02  0.00000000000E+00 0. -1.
</event>
<event>
 7    1  0.3752192E-015  0.9000760E+02  0.7816164E-02  0.1186339E+00
        -11   -1    0    0    0    0  0.00000000000E+00  0.00000000000E+00  0.45593999997E+02  0.45594000000E+02  0.51100000000E-03 0. -1.
         11   -1    0    0    0    0 -0.00000000000E+00 -0.00000000000E+00 -0.45593999997E+02  0.45594000000E+02  0.51100000000E-03 0.  1.
    9900012    2    1    2    0    0  0.28859532359E+00 -0.10037758638E+01  0.54999386441E+00  0.90007599010E+02  0.89999858517E+02 0.  0.
        -12    1    1    2    0    0 -0.28859532359E+00  0.10037758638E+01 -0.54999386441E+00  0.11804009896E+01  0.00000000000E+00 0.  1.
         11    1    3    3    0    0 -0.49744242008E+00  0.75320599571E+01  0.34704659066E+01  0.83080388798E+01  0.51100000000E-03 0. -1.
        -11    1    3    3    0    0  0.14953105142E+01  0.36485973920E+02  0.73527010869E+00  0.36524004009E+02  0.51100000000E-03 0.  1.
         12    1    3    3    0    0 -0.70927277050E+00 -0.45021809741E+02 -0.36557421509E+01  0.45175556122E+02  0.00000000000E+00 0. -1.
</event>
<event>
 7    1  0.3752192E-015  0.9000779E+02  0.7816164E-02  0.1186339E+00
        -11   -1    0    0    0    0  0.00000000000E+00  0.00000000000E+00  0.45593999997E+02  0.45594000000E+02  0.51100000000E-03 0.  1.
         11   -1    0    0    0    0 -0.00000000000E+00 -0.00000000000E+00 -0.45593999997E+02  0.45594000000E+02  0.51100000000E-03 0. -1.
    9900012    2    1    2    0    0 -0.98916436956E+00  0.89595619448E-01  0.63750464593E+00  0.90007794213E+02  0.90000056297E+02 0.  0.
        -12    1    1    2    0    0  0.98916436956E+00 -0.89595619448E-01 -0.63750464593E+00  0.11802057866E+01  0.00000000000E+00 0.  1.
         11    1    3    3    0    0 -0.32440447253E+02  0.60256307259E+01  0.39033644335E+01  0.33225398384E+02  0.51100000000E-03 0. -1.
        -11    1    3    3    0    0 -0.12462587783E+02 -0.12975874149E+01 -0.64772614110E+00  0.12546687881E+02  0.51100000000E-03 0.  1.
        -12    1    3    3    0    0  0.43913870667E+02 -0.46384476916E+01 -0.26181336464E+01  0.44235707949E+02  0.00000000000E+00 0.  1.
</event>
<event>
 7    1  0.3752192E-015  0.9000790E+02  0.7816164E-02  0.1186339E+00
        -11   -1    0    0    0    0  0.00000000000E+00  0.00000000000E+00  0.45593999997E+02  0.45594000000E+02  0.51100000000E-03 0.  1.
         11   -1    0    0    0    0 -0.00000000000E+00 -0.00000000000E+00 -0.45593999997E+02  0.45594000000E+02  0.51100000000E-03 0. -1.
    9900012    2    1    2    0    0  0.11458889176E+01  0.24001436175E+00 -0.14821724041E+00  0.90007899726E+02  0.90000163203E+02 0.  0.
        -12    1    1    2    0    0 -0.11458889176E+01 -0.24001436175E+00  0.14821724041E+00  0.11801002736E+01  0.00000000000E+00 0.  1.
         11    1    3    3    0    0  0.10020714891E+02 -0.23753368373E+01  0.10617265635E+02  0.14791324547E+02  0.51100000000E-03 0. -1.
        -11    1    3    3    0    0 -0.31748725413E+02 -0.95266724761E+00  0.19379164206E+02  0.37208079039E+02  0.51100000000E-03 0.  1.
         12    1    3    3    0    0  0.22873899439E+02  0.35680184467E+01 -0.30144647081E+02  0.38008496140E+02  0.00000000000E+00 0. -1.
</event>
<event>
 7    1  0.3752192E-015  0.9000779E+02  0.7816164E-02  0.1186339E+00
        -11   -1    0    0    0    0  0.00000000000E+00  0.00000000000E+00  0.45593999997E+02  0.45594000000E+02  0.51100000000E-03 0. -1.
         11   -1    0    0    0    0 -0.00000000000E+00 -0.00000000000E+00 -0.45593999997E+02  0.45594000000E+02  0.51100000000E-03 0.  1.
    9900012    2    1    2    0    0  0.71077497022E+00 -0.81445629483E+00  0.47365158176E+00  0.90007794113E+02  0.90000056195E+02 0.  0.
        -12    1    1    2    0    0 -0.71077497022E+00  0.81445629483E+00 -0.47365158176E+00  0.11802058869E+01  0.00000000000E+00 0.  1.
         11    1    3    3    0    0  0.96965420467E+01  0.20599410013E+02  0.27018458797E+02  0.35332078011E+02  0.51100000000E-03 0. -1.
        -11    1    3    3    0    0 -0.11215228474E+01  0.67917379590E+01  0.72247622949E+01  0.99791136119E+01  0.51100000000E-03 0.  1.
        -12    1    3    3    0    0 -0.78642442291E+01 -0.28205604267E+02 -0.33769569510E+02  0.44696602491E+02  0.00000000000E+00 0.  1.
</event>
<event>
 7    1  0.3752192E-015  0.9000774E+02  0.7816164E-02  0.1186339E+00
        -11   -1    0    0    0    0  0.00000000000E+00  0.00000000000E+00  0.45593999997E+02  0.45594000000E+02  0.51100000000E-03 0. -1.
         11   -1    0    0    0    0 -0.00000000000E+00 -0.00000000000E+00 -0.45593999997E+02  0.45594000000E+02  0.51100000000E-03 0.  1.
    9900012    2    1    2    0    0 -0.85534637904E+00 -0.79582738198E-01 -0.80935631317E+00  0.90007742197E+02  0.90000003594E+02 0.  0.
        -12    1    1    2    0    0  0.85534637904E+00  0.79582738198E-01  0.80935631317E+00  0.11802578032E+01  0.00000000000E+00 0.  1.
         11    1    3    3    0    0  0.20225799819E+02 -0.52467939621E+01  0.85082341749E+01  0.22561069883E+02  0.51100000000E-03 0. -1.
        -11    1    3    3    0    0 -0.86945092141E+01 -0.26538939674E+02  0.82782461258E+01  0.29127979138E+02  0.51100000000E-03 0.  1.
         12    1    3    3    0    0 -0.12386636984E+02  0.31706150898E+02 -0.17595836614E+02  0.38318693176E+02  0.00000000000E+00 0. -1.
</event>
<event>
 7    1  0.3752192E-015  0.9000775E+02  0.7816164E-02  0.1186339E+00
        -11   -1    0    0    0    0  0.00000000000E+00  0.00000000000E+00  0.45593999997E+02  0.45594000000E+02  0.51100000000E-03 0.  1.
         11   -1    0    0    0    0 -0.00000000000E+00 -0.00000000000E+00 -0.45593999997E+02  0.45594000000E+02  0.51100000000E-03 0. -1.
    9900012    2    1    2    0    0 -0.81662704563E+00  0.85067714347E+00  0.49516551011E-01  0.90007752898E+02  0.90000014436E+02 0.  0.
        -12    1    1    2    0    0  0.81662704563E+00 -0.85067714347E+00 -0.49516551011E-01  0.11802471025E+01  0.00000000000E+00 0.  1.
         11    1    3    3    0    0  0.70802141930E+01  0.13231599338E+02 -0.85926871124E+01  0.17292742007E+02  0.51100000000E-03 0. -1.
        -11    1    3    3    0    0  0.64977375412E+01 -0.38821949481E+01  0.38100091788E+02  0.38844678211E+02  0.51100000000E-03 0.  1.
         12    1    3    3    0    0 -0.14394578780E+02 -0.84987272460E+01 -0.29457888125E+02  0.33870332680E+02  0.00000000000E+00 0. -1.
</event>
<event>
 7    1  0.3752192E-015  0.9000689E+02  0.7816164E-02  0.1186341E+00
        -11   -1    0    0    0    0  0.00000000000E+00  0.00000000000E+00  0.45593999997E+02  0.45594000000E+02  0.51100000000E-03 0. -1.
         11   -1    0    0    0    0 -0.00000000000E+00 -0.00000000000E+00 -0.45593999997E+02  0.45594000000E+02  0.51100000000E-03 0.  1.
    9900012    2    1    2    0    0  0.68117469031E+00 -0.83629159520E+00 -0.48129744904E+00  0.90006886193E+02  0.89999136286E+02 0.  0.
        -12    1    1    2    0    0 -0.68117469031E+00  0.83629159520E+00  0.48129744904E+00  0.11811138071E+01  0.00000000000E+00 0.  1.
         11    1    3    3    0    0 -0.82689889153E+01 -0.45141954660E+01 -0.16539034370E+01  0.95650162167E+01  0.51100000000E-03 0. -1.
        -11    1    3    3    0    0 -0.21221760053E+02 -0.22082357976E+02 -0.18890988456E+02  0.35984205961E+02  0.51100000000E-03 0.  1.
         12    1    3    3    0    0  0.30171923658E+02  0.25760261847E+02  0.20063594444E+02  0.44457664015E+02  0.00000000000E+00 0. -1.
</event>
<event>
 7    1  0.3752192E-015  0.9000773E+02  0.7816164E-02  0.1186339E+00
        -11   -1    0    0    0    0  0.00000000000E+00  0.00000000000E+00  0.45593999997E+02  0.45594000000E+02  0.51100000000E-03 0.  1.
         11   -1    0    0    0    0 -0.00000000000E+00 -0.00000000000E+00 -0.45593999997E+02  0.45594000000E+02  0.51100000000E-03 0. -1.
    9900012    2    1    2    0    0  0.10090226077E+00  0.11736614050E+01  0.73364706324E-01  0.90007726837E+02  0.89999988031E+02 0.  0.
        -12    1    1    2    0    0 -0.10090226077E+00 -0.11736614050E+01 -0.73364706324E-01  0.11802731633E+01  0.00000000000E+00 0.  1.
         11    1    3    3    0    0  0.20293858331E+02  0.30102781260E+02 -0.20245401663E+02  0.41567949364E+02  0.51100000000E-03 0. -1.
        -11    1    3    3    0    0  0.41071879853E+01  0.51115061083E+00  0.67663534034E+01  0.79318224094E+01  0.51100000000E-03 0.  1.
        -12    1    3    3    0    0 -0.24300144056E+02 -0.29440270466E+02  0.13552412966E+02  0.40507955064E+02  0.00000000000E+00 0.  1.
</event>
<event>
 7    1  0.3752192E-015  0.9000782E+02  0.7816164E-02  0.1186339E+00
        -11   -1    0    0    0    0  0.00000000000E+00  0.00000000000E+00  0.45593999997E+02  0.45594000000E+02  0.51100000000E-03 0.  1.
         11   -1    0    0    0    0 -0.00000000000E+00 -0.00000000000E+00 -0.45593999997E+02  0.45594000000E+02  0.51100000000E-03 0. -1.
    9900012    2    1    2    0    0  0.78855183243E+00 -0.61518046025E+00  0.62655082764E+00  0.90007819111E+02  0.90000081523E+02 0.  0.
        -12    1    1    2    0    0 -0.78855183243E+00  0.61518046025E+00 -0.62655082764E+00  0.11801808890E+01  0.00000000000E+00 0.  1.
         11    1    3    3    0    0 -0.55355577963E+01  0.35176240720E+02 -0.16360539152E+02  0.39187721967E+02  0.51100000000E-03 0. -1.
        -11    1    3    3    0    0 -0.43479836463E+01 -0.12347302774E+02 -0.76617279812E+01  0.15167825273E+02  0.51100000000E-03 0.  1.
        -12    1    3    3    0    0  0.10672093275E+02 -0.23444118406E+02  0.24648817961E+02  0.35652271871E+02  0.00000000000E+00 0.  1.
</event>
<event>
 7    1  0.3752192E-015  0.9000772E+02  0.7816164E-02  0.1186339E+00
        -11   -1    0    0    0    0  0.00000000000E+00  0.00000000000E+00  0.45593999997E+02  0.45594000000E+02  0.51100000000E-03 0.  1.
         11   -1    0    0    0    0 -0.00000000000E+00 -0.00000000000E+00 -0.45593999997E+02  0.45594000000E+02  0.51100000000E-03 0. -1.
    9900012    2    1    2    0    0 -0.30480445649E+00 -0.58069247009E+00 -0.98129758566E+00  0.90007722722E+02  0.89999983862E+02 0.  0.
        -12    1    1    2    0    0  0.30480445649E+00  0.58069247009E+00  0.98129758566E+00  0.11802772781E+01  0.00000000000E+00 0.  1.
         11    1    3    3    0    0  0.22750634377E+01  0.93231599785E+01 -0.33296689405E+01  0.10157948668E+02  0.51100000000E-03 0. -1.
        -11    1    3    3    0    0 -0.19549216656E+02 -0.10449059611E+02  0.35931555856E+02  0.42218851537E+02  0.51100000000E-03 0.  1.
         12    1    3    3    0    0  0.16969348762E+02  0.54520716249E+00 -0.33583184501E+02  0.37630922517E+02  0.00000000000E+00 0. -1.
</event>
<event>
 7    1  0.3752192E-015  0.9000702E+02  0.7816164E-02  0.1186340E+00
        -11   -1    0    0    0    0  0.00000000000E+00  0.00000000000E+00  0.45593999997E+02  0.45594000000E+02  0.51100000000E-03 0.  1.
         11   -1    0    0    0    0 -0.00000000000E+00 -0.00000000000E+00 -0.45593999997E+02  0.45594000000E+02  0.51100000000E-03 0. -1.
    9900012    2    1    2    0    0  0.94170125672E+00 -0.68575388433E+00 -0.19401664757E+00  0.90007024934E+02  0.89999276860E+02 0.  0.
        -12    1    1    2    0    0 -0.94170125672E+00  0.68575388433E+00  0.19401664757E+00  0.11809750659E+01  0.00000000000E+00 0.  1.
         11    1    3    3    0    0  0.22308121898E+01  0.93489728397E+01 -0.93499963547E+00  0.96568131784E+01  0.51100000000E-03 0. -1.
        -11    1    3    3    0    0  0.33080392719E+02 -0.21680916556E+02  0.13638111852E+02  0.41837454754E+02  0.51100000000E-03 0.  1.
         12    1    3    3    0    0 -0.34369503652E+02  0.11646189832E+02 -0.12897128864E+02  0.38512757001E+02  0.00000000000E+00 0. -1.
</event>
<event>
 7    1  0.3752192E-015  0.9000771E+02  0.7816164E-02  0.1186339E+00
        -11   -1    0    0    0    0  0.00000000000E+00  0.00000000000E+00  0.45593999997E+02  0.45594000000E+02  0.51100000000E-03 0.  1.
         11   -1    0    0    0    0 -0.00000000000E+00 -0.00000000000E+00 -0.45593999997E+02  0.45594000000E+02  0.51100000000E-03 0. -1.
    9900012    2    1    2    0    0 -0.78090407190E+00 -0.86981648070E+00  0.16334686727E+00  0.90007714408E+02  0.89999975438E+02 0.  0.
        -12    1    1    2    0    0  0.78090407190E+00  0.86981648070E+00 -0.16334686727E+00  0.11802855920E+01  0.00000000000E+00 0.  1.
         11    1    3    3    0    0  0.89317111529E+01 -0.11158077971E+02  0.24751893037E+02  0.28582063909E+02  0.51100000000E-03 0.  1.
        -11    1    3    3    0    0 -0.25892907901E+02 -0.11256339598E+02 -0.64977515221E+01  0.28971859378E+02  0.51100000000E-03 0. -1.
        -12    1    3    3    0    0  0.16180292676E+02  0.21544601089E+02 -0.18090794648E+02  0.32453791121E+02  0.00000000000E+00 0.  1.
</event>
<event>
 7    1  0.3752192E-015  0.9000773E+02  0.7816164E-02  0.1186339E+00
        -11   -1    0    0    0    0  0.00000000000E+00  0.00000000000E+00  0.45593999997E+02  0.45594000000E+02  0.51100000000E-03 0.  1.
         11   -1    0    0    0    0 -0.00000000000E+00 -0.00000000000E+00 -0.45593999997E+02  0.45594000000E+02  0.51100000000E-03 0. -1.
    9900012    2    1    2    0    0 -0.90130876100E+00 -0.73108840543E+00  0.21489844798E+00  0.90007733470E+02  0.89999994752E+02 0.  0.
        -12    1    1    2    0    0  0.90130876100E+00  0.73108840543E+00 -0.21489844798E+00  0.11802665301E+01  0.00000000000E+00 0.  1.
         11    1    3    3    0    0 -0.48270841568E+01  0.34978537877E+02 -0.81659210754E+01  0.36241980089E+02  0.51100000000E-03 0. -1.
        -11    1    3    3    0    0 -0.10190588692E+02 -0.73112644233E+01  0.16789195373E+02  0.20956616303E+02  0.51100000000E-03 0.  1.
        -12    1    3    3    0    0  0.14116364088E+02 -0.28398361860E+02 -0.84083758494E+01  0.32809137078E+02  0.00000000000E+00 0.  1.
</event>
<event>
 7    1  0.3752192E-015  0.9000776E+02  0.7816164E-02  0.1186339E+00
        -11   -1    0    0    0    0  0.00000000000E+00  0.00000000000E+00  0.45593999997E+02  0.45594000000E+02  0.51100000000E-03 0.  1.
         11   -1    0    0    0    0 -0.00000000000E+00 -0.00000000000E+00 -0.45593999997E+02  0.45594000000E+02  0.51100000000E-03 0. -1.
    9900012    2    1    2    0    0  0.65336361478E+00 -0.71391403210E+00 -0.67558255146E+00  0.90007758905E+02  0.90000020523E+02 0.  0.
        -12    1    1    2    0    0 -0.65336361478E+00  0.71391403210E+00  0.67558255146E+00  0.11802410949E+01  0.00000000000E+00 0.  1.
         11    1    3    3    0    0  0.75752241804E+00  0.35515843189E+01 -0.75458093996E+01  0.83741764457E+01  0.51100000000E-03 0. -1.
        -11    1    3    3    0    0 -0.33601852640E+02  0.58091714801E+01 -0.18146992304E+02  0.38628283732E+02  0.51100000000E-03 0.  1.
         12    1    3    3    0    0  0.33497693837E+02 -0.10074669831E+02  0.25017219152E+02  0.43005298728E+02  0.00000000000E+00 0. -1.
</event>
<event>
 7    1  0.6851151E-015  0.9000767E+02  0.7816164E-02  0.1186339E+00
        -11   -1    0    0    0    0  0.00000000000E+00  0.00000000000E+00  0.45593999997E+02  0.45594000000E+02  0.51100000000E-03 0. -1.
         11   -1    0    0    0    0 -0.00000000000E+00 -0.00000000000E+00 -0.45593999997E+02  0.45594000000E+02  0.51100000000E-03 0.  1.
    9900012    2    1    2    0    0 -0.55897085731E+00 -0.53597910177E+00  0.89076769580E+00  0.90007665681E+02  0.89999926068E+02 0.  0.
        -12    1    1    2    0    0  0.55897085731E+00  0.53597910177E+00 -0.89076769580E+00  0.11803343191E+01  0.00000000000E+00 0.  1.
         11    1    3    3    0    0  0.14307389418E+02 -0.36993211695E+02  0.87741676244E+01  0.40622470645E+02  0.51100000000E-03 0. -1.
        -11    1    3    3    0    0  0.36052730887E+00 -0.10798196380E-01 -0.98122220244E+01  0.98188491107E+01  0.51100000000E-03 0.  1.
        -12    1    3    3    0    0 -0.15226887585E+02  0.36468030790E+02  0.19288220958E+01  0.39566345926E+02  0.00000000000E+00 0.  1.
</event>
<event>
 7    1  0.3752192E-015  0.9000788E+02  0.7816164E-02  0.1186339E+00
        -11   -1    0    0    0    0  0.00000000000E+00  0.00000000000E+00  0.45593999997E+02  0.45594000000E+02  0.51100000000E-03 0. -1.
         11   -1    0    0    0    0 -0.00000000000E+00 -0.00000000000E+00 -0.45593999997E+02  0.45594000000E+02  0.51100000000E-03 0.  1.
    9900012    2    1    2    0    0 -0.88087444541E+00  0.49750320067E+00  0.60765271373E+00  0.90007876683E+02  0.90000139855E+02 0.  0.
        -12    1    1    2    0    0  0.88087444541E+00 -0.49750320067E+00 -0.60765271373E+00  0.11801233172E+01  0.00000000000E+00 0.  1.
         11    1    3    3    0    0 -0.20584414572E+02 -0.25365184543E+02  0.14658485569E+02  0.35804774956E+02  0.51100000000E-03 0. -1.
        -11    1    3    3    0    0 -0.47881382686E+01 -0.58195566817E+01  0.57983211859E+01  0.95086296009E+01  0.51100000000E-03 0.  1.
        -12    1    3    3    0    0  0.24491678395E+02  0.31682244426E+02 -0.19849154041E+02  0.44694472126E+02  0.00000000000E+00 0.  1.
</event>
<event>
 7    1  0.3752192E-015  0.9000751E+02  0.7816164E-02  0.1186339E+00
        -11   -1    0    0    0    0  0.00000000000E+00  0.00000000000E+00  0.45593999997E+02  0.45594000000E+02  0.51100000000E-03 0. -1.
         11   -1    0    0    0    0 -0.00000000000E+00 -0.00000000000E+00 -0.45593999997E+02  0.45594000000E+02  0.51100000000E-03 0.  1.
    9900012    2    1    2    0    0  0.42858596506E+00 -0.10993178869E+01  0.36935884810E-01  0.90007512810E+02  0.89999771179E+02 0.  0.
        -12    1    1    2    0    0 -0.42858596506E+00  0.10993178869E+01 -0.36935884810E-01  0.11804871899E+01  0.00000000000E+00 0.  1.
         11    1    3    3    0    0  0.43538450107E+01  0.30937535074E+01 -0.10911213909E+02  0.12148327719E+02  0.51100000000E-03 0. -1.
        -11    1    3    3    0    0  0.13070039425E+02  0.28004822582E+02 -0.13790223721E+02  0.33841783182E+02  0.51100000000E-03 0.  1.
         12    1    3    3    0    0 -0.16995298471E+02 -0.32197893977E+02  0.24738373514E+02  0.44017401909E+02  0.00000000000E+00 0. -1.
</event>
<event>
 7    1  0.3752192E-015  0.9000775E+02  0.7816164E-02  0.1186339E+00
        -11   -1    0    0    0    0  0.00000000000E+00  0.00000000000E+00  0.45593999997E+02  0.45594000000E+02  0.51100000000E-03 0. -1.
         11   -1    0    0    0    0 -0.00000000000E+00 -0.00000000000E+00 -0.45593999997E+02  0.45594000000E+02  0.51100000000E-03 0.  1.
    9900012    2    1    2    0    0  0.10342509306E+01  0.53205083509E+00 -0.20060639759E+00  0.90007747482E+02  0.90000008949E+02 0.  0.
        -12    1    1    2    0    0 -0.10342509306E+01 -0.53205083509E+00  0.20060639759E+00  0.11802525176E+01  0.00000000000E+00 0.  1.
         11    1    3    3    0    0 -0.42006070586E+02  0.69428802939E+01  0.71181640035E+01  0.43166906443E+02  0.51100000000E-03 0. -1.
        -11    1    3    3    0    0  0.29332353755E+01  0.31557629711E+01 -0.32728480619E+01  0.54105678441E+01  0.51100000000E-03 0.  1.
        -12    1    3    3    0    0  0.40107086141E+02 -0.95665924300E+01 -0.40459223392E+01  0.41430273195E+02  0.00000000000E+00 0.  1.
</event>
<event>
 7    1  0.3752192E-015  0.9000781E+02  0.7816164E-02  0.1186339E+00
        -11   -1    0    0    0    0  0.00000000000E+00  0.00000000000E+00  0.45593999997E+02  0.45594000000E+02  0.51100000000E-03 0. -1.
         11   -1    0    0    0    0 -0.00000000000E+00 -0.00000000000E+00 -0.45593999997E+02  0.45594000000E+02  0.51100000000E-03 0.  1.
    9900012    2    1    2    0    0  0.52675914759E+00 -0.67363201425E+00  0.81338528146E+00  0.90007808953E+02  0.90000071232E+02 0.  0.
        -12    1    1    2    0    0 -0.52675914759E+00  0.67363201425E+00 -0.81338528146E+00  0.11801910465E+01  0.00000000000E+00 0.  1.
         11    1    3    3    0    0 -0.66212242919E+01  0.10756618327E+01  0.60152106882E+01  0.90100177240E+01  0.51100000000E-03 0. -1.
        -11    1    3    3    0    0  0.60158616665E+00 -0.40220691857E+02 -0.10608702465E+02  0.41600607299E+02  0.51100000000E-03 0.  1.
         12    1    3    3    0    0  0.65463972729E+01  0.38471398010E+02  0.54068770582E+01  0.39397183930E+02  0.00000000000E+00 0. -1.
</event>
<event>
 7    1  0.3752192E-015  0.9000775E+02  0.7816164E-02  0.1186339E+00
        -11   -1    0    0    0    0  0.00000000000E+00  0.00000000000E+00  0.45593999997E+02  0.45594000000E+02  0.51100000000E-03 0. -1.
         11   -1    0    0    0    0 -0.00000000000E+00 -0.00000000000E+00 -0.45593999997E+02  0.45594000000E+02  0.51100000000E-03 0.  1.
    9900012    2    1    2    0    0  0.14677958922E-01 -0.11491531150E+01 -0.26872864406E+00  0.90007752819E+02  0.90000014356E+02 0.  0.
        -12    1    1    2    0    0 -0.14677958922E-01  0.11491531150E+01  0.26872864406E+00  0.11802471811E+01  0.00000000000E+00 0.  1.
         11    1    3    3    0    0  0.64553292792E+01  0.44037897933E+01 -0.13499803763E+01  0.79301379512E+01  0.51100000000E-03 0. -1.
        -11    1    3    3    0    0 -0.42544636325E+02  0.66698474035E+01  0.65871341794E+01  0.43565161326E+02  0.51100000000E-03 0.  1.
         12    1    3    3    0    0  0.36103985005E+02 -0.12222790312E+02 -0.55058824472E+01  0.38512453541E+02  0.00000000000E+00 0. -1.
</event>
<event>
 7    1  0.3752192E-015  0.9000769E+02  0.7816164E-02  0.1186339E+00
        -11   -1    0    0    0    0  0.00000000000E+00  0.00000000000E+00  0.45593999997E+02  0.45594000000E+02  0.51100000000E-03 0.  1.
         11   -1    0    0    0    0 -0.00000000000E+00 -0.00000000000E+00 -0.45593999997E+02  0.45594000000E+02  0.51100000000E-03 0. -1.
    9900012    2    1    2    0    0  0.36326558371E+00  0.81437529104E+00 -0.77327858259E+00  0.90007691242E+02  0.89999951966E+02 0.  0.
        -12    1    1    2    0    0 -0.36326558371E+00 -0.81437529104E+00  0.77327858259E+00  0.11803087584E+01  0.00000000000E+00 0.  1.
         11    1    3    3    0    0 -0.21823131587E+02  0.12087315377E+02 -0.25590610316E+02  0.35738377159E+02  0.51100000000E-03 0. -1.
        -11    1    3    3    0    0 -0.47653573402E+01  0.64816459478E+01 -0.56937597138E+01  0.98559253605E+01  0.51100000000E-03 0.  1.
        -12    1    3    3    0    0  0.26951754511E+02 -0.17754586034E+02  0.30511091448E+02  0.44413388722E+02  0.00000000000E+00 0.  1.
</event>
<event>
 7    1  0.3752192E-015  0.9000768E+02  0.7816164E-02  0.1186339E+00
        -11   -1    0    0    0    0  0.00000000000E+00  0.00000000000E+00  0.45593999997E+02  0.45594000000E+02  0.51100000000E-03 0. -1.
         11   -1    0    0    0    0 -0.00000000000E+00 -0.00000000000E+00 -0.45593999997E+02  0.45594000000E+02  0.51100000000E-03 0.  1.
    9900012    2    1    2    0    0 -0.51649779610E+00  0.92218917724E+00  0.52530140487E+00  0.90007684611E+02  0.89999945248E+02 0.  0.
        -12    1    1    2    0    0  0.51649779610E+00 -0.92218917724E+00 -0.52530140487E+00  0.11803153892E+01  0.00000000000E+00 0.  1.
         11    1    3    3    0    0  0.10110598043E+02 -0.28354211947E+02  0.25623692548E+02  0.39531748607E+02  0.51100000000E-03 0. -1.
        -11    1    3    3    0    0 -0.71468123661E+01 -0.68148700081E+00  0.42920178118E+01  0.83643749728E+01  0.51100000000E-03 0.  1.
        -12    1    3    3    0    0 -0.34802834730E+01  0.29957888125E+02 -0.29390408955E+02  0.42111561031E+02  0.00000000000E+00 0.  1.
</event>
<event>
 7    1  0.3752192E-015  0.9000771E+02  0.7816164E-02  0.1186339E+00
        -11   -1    0    0    0    0  0.00000000000E+00  0.00000000000E+00  0.45593999997E+02  0.45594000000E+02  0.51100000000E-03 0. -1.
         11   -1    0    0    0    0 -0.00000000000E+00 -0.00000000000E+00 -0.45593999997E+02  0.45594000000E+02  0.51100000000E-03 0.  1.
    9900012    2    1    2    0    0  0.10919065803E+01 -0.37361491966E-01 -0.44658440915E+00  0.90007706182E+02  0.89999967104E+02 0.  0.
        -12    1    1    2    0    0 -0.10919065803E+01  0.37361491966E-01  0.44658440915E+00  0.11802938176E+01  0.00000000000E+00 0.  1.
         11    1    3    3    0    0 -0.11483932644E+02  0.29763589815E+02  0.27235228760E+02  0.41946509671E+02  0.51100000000E-03 0. -1.
        -11    1    3    3    0    0 -0.62248453607E+01 -0.62855070323E+01 -0.37808036785E+01  0.96203313422E+01  0.51100000000E-03 0.  1.
        -12    1    3    3    0    0  0.18800684585E+02 -0.23515444275E+02 -0.23901009491E+02  0.38440865170E+02  0.00000000000E+00 0.  1.
</event>
<event>
 7    1  0.3752192E-015  0.9000772E+02  0.7816164E-02  0.1186339E+00
        -11   -1    0    0    0    0  0.00000000000E+00  0.00000000000E+00  0.45593999997E+02  0.45594000000E+02  0.51100000000E-03 0.  1.
         11   -1    0    0    0    0 -0.00000000000E+00 -0.00000000000E+00 -0.45593999997E+02  0.45594000000E+02  0.51100000000E-03 0. -1.
    9900012    2    1    2    0    0  0.11078543069E+01  0.37222191227E+00 -0.16485251439E+00  0.90007717547E+02  0.89999978619E+02 0.  0.
        -12    1    1    2    0    0 -0.11078543069E+01 -0.37222191227E+00  0.16485251439E+00  0.11802824530E+01  0.00000000000E+00 0.  1.
         11    1    3    3    0    0 -0.72613102295E+01  0.39325964664E+01  0.37217745413E+01  0.90577893116E+01  0.51100000000E-03 0. -1.
        -11    1    3    3    0    0  0.10378647055E+01 -0.28069412998E+02  0.28274653451E+02  0.39855051590E+02  0.51100000000E-03 0.  1.
         12    1    3    3    0    0  0.73312998309E+01  0.24509038444E+02 -0.32161280507E+02  0.41094876645E+02  0.00000000000E+00 0. -1.
</event>
<event>
 7    1  0.3752192E-015  0.9000781E+02  0.7816164E-02  0.1186339E+00
        -11   -1    0    0    0    0  0.00000000000E+00  0.00000000000E+00  0.45593999997E+02  0.45594000000E+02  0.51100000000E-03 0.  1.
         11   -1    0    0    0    0 -0.00000000000E+00 -0.00000000000E+00 -0.45593999997E+02  0.45594000000E+02  0.51100000000E-03 0. -1.
    9900012    2    1    2    0    0 -0.65201616352E+00  0.73067032550E+00 -0.65866935137E+00  0.90007809542E+02  0.90000071828E+02 0.  0.
        -12    1    1    2    0    0  0.65201616352E+00 -0.73067032550E+00  0.65866935137E+00  0.11801904577E+01  0.00000000000E+00 0.  1.
         11    1    3    3    0    0 -0.23364571734E+02 -0.24558837072E+02 -0.18022276559E+02  0.38390651770E+02  0.51100000000E-03 0. -1.
        -11    1    3    3    0    0  0.70952607424E+01 -0.23633524366E+01 -0.80166031786E+01  0.10963306368E+02  0.51100000000E-03 0.  1.
        -12    1    3    3    0    0  0.15617294829E+02  0.27652859834E+02  0.25380210386E+02  0.40653851404E+02  0.00000000000E+00 0.  1.
</event>
<event>
 7    1  0.3752192E-015  0.9000775E+02  0.7816164E-02  0.1186339E+00
        -11   -1    0    0    0    0  0.00000000000E+00  0.00000000000E+00  0.45593999997E+02  0.45594000000E+02  0.51100000000E-03 0. -1.
         11   -1    0    0    0    0 -0.00000000000E+00 -0.00000000000E+00 -0.45593999997E+02  0.45594000000E+02  0.51100000000E-03 0.  1.
    9900012    2    1    2    0    0 -0.36729601529E+00  0.16116493900E+00  0.11100045045E+01  0.90007749814E+02  0.90000011312E+02 0.  0.
        -12    1    1    2    0    0  0.36729601529E+00 -0.16116493900E+00 -0.11100045045E+01  0.11802501855E+01  0.00000000000E+00 0.  1.
         11    1    3    3    0    0 -0.30506299029E+02 -0.21890045352E+02  0.96004998891E+01  0.38755360459E+02  0.51100000000E-03 0. -1.
        -11    1    3    3    0    0 -0.42252428338E+01 -0.21478856098E+01  0.52124684247E+01  0.70452762144E+01  0.51100000000E-03 0.  1.
        -12    1    3    3    0    0  0.34364245847E+02  0.24199095901E+02 -0.13702963809E+02  0.44207113141E+02  0.00000000000E+00 0.  1.
</event>
<event>
 7    1  0.3752192E-015  0.9000774E+02  0.7816164E-02  0.1186339E+00
        -11   -1    0    0    0    0  0.00000000000E+00  0.00000000000E+00  0.45593999997E+02  0.45594000000E+02  0.51100000000E-03 0.  1.
         11   -1    0    0    0    0 -0.00000000000E+00 -0.00000000000E+00 -0.45593999997E+02  0.45594000000E+02  0.51100000000E-03 0. -1.
    9900012    2    1    2    0    0  0.59010492142E+00 -0.79100339598E+00 -0.64737856265E+00  0.90007741895E+02  0.90000003288E+02 0.  0.
        -12    1    1    2    0    0 -0.59010492142E+00  0.79100339598E+00  0.64737856265E+00  0.11802581049E+01  0.00000000000E+00 0.  1.
         11    1    3    3    0    0  0.25850854459E+02 -0.21490402573E+02 -0.14242456416E+02  0.36509610297E+02  0.51100000000E-03 0. -1.
        -11    1    3    3    0    0 -0.85429128934E+01 -0.12155512293E+02  0.32185677199E+01  0.15201875485E+02  0.51100000000E-03 0.  1.
        -12    1    3    3    0    0 -0.16717836644E+02  0.32854911470E+02  0.10376510134E+02  0.38296256114E+02  0.00000000000E+00 0.  1.
</event>
<event>
 7    1  0.3752192E-015  0.9000771E+02  0.7816164E-02  0.1186339E+00
        -11   -1    0    0    0    0  0.00000000000E+00  0.00000000000E+00  0.45593999997E+02  0.45594000000E+02  0.51100000000E-03 0. -1.
         11   -1    0    0    0    0 -0.00000000000E+00 -0.00000000000E+00 -0.45593999997E+02  0.45594000000E+02  0.51100000000E-03 0.  1.
    9900012    2    1    2    0    0  0.15123079924E+00 -0.82162045286E+00 -0.83375420369E+00  0.90007713172E+02  0.89999974186E+02 0.  0.
        -12    1    1    2    0    0 -0.15123079924E+00  0.82162045286E+00  0.83375420369E+00  0.11802868276E+01  0.00000000000E+00 0.  1.
         11    1    3    3    0    0  0.52401030548E+01 -0.53753012897E+01 -0.41047363045E+01  0.85557819263E+01  0.51100000000E-03 0. -1.
        -11    1    3    3    0    0  0.17097485468E+02 -0.33246383626E+02 -0.11241277747E+01  0.37402001244E+02  0.51100000000E-03 0.  1.
         12    1    3    3    0    0 -0.22186357723E+02  0.37800064463E+02  0.43951098756E+01  0.44049930002E+02  0.00000000000E+00 0. -1.
</event>
<event>
 7    1  0.3752192E-015  0.9000777E+02  0.7816164E-02  0.1186339E+00
        -11   -1    0    0    0    0  0.00000000000E+00  0.00000000000E+00  0.45593999997E+02  0.45594000000E+02  0.51100000000E-03 0.  1.
         11   -1    0    0    0    0 -0.00000000000E+00 -0.00000000000E+00 -0.45593999997E+02  0.45594000000E+02  0.51100000000E-03 0. -1.
    9900012    2    1    2    0    0  0.99197765360E+00  0.59612483520E+00  0.23145034173E+00  0.90007765386E+02  0.90000027089E+02 0.  0.
        -12    1    1    2    0    0 -0.99197765360E+00 -0.59612483520E+00 -0.23145034173E+00  0.11802346144E+01  0.00000000000E+00 0.  1.
         11    1    3    3    0    0 -0.12254657827E+02 -0.41673370807E+01 -0.65554984768E+00  0.12960442996E+02  0.51100000000E-03 0. -1.
        -11    1    3    3    0    0 -0.24928464524E+02  0.15603513751E+01  0.22018191395E+02  0.33296603318E+02  0.51100000000E-03 0.  1.
         12    1    3    3    0    0  0.38175100005E+02  0.32031105408E+01 -0.21131191206E+02  0.43750719071E+02  0.00000000000E+00 0. -1.
</event>
<event>
 7    1  0.3752192E-015  0.9000775E+02  0.7816164E-02  0.1186339E+00
        -11   -1    0    0    0    0  0.00000000000E+00  0.00000000000E+00  0.45593999997E+02  0.45594000000E+02  0.51100000000E-03 0. -1.
         11   -1    0    0    0    0 -0.00000000000E+00 -0.00000000000E+00 -0.45593999997E+02  0.45594000000E+02  0.51100000000E-03 0.  1.
    9900012    2    1    2    0    0  0.50906867447E+00 -0.10378147976E+00  0.10597449193E+01  0.90007753922E+02  0.90000015474E+02 0.  0.
        -12    1    1    2    0    0 -0.50906867447E+00  0.10378147976E+00 -0.10597449193E+01  0.11802460781E+01  0.00000000000E+00 0.  1.
         11    1    3    3    0    0  0.40271004141E+01 -0.76313127619E+01  0.47509542078E+01  0.98501796106E+01  0.51100000000E-03 0. -1.
        -11    1    3    3    0    0  0.22360784223E+02 -0.22742037745E+02 -0.19418874768E+02  0.37340295251E+02  0.51100000000E-03 0.  1.
         12    1    3    3    0    0 -0.25878815962E+02  0.30269569028E+02  0.15727665480E+02  0.42817279061E+02  0.00000000000E+00 0. -1.
</event>
<event>
 7    1  0.3752192E-015  0.9000772E+02  0.7816164E-02  0.1186339E+00
        -11   -1    0    0    0    0  0.00000000000E+00  0.00000000000E+00  0.45593999997E+02  0.45594000000E+02  0.51100000000E-03 0. -1.
         11   -1    0    0    0    0 -0.00000000000E+00 -0.00000000000E+00 -0.45593999997E+02  0.45594000000E+02  0.51100000000E-03 0.  1.
    9900012    2    1    2    0    0  0.89647840552E+00 -0.38160828880E+00  0.66615330090E+00  0.90007720949E+02  0.89999982066E+02 0.  0.
        -12    1    1    2    0    0 -0.89647840552E+00  0.38160828880E+00 -0.66615330090E+00  0.11802790509E+01  0.00000000000E+00 0.  1.
         11    1    3    3    0    0  0.58873806728E+01 -0.58912699983E+01 -0.32455660900E+01  0.89387925854E+01  0.51100000000E-03 0. -1.
        -11    1    3    3    0    0  0.29700870701E+02  0.20799908415E+02 -0.14339873612E+02  0.38992433701E+02  0.51100000000E-03 0.  1.
         12    1    3    3    0    0 -0.34691772968E+02 -0.15290246705E+02  0.18251593002E+02  0.42076494663E+02  0.00000000000E+00 0. -1.
</event>
<event>
 7    1  0.3752192E-015  0.9000779E+02  0.7816164E-02  0.1186339E+00
        -11   -1    0    0    0    0  0.00000000000E+00  0.00000000000E+00  0.45593999997E+02  0.45594000000E+02  0.51100000000E-03 0.  1.
         11   -1    0    0    0    0 -0.00000000000E+00 -0.00000000000E+00 -0.45593999997E+02  0.45594000000E+02  0.51100000000E-03 0. -1.
    9900012    2    1    2    0    0  0.19719685061E+00  0.92581166131E+00 -0.70490273597E+00  0.90007787436E+02  0.90000049430E+02 0.  0.
        -12    1    1    2    0    0 -0.19719685061E+00 -0.92581166131E+00  0.70490273597E+00  0.11802125645E+01  0.00000000000E+00 0.  1.
         11    1    3    3    0    0  0.15176045629E+02 -0.22523044421E+02 -0.28048724275E+02  0.39042679527E+02  0.51100000000E-03 0. -1.
        -11    1    3    3    0    0  0.99532440637E+01  0.26926158348E+01  0.42957641909E+01  0.11170086735E+02  0.51100000000E-03 0.  1.
        -12    1    3    3    0    0 -0.24932092842E+02  0.20756240248E+02  0.23048057348E+02  0.39795021174E+02  0.00000000000E+00 0.  1.
</event>
<event>
 7    1  0.3752192E-015  0.9000767E+02  0.7816164E-02  0.1186339E+00
        -11   -1    0    0    0    0  0.00000000000E+00  0.00000000000E+00  0.45593999997E+02  0.45594000000E+02  0.51100000000E-03 0.  1.
         11   -1    0    0    0    0 -0.00000000000E+00 -0.00000000000E+00 -0.45593999997E+02  0.45594000000E+02  0.51100000000E-03 0. -1.
    9900012    2    1    2    0    0  0.79920498177E+00 -0.10424780057E+00  0.86230977668E+00  0.90007671928E+02  0.89999932397E+02 0.  0.
        -12    1    1    2    0    0 -0.79920498177E+00  0.10424780057E+00 -0.86230977668E+00  0.11803280721E+01  0.00000000000E+00 0.  1.
         11    1    3    3    0    0 -0.15722364665E+02  0.33656428676E+02 -0.92950635714E+01  0.38292899458E+02  0.51100000000E-03 0. -1.
        -11    1    3    3    0    0 -0.82558778562E+01 -0.28303982207E+01 -0.40404481099E+01  0.96174785913E+01  0.51100000000E-03 0.  1.
        -12    1    3    3    0    0  0.24777447503E+02 -0.30930278256E+02  0.14197821458E+02  0.42097293878E+02  0.00000000000E+00 0.  1.
</event>
<event>
 7    1  0.3752192E-015  0.9000753E+02  0.7816164E-02  0.1186339E+00
        -11   -1    0    0    0    0  0.00000000000E+00  0.00000000000E+00  0.45593999997E+02  0.45594000000E+02  0.51100000000E-03 0. -1.
         11   -1    0    0    0    0 -0.00000000000E+00 -0.00000000000E+00 -0.45593999997E+02  0.45594000000E+02  0.51100000000E-03 0.  1.
    9900012    2    1    2    0    0  0.86616126534E+00  0.11002873843E+00  0.79446658776E+00  0.90007526019E+02  0.89999784562E+02 0.  0.
        -12    1    1    2    0    0 -0.86616126534E+00 -0.11002873843E+00 -0.79446658776E+00  0.11804739810E+01  0.00000000000E+00 0.  1.
         11    1    3    3    0    0 -0.20671897205E+01  0.37455021430E+01  0.70077897646E+01  0.82104310051E+01  0.51100000000E-03 0. -1.
        -11    1    3    3    0    0 -0.18669921469E+02  0.17146475183E+02 -0.32989056549E+02  0.41603430520E+02  0.51100000000E-03 0.  1.
         12    1    3    3    0    0  0.21603272455E+02 -0.20781948587E+02  0.26775733372E+02  0.40193664494E+02  0.00000000000E+00 0. -1.
</event>
<event>
 7    1  0.3752192E-015  0.9000756E+02  0.7816164E-02  0.1186339E+00
        -11   -1    0    0    0    0  0.00000000000E+00  0.00000000000E+00  0.45593999997E+02  0.45594000000E+02  0.51100000000E-03 0.  1.
         11   -1    0    0    0    0 -0.00000000000E+00 -0.00000000000E+00 -0.45593999997E+02  0.45594000000E+02  0.51100000000E-03 0. -1.
    9900012    2    1    2    0    0  0.89214184181E+00 -0.76801226560E+00 -0.87670489113E-01  0.90007556854E+02  0.89999815804E+02 0.  0.
        -12    1    1    2    0    0 -0.89214184181E+00  0.76801226560E+00  0.87670489113E-01  0.11804431459E+01  0.00000000000E+00 0.  1.
         11    1    3    3    0    0 -0.43511322502E+01  0.37735625767E+02 -0.77605357210E+01  0.38770294284E+02  0.51100000000E-03 0. -1.
        -11    1    3    3    0    0 -0.44935579353E-01  0.50943205377E+01 -0.31710399601E+01  0.60008012496E+01  0.51100000000E-03 0.  1.
        -12    1    3    3    0    0  0.52882096713E+01 -0.43597958570E+02  0.10843905192E+02  0.45236461321E+02  0.00000000000E+00 0.  1.
</event>
<event>
 7    1  0.3752192E-015  0.9000758E+02  0.7816164E-02  0.1186339E+00
        -11   -1    0    0    0    0  0.00000000000E+00  0.00000000000E+00  0.45593999997E+02  0.45594000000E+02  0.51100000000E-03 0.  1.
         11   -1    0    0    0    0 -0.00000000000E+00 -0.00000000000E+00 -0.45593999997E+02  0.45594000000E+02  0.51100000000E-03 0. -1.
    9900012    2    1    2    0    0 -0.69073498090E+00 -0.95261798452E+00  0.93803955383E-01  0.90007578457E+02  0.89999837692E+02 0.  0.
        -12    1    1    2    0    0  0.69073498090E+00  0.95261798452E+00 -0.93803955383E-01  0.11804215435E+01  0.00000000000E+00 0.  1.
         11    1    3    3    0    0 -0.20956409206E+02  0.25789264504E+02  0.10038705457E+02  0.34713583192E+02  0.51100000000E-03 0. -1.
        -11    1    3    3    0    0 -0.30452044523E+01  0.95355325569E+01  0.26800087366E+01  0.10362533396E+02  0.51100000000E-03 0.  1.
        -12    1    3    3    0    0  0.23310878678E+02 -0.36277415046E+02 -0.12624910239E+02  0.44931461869E+02  0.00000000000E+00 0.  1.
</event>
<event>
 7    1  0.3752192E-015  0.9000719E+02  0.7816164E-02  0.1186340E+00
        -11   -1    0    0    0    0  0.00000000000E+00  0.00000000000E+00  0.45593999997E+02  0.45594000000E+02  0.51100000000E-03 0.  1.
         11   -1    0    0    0    0 -0.00000000000E+00 -0.00000000000E+00 -0.45593999997E+02  0.45594000000E+02  0.51100000000E-03 0. -1.
    9900012    2    1    2    0    0 -0.14063219646E+00  0.78428432352E+00 -0.87145228398E+00  0.90007191634E+02  0.89999445762E+02 0.  0.
        -12    1    1    2    0    0  0.14063219646E+00 -0.78428432352E+00  0.87145228398E+00  0.11808083664E+01  0.00000000000E+00 0.  1.
         11    1    3    3    0    0  0.30222282889E+02  0.23981083841E+02 -0.12560969388E+02  0.40574089237E+02  0.51100000000E-03 0. -1.
        -11    1    3    3    0    0 -0.80784313838E+01 -0.42670266966E+01 -0.96090350321E+01  0.13259039368E+02  0.51100000000E-03 0.  1.
        -12    1    3    3    0    0 -0.22284483702E+02 -0.18929772820E+02  0.21298552136E+02  0.36174063028E+02  0.00000000000E+00 0.  1.
</event>
<event>
 7    1  0.3752192E-015  0.9000773E+02  0.7816164E-02  0.1186339E+00
        -11   -1    0    0    0    0  0.00000000000E+00  0.00000000000E+00  0.45593999997E+02  0.45594000000E+02  0.51100000000E-03 0.  1.
         11   -1    0    0    0    0 -0.00000000000E+00 -0.00000000000E+00 -0.45593999997E+02  0.45594000000E+02  0.51100000000E-03 0. -1.
    9900012    2    1    2    0    0  0.52175662263E+00  0.33604790348E+00 -0.10039333945E+01  0.90007728664E+02  0.89999989882E+02 0.  0.
        -12    1    1    2    0    0 -0.52175662263E+00 -0.33604790348E+00  0.10039333945E+01  0.11802713363E+01  0.00000000000E+00 0.  1.
         11    1    3    3    0    0  0.22004012555E+01 -0.13227899414E+02 -0.34182397316E+02  0.36718597129E+02  0.51100000000E-03 0. -1.
        -11    1    3    3    0    0 -0.29353583846E+01 -0.44151489717E+01 -0.72752790351E+01  0.90021972089E+01  0.51100000000E-03 0.  1.
        -12    1    3    3    0    0  0.12567137518E+01  0.17979096289E+02  0.40453742956E+02  0.44286934326E+02  0.00000000000E+00 0.  1.
</event>
<event>
 7    1  0.3752192E-015  0.9000780E+02  0.7816164E-02  0.1186339E+00
        -11   -1    0    0    0    0  0.00000000000E+00  0.00000000000E+00  0.45593999997E+02  0.45594000000E+02  0.51100000000E-03 0.  1.
         11   -1    0    0    0    0 -0.00000000000E+00 -0.00000000000E+00 -0.45593999997E+02  0.45594000000E+02  0.51100000000E-03 0. -1.
    9900012    2    1    2    0    0  0.72727166580E+00 -0.91614492380E+00 -0.15695873093E+00  0.90007795933E+02  0.90000058039E+02 0.  0.
        -12    1    1    2    0    0 -0.72727166580E+00  0.91614492380E+00  0.15695873093E+00  0.11802040673E+01  0.00000000000E+00 0.  1.
         11    1    3    3    0    0 -0.19431752448E+02 -0.24371157048E+02 -0.24373195379E+02  0.39567650326E+02  0.51100000000E-03 0. -1.
        -11    1    3    3    0    0 -0.46336023425E+01  0.28002087223E+01 -0.46554713435E+01  0.71403678651E+01  0.51100000000E-03 0.  1.
        -12    1    3    3    0    0  0.24792626457E+02  0.20654803402E+02  0.28871707991E+02  0.43299777742E+02  0.00000000000E+00 0.  1.
</event>
<event>
 7    1  0.3752192E-015  0.9000784E+02  0.7816164E-02  0.1186339E+00
        -11   -1    0    0    0    0  0.00000000000E+00  0.00000000000E+00  0.45593999997E+02  0.45594000000E+02  0.51100000000E-03 0. -1.
         11   -1    0    0    0    0 -0.00000000000E+00 -0.00000000000E+00 -0.45593999997E+02  0.45594000000E+02  0.51100000000E-03 0.  1.
    9900012    2    1    2    0    0  0.16429587016E+00  0.16453506146E+00  0.11570312267E+01  0.90007836376E+02  0.90000099016E+02 0.  0.
        -12    1    1    2    0    0 -0.16429587016E+00 -0.16453506146E+00 -0.11570312267E+01  0.11801636238E+01  0.00000000000E+00 0.  1.
         11    1    3    3    0    0  0.10515779867E+02  0.24093977975E+02  0.30476855815E+02  0.40248479990E+02  0.51100000000E-03 0. -1.
        -11    1    3    3    0    0 -0.32752187734E+01  0.65762556635E+01 -0.77711795424E+00  0.73876998546E+01  0.51100000000E-03 0.  1.
        -12    1    3    3    0    0 -0.70762652236E+01 -0.30505698577E+02 -0.28542706634E+02  0.42371656531E+02  0.00000000000E+00 0.  1.
</event>
<event>
 7    1  0.3752192E-015  0.9000760E+02  0.7816164E-02  0.1186339E+00
        -11   -1    0    0    0    0  0.00000000000E+00  0.00000000000E+00  0.45593999997E+02  0.45594000000E+02  0.51100000000E-03 0.  1.
         11   -1    0    0    0    0 -0.00000000000E+00 -0.00000000000E+00 -0.45593999997E+02  0.45594000000E+02  0.51100000000E-03 0. -1.
    9900012    2    1    2    0    0  0.72422190668E+00  0.98902246060E-02 -0.93206706222E+00  0.90007599985E+02  0.89999859505E+02 0.  0.
        -12    1    1    2    0    0 -0.72422190668E+00 -0.98902246060E-02  0.93206706222E+00  0.11804000149E+01  0.00000000000E+00 0.  1.
         11    1    3    3    0    0 -0.29845933959E+02 -0.50404125115E+01  0.22465576943E+02  0.37694663811E+02  0.51100000000E-03 0. -1.
        -11    1    3    3    0    0 -0.17413317458E+01  0.69945638331E+01  0.53847900093E+01  0.89973397829E+01  0.51100000000E-03 0.  1.
        -12    1    3    3    0    0  0.32311487612E+02 -0.19442610970E+01 -0.28782434015E+02  0.43315596391E+02  0.00000000000E+00 0.  1.
</event>
<event>
 7    1  0.3752192E-015  0.9000766E+02  0.7816164E-02  0.1186339E+00
        -11   -1    0    0    0    0  0.00000000000E+00  0.00000000000E+00  0.45593999997E+02  0.45594000000E+02  0.51100000000E-03 0. -1.
         11   -1    0    0    0    0 -0.00000000000E+00 -0.00000000000E+00 -0.45593999997E+02  0.45594000000E+02  0.51100000000E-03 0.  1.
    9900012    2    1    2    0    0  0.42483876622E+00  0.21435518309E+00  0.10801666976E+01  0.90007662668E+02  0.89999923016E+02 0.  0.
        -12    1    1    2    0    0 -0.42483876622E+00 -0.21435518309E+00 -0.10801666976E+01  0.11803373316E+01  0.00000000000E+00 0.  1.
         11    1    3    3    0    0  0.11875857669E+01 -0.10119730527E+02  0.52234750950E+01  0.11450065424E+02  0.51100000000E-03 0. -1.
        -11    1    3    3    0    0  0.51744132766E+01 -0.29320704962E+02  0.15874888551E+02  0.33741523069E+02  0.51100000000E-03 0.  1.
         12    1    3    3    0    0 -0.59371602773E+01  0.39654790672E+02 -0.20018196948E+02  0.44816074175E+02  0.00000000000E+00 0. -1.
</event>
<event>
 7    1  0.3752192E-015  0.9000769E+02  0.7816164E-02  0.1186339E+00
        -11   -1    0    0    0    0  0.00000000000E+00  0.00000000000E+00  0.45593999997E+02  0.45594000000E+02  0.51100000000E-03 0. -1.
         11   -1    0    0    0    0 -0.00000000000E+00 -0.00000000000E+00 -0.45593999997E+02  0.45594000000E+02  0.51100000000E-03 0.  1.
    9900012    2    1    2    0    0 -0.18726619591E+00 -0.17285343761E+00  0.11524655942E+01  0.90007693309E+02  0.89999954061E+02 0.  0.
        -12    1    1    2    0    0  0.18726619591E+00  0.17285343761E+00 -0.11524655942E+01  0.11803066910E+01  0.00000000000E+00 0.  1.
         11    1    3    3    0    0  0.40642261823E+02 -0.59168610191E+01  0.52125275636E+01  0.41400158626E+02  0.51100000000E-03 0. -1.
        -11    1    3    3    0    0 -0.36811049936E+01 -0.67772238625E+01  0.38432065615E+01  0.86169329922E+01  0.51100000000E-03 0.  1.
        -12    1    3    3    0    0 -0.37148423025E+02  0.12521231444E+02 -0.79032685309E+01  0.39990601691E+02  0.00000000000E+00 0.  1.
</event>
<event>
 7    1  0.3752192E-015  0.9000772E+02  0.7816164E-02  0.1186339E+00
        -11   -1    0    0    0    0  0.00000000000E+00  0.00000000000E+00  0.45593999997E+02  0.45594000000E+02  0.51100000000E-03 0.  1.
         11   -1    0    0    0    0 -0.00000000000E+00 -0.00000000000E+00 -0.45593999997E+02  0.45594000000E+02  0.51100000000E-03 0. -1.
    9900012    2    1    2    0    0 -0.80994179915E+00 -0.22383573597E+00 -0.82883217233E+00  0.90007715744E+02  0.89999976792E+02 0.  0.
        -12    1    1    2    0    0  0.80994179915E+00  0.22383573597E+00  0.82883217233E+00  0.11802842558E+01  0.00000000000E+00 0.  1.
         11    1    3    3    0    0 -0.34458508196E+01 -0.79445454279E+01  0.58086946623E+01  0.10427397752E+02  0.51100000000E-03 0. -1.
        -11    1    3    3    0    0  0.13484990336E+02 -0.24131489988E+02 -0.28300267745E+02  0.39561078450E+02  0.51100000000E-03 0.  1.
         12    1    3    3    0    0 -0.10849081315E+02  0.31852199680E+02  0.21662740910E+02  0.40019239543E+02  0.00000000000E+00 0. -1.
</event>
<event>
 7    1  0.4318047E-015  0.9000783E+02  0.7816164E-02  0.1186339E+00
        -11   -1    0    0    0    0  0.00000000000E+00  0.00000000000E+00  0.45593999997E+02  0.45594000000E+02  0.51100000000E-03 0. -1.
         11   -1    0    0    0    0 -0.00000000000E+00 -0.00000000000E+00 -0.45593999997E+02  0.45594000000E+02  0.51100000000E-03 0.  1.
    9900012    2    1    2    0    0 -0.55450778243E+00 -0.57681079420E-01  0.10401906224E+01  0.90007829454E+02  0.90000092002E+02 0.  0.
        -12    1    1    2    0    0  0.55450778243E+00  0.57681079420E-01 -0.10401906224E+01  0.11801705464E+01  0.00000000000E+00 0.  1.
         11    1    3    3    0    0  0.11700641361E+02  0.11382899596E+02  0.32349368436E+02  0.36234749205E+02  0.51100000000E-03 0. -1.
        -11    1    3    3    0    0  0.61621057466E-01  0.97048630391E+01  0.42601374455E+01  0.10598911976E+02  0.51100000000E-03 0.  1.
        -12    1    3    3    0    0 -0.12316770201E+02 -0.21145443715E+02 -0.35569315259E+02  0.43174168273E+02  0.00000000000E+00 0.  1.
</event>
<event>
 7    1  0.3752192E-015  0.9000760E+02  0.7816164E-02  0.1186339E+00
        -11   -1    0    0    0    0  0.00000000000E+00  0.00000000000E+00  0.45593999997E+02  0.45594000000E+02  0.51100000000E-03 0.  1.
         11   -1    0    0    0    0 -0.00000000000E+00 -0.00000000000E+00 -0.45593999997E+02  0.45594000000E+02  0.51100000000E-03 0. -1.
    9900012    2    1    2    0    0 -0.10646321778E+01 -0.46199506372E+00  0.21556190982E+00  0.90007598352E+02  0.89999857850E+02 0.  0.
        -12    1    1    2    0    0  0.10646321778E+01  0.46199506372E+00 -0.21556190982E+00  0.11804016477E+01  0.00000000000E+00 0.  1.
         11    1    3    3    0    0 -0.91449670776E+01  0.43620337539E+01 -0.22719786053E+01  0.10383624048E+02  0.51100000000E-03 0. -1.
        -11    1    3    3    0    0  0.37455164982E+02  0.16654486785E+02  0.10603532083E+02  0.42340243349E+02  0.51100000000E-03 0.  1.
         12    1    3    3    0    0 -0.29374830083E+02 -0.21478515602E+02 -0.81159915684E+01  0.37283730956E+02  0.00000000000E+00 0. -1.
</event>
<event>
 7    1  0.3752192E-015  0.9000772E+02  0.7816164E-02  0.1186339E+00
        -11   -1    0    0    0    0  0.00000000000E+00  0.00000000000E+00  0.45593999997E+02  0.45594000000E+02  0.51100000000E-03 0. -1.
         11   -1    0    0    0    0 -0.00000000000E+00 -0.00000000000E+00 -0.45593999997E+02  0.45594000000E+02  0.51100000000E-03 0.  1.
    9900012    2    1    2    0    0 -0.30620779495E+00  0.99418716132E+00  0.55757074487E+00  0.90007721871E+02  0.89999983000E+02 0.  0.
        -12    1    1    2    0    0  0.30620779495E+00 -0.99418716132E+00 -0.55757074487E+00  0.11802781286E+01  0.00000000000E+00 0.  1.
         11    1    3    3    0    0 -0.53843440747E+01  0.41802029971E+01  0.58092610319E+01  0.89561583399E+01  0.51100000000E-03 0. -1.
        -11    1    3    3    0    0 -0.30621966686E+02  0.17935599846E+02  0.99776581547E+01  0.36863861003E+02  0.51100000000E-03 0.  1.
         12    1    3    3    0    0  0.35700102966E+02 -0.21121615682E+02 -0.15229348442E+02  0.44187702528E+02  0.00000000000E+00 0. -1.
</event>
<event>
 7    1  0.3752192E-015  0.9000773E+02  0.7816164E-02  0.1186339E+00
        -11   -1    0    0    0    0  0.00000000000E+00  0.00000000000E+00  0.45593999997E+02  0.45594000000E+02  0.51100000000E-03 0. -1.
         11   -1    0    0    0    0 -0.00000000000E+00 -0.00000000000E+00 -0.45593999997E+02  0.45594000000E+02  0.51100000000E-03 0.  1.
    9900012    2    1    2    0    0 -0.31593153328E+00 -0.98302618851E+00 -0.57173889600E+00  0.90007729444E+02  0.89999990672E+02 0.  0.
        -12    1    1    2    0    0  0.31593153328E+00  0.98302618851E+00  0.57173889600E+00  0.11802705564E+01  0.00000000000E+00 0.  1.
         11    1    3    3    0    0 -0.42617963675E+00 -0.93175886068E+01  0.19625244265E+01  0.95315575282E+01  0.51100000000E-03 0. -1.
        -11    1    3    3    0    0 -0.74169550567E+01 -0.34717816672E+02  0.58322805327E+01  0.35977124861E+02  0.51100000000E-03 0.  1.
         12    1    3    3    0    0  0.75272031601E+01  0.43052379090E+02 -0.83665438552E+01  0.44499047055E+02  0.00000000000E+00 0. -1.
</event>
<event>
 7    1  0.3752192E-015  0.9000770E+02  0.7816164E-02  0.1186339E+00
        -11   -1    0    0    0    0  0.00000000000E+00  0.00000000000E+00  0.45593999997E+02  0.45594000000E+02  0.51100000000E-03 0.  1.
         11   -1    0    0    0    0 -0.00000000000E+00 -0.00000000000E+00 -0.45593999997E+02  0.45594000000E+02  0.51100000000E-03 0. -1.
    9900012    2    1    2    0    0 -0.60936103431E-01  0.49985788189E+00 -0.10674878309E+01  0.90007702843E+02  0.89999963720E+02 0.  0.
        -12    1    1    2    0    0  0.60936103431E-01 -0.49985788189E+00  0.10674878309E+01  0.11802971574E+01  0.00000000000E+00 0.  1.
         11    1    3    3    0    0 -0.17683210846E+01 -0.53631725870E+01 -0.36430739997E+02  0.36865829662E+02  0.51100000000E-03 0. -1.
        -11    1    3    3    0    0  0.18345768162E+01 -0.11136933168E+02 -0.25676902144E+01  0.11575404347E+02  0.51100000000E-03 0.  1.
        -12    1    3    3    0    0 -0.12719183499E+00  0.16999963637E+02  0.37930942381E+02  0.41566468834E+02  0.00000000000E+00 0.  1.
</event>
<event>
 7    1  0.3752192E-015  0.9000778E+02  0.7816164E-02  0.1186339E+00
        -11   -1    0    0    0    0  0.00000000000E+00  0.00000000000E+00  0.45593999997E+02  0.45594000000E+02  0.51100000000E-03 0. -1.
         11   -1    0    0    0    0 -0.00000000000E+00 -0.00000000000E+00 -0.45593999997E+02  0.45594000000E+02  0.51100000000E-03 0.  1.
    9900012    2    1    2    0    0 -0.56835468836E+00 -0.69593190922E+00  0.76522582566E+00  0.90007780174E+02  0.90000042072E+02 0.  0.
        -12    1    1    2    0    0  0.56835468836E+00  0.69593190922E+00 -0.76522582566E+00  0.11802198263E+01  0.00000000000E+00 0.  1.
         11    1    3    3    0    0 -0.33851124369E+02  0.72282929077E+01  0.98285612137E+01  0.35982599339E+02  0.51100000000E-03 0. -1.
        -11    1    3    3    0    0 -0.93037638929E+01  0.13362782806E+01  0.47732397309E+00  0.94113495660E+01  0.51100000000E-03 0.  1.
        -12    1    3    3    0    0  0.42586533573E+02 -0.92605030975E+01 -0.95406593611E+01  0.44613831269E+02  0.00000000000E+00 0.  1.
</event>
<event>
 7    1  0.3752192E-015  0.9000773E+02  0.7816164E-02  0.1186339E+00
        -11   -1    0    0    0    0  0.00000000000E+00  0.00000000000E+00  0.45593999997E+02  0.45594000000E+02  0.51100000000E-03 0.  1.
         11   -1    0    0    0    0 -0.00000000000E+00 -0.00000000000E+00 -0.45593999997E+02  0.45594000000E+02  0.51100000000E-03 0. -1.
    9900012    2    1    2    0    0 -0.93459443612E+00  0.23382084835E+00 -0.68184253506E+00  0.90007725374E+02  0.89999986549E+02 0.  0.
        -12    1    1    2    0    0  0.93459443612E+00 -0.23382084835E+00  0.68184253506E+00  0.11802746256E+01  0.00000000000E+00 0.  1.
         11    1    3    3    0    0  0.39247708657E+02  0.11451317860E+02  0.93720972418E+01  0.41944624478E+02  0.51100000000E-03 0. -1.
        -11    1    3    3    0    0 -0.75948070610E+01  0.63917929786E+01 -0.14012611777E+01  0.10024951118E+02  0.51100000000E-03 0.  1.
        -12    1    3    3    0    0 -0.32587496033E+02 -0.17609289990E+02 -0.86526785991E+01  0.38038149779E+02  0.00000000000E+00 0.  1.
</event>
<event>
 7    1  0.5671082E-015  0.9000770E+02  0.7816164E-02  0.1186339E+00
        -11   -1    0    0    0    0  0.00000000000E+00  0.00000000000E+00  0.45593999997E+02  0.45594000000E+02  0.51100000000E-03 0. -1.
         11   -1    0    0    0    0 -0.00000000000E+00 -0.00000000000E+00 -0.45593999997E+02  0.45594000000E+02  0.51100000000E-03 0.  1.
    9900012    2    1    2    0    0 -0.64041676924E+00 -0.69714028130E+00  0.70496772172E+00  0.90007695930E+02  0.89999956716E+02 0.  0.
        -12    1    1    2    0    0  0.64041676924E+00  0.69714028130E+00 -0.70496772172E+00  0.11803040705E+01  0.00000000000E+00 0.  1.
         11    1    3    3    0    0 -0.20283817721E+02  0.34914473302E+02  0.28948935078E+01  0.40482516177E+02  0.51100000000E-03 0. -1.
        -11    1    3    3    0    0 -0.64029483579E+01 -0.49395144590E+01 -0.44356106709E+01  0.92234046344E+01  0.51100000000E-03 0.  1.
        -12    1    3    3    0    0  0.26046349310E+02 -0.30672099125E+02  0.22456848849E+01  0.40301775118E+02  0.00000000000E+00 0.  1.
</event>
<event>
 7    1  0.3752192E-015  0.9000773E+02  0.7816164E-02  0.1186339E+00
        -11   -1    0    0    0    0  0.00000000000E+00  0.00000000000E+00  0.45593999997E+02  0.45594000000E+02  0.51100000000E-03 0. -1.
         11   -1    0    0    0    0 -0.00000000000E+00 -0.00000000000E+00 -0.45593999997E+02  0.45594000000E+02  0.51100000000E-03 0.  1.
    9900012    2    1    2    0    0  0.33025837981E+00  0.94974584746E+00  0.61802788990E+00  0.90007726199E+02  0.89999987385E+02 0.  0.
        -12    1    1    2    0    0 -0.33025837981E+00 -0.94974584746E+00 -0.61802788990E+00  0.11802738008E+01  0.00000000000E+00 0.  1.
         11    1    3    3    0    0  0.10578348905E+02 -0.86227565892E+01 -0.21066407652E+01  0.13809103242E+02  0.51100000000E-03 0. -1.
        -11    1    3    3    0    0 -0.27753399783E+02  0.29802503670E+02 -0.15775319136E+02  0.43672658708E+02  0.51100000000E-03 0.  1.
         12    1    3    3    0    0  0.17505309258E+02 -0.20230001234E+02  0.18499987791E+02  0.32525964250E+02  0.00000000000E+00 0. -1.
</event>
<event>
 7    1  0.3752192E-015  0.9000764E+02  0.7816164E-02  0.1186339E+00
        -11   -1    0    0    0    0  0.00000000000E+00  0.00000000000E+00  0.45593999997E+02  0.45594000000E+02  0.51100000000E-03 0.  1.
         11   -1    0    0    0    0 -0.00000000000E+00 -0.00000000000E+00 -0.45593999997E+02  0.45594000000E+02  0.51100000000E-03 0. -1.
    9900012    2    1    2    0    0  0.14850388452E+00 -0.21826755399E+00 -0.11504574700E+01  0.90007641360E+02  0.89999901426E+02 0.  0.
        -12    1    1    2    0    0 -0.14850388452E+00  0.21826755399E+00  0.11504574700E+01  0.11803586401E+01  0.00000000000E+00 0.  1.
         11    1    3    3    0    0 -0.59983531023E+01  0.37423242723E+01 -0.53596955342E+01  0.88719539775E+01  0.51100000000E-03 0. -1.
        -11    1    3    3    0    0 -0.35179188609E+02  0.68347686245E+01  0.11849007444E+02  0.37745044059E+02  0.51100000000E-03 0.  1.
         12    1    3    3    0    0  0.41326045596E+02 -0.10795360451E+02 -0.76397693800E+01  0.43390643324E+02  0.00000000000E+00 0. -1.
</event>
<event>
 7    1  0.3752192E-015  0.9000771E+02  0.7816164E-02  0.1186339E+00
        -11   -1    0    0    0    0  0.00000000000E+00  0.00000000000E+00  0.45593999997E+02  0.45594000000E+02  0.51100000000E-03 0. -1.
         11   -1    0    0    0    0 -0.00000000000E+00 -0.00000000000E+00 -0.45593999997E+02  0.45594000000E+02  0.51100000000E-03 0.  1.
    9900012    2    1    2    0    0 -0.62648423807E+00  0.15147450631E+00  0.98876517257E+00  0.90007710377E+02  0.89999971354E+02 0.  0.
        -12    1    1    2    0    0  0.62648423807E+00 -0.15147450631E+00 -0.98876517257E+00  0.11802896225E+01  0.00000000000E+00 0.  1.
         11    1    3    3    0    0 -0.17212903894E+01 -0.17013234669E+01 -0.86870385684E+01  0.90178701196E+01  0.51100000000E-03 0. -1.
        -11    1    3    3    0    0 -0.85565410156E+01  0.88184912713E+01 -0.33773759716E+02  0.35939491205E+02  0.51100000000E-03 0.  1.
         12    1    3    3    0    0  0.96513471670E+01 -0.69656932981E+01  0.43449563457E+02  0.45050349053E+02  0.00000000000E+00 0. -1.
</event>
<event>
 7    1  0.3752192E-015  0.9000769E+02  0.7816164E-02  0.1186339E+00
        -11   -1    0    0    0    0  0.00000000000E+00  0.00000000000E+00  0.45593999997E+02  0.45594000000E+02  0.51100000000E-03 0.  1.
         11   -1    0    0    0    0 -0.00000000000E+00 -0.00000000000E+00 -0.45593999997E+02  0.45594000000E+02  0.51100000000E-03 0. -1.
    9900012    2    1    2    0    0  0.33227028623E+00  0.58787656413E+00 -0.96805929198E+00  0.90007685978E+02  0.89999946633E+02 0.  0.
        -12    1    1    2    0    0 -0.33227028623E+00 -0.58787656413E+00  0.96805929198E+00  0.11803140220E+01  0.00000000000E+00 0.  1.
         11    1    3    3    0    0 -0.21099761524E+02  0.73680941172E+01  0.13566250659E+02  0.26144443090E+02  0.51100000000E-03 0. -1.
        -11    1    3    3    0    0 -0.44763954559E+01  0.82216907457E+00  0.19724735724E+02  0.20243005654E+02  0.51100000000E-03 0.  1.
         12    1    3    3    0    0  0.25908427266E+02 -0.76023866277E+01 -0.34259045674E+02  0.43620237234E+02  0.00000000000E+00 0. -1.
</event>
<event>
 7    1  0.3752192E-015  0.9000779E+02  0.7816164E-02  0.1186339E+00
        -11   -1    0    0    0    0  0.00000000000E+00  0.00000000000E+00  0.45593999997E+02  0.45594000000E+02  0.51100000000E-03 0.  1.
         11   -1    0    0    0    0 -0.00000000000E+00 -0.00000000000E+00 -0.45593999997E+02  0.45594000000E+02  0.51100000000E-03 0. -1.
    9900012    2    1    2    0    0 -0.11842347652E+00 -0.87788802645E+00 -0.77985938771E+00  0.90007791471E+02  0.90000053519E+02 0.  0.
        -12    1    1    2    0    0  0.11842347652E+00  0.87788802645E+00  0.77985938771E+00  0.11802085288E+01  0.00000000000E+00 0.  1.
         11    1    3    3    0    0  0.28089707745E+02 -0.28588504158E+01  0.28534342193E+02  0.40142413874E+02  0.51100000000E-03 0. -1.
        -11    1    3    3    0    0  0.60027398913E+01 -0.58394506876E+00 -0.42569646203E+01  0.73821152853E+01  0.51100000000E-03 0.  1.
        -12    1    3    3    0    0 -0.34210871113E+02  0.25649074582E+01 -0.25057236961E+02  0.42483262312E+02  0.00000000000E+00 0.  1.
</event>
<event>
 7    1  0.3752192E-015  0.9000779E+02  0.7816164E-02  0.1186339E+00
        -11   -1    0    0    0    0  0.00000000000E+00  0.00000000000E+00  0.45593999997E+02  0.45594000000E+02  0.51100000000E-03 0.  1.
         11   -1    0    0    0    0 -0.00000000000E+00 -0.00000000000E+00 -0.45593999997E+02  0.45594000000E+02  0.51100000000E-03 0. -1.
    9900012    2    1    2    0    0  0.61142436934E+00  0.14619010156E-02  0.10094844164E+01  0.90007787865E+02  0.90000049865E+02 0.  0.
        -12    1    1    2    0    0 -0.61142436934E+00 -0.14619010156E-02 -0.10094844164E+01  0.11802121350E+01  0.00000000000E+00 0.  1.
         11    1    3    3    0    0 -0.41941444106E+01 -0.41550116183E+00 -0.81812357667E+01  0.92030488146E+01  0.51100000000E-03 0. -1.
        -11    1    3    3    0    0  0.27510880952E+02 -0.30559115474E+02  0.10276798640E+02  0.42383023722E+02  0.51100000000E-03 0.  1.
         12    1    3    3    0    0 -0.22705312172E+02  0.30976078537E+02 -0.10860784571E+01  0.38421715328E+02  0.00000000000E+00 0. -1.
</event>
<event>
 7    1  0.3752192E-015  0.9000775E+02  0.7816164E-02  0.1186339E+00
        -11   -1    0    0    0    0  0.00000000000E+00  0.00000000000E+00  0.45593999997E+02  0.45594000000E+02  0.51100000000E-03 0.  1.
         11   -1    0    0    0    0 -0.00000000000E+00 -0.00000000000E+00 -0.45593999997E+02  0.45594000000E+02  0.51100000000E-03 0. -1.
    9900012    2    1    2    0    0  0.11484763205E+00 -0.94074947422E+00 -0.70341888659E+00  0.90007746772E+02  0.90000008230E+02 0.  0.
        -12    1    1    2    0    0 -0.11484763205E+00  0.94074947422E+00  0.70341888659E+00  0.11802532278E+01  0.00000000000E+00 0.  1.
         11    1    3    3    0    0 -0.45553844138E+01 -0.81558700374E+00 -0.13610136092E+02  0.14375413525E+02  0.51100000000E-03 0. -1.
        -11    1    3    3    0    0  0.30670498200E+02 -0.21397659374E+02 -0.47223030782E+01  0.37694023839E+02  0.51100000000E-03 0.  1.
         12    1    3    3    0    0 -0.26000266155E+02  0.21272496903E+02  0.17629020284E+02  0.37938309408E+02  0.00000000000E+00 0. -1.
</event>
<event>
 7    1  0.3752192E-015  0.9000782E+02  0.7816164E-02  0.1186339E+00
        -11   -1    0    0    0    0  0.00000000000E+00  0.00000000000E+00  0.45593999997E+02  0.45594000000E+02  0.51100000000E-03 0. -1.
         11   -1    0    0    0    0 -0.00000000000E+00 -0.00000000000E+00 -0.45593999997E+02  0.45594000000E+02  0.51100000000E-03 0.  1.
    9900012    2    1    2    0    0 -0.75028814979E+00 -0.91091180497E+00 -0.11321074693E-01  0.90007821712E+02  0.90000084159E+02 0.  0.
        -12    1    1    2    0    0  0.75028814979E+00  0.91091180497E+00  0.11321074693E-01  0.11801782877E+01  0.00000000000E+00 0.  1.
         11    1    3    3    0    0 -0.87636216519E+01 -0.31490016877E+02  0.25624348165E+02  0.41533473807E+02  0.51100000000E-03 0. -1.
        -11    1    3    3    0    0 -0.49784366710E+01 -0.14294703851E+01 -0.84001466737E+01  0.98686717277E+01  0.51100000000E-03 0.  1.
        -12    1    3    3    0    0  0.12991770173E+02  0.32008575457E+02 -0.17235522566E+02  0.38605676177E+02  0.00000000000E+00 0.  1.
</event>
<event>
 7    1  0.3752192E-015  0.9000876E+02  0.7816164E-02  0.1186337E+00
        -11   -1    0    0    0    0  0.00000000000E+00  0.00000000000E+00  0.45593999997E+02  0.45594000000E+02  0.51100000000E-03 0. -1.
         11   -1    0    0    0    0 -0.00000000000E+00 -0.00000000000E+00 -0.45593999997E+02  0.45594000000E+02  0.51100000000E-03 0.  1.
    9900012    2    1    2    0    0  0.40669946098E+00 -0.54458812034E+00  0.96365762370E+00  0.90008755883E+02  0.90001030654E+02 0.  0.
        -12    1    1    2    0    0 -0.40669946098E+00  0.54458812034E+00 -0.96365762370E+00  0.11792441173E+01  0.00000000000E+00 0.  1.
         11    1    3    3    0    0  0.32641775201E+00  0.67351006364E+01 -0.49345852554E+01  0.83557322261E+01  0.51100000000E-03 0. -1.
        -11    1    3    3    0    0 -0.10346841615E+01  0.33603697375E+02 -0.13696766578E+02  0.36302623370E+02  0.51100000000E-03 0.  1.
         12    1    3    3    0    0  0.11149658705E+01 -0.40883386132E+02  0.19595009457E+02  0.45350400286E+02  0.00000000000E+00 0. -1.
</event>
<event>
 7    1  0.3752192E-015  0.9000773E+02  0.7816164E-02  0.1186339E+00
        -11   -1    0    0    0    0  0.00000000000E+00  0.00000000000E+00  0.45593999997E+02  0.45594000000E+02  0.51100000000E-03 0. -1.
         11   -1    0    0    0    0 -0.00000000000E+00 -0.00000000000E+00 -0.45593999997E+02  0.45594000000E+02  0.51100000000E-03 0.  1.
    9900012    2    1    2    0    0 -0.28172843882E+00 -0.56326657499E+00  0.99820008340E+00  0.90007727339E+02  0.89999988540E+02 0.  0.
        -12    1    1    2    0    0  0.28172843882E+00  0.56326657499E+00 -0.99820008340E+00  0.11802726610E+01  0.00000000000E+00 0.  1.
         11    1    3    3    0    0 -0.11546329373E+02  0.13266167871E+02 -0.31345071971E+02  0.35941931906E+02  0.51100000000E-03 0. -1.
        -11    1    3    3    0    0 -0.60894751269E+01 -0.20866786429E+01 -0.69881392603E+01  0.95010539238E+01  0.51100000000E-03 0.  1.
        -12    1    3    3    0    0  0.17354076061E+02 -0.11742755803E+02  0.39331411315E+02  0.44564741510E+02  0.00000000000E+00 0.  1.
</event>
<event>
 7    1  0.3752192E-015  0.9000771E+02  0.7816164E-02  0.1186339E+00
        -11   -1    0    0    0    0  0.00000000000E+00  0.00000000000E+00  0.45593999997E+02  0.45594000000E+02  0.51100000000E-03 0.  1.
         11   -1    0    0    0    0 -0.00000000000E+00 -0.00000000000E+00 -0.45593999997E+02  0.45594000000E+02  0.51100000000E-03 0. -1.
    9900012    2    1    2    0    0  0.73939763249E+00 -0.20658693227E+00 -0.89648607072E+00  0.90007714317E+02  0.89999975346E+02 0.  0.
        -12    1    1    2    0    0 -0.73939763249E+00  0.20658693227E+00  0.89648607072E+00  0.11802856834E+01  0.00000000000E+00 0.  1.
         11    1    3    3    0    0 -0.21711821371E+02 -0.11556143631E+02 -0.26876988950E+02  0.36432405605E+02  0.51100000000E-03 0. -1.
        -11    1    3    3    0    0 -0.76067020976E+01 -0.28596377341E+01 -0.37720523623E+01  0.89592312202E+01  0.51100000000E-03 0.  1.
        -12    1    3    3    0    0  0.30057921101E+02  0.14209194433E+02  0.29752555241E+02  0.44616077492E+02  0.00000000000E+00 0.  1.
</event>
<event>
 7    1  0.3752192E-015  0.9000778E+02  0.7816164E-02  0.1186339E+00
        -11   -1    0    0    0    0  0.00000000000E+00  0.00000000000E+00  0.45593999997E+02  0.45594000000E+02  0.51100000000E-03 0.  1.
         11   -1    0    0    0    0 -0.00000000000E+00 -0.00000000000E+00 -0.45593999997E+02  0.45594000000E+02  0.51100000000E-03 0. -1.
    9900012    2    1    2    0    0 -0.29971774012E+00  0.64703090696E+00 -0.94044900575E+00  0.90007777966E+02  0.90000039835E+02 0.  0.
        -12    1    1    2    0    0  0.29971774012E+00 -0.64703090696E+00  0.94044900575E+00  0.11802220345E+01  0.00000000000E+00 0.  1.
         11    1    3    3    0    0  0.14530424052E+01 -0.34507287870E+01 -0.89671302057E+01  0.97174217661E+01  0.51100000000E-03 0. -1.
        -11    1    3    3    0    0 -0.16732513048E+02 -0.34417931920E+02  0.43208676615E+00  0.38272153451E+02  0.51100000000E-03 0.  1.
         12    1    3    3    0    0  0.14979752903E+02  0.38515691614E+02  0.75945944338E+01  0.42018202748E+02  0.00000000000E+00 0. -1.
</event>
<event>
 7    1  0.3752192E-015  0.9000764E+02  0.7816164E-02  0.1186339E+00
        -11   -1    0    0    0    0  0.00000000000E+00  0.00000000000E+00  0.45593999997E+02  0.45594000000E+02  0.51100000000E-03 0.  1.
         11   -1    0    0    0    0 -0.00000000000E+00 -0.00000000000E+00 -0.45593999997E+02  0.45594000000E+02  0.51100000000E-03 0. -1.
    9900012    2    1    2    0    0 -0.90476083569E+00 -0.46523014592E+00 -0.59851857545E+00  0.90007637452E+02  0.89999897467E+02 0.  0.
        -12    1    1    2    0    0  0.90476083569E+00  0.46523014592E+00  0.59851857545E+00  0.11803625475E+01  0.00000000000E+00 0.  1.
         11    1    3    3    0    0  0.15080712713E+02  0.25212766269E+02 -0.25227107130E+02  0.38723615705E+02  0.51100000000E-03 0. -1.
        -11    1    3    3    0    0  0.33159017563E-02  0.75074600425E+01  0.11332125821E+01  0.75925054035E+01  0.51100000000E-03 0.  1.
        -12    1    3    3    0    0 -0.15988789450E+02 -0.33185456457E+02  0.23495375973E+02  0.43691516344E+02  0.00000000000E+00 0.  1.
</event>
<event>
 7    1  0.3752192E-015  0.9000782E+02  0.7816164E-02  0.1186339E+00
        -11   -1    0    0    0    0  0.00000000000E+00  0.00000000000E+00  0.45593999997E+02  0.45594000000E+02  0.51100000000E-03 0. -1.
         11   -1    0    0    0    0 -0.00000000000E+00 -0.00000000000E+00 -0.45593999997E+02  0.45594000000E+02  0.51100000000E-03 0.  1.
    9900012    2    1    2    0    0  0.44419975033E+00  0.62511016500E+00  0.89708171950E+00  0.90007817070E+02  0.90000079455E+02 0.  0.
        -12    1    1    2    0    0 -0.44419975033E+00 -0.62511016500E+00 -0.89708171950E+00  0.11801829299E+01  0.00000000000E+00 0.  1.
         11    1    3    3    0    0  0.14928075683E+02 -0.16415288373E+02  0.35867209804E+02  0.42175417904E+02  0.51100000000E-03 0. -1.
        -11    1    3    3    0    0 -0.38801421154E+01 -0.34095704742E+01  0.85973728837E+00  0.52363939997E+01  0.51100000000E-03 0.  1.
        -12    1    3    3    0    0 -0.10603733818E+02  0.20449969012E+02 -0.35829865373E+02  0.42596005166E+02  0.00000000000E+00 0.  1.
</event>
<event>
 7    1  0.3752192E-015  0.9000772E+02  0.7816164E-02  0.1186339E+00
        -11   -1    0    0    0    0  0.00000000000E+00  0.00000000000E+00  0.45593999997E+02  0.45594000000E+02  0.51100000000E-03 0.  1.
         11   -1    0    0    0    0 -0.00000000000E+00 -0.00000000000E+00 -0.45593999997E+02  0.45594000000E+02  0.51100000000E-03 0. -1.
    9900012    2    1    2    0    0  0.11078574134E+01 -0.40433075521E+00  0.47279313990E-01  0.90007717516E+02  0.89999978587E+02 0.  0.
        -12    1    1    2    0    0 -0.11078574134E+01  0.40433075521E+00 -0.47279313990E-01  0.11802824838E+01  0.00000000000E+00 0.  1.
         11    1    3    3    0    0  0.62398893525E+01  0.75866867622E+01 -0.39929014572E+01  0.10603645480E+02  0.51100000000E-03 0. -1.
        -11    1    3    3    0    0  0.30005679292E+02 -0.19235367159E+02  0.18036114246E+02  0.39945482309E+02  0.51100000000E-03 0.  1.
         12    1    3    3    0    0 -0.35137711232E+02  0.11244349642E+02 -0.13995933474E+02  0.39458589727E+02  0.00000000000E+00 0. -1.
</event>
<event>
 7    1  0.3752192E-015  0.9000773E+02  0.7816164E-02  0.1186339E+00
        -11   -1    0    0    0    0  0.00000000000E+00  0.00000000000E+00  0.45593999997E+02  0.45594000000E+02  0.51100000000E-03 0.  1.
         11   -1    0    0    0    0 -0.00000000000E+00 -0.00000000000E+00 -0.45593999997E+02  0.45594000000E+02  0.51100000000E-03 0. -1.
    9900012    2    1    2    0    0 -0.58794299627E+00 -0.55390014868E+00 -0.86055679696E+00  0.90007728700E+02  0.89999989919E+02 0.  0.
        -12    1    1    2    0    0  0.58794299627E+00  0.55390014868E+00  0.86055679696E+00  0.11802713003E+01  0.00000000000E+00 0.  1.
         11    1    3    3    0    0 -0.48125444905E+01 -0.11296958416E+02 -0.14077679497E+01  0.12359759900E+02  0.51100000000E-03 0. -1.
        -11    1    3    3    0    0  0.16042184842E+02  0.34896787661E+02  0.21082848898E+02  0.43813513914E+02  0.51100000000E-03 0.  1.
         12    1    3    3    0    0 -0.11817583348E+02 -0.24153729394E+02 -0.20535637745E+02  0.33834454886E+02  0.00000000000E+00 0. -1.
</event>
<event>
 7    1  0.3752192E-015  0.9000756E+02  0.7816164E-02  0.1186339E+00
        -11   -1    0    0    0    0  0.00000000000E+00  0.00000000000E+00  0.45593999997E+02  0.45594000000E+02  0.51100000000E-03 0. -1.
         11   -1    0    0    0    0 -0.00000000000E+00 -0.00000000000E+00 -0.45593999997E+02  0.45594000000E+02  0.51100000000E-03 0.  1.
    9900012    2    1    2    0    0  0.90072881963E+00  0.28997598510E+00  0.70571992594E+00  0.90007559789E+02  0.89999818778E+02 0.  0.
        -12    1    1    2    0    0 -0.90072881963E+00 -0.28997598510E+00 -0.70571992594E+00  0.11804402112E+01  0.00000000000E+00 0.  1.
         11    1    3    3    0    0 -0.15821717430E+02  0.59219687694E+01  0.27527877941E+02  0.32298305230E+02  0.51100000000E-03 0. -1.
        -11    1    3    3    0    0 -0.46317228845E+01 -0.24495655511E+01  0.12108036277E+02  0.13193095581E+02  0.51100000000E-03 0.  1.
        -12    1    3    3    0    0  0.21354169134E+02 -0.31824272331E+01 -0.38930194292E+02  0.44516158978E+02  0.00000000000E+00 0.  1.
</event>
<event>
 7    1  0.3752192E-015  0.9000775E+02  0.7816164E-02  0.1186339E+00
        -11   -1    0    0    0    0  0.00000000000E+00  0.00000000000E+00  0.45593999997E+02  0.45594000000E+02  0.51100000000E-03 0.  1.
         11   -1    0    0    0    0 -0.00000000000E+00 -0.00000000000E+00 -0.45593999997E+02  0.45594000000E+02  0.51100000000E-03 0. -1.
    9900012    2    1    2    0    0 -0.85800753746E+00  0.79313462919E+00 -0.16657591308E+00  0.90007751294E+02  0.90000012811E+02 0.  0.
        -12    1    1    2    0    0  0.85800753746E+00 -0.79313462919E+00  0.16657591308E+00  0.11802487065E+01  0.00000000000E+00 0.  1.
         11    1    3    3    0    0  0.96159255312E+00  0.39136663444E+01  0.78164958483E+01  0.87942624535E+01  0.51100000000E-03 0. -1.
        -11    1    3    3    0    0  0.10948918892E+02  0.36699983477E+02  0.15244965872E+01  0.38328732072E+02  0.51100000000E-03 0.  1.
         12    1    3    3    0    0 -0.12768518983E+02 -0.39820515192E+02 -0.95075683486E+01  0.42884756768E+02  0.00000000000E+00 0. -1.
</event>
<event>
 7    1  0.3752192E-015  0.9000792E+02  0.7816164E-02  0.1186339E+00
        -11   -1    0    0    0    0  0.00000000000E+00  0.00000000000E+00  0.45593999997E+02  0.45594000000E+02  0.51100000000E-03 0. -1.
         11   -1    0    0    0    0 -0.00000000000E+00 -0.00000000000E+00 -0.45593999997E+02  0.45594000000E+02  0.51100000000E-03 0.  1.
    9900012    2    1    2    0    0  0.68811208485E+00 -0.84668597938E+00 -0.44967771278E+00  0.90007921429E+02  0.90000185191E+02 0.  0.
        -12    1    1    2    0    0 -0.68811208485E+00  0.84668597938E+00  0.44967771278E+00  0.11800785713E+01  0.00000000000E+00 0.  1.
         11    1    3    3    0    0 -0.39054099501E+01  0.54761531479E+01  0.57270534061E+01  0.88340036878E+01  0.51100000000E-03 0. -1.
        -11    1    3    3    0    0 -0.17903495275E+02 -0.25811226469E+02 -0.29704773336E+02  0.43233414323E+02  0.51100000000E-03 0.  1.
         12    1    3    3    0    0  0.22497017310E+02  0.19488387341E+02  0.23528042217E+02  0.37940503417E+02  0.00000000000E+00 0. -1.
</event>
<event>
 7    1  0.3752192E-015  0.9000775E+02  0.7816164E-02  0.1186339E+00
        -11   -1    0    0    0    0  0.00000000000E+00  0.00000000000E+00  0.45593999997E+02  0.45594000000E+02  0.51100000000E-03 0.  1.
         11   -1    0    0    0    0 -0.00000000000E+00 -0.00000000000E+00 -0.45593999997E+02  0.45594000000E+02  0.51100000000E-03 0. -1.
    9900012    2    1    2    0    0 -0.33287094063E+00 -0.80529198563E+00 -0.79605245106E+00  0.90007746743E+02  0.90000008200E+02 0.  0.
        -12    1    1    2    0    0  0.33287094063E+00  0.80529198563E+00  0.79605245106E+00  0.11802532568E+01  0.00000000000E+00 0.  1.
         11    1    3    3    0    0 -0.92268556401E+01 -0.13795506771E+02  0.22232101526E+02  0.27743777872E+02  0.51100000000E-03 0. -1.
        -11    1    3    3    0    0  0.99916101367E+01  0.15874517754E+02  0.15057618886E+02  0.24053367204E+02  0.51100000000E-03 0.  1.
         12    1    3    3    0    0 -0.10976254373E+01 -0.28843029692E+01 -0.38085772863E+02  0.38210601668E+02  0.00000000000E+00 0. -1.
</event>
<event>
 7    1  0.3752192E-015  0.9000784E+02  0.7816164E-02  0.1186339E+00
        -11   -1    0    0    0    0  0.00000000000E+00  0.00000000000E+00  0.45593999997E+02  0.45594000000E+02  0.51100000000E-03 0.  1.
         11   -1    0    0    0    0 -0.00000000000E+00 -0.00000000000E+00 -0.45593999997E+02  0.45594000000E+02  0.51100000000E-03 0. -1.
    9900012    2    1    2    0    0  0.89076308679E+00  0.44247560523E+00 -0.63524633572E+00  0.90007838382E+02  0.90000101048E+02 0.  0.
        -12    1    1    2    0    0 -0.89076308679E+00 -0.44247560523E+00  0.63524633572E+00  0.11801616182E+01  0.00000000000E+00 0.  1.
         11    1    3    3    0    0  0.12398593567E+01 -0.37304058223E+01  0.87234049110E+01  0.95682272301E+01  0.51100000000E-03 0. -1.
        -11    1    3    3    0    0  0.37392865006E+02 -0.80228080304E+01  0.43123860276E+01  0.38486211499E+02  0.51100000000E-03 0.  1.
         12    1    3    3    0    0 -0.37741961276E+02  0.12195689458E+02 -0.13671037274E+02  0.41953399653E+02  0.00000000000E+00 0. -1.
</event>
<event>
 7    1  0.3752192E-015  0.9000694E+02  0.7816164E-02  0.1186341E+00
        -11   -1    0    0    0    0  0.00000000000E+00  0.00000000000E+00  0.45593999997E+02  0.45594000000E+02  0.51100000000E-03 0. -1.
         11   -1    0    0    0    0 -0.00000000000E+00 -0.00000000000E+00 -0.45593999997E+02  0.45594000000E+02  0.51100000000E-03 0.  1.
    9900012    2    1    2    0    0  0.42948477059E+00 -0.56304106588E+00  0.94521304922E+00  0.90006941103E+02  0.89999191922E+02 0.  0.
        -12    1    1    2    0    0 -0.42948477059E+00  0.56304106588E+00 -0.94521304922E+00  0.11810588971E+01  0.00000000000E+00 0.  1.
         11    1    3    3    0    0 -0.72677718422E+01 -0.61246067639E+01  0.12732635405E+01  0.95891874456E+01  0.51100000000E-03 0. -1.
        -11    1    3    3    0    0  0.28609094744E+02 -0.22374265867E+02  0.18507665929E+02  0.40762995149E+02  0.51100000000E-03 0.  1.
         12    1    3    3    0    0 -0.20911838131E+02  0.27935831565E+02 -0.18835716420E+02  0.39654758508E+02  0.00000000000E+00 0. -1.
</event>
<event>
 7    1  0.3752192E-015  0.9000840E+02  0.7816164E-02  0.1186338E+00
        -11   -1    0    0    0    0  0.00000000000E+00  0.00000000000E+00  0.45593999997E+02  0.45594000000E+02  0.51100000000E-03 0. -1.
         11   -1    0    0    0    0 -0.00000000000E+00 -0.00000000000E+00 -0.45593999997E+02  0.45594000000E+02  0.51100000000E-03 0.  1.
    9900012    2    1    2    0    0  0.46060996747E+00  0.10681700442E+01  0.19569786560E+00  0.90008404120E+02  0.90000674252E+02 0.  0.
        -12    1    1    2    0    0 -0.46060996747E+00 -0.10681700442E+01 -0.19569786560E+00  0.11795958800E+01  0.00000000000E+00 0.  1.
         11    1    3    3    0    0 -0.11744243853E+02  0.38017338171E+01  0.38492420844E+02  0.40423346056E+02  0.51100000000E-03 0. -1.
        -11    1    3    3    0    0 -0.78262192488E+01 -0.30624961804E+01 -0.28599957940E+01  0.88773963970E+01  0.51100000000E-03 0.  1.
        -12    1    3    3    0    0  0.20031073069E+02  0.32893240756E+00 -0.35436727185E+02  0.40707661667E+02  0.00000000000E+00 0.  1.
</event>
<event>
 7    1  0.3752192E-015  0.9000888E+02  0.7816164E-02  0.1186337E+00
        -11   -1    0    0    0    0  0.00000000000E+00  0.00000000000E+00  0.45593999997E+02  0.45594000000E+02  0.51100000000E-03 0.  1.
         11   -1    0    0    0    0 -0.00000000000E+00 -0.00000000000E+00 -0.45593999997E+02  0.45594000000E+02  0.51100000000E-03 0. -1.
    9900012    2    1    2    0    0 -0.73935089103E-01  0.50205453078E+00 -0.10643253992E+01  0.90008884355E+02  0.90001160821E+02 0.  0.
        -12    1    1    2    0    0  0.73935089103E-01 -0.50205453078E+00  0.10643253992E+01  0.11791156451E+01  0.00000000000E+00 0.  1.
         11    1    3    3    0    0  0.80339758110E+01 -0.57708852997E+00 -0.65198259704E+01  0.10362718246E+02  0.51100000000E-03 0. -1.
        -11    1    3    3    0    0  0.26022936596E+02  0.92054666977E+01  0.26886753883E+02  0.38533509843E+02  0.51100000000E-03 0.  1.
         12    1    3    3    0    0 -0.34130847496E+02 -0.81263236370E+01 -0.21431253312E+02  0.41112656265E+02  0.00000000000E+00 0. -1.
</event>
<event>
 7    1  0.3752192E-015  0.9000792E+02  0.7816164E-02  0.1186339E+00
        -11   -1    0    0    0    0  0.00000000000E+00  0.00000000000E+00  0.45593999997E+02  0.45594000000E+02  0.51100000000E-03 0.  1.
         11   -1    0    0    0    0 -0.00000000000E+00 -0.00000000000E+00 -0.45593999997E+02  0.45594000000E+02  0.51100000000E-03 0. -1.
    9900012    2    1    2    0    0 -0.11231912078E+01  0.16732993148E-01  0.36159136494E+00  0.90007920851E+02  0.90000184606E+02 0.  0.
        -12    1    1    2    0    0  0.11231912078E+01 -0.16732993148E-01 -0.36159136494E+00  0.11800791489E+01  0.00000000000E+00 0.  1.
         11    1    3    3    0    0 -0.19172013191E+02 -0.67748499474E+01 -0.28104251956E+02  0.34688811739E+02  0.51100000000E-03 0. -1.
        -11    1    3    3    0    0 -0.13679195066E+02  0.82355332135E+00  0.25943012605E+01  0.13947365953E+02  0.51100000000E-03 0.  1.
        -12    1    3    3    0    0  0.31728017049E+02  0.59680296192E+01  0.25871542061E+02  0.41371743159E+02  0.00000000000E+00 0.  1.
</event>
<event>
 7    1  0.3752192E-015  0.9000770E+02  0.7816164E-02  0.1186339E+00
        -11   -1    0    0    0    0  0.00000000000E+00  0.00000000000E+00  0.45593999997E+02  0.45594000000E+02  0.51100000000E-03 0.  1.
         11   -1    0    0    0    0 -0.00000000000E+00 -0.00000000000E+00 -0.45593999997E+02  0.45594000000E+02  0.51100000000E-03 0. -1.
    9900012    2    1    2    0    0 -0.99424078755E+00  0.23716448861E+00 -0.59020934169E+00  0.90007699697E+02  0.89999960533E+02 0.  0.
        -12    1    1    2    0    0  0.99424078755E+00 -0.23716448861E+00  0.59020934169E+00  0.11803003030E+01  0.00000000000E+00 0.  1.
         11    1    3    3    0    0  0.38862549414E+02 -0.87121747681E+01  0.13810799383E+02  0.42153741423E+02  0.51100000000E-03 0. -1.
        -11    1    3    3    0    0 -0.97720562416E+01 -0.18840200257E+01  0.42663892179E+01  0.10827958804E+02  0.51100000000E-03 0.  1.
        -12    1    3    3    0    0 -0.30084733959E+02  0.10833359282E+02 -0.18667397943E+02  0.37025999470E+02  0.00000000000E+00 0.  1.
</event>
<event>
 7    1  0.3752192E-015  0.9000775E+02  0.7816164E-02  0.1186339E+00
        -11   -1    0    0    0    0  0.00000000000E+00  0.00000000000E+00  0.45593999997E+02  0.45594000000E+02  0.51100000000E-03 0. -1.
         11   -1    0    0    0    0 -0.00000000000E+00 -0.00000000000E+00 -0.45593999997E+02  0.45594000000E+02  0.51100000000E-03 0.  1.
    9900012    2    1    2    0    0  0.58323665668E+00 -0.84969031096E-01  0.10225455818E+01  0.90007752483E+02  0.90000014016E+02 0.  0.
        -12    1    1    2    0    0 -0.58323665668E+00  0.84969031096E-01 -0.10225455818E+01  0.11802475167E+01  0.00000000000E+00 0.  1.
         11    1    3    3    0    0  0.54328866938E+01 -0.51828569246E+01  0.42458585605E+00  0.75205410137E+01  0.51100000000E-03 0. -1.
        -11    1    3    3    0    0  0.94877819293E+01 -0.26151868190E+02 -0.26720474029E+02  0.38573591333E+02  0.51100000000E-03 0.  1.
         12    1    3    3    0    0 -0.14337431966E+02  0.31249756084E+02  0.27318433754E+02  0.43913620136E+02  0.00000000000E+00 0. -1.
</event>
<event>
 7    1  0.3752192E-015  0.9000780E+02  0.7816164E-02  0.1186339E+00
        -11   -1    0    0    0    0  0.00000000000E+00  0.00000000000E+00  0.45593999997E+02  0.45594000000E+02  0.51100000000E-03 0.  1.
         11   -1    0    0    0    0 -0.00000000000E+00 -0.00000000000E+00 -0.45593999997E+02  0.45594000000E+02  0.51100000000E-03 0. -1.
    9900012    2    1    2    0    0  0.10482421630E+01  0.49382341315E+00 -0.22407588165E+00  0.90007795274E+02  0.90000057371E+02 0.  0.
        -12    1    1    2    0    0 -0.10482421630E+01 -0.49382341315E+00  0.22407588165E+00  0.11802047264E+01  0.00000000000E+00 0.  1.
         11    1    3    3    0    0  0.59161802538E+01  0.49641664083E+01  0.27970637782E+01  0.82138725925E+01  0.51100000000E-03 0. -1.
        -11    1    3    3    0    0  0.23160301306E+02 -0.31428655750E+02  0.10825563577E+02  0.40513612353E+02  0.51100000000E-03 0.  1.
         12    1    3    3    0    0 -0.28028239397E+02  0.26958312755E+02 -0.13846703237E+02  0.41280310328E+02  0.00000000000E+00 0. -1.
</event>
<event>
 7    1  0.3752192E-015  0.9000774E+02  0.7816164E-02  0.1186339E+00
        -11   -1    0    0    0    0  0.00000000000E+00  0.00000000000E+00  0.45593999997E+02  0.45594000000E+02  0.51100000000E-03 0. -1.
         11   -1    0    0    0    0 -0.00000000000E+00 -0.00000000000E+00 -0.45593999997E+02  0.45594000000E+02  0.51100000000E-03 0.  1.
    9900012    2    1    2    0    0  0.83398898294E+00  0.80663571244E+00 -0.21635525480E+00  0.90007742235E+02  0.90000003632E+02 0.  0.
        -12    1    1    2    0    0 -0.83398898294E+00 -0.80663571244E+00  0.21635525480E+00  0.11802577653E+01  0.00000000000E+00 0.  1.
         11    1    3    3    0    0  0.14108768514E+01 -0.54136881634E+01  0.67575544303E+01  0.87728635667E+01  0.51100000000E-03 0. -1.
        -11    1    3    3    0    0 -0.38243776474E+02  0.93476672176E+01 -0.15799654293E+02  0.42421626530E+02  0.51100000000E-03 0.  1.
         12    1    3    3    0    0  0.37666888606E+02 -0.31273433418E+01  0.88257446083E+01  0.38813252138E+02  0.00000000000E+00 0. -1.
</event>
<event>
 7    1  0.3752192E-015  0.9000771E+02  0.7816164E-02  0.1186339E+00
        -11   -1    0    0    0    0  0.00000000000E+00  0.00000000000E+00  0.45593999997E+02  0.45594000000E+02  0.51100000000E-03 0.  1.
         11   -1    0    0    0    0 -0.00000000000E+00 -0.00000000000E+00 -0.45593999997E+02  0.45594000000E+02  0.51100000000E-03 0. -1.
    9900012    2    1    2    0    0 -0.47326311346E+00  0.11300196215E+00 -0.10753324303E+01  0.90007708827E+02  0.89999969783E+02 0.  0.
        -12    1    1    2    0    0  0.47326311346E+00 -0.11300196215E+00  0.10753324303E+01  0.11802911733E+01  0.00000000000E+00 0.  1.
         11    1    3    3    0    0  0.43975401993E+01 -0.25825450210E+01 -0.86087275247E+01  0.10005902680E+02  0.51100000000E-03 0. -1.
        -11    1    3    3    0    0  0.12730154346E+02 -0.16610828589E+02  0.35826840423E+02  0.41491432261E+02  0.51100000000E-03 0.  1.
         12    1    3    3    0    0 -0.17600957659E+02  0.19306375572E+02 -0.28293445329E+02  0.38510373886E+02  0.00000000000E+00 0. -1.
</event>
<event>
 7    1  0.3752192E-015  0.9000765E+02  0.7816164E-02  0.1186339E+00
        -11   -1    0    0    0    0  0.00000000000E+00  0.00000000000E+00  0.45593999997E+02  0.45594000000E+02  0.51100000000E-03 0.  1.
         11   -1    0    0    0    0 -0.00000000000E+00 -0.00000000000E+00 -0.45593999997E+02  0.45594000000E+02  0.51100000000E-03 0. -1.
    9900012    2    1    2    0    0  0.30170132879E+00 -0.27881658437E+00 -0.11065539685E+01  0.90007650872E+02  0.89999911063E+02 0.  0.
        -12    1    1    2    0    0 -0.30170132879E+00  0.27881658437E+00  0.11065539685E+01  0.11803491283E+01  0.00000000000E+00 0.  1.
         11    1    3    3    0    0  0.22537806390E+01  0.13677834970E+01  0.64865772732E+01  0.70018600275E+01  0.51100000000E-03 0. -1.
        -11    1    3    3    0    0 -0.34145239760E+01  0.15426736141E+02  0.34288741640E+02  0.37753952978E+02  0.51100000000E-03 0.  1.
         12    1    3    3    0    0  0.14624446658E+01 -0.17073336222E+02 -0.41881872882E+02  0.45251837866E+02  0.00000000000E+00 0. -1.
</event>
<event>
 7    1  0.3752192E-015  0.9000732E+02  0.7816164E-02  0.1186340E+00
        -11   -1    0    0    0    0  0.00000000000E+00  0.00000000000E+00  0.45593999997E+02  0.45594000000E+02  0.51100000000E-03 0.  1.
         11   -1    0    0    0    0 -0.00000000000E+00 -0.00000000000E+00 -0.45593999997E+02  0.45594000000E+02  0.51100000000E-03 0. -1.
    9900012    2    1    2    0    0  0.11118340531E+01  0.39567621920E+00  0.35589741002E-01  0.90007321694E+02  0.89999577540E+02 0.  0.
        -12    1    1    2    0    0 -0.11118340531E+01 -0.39567621920E+00 -0.35589741002E-01  0.11806783058E+01  0.00000000000E+00 0.  1.
         11    1    3    3    0    0 -0.78754740812E+01  0.23947402976E+01  0.15627921652E+01  0.83785555265E+01  0.51100000000E-03 0. -1.
        -11    1    3    3    0    0  0.28513502439E+01  0.24201941006E+02  0.30988015352E+02  0.39422344456E+02  0.51100000000E-03 0.  1.
         12    1    3    3    0    0  0.61359578905E+01 -0.26201005084E+02 -0.32515217776E+02  0.42206421712E+02  0.00000000000E+00 0. -1.
</event>
<event>
 7    1  0.3975839E-015  0.9000778E+02  0.7816164E-02  0.1186339E+00
        -11   -1    0    0    0    0  0.00000000000E+00  0.00000000000E+00  0.45593999997E+02  0.45594000000E+02  0.51100000000E-03 0. -1.
         11   -1    0    0    0    0 -0.00000000000E+00 -0.00000000000E+00 -0.45593999997E+02  0.45594000000E+02  0.51100000000E-03 0.  1.
    9900012    2    1    2    0    0  0.20247938396E+00  0.62539465658E+00  0.98020969823E+00  0.90007776534E+02  0.90000038384E+02 0.  0.
        -12    1    1    2    0    0 -0.20247938396E+00 -0.62539465658E+00 -0.98020969823E+00  0.11802234661E+01  0.00000000000E+00 0.  1.
         11    1    3    3    0    0  0.10066130148E+02 -0.99119440797E+01  0.33769239694E+02  0.36605124797E+02  0.51100000000E-03 0. -1.
        -11    1    3    3    0    0 -0.53614949467E+01 -0.49552352918E+01  0.72171628349E+01  0.10265837740E+02  0.51100000000E-03 0.  1.
        -12    1    3    3    0    0 -0.45021558174E+01  0.15492574028E+02 -0.40006192831E+02  0.43136813997E+02  0.00000000000E+00 0.  1.
</event>
<event>
 7    1  0.5725263E-015  0.9000797E+02  0.7816164E-02  0.1186339E+00
        -11   -1    0    0    0    0  0.00000000000E+00  0.00000000000E+00  0.45593999997E+02  0.45594000000E+02  0.51100000000E-03 0. -1.
         11   -1    0    0    0    0 -0.00000000000E+00 -0.00000000000E+00 -0.45593999997E+02  0.45594000000E+02  0.51100000000E-03 0.  1.
    9900012    2    1    2    0    0  0.77599773186E+00 -0.32265406474E+00  0.82837086057E+00  0.90007967624E+02  0.90000231997E+02 0.  0.
        -12    1    1    2    0    0 -0.77599773186E+00  0.32265406474E+00 -0.82837086057E+00  0.11800323758E+01  0.00000000000E+00 0.  1.
         11    1    3    3    0    0  0.60216897426E+01 -0.18987903664E+02  0.30559335954E+02  0.36478407958E+02  0.51100000000E-03 0. -1.
        -11    1    3    3    0    0 -0.25010777470E+01 -0.19731124913E+01  0.90055337378E+01  0.95523924209E+01  0.51100000000E-03 0.  1.
        -12    1    3    3    0    0 -0.27446142638E+01  0.20638362090E+02 -0.38736498831E+02  0.43977167246E+02  0.00000000000E+00 0.  1.
</event>
<event>
 7    1  0.3752192E-015  0.9000776E+02  0.7816164E-02  0.1186339E+00
        -11   -1    0    0    0    0  0.00000000000E+00  0.00000000000E+00  0.45593999997E+02  0.45594000000E+02  0.51100000000E-03 0.  1.
         11   -1    0    0    0    0 -0.00000000000E+00 -0.00000000000E+00 -0.45593999997E+02  0.45594000000E+02  0.51100000000E-03 0. -1.
    9900012    2    1    2    0    0 -0.73815006281E+00 -0.25068894879E+00 -0.88614816665E+00  0.90007758907E+02  0.90000020525E+02 0.  0.
        -12    1    1    2    0    0  0.73815006281E+00  0.25068894879E+00  0.88614816665E+00  0.11802410930E+01  0.00000000000E+00 0.  1.
         11    1    3    3    0    0  0.67086418192E+01  0.42416273601E+02  0.56126061690E+01  0.43308746109E+02  0.51100000000E-03 0. -1.
        -11    1    3    3    0    0  0.41191261900E+01 -0.35390154657E+01 -0.41613112589E+00  0.54465582170E+01  0.51100000000E-03 0.  1.
        -12    1    3    3    0    0 -0.11565918072E+02 -0.39127947084E+02 -0.60826232097E+01  0.41252454581E+02  0.00000000000E+00 0.  1.
</event>
<event>
 7    1  0.3752192E-015  0.9000782E+02  0.7816164E-02  0.1186339E+00
        -11   -1    0    0    0    0  0.00000000000E+00  0.00000000000E+00  0.45593999997E+02  0.45594000000E+02  0.51100000000E-03 0.  1.
         11   -1    0    0    0    0 -0.00000000000E+00 -0.00000000000E+00 -0.45593999997E+02  0.45594000000E+02  0.51100000000E-03 0. -1.
    9900012    2    1    2    0    0 -0.35807739685E+00  0.10972061758E+01  0.24647180581E+00  0.90007818164E+02  0.90000080564E+02 0.  0.
        -12    1    1    2    0    0  0.35807739685E+00 -0.10972061758E+01 -0.24647180581E+00  0.11801818357E+01  0.00000000000E+00 0.  1.
         11    1    3    3    0    0  0.29861935270E+02 -0.20104358057E+02  0.85653961000E+01  0.37003870089E+02  0.51100000000E-03 0. -1.
        -11    1    3    3    0    0  0.69389657472E+01  0.19172136419E+01  0.53442296044E+01  0.89658097300E+01  0.51100000000E-03 0.  1.
        -12    1    3    3    0    0 -0.37158978414E+02  0.19284350591E+02 -0.13663153899E+02  0.44038138345E+02  0.00000000000E+00 0.  1.
</event>
<event>
 7    1  0.3752192E-015  0.9000773E+02  0.7816164E-02  0.1186339E+00
        -11   -1    0    0    0    0  0.00000000000E+00  0.00000000000E+00  0.45593999997E+02  0.45594000000E+02  0.51100000000E-03 0.  1.
         11   -1    0    0    0    0 -0.00000000000E+00 -0.00000000000E+00 -0.45593999997E+02  0.45594000000E+02  0.51100000000E-03 0. -1.
    9900012    2    1    2    0    0  0.39600821570E+00  0.71292237711E+00 -0.85320792351E+00  0.90007726903E+02  0.89999988098E+02 0.  0.
        -12    1    1    2    0    0 -0.39600821570E+00 -0.71292237711E+00  0.85320792351E+00  0.11802730970E+01  0.00000000000E+00 0.  1.
         11    1    3    3    0    0  0.26373991103E+01 -0.29291486195E+02  0.22233580261E+02  0.36868402855E+02  0.51100000000E-03 0. -1.
        -11    1    3    3    0    0  0.36384915500E+01 -0.81792675453E+01 -0.21893213235E+01  0.92158649326E+01  0.51100000000E-03 0.  1.
        -12    1    3    3    0    0 -0.58798824446E+01  0.38183676118E+02 -0.20897466861E+02  0.43923459115E+02  0.00000000000E+00 0.  1.
</event>
<event>
 7    1  0.3752192E-015  0.9000778E+02  0.7816164E-02  0.1186339E+00
        -11   -1    0    0    0    0  0.00000000000E+00  0.00000000000E+00  0.45593999997E+02  0.45594000000E+02  0.51100000000E-03 0.  1.
         11   -1    0    0    0    0 -0.00000000000E+00 -0.00000000000E+00 -0.45593999997E+02  0.45594000000E+02  0.51100000000E-03 0. -1.
    9900012    2    1    2    0    0  0.39375400910E+00 -0.18385002510E+00 -0.10973070090E+01  0.90007777257E+02  0.90000039117E+02 0.  0.
        -12    1    1    2    0    0 -0.39375400910E+00  0.18385002510E+00  0.10973070090E+01  0.11802227431E+01  0.00000000000E+00 0.  1.
         11    1    3    3    0    0 -0.14286202911E+02 -0.14561545167E+02 -0.37839365368E+02  0.42987809469E+02  0.51100000000E-03 0. -1.
        -11    1    3    3    0    0 -0.20649568849E+00  0.99252629425E+01  0.38597530502E+01  0.10651346338E+02  0.51100000000E-03 0.  1.
        -12    1    3    3    0    0  0.14886452609E+02  0.44524321993E+01  0.32882305308E+02  0.36368621450E+02  0.00000000000E+00 0.  1.
</event>
<event>
 7    1  0.3752192E-015  0.9000767E+02  0.7816164E-02  0.1186339E+00
        -11   -1    0    0    0    0  0.00000000000E+00  0.00000000000E+00  0.45593999997E+02  0.45594000000E+02  0.51100000000E-03 0.  1.
         11   -1    0    0    0    0 -0.00000000000E+00 -0.00000000000E+00 -0.45593999997E+02  0.45594000000E+02  0.51100000000E-03 0. -1.
    9900012    2    1    2    0    0  0.98466284579E+00 -0.64446251583E+00  0.90998244951E-01  0.90007672277E+02  0.89999932751E+02 0.  0.
        -12    1    1    2    0    0 -0.98466284579E+00  0.64446251583E+00 -0.90998244951E-01  0.11803277235E+01  0.00000000000E+00 0.  1.
         11    1    3    3    0    0  0.42924662209E+01 -0.19319044396E+01  0.75208493443E+01  0.88724684357E+01  0.51100000000E-03 0. -1.
        -11    1    3    3    0    0  0.62703468672E+01  0.39373309342E+02  0.44220854632E+01  0.40113957403E+02  0.51100000000E-03 0.  1.
         12    1    3    3    0    0 -0.95781502423E+01 -0.38085867418E+02 -0.11851936563E+02  0.41021246438E+02  0.00000000000E+00 0. -1.
</event>
<event>
 7    1  0.3752192E-015  0.9000770E+02  0.7816164E-02  0.1186339E+00
        -11   -1    0    0    0    0  0.00000000000E+00  0.00000000000E+00  0.45593999997E+02  0.45594000000E+02  0.51100000000E-03 0. -1.
         11   -1    0    0    0    0 -0.00000000000E+00 -0.00000000000E+00 -0.45593999997E+02  0.45594000000E+02  0.51100000000E-03 0.  1.
    9900012    2    1    2    0    0  0.16810742619E+00  0.17269133035E-01  0.11681392837E+01  0.90007700159E+02  0.89999961001E+02 0.  0.
        -12    1    1    2    0    0 -0.16810742619E+00 -0.17269133035E-01 -0.11681392837E+01  0.11802998415E+01  0.00000000000E+00 0.  1.
         11    1    3    3    0    0 -0.22605498627E+02 -0.28102496536E+02  0.64935338310E+01  0.36645939224E+02  0.51100000000E-03 0. -1.
        -11    1    3    3    0    0 -0.78253583529E+01  0.27719626077E+00  0.66715735054E+01  0.10287028940E+02  0.51100000000E-03 0.  1.
        -12    1    3    3    0    0  0.30598964406E+02  0.27842569408E+02 -0.11996968053E+02  0.43074731995E+02  0.00000000000E+00 0.  1.
</event>
<event>
 7    1  0.3752192E-015  0.9000773E+02  0.7816164E-02  0.1186339E+00
        -11   -1    0    0    0    0  0.00000000000E+00  0.00000000000E+00  0.45593999997E+02  0.45594000000E+02  0.51100000000E-03 0. -1.
         11   -1    0    0    0    0 -0.00000000000E+00 -0.00000000000E+00 -0.45593999997E+02  0.45594000000E+02  0.51100000000E-03 0.  1.
    9900012    2    1    2    0    0  0.82401460048E+00  0.69184932313E+00  0.48517085311E+00  0.90007726174E+02  0.89999987359E+02 0.  0.
        -12    1    1    2    0    0 -0.82401460048E+00 -0.69184932313E+00 -0.48517085311E+00  0.11802738260E+01  0.00000000000E+00 0.  1.
         11    1    3    3    0    0  0.74114774501E+01  0.28672977367E+01 -0.52870313656E+01  0.95448465272E+01  0.51100000000E-03 0. -1.
        -11    1    3    3    0    0 -0.31676805029E+02 -0.73365123762E+01 -0.24569949212E+02  0.40754469635E+02  0.51100000000E-03 0.  1.
         12    1    3    3    0    0  0.25089342179E+02  0.51610639627E+01  0.30342151431E+02  0.39708410012E+02  0.00000000000E+00 0. -1.
</event>
<event>
 7    1  0.3752192E-015  0.9000757E+02  0.7816164E-02  0.1186339E+00
        -11   -1    0    0    0    0  0.00000000000E+00  0.00000000000E+00  0.45593999997E+02  0.45594000000E+02  0.51100000000E-03 0. -1.
         11   -1    0    0    0    0 -0.00000000000E+00 -0.00000000000E+00 -0.45593999997E+02  0.45594000000E+02  0.51100000000E-03 0.  1.
    9900012    2    1    2    0    0 -0.11623644972E+01 -0.10434332264E+00  0.17730477671E+00  0.90007569681E+02  0.89999828801E+02 0.  0.
        -12    1    1    2    0    0  0.11623644972E+01  0.10434332264E+00 -0.17730477671E+00  0.11804303186E+01  0.00000000000E+00 0.  1.
         11    1    3    3    0    0  0.31824456590E+01 -0.81613841205E+01  0.16651460522E+01  0.89167742357E+01  0.51100000000E-03 0. -1.
        -11    1    3    3    0    0 -0.20674049946E+02 -0.34107939072E+01  0.34255013339E+02  0.40155395595E+02  0.51100000000E-03 0.  1.
         12    1    3    3    0    0  0.16329239790E+02  0.11467834705E+02 -0.35742854614E+02  0.40935399851E+02  0.00000000000E+00 0. -1.
</event>
<event>
 7    1  0.3752192E-015  0.9000774E+02  0.7816164E-02  0.1186339E+00
        -11   -1    0    0    0    0  0.00000000000E+00  0.00000000000E+00  0.45593999997E+02  0.45594000000E+02  0.51100000000E-03 0.  1.
         11   -1    0    0    0    0 -0.00000000000E+00 -0.00000000000E+00 -0.45593999997E+02  0.45594000000E+02  0.51100000000E-03 0. -1.
    9900012    2    1    2    0    0  0.10684776120E+01  0.20743622109E+00 -0.45645344603E+00  0.90007735648E+02  0.89999996958E+02 0.  0.
        -12    1    1    2    0    0 -0.10684776120E+01 -0.20743622109E+00  0.45645344603E+00  0.11802643524E+01  0.00000000000E+00 0.  1.
         11    1    3    3    0    0 -0.44430898142E+01  0.80884106404E+01  0.34644342414E+01  0.98572683163E+01  0.51100000000E-03 0. -1.
        -11    1    3    3    0    0 -0.94087967249E+01  0.20581822902E+02  0.27221686196E+02  0.35399958889E+02  0.51100000000E-03 0.  1.
         12    1    3    3    0    0  0.14920364151E+02 -0.28462797321E+02 -0.31142573883E+02  0.44750508442E+02  0.00000000000E+00 0. -1.
</event>
<event>
 7    1  0.3752192E-015  0.9000778E+02  0.7816164E-02  0.1186339E+00
        -11   -1    0    0    0    0  0.00000000000E+00  0.00000000000E+00  0.45593999997E+02  0.45594000000E+02  0.51100000000E-03 0. -1.
         11   -1    0    0    0    0 -0.00000000000E+00 -0.00000000000E+00 -0.45593999997E+02  0.45594000000E+02  0.51100000000E-03 0.  1.
    9900012    2    1    2    0    0 -0.13624330129E+00  0.92963846663E+00  0.71423622217E+00  0.90007778285E+02  0.90000040158E+02 0.  0.
        -12    1    1    2    0    0  0.13624330129E+00 -0.92963846663E+00 -0.71423622217E+00  0.11802217151E+01  0.00000000000E+00 0.  1.
         11    1    3    3    0    0  0.34901129519E+02 -0.46891616551E+01  0.70514015682E+01  0.35913776508E+02  0.51100000000E-03 0. -1.
        -11    1    3    3    0    0  0.43891577963E+00 -0.77516464267E+00  0.13106429892E+02  0.13136667464E+02  0.51100000000E-03 0.  1.
        -12    1    3    3    0    0 -0.35476288600E+02  0.63939647644E+01 -0.19443595238E+02  0.40957334313E+02  0.00000000000E+00 0.  1.
</event>
<event>
 7    1  0.3752192E-015  0.9000767E+02  0.7816164E-02  0.1186339E+00
        -11   -1    0    0    0    0  0.00000000000E+00  0.00000000000E+00  0.45593999997E+02  0.45594000000E+02  0.51100000000E-03 0.  1.
         11   -1    0    0    0    0 -0.00000000000E+00 -0.00000000000E+00 -0.45593999997E+02  0.45594000000E+02  0.51100000000E-03 0. -1.
    9900012    2    1    2    0    0 -0.10184195962E+01 -0.21311349754E+00 -0.55728963882E+00  0.90007674800E+02  0.89999935307E+02 0.  0.
        -12    1    1    2    0    0  0.10184195962E+01  0.21311349754E+00  0.55728963882E+00  0.11803252002E+01  0.00000000000E+00 0.  1.
         11    1    3    3    0    0 -0.46779699130E+01 -0.19900526511E+02 -0.36438443294E+02  0.41781269822E+02  0.51100000000E-03 0. -1.
        -11    1    3    3    0    0 -0.19933721864E+01 -0.57860454761E+01  0.72989961575E+01  0.95250826817E+01  0.51100000000E-03 0.  1.
        -12    1    3    3    0    0  0.56529225032E+01  0.25473458490E+02  0.28582157498E+02  0.38701322296E+02  0.00000000000E+00 0.  1.
</event>
<event>
 7    1  0.3752192E-015  0.9000771E+02  0.7816164E-02  0.1186339E+00
        -11   -1    0    0    0    0  0.00000000000E+00  0.00000000000E+00  0.45593999997E+02  0.45594000000E+02  0.51100000000E-03 0.  1.
         11   -1    0    0    0    0 -0.00000000000E+00 -0.00000000000E+00 -0.45593999997E+02  0.45594000000E+02  0.51100000000E-03 0. -1.
    9900012    2    1    2    0    0  0.19112488863E+00 -0.10570915510E+01 -0.48898039623E+00  0.90007714823E+02  0.89999975859E+02 0.  0.
        -12    1    1    2    0    0 -0.19112488863E+00  0.10570915510E+01  0.48898039623E+00  0.11802851767E+01  0.00000000000E+00 0.  1.
         11    1    3    3    0    0 -0.85488472727E+01 -0.29094837164E+01 -0.12703899299E+01  0.91193078698E+01  0.51100000000E-03 0. -1.
        -11    1    3    3    0    0  0.10895186773E+02 -0.38265259485E+02 -0.57036419969E+01  0.40192868902E+02  0.51100000000E-03 0.  1.
         12    1    3    3    0    0 -0.21552146114E+01  0.40117651650E+02  0.64850515306E+01  0.40695538052E+02  0.00000000000E+00 0. -1.
</event>
<event>
 7    1  0.3752192E-015  0.9000781E+02  0.7816164E-02  0.1186339E+00
        -11   -1    0    0    0    0  0.00000000000E+00  0.00000000000E+00  0.45593999997E+02  0.45594000000E+02  0.51100000000E-03 0. -1.
         11   -1    0    0    0    0 -0.00000000000E+00 -0.00000000000E+00 -0.45593999997E+02  0.45594000000E+02  0.51100000000E-03 0.  1.
    9900012    2    1    2    0    0 -0.47778534501E+00  0.50698959908E+00  0.95264032233E+00  0.90007813204E+02  0.90000075538E+02 0.  0.
        -12    1    1    2    0    0  0.47778534501E+00 -0.50698959908E+00 -0.95264032233E+00  0.11801867959E+01  0.00000000000E+00 0.  1.
         11    1    3    3    0    0  0.57207755290E+01  0.36560203889E+01 -0.91770457153E+00  0.68509809282E+01  0.51100000000E-03 0. -1.
        -11    1    3    3    0    0 -0.40502297457E+02 -0.16085721417E+02 -0.98271152722E+01  0.44673915517E+02  0.51100000000E-03 0.  1.
         12    1    3    3    0    0  0.34303736583E+02  0.12936690627E+02  0.11697460166E+02  0.38482916759E+02  0.00000000000E+00 0. -1.
</event>
<event>
 7    1  0.4421173E-015  0.9000776E+02  0.7816164E-02  0.1186339E+00
        -11   -1    0    0    0    0  0.00000000000E+00  0.00000000000E+00  0.45593999997E+02  0.45594000000E+02  0.51100000000E-03 0. -1.
         11   -1    0    0    0    0 -0.00000000000E+00 -0.00000000000E+00 -0.45593999997E+02  0.45594000000E+02  0.51100000000E-03 0.  1.
    9900012    2    1    2    0    0  0.41750533965E+00 -0.84054622154E+00  0.71563845932E+00  0.90007759743E+02  0.90000021372E+02 0.  0.
        -12    1    1    2    0    0 -0.41750533965E+00  0.84054622154E+00 -0.71563845932E+00  0.11802402567E+01  0.00000000000E+00 0.  1.
         11    1    3    3    0    0  0.34972892539E+02 -0.14044919498E+02 -0.30271894641E+01  0.37809084260E+02  0.51100000000E-03 0. -1.
        -11    1    3    3    0    0  0.24157486290E+01 -0.87262551409E+01  0.12482978696E+01  0.91401103963E+01  0.51100000000E-03 0.  1.
        -12    1    3    3    0    0 -0.36971135828E+02  0.21930628417E+02  0.24945300538E+01  0.43058565087E+02  0.00000000000E+00 0.  1.
</event>
<event>
 7    1  0.3752192E-015  0.9000764E+02  0.7816164E-02  0.1186339E+00
        -11   -1    0    0    0    0  0.00000000000E+00  0.00000000000E+00  0.45593999997E+02  0.45594000000E+02  0.51100000000E-03 0.  1.
         11   -1    0    0    0    0 -0.00000000000E+00 -0.00000000000E+00 -0.45593999997E+02  0.45594000000E+02  0.51100000000E-03 0. -1.
    9900012    2    1    2    0    0  0.26658671612E+00  0.87726266212E+00 -0.74336932276E+00  0.90007637257E+02  0.89999897269E+02 0.  0.
        -12    1    1    2    0    0 -0.26658671612E+00 -0.87726266212E+00  0.74336932276E+00  0.11803627432E+01  0.00000000000E+00 0.  1.
         11    1    3    3    0    0 -0.32116886804E+02 -0.24065672949E+02  0.12628973589E+02  0.42073055590E+02  0.51100000000E-03 0. -1.
        -11    1    3    3    0    0  0.18562315707E+01  0.10760189482E+02  0.17044503840E+01  0.11051353976E+02  0.51100000000E-03 0.  1.
        -12    1    3    3    0    0  0.30527241950E+02  0.14182746129E+02 -0.15076793296E+02  0.36883227691E+02  0.00000000000E+00 0.  1.
</event>
<event>
 7    1  0.3752192E-015  0.9000782E+02  0.7816164E-02  0.1186339E+00
        -11   -1    0    0    0    0  0.00000000000E+00  0.00000000000E+00  0.45593999997E+02  0.45594000000E+02  0.51100000000E-03 0.  1.
         11   -1    0    0    0    0 -0.00000000000E+00 -0.00000000000E+00 -0.45593999997E+02  0.45594000000E+02  0.51100000000E-03 0. -1.
    9900012    2    1    2    0    0  0.16264140375E+00 -0.76535016352E+00 -0.88351923257E+00  0.90007822330E+02  0.90000084784E+02 0.  0.
        -12    1    1    2    0    0 -0.16264140375E+00  0.76535016352E+00  0.88351923257E+00  0.11801776702E+01  0.00000000000E+00 0.  1.
         11    1    3    3    0    0  0.36623694965E+02  0.76000923573E+01 -0.17312109215E+02  0.41216083783E+02  0.51100000000E-03 0. -1.
        -11    1    3    3    0    0 -0.34934991305E+01  0.56464970482E+01 -0.38027784079E+01  0.76517049715E+01  0.51100000000E-03 0.  1.
        -12    1    3    3    0    0 -0.32967554430E+02 -0.14011939569E+02  0.20231368390E+02  0.41140033575E+02  0.00000000000E+00 0.  1.
</event>
<event>
 7    1  0.3752192E-015  0.9000768E+02  0.7816164E-02  0.1186339E+00
        -11   -1    0    0    0    0  0.00000000000E+00  0.00000000000E+00  0.45593999997E+02  0.45594000000E+02  0.51100000000E-03 0.  1.
         11   -1    0    0    0    0 -0.00000000000E+00 -0.00000000000E+00 -0.45593999997E+02  0.45594000000E+02  0.51100000000E-03 0. -1.
    9900012    2    1    2    0    0  0.15497932246E+00  0.11289422232E+01 -0.30761614737E+00  0.90007679354E+02  0.89999939921E+02 0.  0.
        -12    1    1    2    0    0 -0.15497932246E+00 -0.11289422232E+01  0.30761614737E+00  0.11803206462E+01  0.00000000000E+00 0.  1.
         11    1    3    3    0    0 -0.10899612554E+01  0.12318663807E+02 -0.16275883146E+01  0.12473433268E+02  0.51100000000E-03 0. -1.
        -11    1    3    3    0    0 -0.23148478314E+02 -0.34998731340E+02  0.82126311885E+01  0.42757578919E+02  0.51100000000E-03 0.  1.
         12    1    3    3    0    0  0.24393418892E+02  0.23809009757E+02 -0.68926590212E+01  0.34776667167E+02  0.00000000000E+00 0. -1.
</event>
<event>
 7    1  0.3752192E-015  0.9000774E+02  0.7816164E-02  0.1186339E+00
        -11   -1    0    0    0    0  0.00000000000E+00  0.00000000000E+00  0.45593999997E+02  0.45594000000E+02  0.51100000000E-03 0.  1.
         11   -1    0    0    0    0 -0.00000000000E+00 -0.00000000000E+00 -0.45593999997E+02  0.45594000000E+02  0.51100000000E-03 0. -1.
    9900012    2    1    2    0    0 -0.66835285219E+00 -0.77510724593E+00 -0.58781874801E+00  0.90007738309E+02  0.89999999655E+02 0.  0.
        -12    1    1    2    0    0  0.66835285219E+00  0.77510724593E+00  0.58781874801E+00  0.11802616906E+01  0.00000000000E+00 0.  1.
         11    1    3    3    0    0 -0.90023275987E+01 -0.45754520868E+01 -0.71448463895E+01  0.12370347375E+02  0.51100000000E-03 0. -1.
        -11    1    3    3    0    0  0.30689610844E+01 -0.35931039416E+02  0.99669578474E+01  0.37413879305E+02  0.51100000000E-03 0.  1.
         12    1    3    3    0    0  0.52650136620E+01  0.39731384257E+02 -0.34099302059E+01  0.40223511630E+02  0.00000000000E+00 0. -1.
</event>
<event>
 7    1  0.4203596E-015  0.9000775E+02  0.7816164E-02  0.1186339E+00
        -11   -1    0    0    0    0  0.00000000000E+00  0.00000000000E+00  0.45593999997E+02  0.45594000000E+02  0.51100000000E-03 0. -1.
         11   -1    0    0    0    0 -0.00000000000E+00 -0.00000000000E+00 -0.45593999997E+02  0.45594000000E+02  0.51100000000E-03 0.  1.
    9900012    2    1    2    0    0 -0.42644352519E+00 -0.10979456361E+01  0.75139884866E-01  0.90007752271E+02  0.90000013801E+02 0.  0.
        -12    1    1    2    0    0  0.42644352519E+00  0.10979456361E+01 -0.75139884866E-01  0.11802477292E+01  0.00000000000E+00 0.  1.
         11    1    3    3    0    0  0.35877866542E+02 -0.16413189579E+01  0.20854554430E+02  0.41531044729E+02  0.51100000000E-03 0. -1.
        -11    1    3    3    0    0 -0.15342861362E+01 -0.77342480162E+01 -0.54565204391E+01  0.95888603018E+01  0.51100000000E-03 0.  1.
        -12    1    3    3    0    0 -0.34770023931E+02  0.82776213380E+01 -0.15322894106E+02  0.38887847240E+02  0.00000000000E+00 0.  1.
</event>
<event>
 7    1  0.3752192E-015  0.9000743E+02  0.7816164E-02  0.1186340E+00
        -11   -1    0    0    0    0  0.00000000000E+00  0.00000000000E+00  0.45593999997E+02  0.45594000000E+02  0.51100000000E-03 0. -1.
         11   -1    0    0    0    0 -0.00000000000E+00 -0.00000000000E+00 -0.45593999997E+02  0.45594000000E+02  0.51100000000E-03 0.  1.
    9900012    2    1    2    0    0  0.56755309623E+00 -0.89916691650E+00 -0.51296357831E+00  0.90007428404E+02  0.89999685658E+02 0.  0.
        -12    1    1    2    0    0 -0.56755309623E+00  0.89916691650E+00  0.51296357831E+00  0.11805715961E+01  0.00000000000E+00 0.  1.
         11    1    3    3    0    0 -0.25812792247E+01 -0.38068661584E+02 -0.13194433481E+02  0.40372999299E+02  0.51100000000E-03 0. -1.
        -11    1    3    3    0    0  0.51128949366E+01  0.56945064776E+01  0.16186024592E+02  0.17904091460E+02  0.51100000000E-03 0.  1.
        -12    1    3    3    0    0 -0.19640626156E+01  0.31474988190E+02 -0.35045546894E+01  0.31730337645E+02  0.00000000000E+00 0.  1.
</event>
<event>
 7    1  0.3752192E-015  0.9000772E+02  0.7816164E-02  0.1186339E+00
        -11   -1    0    0    0    0  0.00000000000E+00  0.00000000000E+00  0.45593999997E+02  0.45594000000E+02  0.51100000000E-03 0. -1.
         11   -1    0    0    0    0 -0.00000000000E+00 -0.00000000000E+00 -0.45593999997E+02  0.45594000000E+02  0.51100000000E-03 0.  1.
    9900012    2    1    2    0    0 -0.45229642424E+00 -0.32199296941E+00  0.10415461489E+01  0.90007716175E+02  0.89999977228E+02 0.  0.
        -12    1    1    2    0    0  0.45229642424E+00  0.32199296941E+00 -0.10415461489E+01  0.11802838252E+01  0.00000000000E+00 0.  1.
         11    1    3    3    0    0  0.11433887393E+02 -0.47657005854E+00 -0.36863780592E+02  0.38599212683E+02  0.51100000000E-03 0. -1.
        -11    1    3    3    0    0  0.44313561382E+01  0.83651044940E+01  0.15128737227E+00  0.94675645522E+01  0.51100000000E-03 0.  1.
        -12    1    3    3    0    0 -0.16317539955E+02 -0.82105274049E+01  0.37754039369E+02  0.41940938940E+02  0.00000000000E+00 0.  1.
</event>
<event>
 7    1  0.3752192E-015  0.9000757E+02  0.7816164E-02  0.1186339E+00
        -11   -1    0    0    0    0  0.00000000000E+00  0.00000000000E+00  0.45593999997E+02  0.45594000000E+02  0.51100000000E-03 0. -1.
         11   -1    0    0    0    0 -0.00000000000E+00 -0.00000000000E+00 -0.45593999997E+02  0.45594000000E+02  0.51100000000E-03 0.  1.
    9900012    2    1    2    0    0 -0.43744807518E+00  0.10906576264E+01  0.11194165292E+00  0.90007565415E+02  0.89999824478E+02 0.  0.
        -12    1    1    2    0    0  0.43744807518E+00 -0.10906576264E+01 -0.11194165292E+00  0.11804345853E+01  0.00000000000E+00 0.  1.
         11    1    3    3    0    0 -0.77186039892E+01  0.27111388732E+02  0.26526541649E+02  0.38707385066E+02  0.51100000000E-03 0. -1.
        -11    1    3    3    0    0 -0.45914595609E+01  0.30556770805E+01  0.45841914686E+01  0.71717135332E+01  0.51100000000E-03 0.  1.
        -12    1    3    3    0    0  0.11872615475E+02 -0.29076408186E+02 -0.30998791465E+02  0.44128466816E+02  0.00000000000E+00 0.  1.
</event>
<event>
 7    1  0.3752192E-015  0.9000771E+02  0.7816164E-02  0.1186339E+00
        -11   -1    0    0    0    0  0.00000000000E+00  0.00000000000E+00  0.45593999997E+02  0.45594000000E+02  0.51100000000E-03 0. -1.
         11   -1    0    0    0    0 -0.00000000000E+00 -0.00000000000E+00 -0.45593999997E+02  0.45594000000E+02  0.51100000000E-03 0.  1.
    9900012    2    1    2    0    0  0.97261815240E+00 -0.66367742466E+00  0.81446020220E-01  0.90007708829E+02  0.89999969785E+02 0.  0.
        -12    1    1    2    0    0 -0.97261815240E+00  0.66367742466E+00 -0.81446020220E-01  0.11802911711E+01  0.00000000000E+00 0.  1.
         11    1    3    3    0    0  0.45290255449E+01 -0.66745438905E+01  0.12872403022E+02  0.15190798806E+02  0.51100000000E-03 0. -1.
        -11    1    3    3    0    0 -0.18045869367E+02  0.96270730076E+01  0.26098761839E+02  0.33158397213E+02  0.51100000000E-03 0.  1.
        -12    1    3    3    0    0  0.14489461974E+02 -0.36162065418E+01 -0.38889718841E+02  0.41658512811E+02  0.00000000000E+00 0.  1.
</event>
<event>
 7    1  0.3752192E-015  0.9000778E+02  0.7816164E-02  0.1186339E+00
        -11   -1    0    0    0    0  0.00000000000E+00  0.00000000000E+00  0.45593999997E+02  0.45594000000E+02  0.51100000000E-03 0.  1.
         11   -1    0    0    0    0 -0.00000000000E+00 -0.00000000000E+00 -0.45593999997E+02  0.45594000000E+02  0.51100000000E-03 0. -1.
    9900012    2    1    2    0    0  0.12000228829E+00  0.35832801688E+00 -0.11180898746E+01  0.90007777782E+02  0.90000039648E+02 0.  0.
        -12    1    1    2    0    0 -0.12000228829E+00 -0.35832801688E+00  0.11180898746E+01  0.11802222183E+01  0.00000000000E+00 0.  1.
         11    1    3    3    0    0  0.32238772135E+02 -0.17506217676E+02 -0.88908322322E+01  0.37747224854E+02  0.51100000000E-03 0. -1.
        -11    1    3    3    0    0  0.74005481919E+01  0.21644130350E+01  0.58763017622E+01  0.96945201010E+01  0.51100000000E-03 0.  1.
        -12    1    3    3    0    0 -0.39519318039E+02  0.15700132658E+02  0.18964405955E+01  0.42566032827E+02  0.00000000000E+00 0.  1.
</event>
<event>
 7    1  0.3752192E-015  0.9000774E+02  0.7816164E-02  0.1186339E+00
        -11   -1    0    0    0    0  0.00000000000E+00  0.00000000000E+00  0.45593999997E+02  0.45594000000E+02  0.51100000000E-03 0.  1.
         11   -1    0    0    0    0 -0.00000000000E+00 -0.00000000000E+00 -0.45593999997E+02  0.45594000000E+02  0.51100000000E-03 0. -1.
    9900012    2    1    2    0    0 -0.34417706636E+00  0.25075484545E+00 -0.11007613544E+01  0.90007740959E+02  0.90000002339E+02 0.  0.
        -12    1    1    2    0    0  0.34417706636E+00 -0.25075484545E+00  0.11007613544E+01  0.11802590415E+01  0.00000000000E+00 0.  1.
         11    1    3    3    0    0 -0.10311214284E+02  0.85810241060E+01  0.46865814335E+01  0.14209826196E+02  0.51100000000E-03 0. -1.
        -11    1    3    3    0    0 -0.47792766352E+01 -0.11211783375E+02  0.32477367480E+02  0.34688974765E+02  0.51100000000E-03 0.  1.
         12    1    3    3    0    0  0.14746313853E+02  0.28815141148E+01 -0.38264710267E+02  0.41108939997E+02  0.00000000000E+00 0. -1.
</event>
<event>
 7    1  0.3752192E-015  0.9000860E+02  0.7816164E-02  0.1186337E+00
        -11   -1    0    0    0    0  0.00000000000E+00  0.00000000000E+00  0.45593999997E+02  0.45594000000E+02  0.51100000000E-03 0.  1.
         11   -1    0    0    0    0 -0.00000000000E+00 -0.00000000000E+00 -0.45593999997E+02  0.45594000000E+02  0.51100000000E-03 0. -1.
    9900012    2    1    2    0    0 -0.26341914259E-01 -0.67954773817E+00 -0.96358549522E+00  0.90008603531E+02  0.90000876293E+02 0.  0.
        -12    1    1    2    0    0  0.26341914259E-01  0.67954773817E+00  0.96358549522E+00  0.11793964692E+01  0.00000000000E+00 0.  1.
         11    1    3    3    0    0  0.23711400026E+02 -0.32502940803E+02  0.10483239792E+02  0.41576074476E+02  0.51100000000E-03 0. -1.
        -11    1    3    3    0    0  0.50664382706E+01  0.61477902927E+01  0.65364273260E+00  0.79932078239E+01  0.51100000000E-03 0.  1.
        -12    1    3    3    0    0 -0.28804180211E+02  0.25675602772E+02 -0.12100468019E+02  0.40439321231E+02  0.00000000000E+00 0.  1.
</event>
<event>
 7    1  0.4317312E-015  0.9000769E+02  0.7816164E-02  0.1186339E+00
        -11   -1    0    0    0    0  0.00000000000E+00  0.00000000000E+00  0.45593999997E+02  0.45594000000E+02  0.51100000000E-03 0. -1.
         11   -1    0    0    0    0 -0.00000000000E+00 -0.00000000000E+00 -0.45593999997E+02  0.45594000000E+02  0.51100000000E-03 0.  1.
    9900012    2    1    2    0    0 -0.77691013950E+00  0.85779302447E+00  0.23180278593E+00  0.90007690393E+02  0.89999951106E+02 0.  0.
        -12    1    1    2    0    0  0.77691013950E+00 -0.85779302447E+00 -0.23180278593E+00  0.11803096074E+01  0.00000000000E+00 0.  1.
         11    1    3    3    0    0 -0.11918964759E+01 -0.78809415660E+01  0.38756522066E+02  0.39567636524E+02  0.51100000000E-03 0. -1.
        -11    1    3    3    0    0  0.68436652784E+01  0.67025267255E+01  0.16353887778E+01  0.97177217323E+01  0.51100000000E-03 0.  1.
        -12    1    3    3    0    0 -0.64286789421E+01  0.20362078650E+01 -0.40160108058E+02  0.40722332136E+02  0.00000000000E+00 0.  1.
</event>
<event>
 7    1  0.3752192E-015  0.9000778E+02  0.7816164E-02  0.1186339E+00
        -11   -1    0    0    0    0  0.00000000000E+00  0.00000000000E+00  0.45593999997E+02  0.45594000000E+02  0.51100000000E-03 0.  1.
         11   -1    0    0    0    0 -0.00000000000E+00 -0.00000000000E+00 -0.45593999997E+02  0.45594000000E+02  0.51100000000E-03 0. -1.
    9900012    2    1    2    0    0 -0.16955328055E+00 -0.77905896071E+00 -0.87019964236E+00  0.90007776040E+02  0.90000037883E+02 0.  0.
        -12    1    1    2    0    0  0.16955328055E+00  0.77905896071E+00  0.87019964236E+00  0.11802239604E+01  0.00000000000E+00 0.  1.
         11    1    3    3    0    0  0.17216160253E+01 -0.74220990048E+01  0.53065386871E+01  0.92849808009E+01  0.51100000000E-03 0. -1.
        -11    1    3    3    0    0 -0.42632600414E+01  0.15074201740E+02  0.35147514015E+02  0.38480575437E+02  0.51100000000E-03 0.  1.
         12    1    3    3    0    0  0.23720907355E+01 -0.84311616956E+01 -0.41324252344E+02  0.42242219802E+02  0.00000000000E+00 0. -1.
</event>
<event>
 7    1  0.3752192E-015  0.9000765E+02  0.7816164E-02  0.1186339E+00
        -11   -1    0    0    0    0  0.00000000000E+00  0.00000000000E+00  0.45593999997E+02  0.45594000000E+02  0.51100000000E-03 0.  1.
         11   -1    0    0    0    0 -0.00000000000E+00 -0.00000000000E+00 -0.45593999997E+02  0.45594000000E+02  0.51100000000E-03 0. -1.
    9900012    2    1    2    0    0 -0.21106058136E+00  0.11258537984E+00 -0.11558521254E+01  0.90007654215E+02  0.89999914450E+02 0.  0.
        -12    1    1    2    0    0  0.21106058136E+00 -0.11258537984E+00  0.11558521254E+01  0.11803457852E+01  0.00000000000E+00 0.  1.
         11    1    3    3    0    0 -0.37940560218E-01 -0.48385994084E+01 -0.61083754597E+01  0.77926718614E+01  0.51100000000E-03 0. -1.
        -11    1    3    3    0    0  0.85059924026E+00  0.39988806736E+02 -0.13987022321E+02  0.42372927405E+02  0.51100000000E-03 0.  1.
         12    1    3    3    0    0 -0.10237192614E+01 -0.35037621948E+02  0.18939545655E+02  0.39842054948E+02  0.00000000000E+00 0. -1.
</event>
<event>
 7    1  0.3752192E-015  0.9000773E+02  0.7816164E-02  0.1186339E+00
        -11   -1    0    0    0    0  0.00000000000E+00  0.00000000000E+00  0.45593999997E+02  0.45594000000E+02  0.51100000000E-03 0.  1.
         11   -1    0    0    0    0 -0.00000000000E+00 -0.00000000000E+00 -0.45593999997E+02  0.45594000000E+02  0.51100000000E-03 0. -1.
    9900012    2    1    2    0    0  0.10373974523E+01 -0.56203348038E+00  0.31196527354E-01  0.90007725316E+02  0.89999986490E+02 0.  0.
        -12    1    1    2    0    0 -0.10373974523E+01  0.56203348038E+00 -0.31196527354E-01  0.11802746843E+01  0.00000000000E+00 0.  1.
         11    1    3    3    0    0 -0.28317925059E+01 -0.10292976821E+01  0.68084669939E+01  0.74453828365E+01  0.51100000000E-03 0. -1.
        -11    1    3    3    0    0 -0.12216269397E+02 -0.25925256304E+02  0.25146705844E+02  0.38127588010E+02  0.51100000000E-03 0.  1.
         12    1    3    3    0    0  0.16085459355E+02  0.26392520506E+02 -0.31923976310E+02  0.44434754469E+02  0.00000000000E+00 0. -1.
</event>
<event>
 7    1  0.4819946E-015  0.9000777E+02  0.7816164E-02  0.1186339E+00
        -11   -1    0    0    0    0  0.00000000000E+00  0.00000000000E+00  0.45593999997E+02  0.45594000000E+02  0.51100000000E-03 0. -1.
         11   -1    0    0    0    0 -0.00000000000E+00 -0.00000000000E+00 -0.45593999997E+02  0.45594000000E+02  0.51100000000E-03 0.  1.
    9900012    2    1    2    0    0 -0.57124229983E+00 -0.90309430268E+00  0.50103816467E+00  0.90007772765E+02  0.90000034565E+02 0.  0.
        -12    1    1    2    0    0  0.57124229983E+00  0.90309430268E+00 -0.50103816467E+00  0.11802272354E+01  0.00000000000E+00 0.  1.
         11    1    3    3    0    0  0.13345376014E+01 -0.35343883557E+02  0.38070417343E+01  0.35573370132E+02  0.51100000000E-03 0. -1.
        -11    1    3    3    0    0 -0.48070183463E+01 -0.92868058203E+01  0.30986045315E+00  0.10461749447E+02  0.51100000000E-03 0.  1.
        -12    1    3    3    0    0  0.29012384451E+01  0.43727595075E+02 -0.36158640228E+01  0.43972653186E+02  0.00000000000E+00 0.  1.
</event>
<event>
 7    1  0.3752192E-015  0.9000768E+02  0.7816164E-02  0.1186339E+00
        -11   -1    0    0    0    0  0.00000000000E+00  0.00000000000E+00  0.45593999997E+02  0.45594000000E+02  0.51100000000E-03 0. -1.
         11   -1    0    0    0    0 -0.00000000000E+00 -0.00000000000E+00 -0.45593999997E+02  0.45594000000E+02  0.51100000000E-03 0.  1.
    9900012    2    1    2    0    0 -0.29971502142E+00 -0.47547424037E-02  0.11416247287E+01  0.90007678551E+02  0.89999939108E+02 0.  0.
        -12    1    1    2    0    0  0.29971502142E+00  0.47547424037E-02 -0.11416247287E+01  0.11803214490E+01  0.00000000000E+00 0.  1.
         11    1    3    3    0    0 -0.17038972141E-01  0.91350085624E+01  0.19589536208E+00  0.91371246580E+01  0.51100000000E-03 0. -1.
        -11    1    3    3    0    0 -0.10956506723E+01  0.31496731596E+02 -0.17707833214E+02  0.36149853513E+02  0.51100000000E-03 0.  1.
         12    1    3    3    0    0  0.81297462302E+00 -0.40636494901E+02  0.18653562580E+02  0.44720700380E+02  0.00000000000E+00 0. -1.
</event>
<event>
 8    1  0.3752192E-015  0.9000748E+02  0.7816164E-02  0.1186340E+00
        -11   -1    0    0    0    0  0.00000000000E+00  0.00000000000E+00  0.45593999997E+02  0.45594000000E+02  0.51100000000E-03 0. -1.
         11   -1    0    0    0    0 -0.00000000000E+00 -0.00000000000E+00 -0.45593999997E+02  0.45594000000E+02  0.51100000000E-03 0.  1.
    9900012    2    1    2    0    0 -0.32398662453E+00 -0.72159547053E+00  0.87633725455E+00  0.90007477091E+02  0.89999734988E+02 0.  0.
         23    2    3    3    0    0 -0.19653249711E+02 -0.12520747722E+02  0.84822889217E+01  0.66118339264E+02  0.61291648811E+02 0.  0.
        -12    1    1    2    0    0  0.32398662453E+00  0.72159547053E+00 -0.87633725455E+00  0.11805229094E+01  0.00000000000E+00 0.  1.
         11    1    4    4    0    0 -0.33807036237E+02 -0.18532646591E+02  0.23064531148E+02  0.44926020146E+02  0.51100000000E-03 0. -1.
        -11    1    4    4    0    0  0.14153786526E+02  0.60118988688E+01 -0.14582242226E+02  0.21192319119E+02  0.51100000000E-03 0.  1.
        -12    1    3    3    0    0  0.19329263086E+02  0.11799152252E+02 -0.76059516672E+01  0.23889137826E+02  0.00000000000E+00 0.  1.
</event>
<event>
 7    1  0.3752192E-015  0.9000772E+02  0.7816164E-02  0.1186339E+00
        -11   -1    0    0    0    0  0.00000000000E+00  0.00000000000E+00  0.45593999997E+02  0.45594000000E+02  0.51100000000E-03 0.  1.
         11   -1    0    0    0    0 -0.00000000000E+00 -0.00000000000E+00 -0.45593999997E+02  0.45594000000E+02  0.51100000000E-03 0. -1.
    9900012    2    1    2    0    0  0.65845732270E+00 -0.34404115488E+00 -0.91713392016E+00  0.90007718258E+02  0.89999979339E+02 0.  0.
        -12    1    1    2    0    0 -0.65845732270E+00  0.34404115488E+00  0.91713392016E+00  0.11802817416E+01  0.00000000000E+00 0.  1.
         11    1    3    3    0    0 -0.31776147697E+02 -0.10971336206E+02 -0.13268842894E+02  0.36140779912E+02  0.51100000000E-03 0. -1.
        -11    1    3    3    0    0 -0.90294012913E+01  0.34696567185E+00 -0.10447335184E+01  0.90962597391E+01  0.51100000000E-03 0.  1.
        -12    1    3    3    0    0  0.41464006311E+02  0.10280329380E+02  0.13396442492E+02  0.44770678607E+02  0.00000000000E+00 0.  1.
</event>
<event>
 7    1  0.3752192E-015  0.9000765E+02  0.7816164E-02  0.1186339E+00
        -11   -1    0    0    0    0  0.00000000000E+00  0.00000000000E+00  0.45593999997E+02  0.45594000000E+02  0.51100000000E-03 0.  1.
         11   -1    0    0    0    0 -0.00000000000E+00 -0.00000000000E+00 -0.45593999997E+02  0.45594000000E+02  0.51100000000E-03 0. -1.
    9900012    2    1    2    0    0  0.92694554237E+00  0.56839854062E+00 -0.45925554857E+00  0.90007652340E+02  0.89999912551E+02 0.  0.
        -12    1    1    2    0    0 -0.92694554237E+00 -0.56839854062E+00  0.45925554857E+00  0.11803476600E+01  0.00000000000E+00 0.  1.
         11    1    3    3    0    0 -0.58761924105E+01  0.32352774384E+01  0.59348196957E+01  0.89564916363E+01  0.51100000000E-03 0. -1.
        -11    1    3    3    0    0  0.10204106394E+02  0.12764684863E+02  0.33974237300E+02  0.37700262165E+02  0.51100000000E-03 0.  1.
         12    1    3    3    0    0 -0.34009684407E+01 -0.15431563761E+02 -0.40368312544E+02  0.43350898539E+02  0.00000000000E+00 0. -1.
</event>
<event>
 7    1  0.3752192E-015  0.9000770E+02  0.7816164E-02  0.1186339E+00
        -11   -1    0    0    0    0  0.00000000000E+00  0.00000000000E+00  0.45593999997E+02  0.45594000000E+02  0.51100000000E-03 0.  1.
         11   -1    0    0    0    0 -0.00000000000E+00 -0.00000000000E+00 -0.45593999997E+02  0.45594000000E+02  0.51100000000E-03 0. -1.
    9900012    2    1    2    0    0 -0.12417651353E+00  0.11298333568E+01 -0.31807642106E+00  0.90007696721E+02  0.89999957518E+02 0.  0.
        -12    1    1    2    0    0  0.12417651353E+00 -0.11298333568E+01  0.31807642106E+00  0.11803032790E+01  0.00000000000E+00 0.  1.
         11    1    3    3    0    0 -0.29980431868E+02  0.23671925468E+02 -0.11275723294E+02  0.39828736942E+02  0.51100000000E-03 0. -1.
        -11    1    3    3    0    0 -0.64945428385E+01 -0.53744750446E+01 -0.28787951473E+00  0.84348647626E+01  0.51100000000E-03 0.  1.
        -12    1    3    3    0    0  0.36350798193E+02 -0.17167617067E+02  0.11245526388E+02  0.41744095016E+02  0.00000000000E+00 0.  1.
</event>
<event>
 7    1  0.3752192E-015  0.9000774E+02  0.7816164E-02  0.1186339E+00
        -11   -1    0    0    0    0  0.00000000000E+00  0.00000000000E+00  0.45593999997E+02  0.45594000000E+02  0.51100000000E-03 0. -1.
         11   -1    0    0    0    0 -0.00000000000E+00 -0.00000000000E+00 -0.45593999997E+02  0.45594000000E+02  0.51100000000E-03 0.  1.
    9900012    2    1    2    0    0  0.63058181059E+00 -0.53019573094E-01  0.99627811647E+00  0.90007739613E+02  0.90000000976E+02 0.  0.
        -12    1    1    2    0    0 -0.63058181059E+00  0.53019573094E-01 -0.99627811647E+00  0.11802603867E+01  0.00000000000E+00 0.  1.
         11    1    3    3    0    0  0.72734269951E+01  0.26905630931E+01 -0.51554414294E+01  0.93123813606E+01  0.51100000000E-03 0. -1.
        -11    1    3    3    0    0  0.16251526157E+02  0.25925151448E+02 -0.19179028752E+02  0.36111780961E+02  0.51100000000E-03 0.  1.
         12    1    3    3    0    0 -0.22894371342E+02 -0.28668734114E+02  0.25330748297E+02  0.44583577292E+02  0.00000000000E+00 0. -1.
</event>
<event>
 7    1  0.3752192E-015  0.9000769E+02  0.7816164E-02  0.1186339E+00
        -11   -1    0    0    0    0  0.00000000000E+00  0.00000000000E+00  0.45593999997E+02  0.45594000000E+02  0.51100000000E-03 0.  1.
         11   -1    0    0    0    0 -0.00000000000E+00 -0.00000000000E+00 -0.45593999997E+02  0.45594000000E+02  0.51100000000E-03 0. -1.
    9900012    2    1    2    0    0 -0.52450059780E+00 -0.62845580764E+00 -0.85033488116E+00  0.90007691994E+02  0.89999952728E+02 0.  0.
        -12    1    1    2    0    0  0.52450059780E+00  0.62845580764E+00  0.85033488116E+00  0.11803080061E+01  0.00000000000E+00 0.  1.
         11    1    3    3    0    0 -0.75549430018E+01  0.14324899711E+01  0.44783784625E+01  0.88985990579E+01  0.51100000000E-03 0. -1.
        -11    1    3    3    0    0 -0.71227054394E+01  0.24580886711E+02  0.26786460940E+02  0.37046827316E+02  0.51100000000E-03 0.  1.
         12    1    3    3    0    0  0.14153147843E+02 -0.26641832489E+02 -0.32115174284E+02  0.44062265620E+02  0.00000000000E+00 0. -1.
</event>
<event>
 7    1  0.3752192E-015  0.9000777E+02  0.7816164E-02  0.1186339E+00
        -11   -1    0    0    0    0  0.00000000000E+00  0.00000000000E+00  0.45593999997E+02  0.45594000000E+02  0.51100000000E-03 0. -1.
         11   -1    0    0    0    0 -0.00000000000E+00 -0.00000000000E+00 -0.45593999997E+02  0.45594000000E+02  0.51100000000E-03 0.  1.
    9900012    2    1    2    0    0  0.23696462659E+00 -0.19153410753E+00  0.11402173049E+01  0.90007774152E+02  0.90000035971E+02 0.  0.
        -12    1    1    2    0    0 -0.23696462659E+00  0.19153410753E+00 -0.11402173049E+01  0.11802258475E+01  0.00000000000E+00 0.  1.
         11    1    3    3    0    0 -0.30645090419E+02 -0.19502231499E+02  0.89115125174E+01  0.37401519432E+02  0.51100000000E-03 0. -1.
        -11    1    3    3    0    0  0.11722613513E+01 -0.60546433713E+01  0.83204690542E+01  0.10356790457E+02  0.51100000000E-03 0.  1.
        -12    1    3    3    0    0  0.29709793694E+02  0.25365340762E+02 -0.16091764267E+02  0.42249464263E+02  0.00000000000E+00 0.  1.
</event>
<event>
 7    1  0.3752192E-015  0.9000765E+02  0.7816164E-02  0.1186339E+00
        -11   -1    0    0    0    0  0.00000000000E+00  0.00000000000E+00  0.45593999997E+02  0.45594000000E+02  0.51100000000E-03 0. -1.
         11   -1    0    0    0    0 -0.00000000000E+00 -0.00000000000E+00 -0.45593999997E+02  0.45594000000E+02  0.51100000000E-03 0.  1.
    9900012    2    1    2    0    0  0.17012903238E-01  0.57010017191E+00  0.10334022897E+01  0.90007650926E+02  0.89999911118E+02 0.  0.
        -12    1    1    2    0    0 -0.17012903238E-01 -0.57010017191E+00 -0.10334022897E+01  0.11803490743E+01  0.00000000000E+00 0.  1.
         11    1    3    3    0    0 -0.38632769823E+02  0.12040309714E+02 -0.65938150698E+01  0.40999248281E+02  0.51100000000E-03 0. -1.
        -11    1    3    3    0    0  0.31878933718E+01  0.29677589734E+01  0.97320289977E+01  0.10662206439E+02  0.51100000000E-03 0.  1.
        -12    1    3    3    0    0  0.35461889354E+02 -0.14437968516E+02 -0.21048116382E+01  0.38346196206E+02  0.00000000000E+00 0.  1.
</event>
<event>
 7    1  0.3752192E-015  0.9000782E+02  0.7816164E-02  0.1186339E+00
        -11   -1    0    0    0    0  0.00000000000E+00  0.00000000000E+00  0.45593999997E+02  0.45594000000E+02  0.51100000000E-03 0. -1.
         11   -1    0    0    0    0 -0.00000000000E+00 -0.00000000000E+00 -0.45593999997E+02  0.45594000000E+02  0.51100000000E-03 0.  1.
    9900012    2    1    2    0    0  0.74507437792E+00 -0.88188169287E+00  0.24488753993E+00  0.90007821600E+02  0.90000084045E+02 0.  0.
        -12    1    1    2    0    0 -0.74507437792E+00  0.88188169287E+00 -0.24488753993E+00  0.11801784001E+01  0.00000000000E+00 0.  1.
         11    1    3    3    0    0  0.19573836493E+02  0.13873338315E+02  0.30961022358E+02  0.39168731110E+02  0.51100000000E-03 0. -1.
        -11    1    3    3    0    0  0.42943543054E+01 -0.82510509529E+01  0.26998548921E+01  0.96855840004E+01  0.51100000000E-03 0.  1.
        -12    1    3    3    0    0 -0.23123116420E+02 -0.65041690551E+01 -0.33415989710E+02  0.41153506490E+02  0.00000000000E+00 0.  1.
</event>
<event>
 7    1  0.3752192E-015  0.9000766E+02  0.7816164E-02  0.1186339E+00
        -11   -1    0    0    0    0  0.00000000000E+00  0.00000000000E+00  0.45593999997E+02  0.45594000000E+02  0.51100000000E-03 0. -1.
         11   -1    0    0    0    0 -0.00000000000E+00 -0.00000000000E+00 -0.45593999997E+02  0.45594000000E+02  0.51100000000E-03 0.  1.
    9900012    2    1    2    0    0 -0.79120936589E+00 -0.62309070589E+00 -0.61558300664E+00  0.90007662452E+02  0.89999922797E+02 0.  0.
        -12    1    1    2    0    0  0.79120936589E+00  0.62309070589E+00  0.61558300664E+00  0.11803375477E+01  0.00000000000E+00 0.  1.
         11    1    3    3    0    0 -0.10050492759E+02  0.17974210281E+00 -0.12572142640E+01  0.10130414597E+02  0.51100000000E-03 0. -1.
        -11    1    3    3    0    0 -0.49351258882E+01  0.37883268697E+02 -0.39837472921E+01  0.38410516235E+02  0.51100000000E-03 0.  1.
         12    1    3    3    0    0  0.14194409282E+02 -0.38686101506E+02  0.46253785495E+01  0.41466731621E+02  0.00000000000E+00 0. -1.
</event>
<event>
 7    1  0.3752192E-015  0.9000774E+02  0.7816164E-02  0.1186339E+00
        -11   -1    0    0    0    0  0.00000000000E+00  0.00000000000E+00  0.45593999997E+02  0.45594000000E+02  0.51100000000E-03 0.  1.
         11   -1    0    0    0    0 -0.00000000000E+00 -0.00000000000E+00 -0.45593999997E+02  0.45594000000E+02  0.51100000000E-03 0. -1.
    9900012    2    1    2    0    0 -0.26399619124E+00  0.90667186628E+00  0.70800914279E+00  0.90007735280E+02  0.89999996586E+02 0.  0.
        -12    1    1    2    0    0  0.26399619124E+00 -0.90667186628E+00 -0.70800914279E+00  0.11802647196E+01  0.00000000000E+00 0.  1.
         11    1    3    3    0    0 -0.81662420992E+01  0.96165928953E+01 -0.22664723088E+02  0.25939468805E+02  0.51100000000E-03 0. -1.
        -11    1    3    3    0    0  0.20515236572E+02 -0.19626103805E+02 -0.71563871793E+01  0.29279220616E+02  0.51100000000E-03 0.  1.
         12    1    3    3    0    0 -0.12612990664E+02  0.10916182776E+02  0.30529119410E+02  0.34789045860E+02  0.00000000000E+00 0. -1.
</event>
<event>
 7    1  0.3752192E-015  0.9000767E+02  0.7816164E-02  0.1186339E+00
        -11   -1    0    0    0    0  0.00000000000E+00  0.00000000000E+00  0.45593999997E+02  0.45594000000E+02  0.51100000000E-03 0. -1.
         11   -1    0    0    0    0 -0.00000000000E+00 -0.00000000000E+00 -0.45593999997E+02  0.45594000000E+02  0.51100000000E-03 0.  1.
    9900012    2    1    2    0    0  0.70226630045E-01 -0.99150042402E+00  0.63653704746E+00  0.90007667723E+02  0.89999928137E+02 0.  0.
        -12    1    1    2    0    0 -0.70226630045E-01  0.99150042402E+00 -0.63653704746E+00  0.11803322766E+01  0.00000000000E+00 0.  1.
         11    1    3    3    0    0  0.33635311117E+02 -0.60886616575E+01  0.12447401644E+02  0.36377792163E+02  0.51100000000E-03 0. -1.
        -11    1    3    3    0    0  0.49823513190E+01  0.10711856712E+02  0.25980813084E+01  0.12096186408E+02  0.51100000000E-03 0.  1.
        -12    1    3    3    0    0 -0.38547435805E+02 -0.56146954783E+01 -0.14408945905E+02  0.41533689152E+02  0.00000000000E+00 0.  1.
</event>
<event>
 7    1  0.3752192E-015  0.9000761E+02  0.7816164E-02  0.1186339E+00
        -11   -1    0    0    0    0  0.00000000000E+00  0.00000000000E+00  0.45593999997E+02  0.45594000000E+02  0.51100000000E-03 0.  1.
         11   -1    0    0    0    0 -0.00000000000E+00 -0.00000000000E+00 -0.45593999997E+02  0.45594000000E+02  0.51100000000E-03 0. -1.
    9900012    2    1    2    0    0 -0.56015163324E+00  0.29471673473E+00  0.99634258001E+00  0.90007607547E+02  0.89999867167E+02 0.  0.
        -12    1    1    2    0    0  0.56015163324E+00 -0.29471673473E+00 -0.99634258001E+00  0.11803924528E+01  0.00000000000E+00 0.  1.
         11    1    3    3    0    0  0.12711301315E+02 -0.35536259668E+01 -0.30710058360E+02  0.33426234059E+02  0.51100000000E-03 0. -1.
        -11    1    3    3    0    0  0.13291686701E+01  0.33878165832E+01 -0.10925786136E+02  0.11515936501E+02  0.51100000000E-03 0.  1.
        -12    1    3    3    0    0 -0.14600621619E+02  0.46052611833E+00  0.42632187076E+02  0.45065436987E+02  0.00000000000E+00 0.  1.
</event>
<event>
 7    1  0.3752192E-015  0.9000774E+02  0.7816164E-02  0.1186339E+00
        -11   -1    0    0    0    0  0.00000000000E+00  0.00000000000E+00  0.45593999997E+02  0.45594000000E+02  0.51100000000E-03 0. -1.
         11   -1    0    0    0    0 -0.00000000000E+00 -0.00000000000E+00 -0.45593999997E+02  0.45594000000E+02  0.51100000000E-03 0.  1.
    9900012    2    1    2    0    0 -0.40137675311E+00  0.10924077539E+01 -0.19637976624E+00  0.90007736042E+02  0.89999997357E+02 0.  0.
        -12    1    1    2    0    0  0.40137675311E+00 -0.10924077539E+01  0.19637976624E+00  0.11802639583E+01  0.00000000000E+00 0.  1.
         11    1    3    3    0    0 -0.79305808715E+01 -0.85844426208E+00 -0.71439429652E+01  0.10708266006E+02  0.51100000000E-03 0. -1.
        -11    1    3    3    0    0  0.15950996000E+02 -0.24348801654E+02 -0.24069216099E+02  0.37770697363E+02  0.51100000000E-03 0.  1.
         12    1    3    3    0    0 -0.84217918819E+01  0.26299653670E+02  0.31016779298E+02  0.41528772673E+02  0.00000000000E+00 0. -1.
</event>
<event>
 7    1  0.3752192E-015  0.9000767E+02  0.7816164E-02  0.1186339E+00
        -11   -1    0    0    0    0  0.00000000000E+00  0.00000000000E+00  0.45593999997E+02  0.45594000000E+02  0.51100000000E-03 0.  1.
         11   -1    0    0    0    0 -0.00000000000E+00 -0.00000000000E+00 -0.45593999997E+02  0.45594000000E+02  0.51100000000E-03 0. -1.
    9900012    2    1    2    0    0  0.13699928985E+00 -0.40570656800E+00 -0.10999101465E+01  0.90007674217E+02  0.89999934716E+02 0.  0.
        -12    1    1    2    0    0 -0.13699928985E+00  0.40570656800E+00  0.10999101465E+01  0.11803257835E+01  0.00000000000E+00 0.  1.
         11    1    3    3    0    0 -0.15718639433E+02 -0.36685843669E+02 -0.11778080755E+02  0.41613098152E+02  0.51100000000E-03 0. -1.
        -11    1    3    3    0    0 -0.26613593613E+01  0.18860986302E+01  0.86901213629E+01  0.92821555285E+01  0.51100000000E-03 0.  1.
        -12    1    3    3    0    0  0.18516998084E+02  0.34394038471E+02  0.19880492459E+01  0.39112420536E+02  0.00000000000E+00 0.  1.
</event>
<event>
 7    1  0.3752192E-015  0.9000772E+02  0.7816164E-02  0.1186339E+00
        -11   -1    0    0    0    0  0.00000000000E+00  0.00000000000E+00  0.45593999997E+02  0.45594000000E+02  0.51100000000E-03 0. -1.
         11   -1    0    0    0    0 -0.00000000000E+00 -0.00000000000E+00 -0.45593999997E+02  0.45594000000E+02  0.51100000000E-03 0.  1.
    9900012    2    1    2    0    0  0.11766512010E+01  0.85693846762E-01 -0.34830897324E-01  0.90007718391E+02  0.89999979474E+02 0.  0.
        -12    1    1    2    0    0 -0.11766512010E+01 -0.85693846762E-01  0.34830897324E-01  0.11802816086E+01  0.00000000000E+00 0.  1.
         11    1    3    3    0    0 -0.73602046161E+01  0.53789005982E+01  0.19179053045E+01  0.93157686025E+01  0.51100000000E-03 0. -1.
        -11    1    3    3    0    0 -0.26952426623E+02  0.16255482641E+02  0.16175069779E+02  0.35387948505E+02  0.51100000000E-03 0.  1.
         12    1    3    3    0    0  0.35489282440E+02 -0.21548689392E+02 -0.18127805981E+02  0.45304001284E+02  0.00000000000E+00 0. -1.
</event>
<event>
 7    1  0.3752192E-015  0.9000773E+02  0.7816164E-02  0.1186339E+00
        -11   -1    0    0    0    0  0.00000000000E+00  0.00000000000E+00  0.45593999997E+02  0.45594000000E+02  0.51100000000E-03 0.  1.
         11   -1    0    0    0    0 -0.00000000000E+00 -0.00000000000E+00 -0.45593999997E+02  0.45594000000E+02  0.51100000000E-03 0. -1.
    9900012    2    1    2    0    0 -0.71099578104E+00 -0.85518879363E+00 -0.39518199471E+00  0.90007732368E+02  0.89999993636E+02 0.  0.
        -12    1    1    2    0    0  0.71099578104E+00  0.85518879363E+00  0.39518199471E+00  0.11802676317E+01  0.00000000000E+00 0.  1.
         11    1    3    3    0    0 -0.86393948019E+01 -0.32898973201E+01 -0.18773607299E+01  0.94332947845E+01  0.51100000000E-03 0. -1.
        -11    1    3    3    0    0 -0.29754638224E+02 -0.16488778710E+02 -0.12358782394E+02  0.36193339466E+02  0.51100000000E-03 0.  1.
         12    1    3    3    0    0  0.37683037245E+02  0.18923487236E+02  0.13840961129E+02  0.44381098118E+02  0.00000000000E+00 0. -1.
</event>
<event>
 7    1  0.3752192E-015  0.9000784E+02  0.7816164E-02  0.1186339E+00
        -11   -1    0    0    0    0  0.00000000000E+00  0.00000000000E+00  0.45593999997E+02  0.45594000000E+02  0.51100000000E-03 0.  1.
         11   -1    0    0    0    0 -0.00000000000E+00 -0.00000000000E+00 -0.45593999997E+02  0.45594000000E+02  0.51100000000E-03 0. -1.
    9900012    2    1    2    0    0 -0.49711857443E+00 -0.86000681293E+00  0.63721780185E+00  0.90007836824E+02  0.90000099470E+02 0.  0.
        -12    1    1    2    0    0  0.49711857443E+00  0.86000681293E+00 -0.63721780185E+00  0.11801631761E+01  0.00000000000E+00 0.  1.
         11    1    3    3    0    0 -0.47802863548E+01  0.32545544199E+02 -0.95894383043E+00  0.32908709461E+02  0.51100000000E-03 0. -1.
        -11    1    3    3    0    0  0.47059985384E+01  0.90489596266E+01  0.94706352903E+01  0.13918441925E+02  0.51100000000E-03 0.  1.
        -12    1    3    3    0    0 -0.42283075806E+00 -0.42454510639E+02 -0.78744736580E+01  0.43180685437E+02  0.00000000000E+00 0.  1.
</event>
<event>
 7    1  0.3752192E-015  0.9000771E+02  0.7816164E-02  0.1186339E+00
        -11   -1    0    0    0    0  0.00000000000E+00  0.00000000000E+00  0.45593999997E+02  0.45594000000E+02  0.51100000000E-03 0. -1.
         11   -1    0    0    0    0 -0.00000000000E+00 -0.00000000000E+00 -0.45593999997E+02  0.45594000000E+02  0.51100000000E-03 0.  1.
    9900012    2    1    2    0    0 -0.25033955731E+00  0.11159619119E+01  0.29161366045E+00  0.90007712150E+02  0.89999973150E+02 0.  0.
        -12    1    1    2    0    0  0.25033955731E+00 -0.11159619119E+01 -0.29161366045E+00  0.11802878504E+01  0.00000000000E+00 0.  1.
         11    1    3    3    0    0 -0.11012283649E+02  0.22505461361E+00 -0.46809028449E+01  0.11967952726E+02  0.51100000000E-03 0. -1.
        -11    1    3    3    0    0 -0.77200689871E+01  0.33956726363E+02 -0.11583524122E+02  0.36699274677E+02  0.51100000000E-03 0.  1.
         12    1    3    3    0    0  0.18482013079E+02 -0.33065819064E+02  0.16556040628E+02  0.41340484747E+02  0.00000000000E+00 0. -1.
</event>
<event>
 7    1  0.3752192E-015  0.9000782E+02  0.7816164E-02  0.1186339E+00
        -11   -1    0    0    0    0  0.00000000000E+00  0.00000000000E+00  0.45593999997E+02  0.45594000000E+02  0.51100000000E-03 0. -1.
         11   -1    0    0    0    0 -0.00000000000E+00 -0.00000000000E+00 -0.45593999997E+02  0.45594000000E+02  0.51100000000E-03 0.  1.
    9900012    2    1    2    0    0 -0.46466874056E+00  0.98794977767E+00  0.44817330061E+00  0.90007821577E+02  0.90000084022E+02 0.  0.
        -12    1    1    2    0    0  0.46466874056E+00 -0.98794977767E+00 -0.44817330061E+00  0.11801784225E+01  0.00000000000E+00 0.  1.
         11    1    3    3    0    0  0.27316631700E+02 -0.29366839627E+02 -0.51919061253E+01  0.40442125644E+02  0.51100000000E-03 0. -1.
        -11    1    3    3    0    0 -0.11116552983E+02 -0.33660816723E+01  0.18473050205E+01  0.11760986019E+02  0.51100000000E-03 0.  1.
        -12    1    3    3    0    0 -0.16664747458E+02  0.33720871077E+02  0.37927744055E+01  0.37804709914E+02  0.00000000000E+00 0.  1.
</event>
<event>
 7    1  0.3752192E-015  0.9000707E+02  0.7816164E-02  0.1186340E+00
        -11   -1    0    0    0    0  0.00000000000E+00  0.00000000000E+00  0.45593999997E+02  0.45594000000E+02  0.51100000000E-03 0.  1.
         11   -1    0    0    0    0 -0.00000000000E+00 -0.00000000000E+00 -0.45593999997E+02  0.45594000000E+02  0.51100000000E-03 0. -1.
    9900012    2    1    2    0    0 -0.85374513347E+00 -0.80248746573E+00 -0.14737428617E+00  0.90007074064E+02  0.89999326639E+02 0.  0.
        -12    1    1    2    0    0  0.85374513347E+00  0.80248746573E+00  0.14737428617E+00  0.11809259358E+01  0.00000000000E+00 0.  1.
         11    1    3    3    0    0 -0.14895977721E+02 -0.43012852586E+01 -0.22724425787E+02  0.27509829784E+02  0.51100000000E-03 0. -1.
        -11    1    3    3    0    0 -0.96789839485E+01 -0.21642303953E+02  0.88611128074E+01  0.25309906580E+02  0.51100000000E-03 0.  1.
         12    1    3    3    0    0  0.23721216536E+02  0.25141101746E+02  0.13715938694E+02  0.37187337700E+02  0.00000000000E+00 0. -1.
</event>
<event>
 7    1  0.3752192E-015  0.9000776E+02  0.7816164E-02  0.1186339E+00
        -11   -1    0    0    0    0  0.00000000000E+00  0.00000000000E+00  0.45593999997E+02  0.45594000000E+02  0.51100000000E-03 0.  1.
         11   -1    0    0    0    0 -0.00000000000E+00 -0.00000000000E+00 -0.45593999997E+02  0.45594000000E+02  0.51100000000E-03 0. -1.
    9900012    2    1    2    0    0 -0.11338171189E+01 -0.23477187100E+00 -0.22869319243E+00  0.90007762877E+02  0.90000024547E+02 0.  0.
        -12    1    1    2    0    0  0.11338171189E+01  0.23477187100E+00  0.22869319243E+00  0.11802371231E+01  0.00000000000E+00 0.  1.
         11    1    3    3    0    0 -0.26741768832E+02  0.11040978399E+02  0.19654037060E+02  0.34975799881E+02  0.51100000000E-03 0. -1.
        -11    1    3    3    0    0 -0.89590006780E+01  0.41507601775E+01  0.35734605802E+01  0.10500577316E+02  0.51100000000E-03 0.  1.
        -12    1    3    3    0    0  0.34566952391E+02 -0.15426510448E+02 -0.23456190833E+02  0.44531385680E+02  0.00000000000E+00 0.  1.
</event>
<event>
 7    1  0.3752192E-015  0.9000813E+02  0.7816164E-02  0.1186338E+00
        -11   -1    0    0    0    0  0.00000000000E+00  0.00000000000E+00  0.45593999997E+02  0.45594000000E+02  0.51100000000E-03 0. -1.
         11   -1    0    0    0    0 -0.00000000000E+00 -0.00000000000E+00 -0.45593999997E+02  0.45594000000E+02  0.51100000000E-03 0.  1.
    9900012    2    1    2    0    0  0.17293800385E+00  0.11416888442E+01  0.24235775472E+00  0.90008127867E+02  0.90000394353E+02 0.  0.
        -12    1    1    2    0    0 -0.17293800385E+00 -0.11416888442E+01 -0.24235775472E+00  0.11798721335E+01  0.00000000000E+00 0.  1.
         11    1    3    3    0    0  0.30394235818E+01 -0.22238698633E+02  0.27863551986E+02  0.35779538036E+02  0.51100000000E-03 0. -1.
        -11    1    3    3    0    0  0.23784604204E+01 -0.64798743801E+01  0.58644317684E+01  0.90574503135E+01  0.51100000000E-03 0.  1.
        -12    1    3    3    0    0 -0.52449459983E+01  0.29860261857E+02 -0.33485625999E+02  0.45171139517E+02  0.00000000000E+00 0.  1.
</event>
<event>
 7    1  0.3752192E-015  0.9000773E+02  0.7816164E-02  0.1186339E+00
        -11   -1    0    0    0    0  0.00000000000E+00  0.00000000000E+00  0.45593999997E+02  0.45594000000E+02  0.51100000000E-03 0.  1.
         11   -1    0    0    0    0 -0.00000000000E+00 -0.00000000000E+00 -0.45593999997E+02  0.45594000000E+02  0.51100000000E-03 0. -1.
    9900012    2    1    2    0    0  0.10724592805E+01  0.47574231069E+00  0.12860748509E+00  0.90007729040E+02  0.89999990263E+02 0.  0.
        -12    1    1    2    0    0 -0.10724592805E+01 -0.47574231069E+00 -0.12860748509E+00  0.11802709603E+01  0.00000000000E+00 0.  1.
         11    1    3    3    0    0 -0.85782755404E+01  0.27562592258E+01  0.18579296057E+01  0.91997651518E+01  0.51100000000E-03 0. -1.
        -11    1    3    3    0    0 -0.22678627199E+02  0.15918502832E+02  0.23177028845E+02  0.36123310070E+02  0.51100000000E-03 0.  1.
         12    1    3    3    0    0  0.32329362020E+02 -0.18199019748E+02 -0.24906350966E+02  0.44684653818E+02  0.00000000000E+00 0. -1.
</event>
<event>
 7    1  0.3752192E-015  0.9000787E+02  0.7816164E-02  0.1186339E+00
        -11   -1    0    0    0    0  0.00000000000E+00  0.00000000000E+00  0.45593999997E+02  0.45594000000E+02  0.51100000000E-03 0.  1.
         11   -1    0    0    0    0 -0.00000000000E+00 -0.00000000000E+00 -0.45593999997E+02  0.45594000000E+02  0.51100000000E-03 0. -1.
    9900012    2    1    2    0    0  0.10464150475E+01  0.24153287586E+00  0.48927576359E+00  0.90007867230E+02  0.90000130277E+02 0.  0.
        -12    1    1    2    0    0 -0.10464150475E+01 -0.24153287586E+00 -0.48927576359E+00  0.11801327699E+01  0.00000000000E+00 0.  1.
         11    1    3    3    0    0 -0.83436187139E+01 -0.71910392674E+01 -0.23796632161E+01  0.11268975831E+02  0.51100000000E-03 0. -1.
        -11    1    3    3    0    0  0.37204716432E+02  0.16768759384E+02 -0.16024081833E+02  0.43842370088E+02  0.51100000000E-03 0.  1.
         12    1    3    3    0    0 -0.27814682670E+02 -0.93361872408E+01  0.18893020813E+02  0.34896521312E+02  0.00000000000E+00 0. -1.
</event>
<event>
 7    1  0.3752192E-015  0.9000783E+02  0.7816164E-02  0.1186339E+00
        -11   -1    0    0    0    0  0.00000000000E+00  0.00000000000E+00  0.45593999997E+02  0.45594000000E+02  0.51100000000E-03 0.  1.
         11   -1    0    0    0    0 -0.00000000000E+00 -0.00000000000E+00 -0.45593999997E+02  0.45594000000E+02  0.51100000000E-03 0. -1.
    9900012    2    1    2    0    0  0.64604655960E+00 -0.34116724500E+00 -0.92684338931E+00  0.90007826320E+02  0.90000088828E+02 0.  0.
        -12    1    1    2    0    0 -0.64604655960E+00  0.34116724500E+00  0.92684338931E+00  0.11801736798E+01  0.00000000000E+00 0.  1.
         11    1    3    3    0    0 -0.27692347554E+02  0.19881903076E+02 -0.24247131038E+02  0.41833952082E+02  0.51100000000E-03 0. -1.
        -11    1    3    3    0    0  0.86915391688E+01  0.70282456349E+00 -0.30081354050E+01  0.92241907160E+01  0.51100000000E-03 0.  1.
        -12    1    3    3    0    0  0.19646854945E+02 -0.20925894884E+02  0.26328423054E+02  0.38949683522E+02  0.00000000000E+00 0.  1.
</event>
<event>
 7    1  0.3752192E-015  0.9000776E+02  0.7816164E-02  0.1186339E+00
        -11   -1    0    0    0    0  0.00000000000E+00  0.00000000000E+00  0.45593999997E+02  0.45594000000E+02  0.51100000000E-03 0.  1.
         11   -1    0    0    0    0 -0.00000000000E+00 -0.00000000000E+00 -0.45593999997E+02  0.45594000000E+02  0.51100000000E-03 0. -1.
    9900012    2    1    2    0    0  0.30124977232E+00  0.10483034667E+01 -0.45086164294E+00  0.90007759429E+02  0.90000021054E+02 0.  0.
        -12    1    1    2    0    0 -0.30124977232E+00 -0.10483034667E+01  0.45086164294E+00  0.11802405707E+01  0.00000000000E+00 0.  1.
         11    1    3    3    0    0  0.49327363069E+00  0.11155479481E+02  0.88880745354E+01  0.14271857291E+02  0.51100000000E-03 0. -1.
        -11    1    3    3    0    0  0.10611665696E+01 -0.12306839635E+01  0.32705781069E+02  0.32746126077E+02  0.51100000000E-03 0.  1.
         12    1    3    3    0    0 -0.12531904280E+01 -0.88764920507E+01 -0.42044717247E+02  0.42989776061E+02  0.00000000000E+00 0. -1.
</event>
<event>
 7    1  0.3752192E-015  0.9000780E+02  0.7816164E-02  0.1186339E+00
        -11   -1    0    0    0    0  0.00000000000E+00  0.00000000000E+00  0.45593999997E+02  0.45594000000E+02  0.51100000000E-03 0.  1.
         11   -1    0    0    0    0 -0.00000000000E+00 -0.00000000000E+00 -0.45593999997E+02  0.45594000000E+02  0.51100000000E-03 0. -1.
    9900012    2    1    2    0    0 -0.97006004576E+00  0.16484141526E+00 -0.65168371473E+00  0.90007796268E+02  0.90000058379E+02 0.  0.
        -12    1    1    2    0    0  0.97006004576E+00 -0.16484141526E+00  0.65168371473E+00  0.11802037318E+01  0.00000000000E+00 0.  1.
         11    1    3    3    0    0 -0.30229823177E+02  0.14100237088E+02 -0.22905378856E+01  0.33435093230E+02  0.51100000000E-03 0.  1.
        -11    1    3    3    0    0  0.48466164123E+01 -0.17977161748E+02 -0.17296771131E+02  0.25413506782E+02  0.51100000000E-03 0. -1.
        -12    1    3    3    0    0  0.24413146719E+02  0.40417660750E+01  0.18935625302E+02  0.31159196256E+02  0.00000000000E+00 0.  1.
</event>
<event>
 7    1  0.3752192E-015  0.9000767E+02  0.7816164E-02  0.1186339E+00
        -11   -1    0    0    0    0  0.00000000000E+00  0.00000000000E+00  0.45593999997E+02  0.45594000000E+02  0.51100000000E-03 0. -1.
         11   -1    0    0    0    0 -0.00000000000E+00 -0.00000000000E+00 -0.45593999997E+02  0.45594000000E+02  0.51100000000E-03 0.  1.
    9900012    2    1    2    0    0 -0.38399881477E+00 -0.10513013513E+01 -0.37482254774E+00  0.90007668876E+02  0.89999929305E+02 0.  0.
        -12    1    1    2    0    0  0.38399881477E+00  0.10513013513E+01  0.37482254774E+00  0.11803311244E+01  0.00000000000E+00 0.  1.
         11    1    3    3    0    0 -0.60254173639E+01 -0.57710901710E+01  0.50263661405E+01  0.97404051769E+01  0.51100000000E-03 0. -1.
        -11    1    3    3    0    0 -0.13757464456E+02  0.37415414892E+02 -0.12108181556E+02  0.41662803082E+02  0.51100000000E-03 0.  1.
         12    1    3    3    0    0  0.19398883006E+02 -0.32695626073E+02  0.67069928675E+01  0.38604460616E+02  0.00000000000E+00 0. -1.
</event>
<event>
 7    1  0.3752192E-015  0.9000779E+02  0.7816164E-02  0.1186339E+00
        -11   -1    0    0    0    0  0.00000000000E+00  0.00000000000E+00  0.45593999997E+02  0.45594000000E+02  0.51100000000E-03 0. -1.
         11   -1    0    0    0    0 -0.00000000000E+00 -0.00000000000E+00 -0.45593999997E+02  0.45594000000E+02  0.51100000000E-03 0.  1.
    9900012    2    1    2    0    0 -0.63177469184E+00  0.56918987624E+00  0.81840189182E+00  0.90007788988E+02  0.90000051003E+02 0.  0.
        -12    1    1    2    0    0  0.63177469184E+00 -0.56918987624E+00 -0.81840189182E+00  0.11802110121E+01  0.00000000000E+00 0.  1.
         11    1    3    3    0    0 -0.51707091850E+00 -0.19332269603E+01 -0.10215700656E+02  0.10409864023E+02  0.51100000000E-03 0. -1.
        -11    1    3    3    0    0 -0.24379926684E+02 -0.19555882397E+01 -0.25616170672E+02  0.35417415923E+02  0.51100000000E-03 0.  1.
         12    1    3    3    0    0  0.24265222911E+02  0.44580050763E+01  0.36650273220E+02  0.44180509043E+02  0.00000000000E+00 0. -1.
</event>
<event>
 7    1  0.3752192E-015  0.9000778E+02  0.7816164E-02  0.1186339E+00
        -11   -1    0    0    0    0  0.00000000000E+00  0.00000000000E+00  0.45593999997E+02  0.45594000000E+02  0.51100000000E-03 0. -1.
         11   -1    0    0    0    0 -0.00000000000E+00 -0.00000000000E+00 -0.45593999997E+02  0.45594000000E+02  0.51100000000E-03 0.  1.
    9900012    2    1    2    0    0  0.11228638577E+01 -0.18385844631E+00 -0.31352217953E+00  0.90007778272E+02  0.90000040145E+02 0.  0.
        -12    1    1    2    0    0 -0.11228638577E+01  0.18385844631E+00  0.31352217953E+00  0.11802217284E+01  0.00000000000E+00 0.  1.
         11    1    3    3    0    0  0.42007909558E+01 -0.17447129729E+02  0.33131934602E+02  0.37679889480E+02  0.51100000000E-03 0. -1.
        -11    1    3    3    0    0  0.96734974888E+01  0.54757967445E+01  0.33760084038E+01  0.11617156995E+02  0.51100000000E-03 0.  1.
        -12    1    3    3    0    0 -0.12751424587E+02  0.11787474539E+02 -0.36821465186E+02  0.40710731797E+02  0.00000000000E+00 0.  1.
</event>
<event>
 7    1  0.3752192E-015  0.9000778E+02  0.7816164E-02  0.1186339E+00
        -11   -1    0    0    0    0  0.00000000000E+00  0.00000000000E+00  0.45593999997E+02  0.45594000000E+02  0.51100000000E-03 0.  1.
         11   -1    0    0    0    0 -0.00000000000E+00 -0.00000000000E+00 -0.45593999997E+02  0.45594000000E+02  0.51100000000E-03 0. -1.
    9900012    2    1    2    0    0  0.78452958748E-01 -0.11691071152E+01 -0.14128964232E+00  0.90007775836E+02  0.90000037677E+02 0.  0.
        -12    1    1    2    0    0 -0.78452958748E-01  0.11691071152E+01  0.14128964232E+00  0.11802241637E+01  0.00000000000E+00 0.  1.
         11    1    3    3    0    0  0.31845185618E+01 -0.37164306328E+02 -0.10968445131E+01  0.37316616827E+02  0.51100000000E-03 0. -1.
        -11    1    3    3    0    0  0.41832660996E+01 -0.54830660577E+01 -0.70063830353E+01  0.98312324839E+01  0.51100000000E-03 0.  1.
        -12    1    3    3    0    0 -0.72893317026E+01  0.41478265270E+02  0.79619379061E+01  0.42859926525E+02  0.00000000000E+00 0.  1.
</event>
<event>
 7    1  0.3752192E-015  0.9000774E+02  0.7816164E-02  0.1186339E+00
        -11   -1    0    0    0    0  0.00000000000E+00  0.00000000000E+00  0.45593999997E+02  0.45594000000E+02  0.51100000000E-03 0. -1.
         11   -1    0    0    0    0 -0.00000000000E+00 -0.00000000000E+00 -0.45593999997E+02  0.45594000000E+02  0.51100000000E-03 0.  1.
    9900012    2    1    2    0    0  0.74483475269E+00  0.82470422082E+00  0.39762477965E+00  0.90007736756E+02  0.89999998081E+02 0.  0.
        -12    1    1    2    0    0 -0.74483475269E+00 -0.82470422082E+00 -0.39762477965E+00  0.11802632444E+01  0.00000000000E+00 0.  1.
         11    1    3    3    0    0 -0.87940471682E+01  0.49847463770E+00  0.24912189688E+01  0.91536831260E+01  0.51100000000E-03 0. -1.
        -11    1    3    3    0    0  0.15859146609E+02 -0.37158201234E+02  0.87220812715E+01  0.41331817672E+02  0.51100000000E-03 0.  1.
         12    1    3    3    0    0 -0.63202646882E+01  0.37484430817E+02 -0.10815675461E+02  0.39522235957E+02  0.00000000000E+00 0. -1.
</event>
<event>
 7    1  0.3752192E-015  0.9000786E+02  0.7816164E-02  0.1186339E+00
        -11   -1    0    0    0    0  0.00000000000E+00  0.00000000000E+00  0.45593999997E+02  0.45594000000E+02  0.51100000000E-03 0.  1.
         11   -1    0    0    0    0 -0.00000000000E+00 -0.00000000000E+00 -0.45593999997E+02  0.45594000000E+02  0.51100000000E-03 0. -1.
    9900012    2    1    2    0    0 -0.13529020930E+00  0.10810130336E+01  0.45369915489E+00  0.90007857829E+02  0.90000120753E+02 0.  0.
        -12    1    1    2    0    0  0.13529020930E+00 -0.10810130336E+01 -0.45369915489E+00  0.11801421706E+01  0.00000000000E+00 0.  1.
         11    1    3    3    0    0 -0.25010715011E+02  0.91441928680E+01  0.11038574687E+02  0.28827109809E+02  0.51100000000E-03 0. -1.
        -11    1    3    3    0    0 -0.14706223846E+02 -0.80197403244E+01  0.66331242233E+01  0.18016314604E+02  0.51100000000E-03 0.  1.
        -12    1    3    3    0    0  0.39581648647E+02 -0.43439509926E-01 -0.17217999755E+02  0.43164433417E+02  0.00000000000E+00 0.  1.
</event>
<event>
 7    1  0.3752192E-015  0.9000766E+02  0.7816164E-02  0.1186339E+00
        -11   -1    0    0    0    0  0.00000000000E+00  0.00000000000E+00  0.45593999997E+02  0.45594000000E+02  0.51100000000E-03 0.  1.
         11   -1    0    0    0    0 -0.00000000000E+00 -0.00000000000E+00 -0.45593999997E+02  0.45594000000E+02  0.51100000000E-03 0. -1.
    9900012    2    1    2    0    0 -0.28806273137E+00  0.95861400483E+00 -0.62552476104E+00  0.90007660145E+02  0.89999920459E+02 0.  0.
        -12    1    1    2    0    0  0.28806273137E+00 -0.95861400483E+00  0.62552476104E+00  0.11803398554E+01  0.00000000000E+00 0.  1.
         11    1    3    3    0    0 -0.29075735966E+01 -0.35818165952E+01  0.40245063817E+01  0.61220949207E+01  0.51100000000E-03 0. -1.
        -11    1    3    3    0    0 -0.38212512915E+02 -0.11094576873E+02 -0.54051661358E+01  0.40155965939E+02  0.51100000000E-03 0.  1.
         12    1    3    3    0    0  0.40832023781E+02  0.15635007473E+02  0.75513499310E+00  0.43729599284E+02  0.00000000000E+00 0. -1.
</event>
<event>
 7    1  0.3752192E-015  0.9000780E+02  0.7816164E-02  0.1186339E+00
        -11   -1    0    0    0    0  0.00000000000E+00  0.00000000000E+00  0.45593999997E+02  0.45594000000E+02  0.51100000000E-03 0.  1.
         11   -1    0    0    0    0 -0.00000000000E+00 -0.00000000000E+00 -0.45593999997E+02  0.45594000000E+02  0.51100000000E-03 0. -1.
    9900012    2    1    2    0    0 -0.58101688917E+00 -0.89749354896E+00 -0.49979092731E+00  0.90007802446E+02  0.90000064638E+02 0.  0.
        -12    1    1    2    0    0  0.58101688917E+00  0.89749354896E+00  0.49979092731E+00  0.11801975542E+01  0.00000000000E+00 0.  1.
         11    1    3    3    0    0  0.10372371032E+02 -0.95924899377E+00 -0.73589580766E+00  0.10442594618E+02  0.51100000000E-03 0. -1.
        -11    1    3    3    0    0  0.27444106217E+01  0.36087451768E+02 -0.13530859256E+02  0.38638324462E+02  0.51100000000E-03 0.  1.
         12    1    3    3    0    0 -0.13697798543E+02 -0.36025696323E+02  0.13766964136E+02  0.40926883366E+02  0.00000000000E+00 0. -1.
</event>
<event>
 7    1  0.3752192E-015  0.9000773E+02  0.7816164E-02  0.1186339E+00
        -11   -1    0    0    0    0  0.00000000000E+00  0.00000000000E+00  0.45593999997E+02  0.45594000000E+02  0.51100000000E-03 0.  1.
         11   -1    0    0    0    0 -0.00000000000E+00 -0.00000000000E+00 -0.45593999997E+02  0.45594000000E+02  0.51100000000E-03 0. -1.
    9900012    2    1    2    0    0 -0.55400146483E+00 -0.14370054818E+00 -0.10322125334E+01  0.90007733003E+02  0.89999994278E+02 0.  0.
        -12    1    1    2    0    0  0.55400146483E+00  0.14370054818E+00  0.10322125334E+01  0.11802669972E+01  0.00000000000E+00 0.  1.
         11    1    3    3    0    0 -0.84545968175E+01 -0.34034686837E+02 -0.19469535255E+02  0.40111132105E+02  0.51100000000E-03 0. -1.
        -11    1    3    3    0    0 -0.90398977650E+01  0.40260712545E+01 -0.17752648900E+01  0.10053883182E+02  0.51100000000E-03 0.  1.
        -12    1    3    3    0    0  0.16940493118E+02  0.29864915034E+02  0.20212587611E+02  0.39842717716E+02  0.00000000000E+00 0.  1.
</event>
<event>
 7    1  0.3752192E-015  0.9000803E+02  0.7816164E-02  0.1186338E+00
        -11   -1    0    0    0    0  0.00000000000E+00  0.00000000000E+00  0.45593999997E+02  0.45594000000E+02  0.51100000000E-03 0. -1.
         11   -1    0    0    0    0 -0.00000000000E+00 -0.00000000000E+00 -0.45593999997E+02  0.45594000000E+02  0.51100000000E-03 0.  1.
    9900012    2    1    2    0    0 -0.11721545834E+01 -0.13082632900E+00  0.35479058482E-01  0.90008033619E+02  0.90000298863E+02 0.  0.
        -12    1    1    2    0    0  0.11721545834E+01  0.13082632900E+00 -0.35479058482E-01  0.11799663806E+01  0.00000000000E+00 0.  1.
         11    1    3    3    0    0 -0.60053302291E+01 -0.24615870978E+01  0.77500063145E+01  0.10108709133E+02  0.51100000000E-03 0. -1.
        -11    1    3    3    0    0 -0.25345598162E+02  0.10292339555E+02 -0.30713378362E+02  0.41129590447E+02  0.51100000000E-03 0.  1.
         12    1    3    3    0    0  0.30178773807E+02 -0.79615787858E+01  0.22998851106E+02  0.38769734039E+02  0.00000000000E+00 0. -1.
</event>
<event>
 7    1  0.3752192E-015  0.9000772E+02  0.7816164E-02  0.1186339E+00
        -11   -1    0    0    0    0  0.00000000000E+00  0.00000000000E+00  0.45593999997E+02  0.45594000000E+02  0.51100000000E-03 0.  1.
         11   -1    0    0    0    0 -0.00000000000E+00 -0.00000000000E+00 -0.45593999997E+02  0.45594000000E+02  0.51100000000E-03 0. -1.
    9900012    2    1    2    0    0  0.86925451421E+00  0.29809218539E-01 -0.79785548390E+00  0.90007718096E+02  0.89999979175E+02 0.  0.
        -12    1    1    2    0    0 -0.86925451421E+00 -0.29809218539E-01  0.79785548390E+00  0.11802819041E+01  0.00000000000E+00 0.  1.
         11    1    3    3    0    0 -0.17870625395E+02 -0.23577562578E+02 -0.33615498259E+02  0.44780156683E+02  0.51100000000E-03 0. -1.
        -11    1    3    3    0    0  0.37935367615E+01  0.72531941647E+01  0.47299796419E+01  0.94537005678E+01  0.51100000000E-03 0.  1.
        -12    1    3    3    0    0  0.14946343147E+02  0.16354177632E+02  0.28087663133E+02  0.35773860845E+02  0.00000000000E+00 0.  1.
</event>
<event>
 7    1  0.3752192E-015  0.9000801E+02  0.7816164E-02  0.1186339E+00
        -11   -1    0    0    0    0  0.00000000000E+00  0.00000000000E+00  0.45593999997E+02  0.45594000000E+02  0.51100000000E-03 0. -1.
         11   -1    0    0    0    0 -0.00000000000E+00 -0.00000000000E+00 -0.45593999997E+02  0.45594000000E+02  0.51100000000E-03 0.  1.
    9900012    2    1    2    0    0 -0.55121030606E+00 -0.25095339445E+00  0.10127080448E+01  0.90008005088E+02  0.90000269955E+02 0.  0.
        -12    1    1    2    0    0  0.55121030606E+00  0.25095339445E+00 -0.10127080448E+01  0.11799949117E+01  0.00000000000E+00 0.  1.
         11    1    3    3    0    0  0.77931183827E+01  0.14887070081E+01  0.58146472113E+01  0.98366185824E+01  0.51100000000E-03 0. -1.
        -11    1    3    3    0    0 -0.38466740414E+02  0.10242185688E+02  0.14589579546E+02  0.42396324337E+02  0.51100000000E-03 0.  1.
         12    1    3    3    0    0  0.30122411725E+02 -0.11981846090E+02 -0.19391518713E+02  0.37775062169E+02  0.00000000000E+00 0. -1.
</event>
<event>
 7    1  0.3752192E-015  0.9000787E+02  0.7816164E-02  0.1186339E+00
        -11   -1    0    0    0    0  0.00000000000E+00  0.00000000000E+00  0.45593999997E+02  0.45594000000E+02  0.51100000000E-03 0. -1.
         11   -1    0    0    0    0 -0.00000000000E+00 -0.00000000000E+00 -0.45593999997E+02  0.45594000000E+02  0.51100000000E-03 0.  1.
    9900012    2    1    2    0    0 -0.11549124034E+01 -0.70866810391E-01  0.23210513978E+00  0.90007865448E+02  0.90000128472E+02 0.  0.
        -12    1    1    2    0    0  0.11549124034E+01  0.70866810391E-01 -0.23210513978E+00  0.11801345517E+01  0.00000000000E+00 0.  1.
         11    1    3    3    0    0  0.26201751473E+02 -0.29359745482E+02 -0.16192827020E+02  0.42552721208E+02  0.51100000000E-03 0. -1.
        -11    1    3    3    0    0 -0.32977612533E+00  0.44663608667E+01 -0.35133626584E+01  0.56921743750E+01  0.51100000000E-03 0.  1.
        -12    1    3    3    0    0 -0.27026887751E+02  0.24822517805E+02  0.19938294818E+02  0.41762969865E+02  0.00000000000E+00 0.  1.
</event>
<event>
 7    1  0.3752192E-015  0.9000768E+02  0.7816164E-02  0.1186339E+00
        -11   -1    0    0    0    0  0.00000000000E+00  0.00000000000E+00  0.45593999997E+02  0.45594000000E+02  0.51100000000E-03 0.  1.
         11   -1    0    0    0    0 -0.00000000000E+00 -0.00000000000E+00 -0.45593999997E+02  0.45594000000E+02  0.51100000000E-03 0. -1.
    9900012    2    1    2    0    0 -0.39197797801E+00 -0.37946262915E+00 -0.10466737843E+01  0.90007676047E+02  0.89999936571E+02 0.  0.
        -12    1    1    2    0    0  0.39197797801E+00  0.37946262915E+00  0.10466737843E+01  0.11803239525E+01  0.00000000000E+00 0.  1.
         11    1    3    3    0    0  0.90633189253E+01 -0.47963840790E+01 -0.20682123521E+01  0.10460714735E+02  0.51100000000E-03 0. -1.
        -11    1    3    3    0    0 -0.28278714610E+02 -0.29427410602E+02  0.30643902270E+00  0.40813626399E+02  0.51100000000E-03 0.  1.
         12    1    3    3    0    0  0.18823417706E+02  0.33844332052E+02  0.71509954516E+00  0.38733334913E+02  0.00000000000E+00 0. -1.
</event>
<event>
 7    1  0.3752192E-015  0.9000774E+02  0.7816164E-02  0.1186339E+00
        -11   -1    0    0    0    0  0.00000000000E+00  0.00000000000E+00  0.45593999997E+02  0.45594000000E+02  0.51100000000E-03 0. -1.
         11   -1    0    0    0    0 -0.00000000000E+00 -0.00000000000E+00 -0.45593999997E+02  0.45594000000E+02  0.51100000000E-03 0.  1.
    9900012    2    1    2    0    0 -0.69914360504E+00 -0.67935950200E+00  0.66533938980E+00  0.90007742563E+02  0.90000003965E+02 0.  0.
        -12    1    1    2    0    0  0.69914360504E+00  0.67935950200E+00 -0.66533938980E+00  0.11802574368E+01  0.00000000000E+00 0.  1.
         11    1    3    3    0    0 -0.45517135051E+01  0.91286722495E+01  0.29831867363E+01  0.10627801101E+02  0.51100000000E-03 0. -1.
        -11    1    3    3    0    0  0.54477631900E+01  0.29470477673E+02 -0.20252539554E+02  0.36171156143E+02  0.51100000000E-03 0.  1.
         12    1    3    3    0    0 -0.15951932899E+01 -0.39278509424E+02  0.17934692208E+02  0.43208785320E+02  0.00000000000E+00 0. -1.
</event>
<event>
 7    1  0.3878380E-015  0.9000771E+02  0.7816164E-02  0.1186339E+00
        -11   -1    0    0    0    0  0.00000000000E+00  0.00000000000E+00  0.45593999997E+02  0.45594000000E+02  0.51100000000E-03 0. -1.
         11   -1    0    0    0    0 -0.00000000000E+00 -0.00000000000E+00 -0.45593999997E+02  0.45594000000E+02  0.51100000000E-03 0.  1.
    9900012    2    1    2    0    0  0.40973366347E+00  0.42077051057E+00  0.10237967476E+01  0.90007707969E+02  0.89999968914E+02 0.  0.
        -12    1    1    2    0    0 -0.40973366347E+00 -0.42077051057E+00 -0.10237967476E+01  0.11802920308E+01  0.00000000000E+00 0.  1.
         11    1    3    3    0    0  0.34599797114E+02 -0.10056106715E+02  0.19386584693E+02  0.40915900442E+02  0.51100000000E-03 0. -1.
        -11    1    3    3    0    0  0.11444126408E+01  0.98616825802E+01 -0.19105862978E+01  0.10110034810E+02  0.51100000000E-03 0.  1.
        -12    1    3    3    0    0 -0.35334476092E+02  0.61519464556E+00 -0.16452201648E+02  0.38981772717E+02  0.00000000000E+00 0.  1.
</event>
<event>
 7    1  0.3752192E-015  0.9000769E+02  0.7816164E-02  0.1186339E+00
        -11   -1    0    0    0    0  0.00000000000E+00  0.00000000000E+00  0.45593999997E+02  0.45594000000E+02  0.51100000000E-03 0.  1.
         11   -1    0    0    0    0 -0.00000000000E+00 -0.00000000000E+00 -0.45593999997E+02  0.45594000000E+02  0.51100000000E-03 0. -1.
    9900012    2    1    2    0    0  0.72497236505E+00 -0.52774883939E+00 -0.76747739333E+00  0.90007692702E+02  0.89999953446E+02 0.  0.
        -12    1    1    2    0    0 -0.72497236505E+00  0.52774883939E+00  0.76747739333E+00  0.11803072976E+01  0.00000000000E+00 0.  1.
         11    1    3    3    0    0 -0.53161161245E+01 -0.33979412313E+02 -0.82966910828E+01  0.35379324965E+02  0.51100000000E-03 0. -1.
        -11    1    3    3    0    0 -0.24766597018E+01 -0.84655770204E+01 -0.48936274214E+01  0.10086992970E+02  0.51100000000E-03 0.  1.
        -12    1    3    3    0    0  0.85177481914E+01  0.41917240494E+02  0.12422841111E+02  0.44541374768E+02  0.00000000000E+00 0.  1.
</event>
<event>
 7    1  0.3752192E-015  0.9000762E+02  0.7816164E-02  0.1186339E+00
        -11   -1    0    0    0    0  0.00000000000E+00  0.00000000000E+00  0.45593999997E+02  0.45594000000E+02  0.51100000000E-03 0. -1.
         11   -1    0    0    0    0 -0.00000000000E+00 -0.00000000000E+00 -0.45593999997E+02  0.45594000000E+02  0.51100000000E-03 0.  1.
    9900012    2    1    2    0    0  0.66767775359E+00 -0.83806705849E+00  0.49511247399E+00  0.90007624492E+02  0.89999884336E+02 0.  0.
        -12    1    1    2    0    0 -0.66767775359E+00  0.83806705849E+00 -0.49511247399E+00  0.11803755077E+01  0.00000000000E+00 0.  1.
         11    1    3    3    0    0 -0.28436936934E+00  0.94711178118E+01  0.30291216908E+01  0.99477895546E+01  0.51100000000E-03 0. -1.
        -11    1    3    3    0    0 -0.16515014436E+02  0.28769139120E+02  0.11349470855E+02  0.35060227559E+02  0.51100000000E-03 0.  1.
         12    1    3    3    0    0  0.17467061559E+02 -0.39078323990E+02 -0.13883480072E+02  0.44999607379E+02  0.00000000000E+00 0. -1.
</event>
<event>
 7    1  0.3752192E-015  0.9000773E+02  0.7816164E-02  0.1186339E+00
        -11   -1    0    0    0    0  0.00000000000E+00  0.00000000000E+00  0.45593999997E+02  0.45594000000E+02  0.51100000000E-03 0.  1.
         11   -1    0    0    0    0 -0.00000000000E+00 -0.00000000000E+00 -0.45593999997E+02  0.45594000000E+02  0.51100000000E-03 0. -1.
    9900012    2    1    2    0    0  0.67628495659E+00 -0.83960824061E+00 -0.48034085239E+00  0.90007732795E+02  0.89999994068E+02 0.  0.
        -12    1    1    2    0    0 -0.67628495659E+00  0.83960824061E+00  0.48034085239E+00  0.11802672048E+01  0.00000000000E+00 0.  1.
         11    1    3    3    0    0 -0.22791577518E+02  0.23193976316E+02 -0.33705445852E+01  0.32692156769E+02  0.51100000000E-03 0. -1.
        -11    1    3    3    0    0 -0.47172035678E+01  0.94629545271E+01  0.79756936508E+01  0.13244289613E+02  0.51100000000E-03 0.  1.
        -12    1    3    3    0    0  0.28185066043E+02 -0.33496539084E+02 -0.50854899180E+01  0.44071286413E+02  0.00000000000E+00 0.  1.
</event>
<event>
 7    1  0.3752192E-015  0.9000766E+02  0.7816164E-02  0.1186339E+00
        -11   -1    0    0    0    0  0.00000000000E+00  0.00000000000E+00  0.45593999997E+02  0.45594000000E+02  0.51100000000E-03 0.  1.
         11   -1    0    0    0    0 -0.00000000000E+00 -0.00000000000E+00 -0.45593999997E+02  0.45594000000E+02  0.51100000000E-03 0. -1.
    9900012    2    1    2    0    0  0.64842533390E+00  0.85617728803E+00  0.48960810296E+00  0.90007656382E+02  0.89999916646E+02 0.  0.
        -12    1    1    2    0    0 -0.64842533390E+00 -0.85617728803E+00 -0.48960810296E+00  0.11803436180E+01  0.00000000000E+00 0.  1.
         11    1    3    3    0    0  0.97253359499E+00  0.10009654301E+02  0.19697087707E+01  0.10247865813E+02  0.51100000000E-03 0. -1.
        -11    1    3    3    0    0 -0.28915019429E+02  0.22833655824E+02 -0.68128724949E+00  0.36849943547E+02  0.51100000000E-03 0.  1.
         12    1    3    3    0    0  0.28590911168E+02 -0.31987132837E+02 -0.79881341828E+00  0.42909847022E+02  0.00000000000E+00 0. -1.
</event>
<event>
 7    1  0.3752192E-015  0.9000812E+02  0.7816164E-02  0.1186338E+00
        -11   -1    0    0    0    0  0.00000000000E+00  0.00000000000E+00  0.45593999997E+02  0.45594000000E+02  0.51100000000E-03 0.  1.
         11   -1    0    0    0    0 -0.00000000000E+00 -0.00000000000E+00 -0.45593999997E+02  0.45594000000E+02  0.51100000000E-03 0. -1.
    9900012    2    1    2    0    0 -0.19728206818E+00  0.10657025825E+01 -0.46634674511E+00  0.90008118016E+02  0.90000384373E+02 0.  0.
        -12    1    1    2    0    0  0.19728206818E+00 -0.10657025825E+01  0.46634674511E+00  0.11798819837E+01  0.00000000000E+00 0.  1.
         11    1    3    3    0    0 -0.86599229320E+01 -0.36114904847E+01  0.21253099660E+01  0.96205026595E+01  0.51100000000E-03 0. -1.
        -11    1    3    3    0    0  0.24074183698E+02 -0.20397351231E+02  0.24777777251E+02  0.40119278455E+02  0.51100000000E-03 0.  1.
         12    1    3    3    0    0 -0.15611542834E+02  0.25074544299E+02 -0.27369433962E+02  0.40268336902E+02  0.00000000000E+00 0. -1.
</event>
<event>
 7    1  0.3752192E-015  0.9000769E+02  0.7816164E-02  0.1186339E+00
        -11   -1    0    0    0    0  0.00000000000E+00  0.00000000000E+00  0.45593999997E+02  0.45594000000E+02  0.51100000000E-03 0. -1.
         11   -1    0    0    0    0 -0.00000000000E+00 -0.00000000000E+00 -0.45593999997E+02  0.45594000000E+02  0.51100000000E-03 0.  1.
    9900012    2    1    2    0    0 -0.50135458201E+00  0.67419287189E+00  0.82899870453E+00  0.90007690169E+02  0.89999950879E+02 0.  0.
        -12    1    1    2    0    0  0.50135458201E+00 -0.67419287189E+00 -0.82899870453E+00  0.11803098312E+01  0.00000000000E+00 0.  1.
         11    1    3    3    0    0 -0.29235987769E+01  0.93450120649E+01 -0.65612689254E+01  0.11786726877E+02  0.51100000000E-03 0. -1.
        -11    1    3    3    0    0 -0.18843343032E+02 -0.11394755704E+02 -0.28741343024E+02  0.36207414065E+02  0.51100000000E-03 0.  1.
         12    1    3    3    0    0  0.21265587227E+02  0.27239365114E+01  0.36131610653E+02  0.42013549227E+02  0.00000000000E+00 0. -1.
</event>
<event>
 7    1  0.3752192E-015  0.9000767E+02  0.7816164E-02  0.1186339E+00
        -11   -1    0    0    0    0  0.00000000000E+00  0.00000000000E+00  0.45593999997E+02  0.45594000000E+02  0.51100000000E-03 0. -1.
         11   -1    0    0    0    0 -0.00000000000E+00 -0.00000000000E+00 -0.45593999997E+02  0.45594000000E+02  0.51100000000E-03 0.  1.
    9900012    2    1    2    0    0 -0.55300016701E+00 -0.98115622145E+00  0.35312724716E+00  0.90007671415E+02  0.89999931878E+02 0.  0.
        -12    1    1    2    0    0  0.55300016701E+00  0.98115622145E+00 -0.35312724716E+00  0.11803285849E+01  0.00000000000E+00 0.  1.
         11    1    3    3    0    0  0.25097507878E+01  0.82526141224E+01 -0.38687229914E+01  0.94536504439E+01  0.51100000000E-03 0. -1.
        -11    1    3    3    0    0 -0.17848911986E+02 -0.36492637791E+02 -0.15858513686E+02  0.43609502733E+02  0.51100000000E-03 0.  1.
         12    1    3    3    0    0  0.14786161031E+02  0.27258867447E+02  0.20080363924E+02  0.36944518238E+02  0.00000000000E+00 0. -1.
</event>
<event>
 7    1  0.3752192E-015  0.9000777E+02  0.7816164E-02  0.1186339E+00
        -11   -1    0    0    0    0  0.00000000000E+00  0.00000000000E+00  0.45593999997E+02  0.45594000000E+02  0.51100000000E-03 0. -1.
         11   -1    0    0    0    0 -0.00000000000E+00 -0.00000000000E+00 -0.45593999997E+02  0.45594000000E+02  0.51100000000E-03 0.  1.
    9900012    2    1    2    0    0 -0.51122216225E+00  0.37561000682E+00  0.99524291627E+00  0.90007771446E+02  0.90000033229E+02 0.  0.
        -12    1    1    2    0    0  0.51122216225E+00 -0.37561000682E+00 -0.99524291627E+00  0.11802285536E+01  0.00000000000E+00 0.  1.
         11    1    3    3    0    0 -0.74749624277E+01  0.37692802127E+01 -0.37005155944E+01  0.91529422889E+01  0.51100000000E-03 0. -1.
        -11    1    3    3    0    0  0.72706347653E+01  0.34987013990E+02 -0.13727277318E+02  0.38280431302E+02  0.51100000000E-03 0.  1.
         12    1    3    3    0    0 -0.30689449981E+00 -0.38380684196E+02  0.18423035829E+02  0.42574397855E+02  0.00000000000E+00 0. -1.
</event>
<event>
 7    1  0.3752192E-015  0.9000781E+02  0.7816164E-02  0.1186339E+00
        -11   -1    0    0    0    0  0.00000000000E+00  0.00000000000E+00  0.45593999997E+02  0.45594000000E+02  0.51100000000E-03 0.  1.
         11   -1    0    0    0    0 -0.00000000000E+00 -0.00000000000E+00 -0.45593999997E+02  0.45594000000E+02  0.51100000000E-03 0. -1.
    9900012    2    1    2    0    0 -0.85284979691E+00 -0.66845330089E+00  0.46761209161E+00  0.90007812024E+02  0.90000074342E+02 0.  0.
        -12    1    1    2    0    0  0.85284979691E+00  0.66845330089E+00 -0.46761209161E+00  0.11801879765E+01  0.00000000000E+00 0.  1.
         11    1    3    3    0    0  0.20546597407E+02  0.68228330697E+01  0.16627153880E+02  0.27297911321E+02  0.51100000000E-03 0. -1.
        -11    1    3    3    0    0 -0.14201264762E+02 -0.38450604159E+01  0.20466301634E+02  0.25205751591E+02  0.51100000000E-03 0.  1.
         12    1    3    3    0    0 -0.71981824421E+01 -0.36462259547E+01 -0.36625843422E+02  0.37504149111E+02  0.00000000000E+00 0. -1.
</event>
<event>
 7    1  0.3752192E-015  0.9000771E+02  0.7816164E-02  0.1186339E+00
        -11   -1    0    0    0    0  0.00000000000E+00  0.00000000000E+00  0.45593999997E+02  0.45594000000E+02  0.51100000000E-03 0. -1.
         11   -1    0    0    0    0 -0.00000000000E+00 -0.00000000000E+00 -0.45593999997E+02  0.45594000000E+02  0.51100000000E-03 0.  1.
    9900012    2    1    2    0    0 -0.10617368708E+01  0.51149021410E+00  0.64610058258E-01  0.90007711102E+02  0.89999972089E+02 0.  0.
        -12    1    1    2    0    0  0.10617368708E+01 -0.51149021410E+00 -0.64610058258E-01  0.11802888975E+01  0.00000000000E+00 0.  1.
         11    1    3    3    0    0  0.62844854619E+01 -0.10749397460E+02  0.33535937031E+02  0.35772941954E+02  0.51100000000E-03 0. -1.
        -11    1    3    3    0    0  0.90028370094E+01 -0.67716702765E+01  0.17712269840E+01  0.11403676505E+02  0.51100000000E-03 0.  1.
        -12    1    3    3    0    0 -0.16349059342E+02  0.18032557950E+02 -0.35242553956E+02  0.42831092643E+02  0.00000000000E+00 0.  1.
</event>
<event>
 7    1  0.3752192E-015  0.9000771E+02  0.7816164E-02  0.1186339E+00
        -11   -1    0    0    0    0  0.00000000000E+00  0.00000000000E+00  0.45593999997E+02  0.45594000000E+02  0.51100000000E-03 0.  1.
         11   -1    0    0    0    0 -0.00000000000E+00 -0.00000000000E+00 -0.45593999997E+02  0.45594000000E+02  0.51100000000E-03 0. -1.
    9900012    2    1    2    0    0 -0.47836960467E+00 -0.42466540283E+00 -0.99191909122E+00  0.90007711194E+02  0.89999972181E+02 0.  0.
        -12    1    1    2    0    0  0.47836960467E+00  0.42466540283E+00  0.99191909122E+00  0.11802888064E+01  0.00000000000E+00 0.  1.
         11    1    3    3    0    0 -0.24896554500E+01 -0.74662685507E+01  0.41338144924E+01  0.88899928487E+01  0.51100000000E-03 0. -1.
        -11    1    3    3    0    0 -0.36863953394E+01 -0.19287731931E+02  0.30609064428E+02  0.36366480982E+02  0.51100000000E-03 0.  1.
         12    1    3    3    0    0  0.56976811847E+01  0.26329335078E+02 -0.35734798012E+02  0.44751237363E+02  0.00000000000E+00 0. -1.
</event>
<event>
 7    1  0.3752192E-015  0.9000775E+02  0.7816164E-02  0.1186339E+00
        -11   -1    0    0    0    0  0.00000000000E+00  0.00000000000E+00  0.45593999997E+02  0.45594000000E+02  0.51100000000E-03 0.  1.
         11   -1    0    0    0    0 -0.00000000000E+00 -0.00000000000E+00 -0.45593999997E+02  0.45594000000E+02  0.51100000000E-03 0. -1.
    9900012    2    1    2    0    0  0.71221740352E+00  0.98681934049E-01 -0.93595226244E+00  0.90007746471E+02  0.90000007925E+02 0.  0.
        -12    1    1    2    0    0 -0.71221740352E+00 -0.98681934049E-01  0.93595226244E+00  0.11802535285E+01  0.00000000000E+00 0.  1.
         11    1    3    3    0    0 -0.70677197515E+01  0.34277460103E+02 -0.52911102530E+01  0.35396225527E+02  0.51100000000E-03 0. -1.
        -11    1    3    3    0    0  0.12357887968E+01  0.89799044370E+01 -0.44223296545E+01  0.10085775006E+02  0.51100000000E-03 0.  1.
        -12    1    3    3    0    0  0.65441483582E+01 -0.43158682606E+02  0.87774876450E+01  0.44525745938E+02  0.00000000000E+00 0.  1.
</event>
<event>
 7    1  0.3752192E-015  0.9000764E+02  0.7816164E-02  0.1186339E+00
        -11   -1    0    0    0    0  0.00000000000E+00  0.00000000000E+00  0.45593999997E+02  0.45594000000E+02  0.51100000000E-03 0.  1.
         11   -1    0    0    0    0 -0.00000000000E+00 -0.00000000000E+00 -0.45593999997E+02  0.45594000000E+02  0.51100000000E-03 0. -1.
    9900012    2    1    2    0    0 -0.45777947200E+00 -0.10803758480E+01 -0.12831668220E+00  0.90007644465E+02  0.89999904572E+02 0.  0.
        -12    1    1    2    0    0  0.45777947200E+00  0.10803758480E+01  0.12831668220E+00  0.11803555349E+01  0.00000000000E+00 0.  1.
         11    1    3    3    0    0  0.46771162341E+01  0.86652331609E+01  0.31754353266E+01  0.10346258830E+02  0.51100000000E-03 0. -1.
        -11    1    3    3    0    0  0.84731798579E+01  0.23126080773E+02  0.24324560847E+02  0.34616392785E+02  0.51100000000E-03 0.  1.
         12    1    3    3    0    0 -0.13608075564E+02 -0.32871689781E+02 -0.27628312856E+02  0.45044992850E+02  0.00000000000E+00 0. -1.
</event>
<event>
 7    1  0.4007085E-015  0.9000775E+02  0.7816164E-02  0.1186339E+00
        -11   -1    0    0    0    0  0.00000000000E+00  0.00000000000E+00  0.45593999997E+02  0.45594000000E+02  0.51100000000E-03 0.  1.
         11   -1    0    0    0    0 -0.00000000000E+00 -0.00000000000E+00 -0.45593999997E+02  0.45594000000E+02  0.51100000000E-03 0. -1.
    9900012    2    1    2    0    0 -0.60411713083E+00 -0.82046147765E+00 -0.59572322658E+00  0.90007745491E+02  0.90000006931E+02 0.  0.
        -12    1    1    2    0    0  0.60411713083E+00  0.82046147765E+00  0.59572322658E+00  0.11802545093E+01  0.00000000000E+00 0.  1.
         11    1    3    3    0    0 -0.27673966261E+02 -0.53764175894E+01 -0.27957419184E+02  0.39703545968E+02  0.51100000000E-03 0. -1.
        -11    1    3    3    0    0  0.10654323300E+01  0.81308336606E+01 -0.42328484743E+01  0.92283589296E+01  0.51100000000E-03 0.  1.
        -12    1    3    3    0    0  0.26004416800E+02 -0.35748775489E+01  0.31594544432E+02  0.41075840593E+02  0.00000000000E+00 0.  1.
</event>
<event>
 7    1  0.3752192E-015  0.9000773E+02  0.7816164E-02  0.1186339E+00
        -11   -1    0    0    0    0  0.00000000000E+00  0.00000000000E+00  0.45593999997E+02  0.45594000000E+02  0.51100000000E-03 0.  1.
         11   -1    0    0    0    0 -0.00000000000E+00 -0.00000000000E+00 -0.45593999997E+02  0.45594000000E+02  0.51100000000E-03 0. -1.
    9900012    2    1    2    0    0 -0.49905379018E+00  0.10695548223E+01 -0.58095233981E-02  0.90007730559E+02  0.89999991802E+02 0.  0.
        -12    1    1    2    0    0  0.49905379018E+00 -0.10695548223E+01  0.58095233981E-02  0.11802694412E+01  0.00000000000E+00 0.  1.
         11    1    3    3    0    0  0.18032199067E+02 -0.22267608937E+02 -0.22880301934E+02  0.36667626427E+02  0.51100000000E-03 0. -1.
        -11    1    3    3    0    0  0.48420673339E+01 -0.15767259683E+01 -0.65199702102E+01  0.82729494528E+01  0.51100000000E-03 0.  1.
        -12    1    3    3    0    0 -0.23373320191E+02  0.24913889727E+02  0.29394462621E+02  0.45067154679E+02  0.00000000000E+00 0.  1.
</event>
<event>
 7    1  0.3752192E-015  0.9000775E+02  0.7816164E-02  0.1186339E+00
        -11   -1    0    0    0    0  0.00000000000E+00  0.00000000000E+00  0.45593999997E+02  0.45594000000E+02  0.51100000000E-03 0. -1.
         11   -1    0    0    0    0 -0.00000000000E+00 -0.00000000000E+00 -0.45593999997E+02  0.45594000000E+02  0.51100000000E-03 0.  1.
    9900012    2    1    2    0    0 -0.83223152086E+00  0.81122225977E+00 -0.20566453659E+00  0.90007750552E+02  0.90000012059E+02 0.  0.
        -12    1    1    2    0    0  0.83223152086E+00 -0.81122225977E+00  0.20566453659E+00  0.11802494485E+01  0.00000000000E+00 0.  1.
         11    1    3    3    0    0 -0.42090644152E+01  0.25997082210E+01  0.59523201906E+01  0.77398205405E+01  0.51100000000E-03 0. -1.
        -11    1    3    3    0    0 -0.27646862480E+02  0.27680506293E+02 -0.52169324879E+01  0.39468668820E+02  0.51100000000E-03 0.  1.
         12    1    3    3    0    0  0.31023695374E+02 -0.29468992254E+02 -0.94105223931E+00  0.42799261191E+02  0.00000000000E+00 0. -1.
</event>
<event>
 7    1  0.3752192E-015  0.9000749E+02  0.7816164E-02  0.1186340E+00
        -11   -1    0    0    0    0  0.00000000000E+00  0.00000000000E+00  0.45593999997E+02  0.45594000000E+02  0.51100000000E-03 0. -1.
         11   -1    0    0    0    0 -0.00000000000E+00 -0.00000000000E+00 -0.45593999997E+02  0.45594000000E+02  0.51100000000E-03 0.  1.
    9900012    2    1    2    0    0 -0.85545869772E+00 -0.72800255761E+00  0.36305773598E+00  0.90007488150E+02  0.89999746194E+02 0.  0.
        -12    1    1    2    0    0  0.85545869772E+00  0.72800255761E+00 -0.36305773598E+00  0.11805118496E+01  0.00000000000E+00 0.  1.
         11    1    3    3    0    0 -0.56654079258E+01 -0.21681150358E+00  0.68601301929E+01  0.88997326206E+01  0.51100000000E-03 0. -1.
        -11    1    3    3    0    0  0.84442426660E+01  0.27009113074E+02 -0.32484983418E+02  0.43082149102E+02  0.51100000000E-03 0.  1.
         12    1    3    3    0    0 -0.36342934380E+01 -0.27520304128E+02  0.25987910961E+02  0.38025606428E+02  0.00000000000E+00 0. -1.
</event>
<event>
 7    1  0.3752192E-015  0.9000773E+02  0.7816164E-02  0.1186339E+00
        -11   -1    0    0    0    0  0.00000000000E+00  0.00000000000E+00  0.45593999997E+02  0.45594000000E+02  0.51100000000E-03 0. -1.
         11   -1    0    0    0    0 -0.00000000000E+00 -0.00000000000E+00 -0.45593999997E+02  0.45594000000E+02  0.51100000000E-03 0.  1.
    9900012    2    1    2    0    0  0.89211950075E+00  0.39632476905E+00  0.66338173706E+00  0.90007734837E+02  0.89999996137E+02 0.  0.
        -12    1    1    2    0    0 -0.89211950075E+00 -0.39632476905E+00 -0.66338173706E+00  0.11802651631E+01  0.00000000000E+00 0.  1.
         11    1    3    3    0    0 -0.32615994301E+02  0.98084043703E+01  0.17211477602E+02  0.38160750019E+02  0.51100000000E-03 0. -1.
        -11    1    3    3    0    0 -0.10286725982E+01 -0.42303376425E+01  0.80352586598E+01  0.91388897507E+01  0.51100000000E-03 0.  1.
        -12    1    3    3    0    0  0.34536786400E+02 -0.51817419588E+01 -0.24583354524E+02  0.42708095067E+02  0.00000000000E+00 0.  1.
</event>
<event>
 7    1  0.3752192E-015  0.9000769E+02  0.7816164E-02  0.1186339E+00
        -11   -1    0    0    0    0  0.00000000000E+00  0.00000000000E+00  0.45593999997E+02  0.45594000000E+02  0.51100000000E-03 0.  1.
         11   -1    0    0    0    0 -0.00000000000E+00 -0.00000000000E+00 -0.45593999997E+02  0.45594000000E+02  0.51100000000E-03 0. -1.
    9900012    2    1    2    0    0  0.52794969909E+00  0.10372912203E+01 -0.19602548021E+00  0.90007690740E+02  0.89999951458E+02 0.  0.
        -12    1    1    2    0    0 -0.52794969909E+00 -0.10372912203E+01  0.19602548021E+00  0.11803092600E+01  0.00000000000E+00 0.  1.
         11    1    3    3    0    0 -0.17853020938E+02  0.21565066171E+02 -0.28251813528E+02  0.39773702411E+02  0.51100000000E-03 0. -1.
        -11    1    3    3    0    0 -0.22158187538E+01  0.46501426112E+00  0.19463753066E+02  0.19594993613E+02  0.51100000000E-03 0.  1.
        -12    1    3    3    0    0  0.20596789391E+02 -0.20992789212E+02  0.85920349813E+01  0.30638994716E+02  0.00000000000E+00 0.  1.
</event>
<event>
 7    1  0.3752192E-015  0.9000773E+02  0.7816164E-02  0.1186339E+00
        -11   -1    0    0    0    0  0.00000000000E+00  0.00000000000E+00  0.45593999997E+02  0.45594000000E+02  0.51100000000E-03 0. -1.
         11   -1    0    0    0    0 -0.00000000000E+00 -0.00000000000E+00 -0.45593999997E+02  0.45594000000E+02  0.51100000000E-03 0.  1.
    9900012    2    1    2    0    0 -0.11675343701E+01  0.14688830953E+00 -0.91207327182E-01  0.90007732464E+02  0.89999993732E+02 0.  0.
        -12    1    1    2    0    0  0.11675343701E+01 -0.14688830953E+00  0.91207327182E-01  0.11802675363E+01  0.00000000000E+00 0.  1.
         11    1    3    3    0    0  0.55026438771E+01 -0.12240931341E+02  0.51957013467E+01  0.14391483679E+02  0.51100000000E-03 0. -1.
        -11    1    3    3    0    0 -0.40390616033E+02  0.52775041327E+01 -0.58364054436E+01  0.41149939758E+02  0.51100000000E-03 0.  1.
         12    1    3    3    0    0  0.33720437785E+02  0.71103155178E+01  0.54949676971E+00  0.34466309026E+02  0.00000000000E+00 0. -1.
</event>
<event>
 7    1  0.3752192E-015  0.9000745E+02  0.7816164E-02  0.1186340E+00
        -11   -1    0    0    0    0  0.00000000000E+00  0.00000000000E+00  0.45593999997E+02  0.45594000000E+02  0.51100000000E-03 0.  1.
         11   -1    0    0    0    0 -0.00000000000E+00 -0.00000000000E+00 -0.45593999997E+02  0.45594000000E+02  0.51100000000E-03 0. -1.
    9900012    2    1    2    0    0 -0.10871335922E+01  0.39951398013E+00 -0.22851383125E+00  0.90007453754E+02  0.89999711343E+02 0.  0.
        -12    1    1    2    0    0  0.10871335922E+01 -0.39951398013E+00  0.22851383125E+00  0.11805462459E+01  0.00000000000E+00 0.  1.
         11    1    3    3    0    0 -0.11157622725E+02 -0.33360612115E+02 -0.13659396409E+02  0.37735952302E+02  0.51100000000E-03 0. -1.
        -11    1    3    3    0    0  0.33511475353E+01 -0.76269844665E+01  0.42371609220E+01  0.93463690702E+01  0.51100000000E-03 0.  1.
        -12    1    3    3    0    0  0.67193415977E+01  0.41387110562E+02  0.91937216562E+01  0.42925132382E+02  0.00000000000E+00 0.  1.
</event>
<event>
 7    1  0.3752192E-015  0.9000771E+02  0.7816164E-02  0.1186339E+00
        -11   -1    0    0    0    0  0.00000000000E+00  0.00000000000E+00  0.45593999997E+02  0.45594000000E+02  0.51100000000E-03 0.  1.
         11   -1    0    0    0    0 -0.00000000000E+00 -0.00000000000E+00 -0.45593999997E+02  0.45594000000E+02  0.51100000000E-03 0. -1.
    9900012    2    1    2    0    0  0.29035889911E+00 -0.57399823405E+00 -0.98959499938E+00  0.90007711677E+02  0.89999972671E+02 0.  0.
        -12    1    1    2    0    0 -0.29035889911E+00  0.57399823405E+00  0.98959499938E+00  0.11802883232E+01  0.00000000000E+00 0.  1.
         11    1    3    3    0    0 -0.29658783721E+01  0.95066629620E+01  0.83866248850E+01  0.13019545016E+02  0.51100000000E-03 0. -1.
        -11    1    3    3    0    0  0.10841614242E+02 -0.54430825807E+01  0.32232686724E+02  0.34440003500E+02  0.51100000000E-03 0.  1.
         12    1    3    3    0    0 -0.75853769710E+01 -0.46375786154E+01 -0.41608906609E+02  0.42548163161E+02  0.00000000000E+00 0. -1.
</event>
<event>
 7    1  0.3752192E-015  0.9000795E+02  0.7816164E-02  0.1186339E+00
        -11   -1    0    0    0    0  0.00000000000E+00  0.00000000000E+00  0.45593999997E+02  0.45594000000E+02  0.51100000000E-03 0.  1.
         11   -1    0    0    0    0 -0.00000000000E+00 -0.00000000000E+00 -0.45593999997E+02  0.45594000000E+02  0.51100000000E-03 0. -1.
    9900012    2    1    2    0    0  0.23689833429E-01  0.11762430010E+01  0.91653975603E-01  0.90007953706E+02  0.90000217894E+02 0.  0.
        -12    1    1    2    0    0 -0.23689833429E-01 -0.11762430010E+01 -0.91653975603E-01  0.11800462943E+01  0.00000000000E+00 0.  1.
         11    1    3    3    0    0 -0.14066615049E+02  0.52931063754E+01 -0.70968401301E+01  0.16620823509E+02  0.51100000000E-03 0. -1.
        -11    1    3    3    0    0  0.97153669940E+01 -0.26214889289E+02  0.30221261883E+02  0.41169569421E+02  0.51100000000E-03 0.  1.
         12    1    3    3    0    0  0.43749378882E+01  0.22098025915E+02 -0.23032767777E+02  0.32217560775E+02  0.00000000000E+00 0. -1.
</event>
<event>
 7    1  0.3752192E-015  0.9000778E+02  0.7816164E-02  0.1186339E+00
        -11   -1    0    0    0    0  0.00000000000E+00  0.00000000000E+00  0.45593999997E+02  0.45594000000E+02  0.51100000000E-03 0. -1.
         11   -1    0    0    0    0 -0.00000000000E+00 -0.00000000000E+00 -0.45593999997E+02  0.45594000000E+02  0.51100000000E-03 0.  1.
    9900012    2    1    2    0    0 -0.11851055159E+00  0.11110637588E+01  0.38001067337E+00  0.90007781572E+02  0.90000043488E+02 0.  0.
        -12    1    1    2    0    0  0.11851055159E+00 -0.11110637588E+01 -0.38001067337E+00  0.11802184284E+01  0.00000000000E+00 0.  1.
         11    1    3    3    0    0  0.17955068281E+02  0.27916491196E+02  0.18956407399E+02  0.38223819005E+02  0.51100000000E-03 0. -1.
        -11    1    3    3    0    0 -0.36994843756E+01  0.12234446689E+01  0.90707036716E+01  0.98722169173E+01  0.51100000000E-03 0.  1.
        -12    1    3    3    0    0 -0.14374094457E+02 -0.28028872106E+02 -0.27647100397E+02  0.41911745649E+02  0.00000000000E+00 0.  1.
</event>
<event>
 7    1  0.3752192E-015  0.9000779E+02  0.7816164E-02  0.1186339E+00
        -11   -1    0    0    0    0  0.00000000000E+00  0.00000000000E+00  0.45593999997E+02  0.45594000000E+02  0.51100000000E-03 0. -1.
         11   -1    0    0    0    0 -0.00000000000E+00 -0.00000000000E+00 -0.45593999997E+02  0.45594000000E+02  0.51100000000E-03 0.  1.
    9900012    2    1    2    0    0 -0.61754385125E+00 -0.43833536224E-01  0.10047915484E+01  0.90007793305E+02  0.90000055377E+02 0.  0.
        -12    1    1    2    0    0  0.61754385125E+00  0.43833536224E-01 -0.10047915484E+01  0.11802066950E+01  0.00000000000E+00 0.  1.
         11    1    3    3    0    0 -0.82181313343E+01  0.43593126403E+01 -0.32986735704E+01  0.98702855535E+01  0.51100000000E-03 0. -1.
        -11    1    3    3    0    0  0.45254468694E+01 -0.37239891786E+02 -0.16672261714E+02  0.41051839429E+02  0.51100000000E-03 0.  1.
         12    1    3    3    0    0  0.30751406136E+01  0.32836745610E+02  0.20975726833E+02  0.39085668322E+02  0.00000000000E+00 0. -1.
</event>
<event>
 7    1  0.3752192E-015  0.9000777E+02  0.7816164E-02  0.1186339E+00
        -11   -1    0    0    0    0  0.00000000000E+00  0.00000000000E+00  0.45593999997E+02  0.45594000000E+02  0.51100000000E-03 0. -1.
         11   -1    0    0    0    0 -0.00000000000E+00 -0.00000000000E+00 -0.45593999997E+02  0.45594000000E+02  0.51100000000E-03 0.  1.
    9900012    2    1    2    0    0  0.25697403709E+00  0.11255075314E+01 -0.24522274597E+00  0.90007772457E+02  0.90000034253E+02 0.  0.
        -12    1    1    2    0    0 -0.25697403709E+00 -0.11255075314E+01  0.24522274597E+00  0.11802275434E+01  0.00000000000E+00 0.  1.
         11    1    3    3    0    0 -0.25564124211E+01 -0.28702803517E+02  0.26333687690E+02  0.39036512163E+02  0.51100000000E-03 0. -1.
        -11    1    3    3    0    0 -0.81332180855E+01 -0.30930354457E+01 -0.67350382921E+01  0.11003492434E+02  0.51100000000E-03 0.  1.
        -12    1    3    3    0    0  0.10946604544E+02  0.32921346494E+02 -0.19843872144E+02  0.39967767860E+02  0.00000000000E+00 0.  1.
</event>
<event>
 7    1  0.3752192E-015  0.9000757E+02  0.7816164E-02  0.1186339E+00
        -11   -1    0    0    0    0  0.00000000000E+00  0.00000000000E+00  0.45593999997E+02  0.45594000000E+02  0.51100000000E-03 0.  1.
         11   -1    0    0    0    0 -0.00000000000E+00 -0.00000000000E+00 -0.45593999997E+02  0.45594000000E+02  0.51100000000E-03 0. -1.
    9900012    2    1    2    0    0  0.10589445968E+01 -0.35330120026E+00 -0.38369761985E+00  0.90007572425E+02  0.89999831581E+02 0.  0.
        -12    1    1    2    0    0 -0.10589445968E+01  0.35330120026E+00  0.38369761985E+00  0.11804275753E+01  0.00000000000E+00 0.  1.
         11    1    3    3    0    0 -0.55677292282E+01 -0.23801860612E+01 -0.70610221015E+01  0.93017701447E+01  0.51100000000E-03 0. -1.
        -11    1    3    3    0    0  0.17533739485E+02  0.35921248779E+02  0.17290771865E+02  0.43551566288E+02  0.51100000000E-03 0.  1.
         12    1    3    3    0    0 -0.10907065660E+02 -0.33894363918E+02 -0.10613447384E+02  0.37154235992E+02  0.00000000000E+00 0. -1.
</event>
<event>
 7    1  0.3752192E-015  0.9000776E+02  0.7816164E-02  0.1186339E+00
        -11   -1    0    0    0    0  0.00000000000E+00  0.00000000000E+00  0.45593999997E+02  0.45594000000E+02  0.51100000000E-03 0.  1.
         11   -1    0    0    0    0 -0.00000000000E+00 -0.00000000000E+00 -0.45593999997E+02  0.45594000000E+02  0.51100000000E-03 0. -1.
    9900012    2    1    2    0    0  0.19307348664E+00 -0.61985923809E+00 -0.98562351362E+00  0.90007764194E+02  0.90000025882E+02 0.  0.
        -12    1    1    2    0    0 -0.19307348664E+00  0.61985923809E+00  0.98562351362E+00  0.11802358056E+01  0.00000000000E+00 0.  1.
         11    1    3    3    0    0  0.13519299872E+02 -0.36771205683E+02 -0.63347672821E+01  0.39686550785E+02  0.51100000000E-03 0. -1.
        -11    1    3    3    0    0  0.57094209642E+01  0.13003625612E+02 -0.92869087792E+01  0.16968748974E+02  0.51100000000E-03 0.  1.
        -12    1    3    3    0    0 -0.19035647349E+02  0.23147720833E+02  0.14636052548E+02  0.33352464436E+02  0.00000000000E+00 0.  1.
</event>
<event>
 7    1  0.3752192E-015  0.9000771E+02  0.7816164E-02  0.1186339E+00
        -11   -1    0    0    0    0  0.00000000000E+00  0.00000000000E+00  0.45593999997E+02  0.45594000000E+02  0.51100000000E-03 0. -1.
         11   -1    0    0    0    0 -0.00000000000E+00 -0.00000000000E+00 -0.45593999997E+02  0.45594000000E+02  0.51100000000E-03 0.  1.
    9900012    2    1    2    0    0  0.78213316545E+00  0.80689257085E+00  0.36092308421E+00  0.90007714703E+02  0.89999975737E+02 0.  0.
        -12    1    1    2    0    0 -0.78213316545E+00 -0.80689257085E+00 -0.36092308421E+00  0.11802852969E+01  0.00000000000E+00 0.  1.
         11    1    3    3    0    0  0.53083059983E+01 -0.58346192174E+01  0.66331756688E+01  0.10306304561E+02  0.51100000000E-03 0. -1.
        -11    1    3    3    0    0 -0.25611142457E+02 -0.24938614706E+02 -0.17914104745E+02  0.39984750474E+02  0.51100000000E-03 0.  1.
         12    1    3    3    0    0  0.21084969624E+02  0.31580126494E+02  0.11641852161E+02  0.39716659668E+02  0.00000000000E+00 0. -1.
</event>
<event>
 7    1  0.3752192E-015  0.9000779E+02  0.7816164E-02  0.1186339E+00
        -11   -1    0    0    0    0  0.00000000000E+00  0.00000000000E+00  0.45593999997E+02  0.45594000000E+02  0.51100000000E-03 0.  1.
         11   -1    0    0    0    0 -0.00000000000E+00 -0.00000000000E+00 -0.45593999997E+02  0.45594000000E+02  0.51100000000E-03 0. -1.
    9900012    2    1    2    0    0 -0.48679098376E+00 -0.99850594480E+00 -0.39862934585E+00  0.90007794535E+02  0.90000056623E+02 0.  0.
        -12    1    1    2    0    0  0.48679098376E+00  0.99850594480E+00  0.39862934585E+00  0.11802054648E+01  0.00000000000E+00 0.  1.
         11    1    3    3    0    0 -0.75110123074E+01 -0.57488061054E+01 -0.95647606487E+00  0.95067830649E+01  0.51100000000E-03 0. -1.
        -11    1    3    3    0    0  0.23253450482E+02  0.15806737375E+02  0.32518973208E+02  0.42989062848E+02  0.51100000000E-03 0.  1.
         12    1    3    3    0    0 -0.16229229159E+02 -0.11056437214E+02 -0.31961126489E+02  0.37511948622E+02  0.00000000000E+00 0. -1.
</event>
<event>
 7    1  0.3752192E-015  0.9000761E+02  0.7816164E-02  0.1186339E+00
        -11   -1    0    0    0    0  0.00000000000E+00  0.00000000000E+00  0.45593999997E+02  0.45594000000E+02  0.51100000000E-03 0.  1.
         11   -1    0    0    0    0 -0.00000000000E+00 -0.00000000000E+00 -0.45593999997E+02  0.45594000000E+02  0.51100000000E-03 0. -1.
    9900012    2    1    2    0    0  0.20045996798E+00 -0.82668340094E+00 -0.81836668106E+00  0.90007612916E+02  0.89999872606E+02 0.  0.
        -12    1    1    2    0    0 -0.20045996798E+00  0.82668340094E+00  0.81836668106E+00  0.11803870843E+01  0.00000000000E+00 0.  1.
         11    1    3    3    0    0  0.15060208698E+01 -0.49458088619E+01  0.75824276228E+01  0.91772726381E+01  0.51100000000E-03 0. -1.
        -11    1    3    3    0    0 -0.35712927885E+02 -0.16660287709E+02 -0.98098651400E+01  0.40610489519E+02  0.51100000000E-03 0.  1.
         12    1    3    3    0    0  0.34407366983E+02  0.20779413170E+02  0.14090708362E+01  0.40219850758E+02  0.00000000000E+00 0. -1.
</event>
<event>
 7    1  0.3752192E-015  0.9000770E+02  0.7816164E-02  0.1186339E+00
        -11   -1    0    0    0    0  0.00000000000E+00  0.00000000000E+00  0.45593999997E+02  0.45594000000E+02  0.51100000000E-03 0.  1.
         11   -1    0    0    0    0 -0.00000000000E+00 -0.00000000000E+00 -0.45593999997E+02  0.45594000000E+02  0.51100000000E-03 0. -1.
    9900012    2    1    2    0    0  0.62931486236E+00 -0.73112425710E+00 -0.68009723863E+00  0.90007698289E+02  0.89999959106E+02 0.  0.
        -12    1    1    2    0    0 -0.62931486236E+00  0.73112425710E+00  0.68009723863E+00  0.11803017111E+01  0.00000000000E+00 0.  1.
         11    1    3    3    0    0 -0.23236344981E+02  0.24081153643E+02  0.99189170066E+01  0.34902931162E+02  0.51100000000E-03 0. -1.
        -11    1    3    3    0    0 -0.42733625410E+01  0.87676243605E+01  0.94212284322E+00  0.97990030128E+01  0.51100000000E-03 0.  1.
        -12    1    3    3    0    0  0.28139022385E+02 -0.33579902261E+02 -0.11541137088E+02  0.45305764114E+02  0.00000000000E+00 0.  1.
</event>
<event>
 7    1  0.3752192E-015  0.9000764E+02  0.7816164E-02  0.1186339E+00
        -11   -1    0    0    0    0  0.00000000000E+00  0.00000000000E+00  0.45593999997E+02  0.45594000000E+02  0.51100000000E-03 0. -1.
         11   -1    0    0    0    0 -0.00000000000E+00 -0.00000000000E+00 -0.45593999997E+02  0.45594000000E+02  0.51100000000E-03 0.  1.
    9900012    2    1    2    0    0  0.71092429327E+00 -0.30155460468E+00  0.89269510971E+00  0.90007638577E+02  0.89999898606E+02 0.  0.
        -12    1    1    2    0    0 -0.71092429327E+00  0.30155460468E+00 -0.89269510971E+00  0.11803614231E+01  0.00000000000E+00 0.  1.
         11    1    3    3    0    0 -0.10402295420E+02  0.67768251704E+01  0.86285754381E+01  0.15119041760E+02  0.51100000000E-03 0. -1.
        -11    1    3    3    0    0  0.33614747819E+02  0.92675012827E+01 -0.24315462942E+02  0.42509758754E+02  0.51100000000E-03 0.  1.
         12    1    3    3    0    0 -0.22501528107E+02 -0.16345881058E+02  0.16579582613E+02  0.32378838063E+02  0.00000000000E+00 0. -1.
</event>
<event>
 7    1  0.3752192E-015  0.9000813E+02  0.7816164E-02  0.1186338E+00
        -11   -1    0    0    0    0  0.00000000000E+00  0.00000000000E+00  0.45593999997E+02  0.45594000000E+02  0.51100000000E-03 0. -1.
         11   -1    0    0    0    0 -0.00000000000E+00 -0.00000000000E+00 -0.45593999997E+02  0.45594000000E+02  0.51100000000E-03 0.  1.
    9900012    2    1    2    0    0 -0.39458883546E+00 -0.78053737335E+00 -0.79192498560E+00  0.90008133854E+02  0.90000400420E+02 0.  0.
        -12    1    1    2    0    0  0.39458883546E+00  0.78053737335E+00  0.79192498560E+00  0.11798661463E+01  0.00000000000E+00 0.  1.
         11    1    3    3    0    0  0.17378285636E+02  0.26186090278E+02  0.18999396574E+02  0.36724558624E+02  0.51100000000E-03 0. -1.
        -11    1    3    3    0    0  0.37034809060E+01  0.77558562109E+01 -0.25514599175E+01  0.89654349787E+01  0.51100000000E-03 0.  1.
        -12    1    3    3    0    0 -0.21476355378E+02 -0.34722483862E+02 -0.17239861642E+02  0.44318140251E+02  0.00000000000E+00 0.  1.
</event>
<event>
 7    1  0.3752192E-015  0.9000772E+02  0.7816164E-02  0.1186339E+00
        -11   -1    0    0    0    0  0.00000000000E+00  0.00000000000E+00  0.45593999997E+02  0.45594000000E+02  0.51100000000E-03 0.  1.
         11   -1    0    0    0    0 -0.00000000000E+00 -0.00000000000E+00 -0.45593999997E+02  0.45594000000E+02  0.51100000000E-03 0. -1.
    9900012    2    1    2    0    0  0.56967717085E+00 -0.10650795550E+00 -0.10282002444E+01  0.90007715388E+02  0.89999976431E+02 0.  0.
        -12    1    1    2    0    0 -0.56967717085E+00  0.10650795550E+00  0.10282002444E+01  0.11802846123E+01  0.00000000000E+00 0.  1.
         11    1    3    3    0    0 -0.13538810143E+02 -0.29212362494E+02  0.19501147456E+02  0.37642479394E+02  0.51100000000E-03 0. -1.
        -11    1    3    3    0    0 -0.17178513124E+01 -0.76606773070E+01 -0.56005514764E+01  0.96438149626E+01  0.51100000000E-03 0.  1.
        -12    1    3    3    0    0  0.15826338626E+02  0.36766531845E+02 -0.14928796224E+02  0.42721421031E+02  0.00000000000E+00 0.  1.
</event>
<event>
 7    1  0.3752192E-015  0.9000781E+02  0.7816164E-02  0.1186339E+00
        -11   -1    0    0    0    0  0.00000000000E+00  0.00000000000E+00  0.45593999997E+02  0.45594000000E+02  0.51100000000E-03 0. -1.
         11   -1    0    0    0    0 -0.00000000000E+00 -0.00000000000E+00 -0.45593999997E+02  0.45594000000E+02  0.51100000000E-03 0.  1.
    9900012    2    1    2    0    0 -0.68750231946E+00  0.36918936972E+00  0.88536986098E+00  0.90007813565E+02  0.90000075904E+02 0.  0.
        -12    1    1    2    0    0  0.68750231946E+00 -0.36918936972E+00 -0.88536986098E+00  0.11801864347E+01  0.00000000000E+00 0.  1.
         11    1    3    3    0    0  0.19373578455E+02  0.75491986605E+01  0.30576005835E+02  0.36975912101E+02  0.51100000000E-03 0. -1.
        -11    1    3    3    0    0  0.38274285370E+01  0.10318501326E+02  0.13043121800E+00  0.11006256920E+02  0.51100000000E-03 0.  1.
        -12    1    3    3    0    0 -0.23888509312E+02 -0.17498510617E+02 -0.29821067192E+02  0.42025644545E+02  0.00000000000E+00 0.  1.
</event>
<event>
 7    1  0.3752192E-015  0.9000771E+02  0.7816164E-02  0.1186339E+00
        -11   -1    0    0    0    0  0.00000000000E+00  0.00000000000E+00  0.45593999997E+02  0.45594000000E+02  0.51100000000E-03 0.  1.
         11   -1    0    0    0    0 -0.00000000000E+00 -0.00000000000E+00 -0.45593999997E+02  0.45594000000E+02  0.51100000000E-03 0. -1.
    9900012    2    1    2    0    0  0.53297141969E+00 -0.10162412250E+01 -0.27619595894E+00  0.90007708100E+02  0.89999969047E+02 0.  0.
        -12    1    1    2    0    0 -0.53297141969E+00  0.10162412250E+01  0.27619595894E+00  0.11802919000E+01  0.00000000000E+00 0.  1.
         11    1    3    3    0    0  0.35928480711E+01 -0.31653329239E+01  0.93305403977E+01  0.10487462713E+02  0.51100000000E-03 0. -1.
        -11    1    3    3    0    0 -0.16541726986E+02 -0.11671797788E+01  0.31791177975E+02  0.35856241265E+02  0.51100000000E-03 0.  1.
         12    1    3    3    0    0  0.13481850335E+02  0.33162714777E+01 -0.41397914332E+02  0.43664004122E+02  0.00000000000E+00 0. -1.
</event>
<event>
 7    1  0.3752192E-015  0.9000782E+02  0.7816164E-02  0.1186339E+00
        -11   -1    0    0    0    0  0.00000000000E+00  0.00000000000E+00  0.45593999997E+02  0.45594000000E+02  0.51100000000E-03 0.  1.
         11   -1    0    0    0    0 -0.00000000000E+00 -0.00000000000E+00 -0.45593999997E+02  0.45594000000E+02  0.51100000000E-03 0. -1.
    9900012    2    1    2    0    0  0.11413864475E+01  0.28122126618E-01 -0.29876297097E+00  0.90007824933E+02  0.90000087422E+02 0.  0.
        -12    1    1    2    0    0 -0.11413864475E+01 -0.28122126618E-01  0.29876297097E+00  0.11801750673E+01  0.00000000000E+00 0.  1.
         11    1    3    3    0    0  0.25094516814E+01  0.96556012305E+01 -0.57312552003E+01  0.11505445202E+02  0.51100000000E-03 0. -1.
        -11    1    3    3    0    0 -0.20653654332E+02  0.26303588241E+01  0.35247478709E+02  0.40937476479E+02  0.51100000000E-03 0.  1.
         12    1    3    3    0    0  0.19285589098E+02 -0.12257837928E+02 -0.29814986480E+02  0.37564903252E+02  0.00000000000E+00 0. -1.
</event>
<event>
 7    1  0.3752192E-015  0.9000767E+02  0.7816164E-02  0.1186339E+00
        -11   -1    0    0    0    0  0.00000000000E+00  0.00000000000E+00  0.45593999997E+02  0.45594000000E+02  0.51100000000E-03 0. -1.
         11   -1    0    0    0    0 -0.00000000000E+00 -0.00000000000E+00 -0.45593999997E+02  0.45594000000E+02  0.51100000000E-03 0.  1.
    9900012    2    1    2    0    0 -0.69630681703E+00  0.79313229410E+00 -0.52847764096E+00  0.90007665032E+02  0.89999925411E+02 0.  0.
        -12    1    1    2    0    0  0.69630681703E+00 -0.79313229410E+00  0.52847764096E+00  0.11803349679E+01  0.00000000000E+00 0.  1.
         11    1    3    3    0    0 -0.35112168127E+01  0.10862012038E+02 -0.60583914576E+01  0.12923469207E+02  0.51100000000E-03 0. -1.
        -11    1    3    3    0    0 -0.74924264931E+01  0.22102144276E+02 -0.23074471528E+02  0.32818782319E+02  0.51100000000E-03 0.  1.
         12    1    3    3    0    0  0.10307336489E+02 -0.32171024020E+02  0.28604385344E+02  0.44265413507E+02  0.00000000000E+00 0. -1.
</event>
<event>
 7    1  0.3752192E-015  0.9000749E+02  0.7816164E-02  0.1186340E+00
        -11   -1    0    0    0    0  0.00000000000E+00  0.00000000000E+00  0.45593999997E+02  0.45594000000E+02  0.51100000000E-03 0.  1.
         11   -1    0    0    0    0 -0.00000000000E+00 -0.00000000000E+00 -0.45593999997E+02  0.45594000000E+02  0.51100000000E-03 0. -1.
    9900012    2    1    2    0    0 -0.15622508273E+00 -0.37924838602E+00 -0.11069636032E+01  0.90007489927E+02  0.89999747993E+02 0.  0.
        -12    1    1    2    0    0  0.15622508273E+00  0.37924838602E+00  0.11069636032E+01  0.11805100734E+01  0.00000000000E+00 0.  1.
         11    1    3    3    0    0  0.39790987718E+02  0.10376027504E+02 -0.15189635380E+01  0.41149628198E+02  0.51100000000E-03 0. -1.
        -11    1    3    3    0    0  0.16803367469E+01 -0.65678098719E+01  0.17402321333E+01  0.69991475363E+01  0.51100000000E-03 0.  1.
        -12    1    3    3    0    0 -0.41627549548E+02 -0.41874660186E+01 -0.13282321985E+01  0.41858714192E+02  0.00000000000E+00 0.  1.
</event>
<event>
 7    1  0.3752192E-015  0.9000769E+02  0.7816164E-02  0.1186339E+00
        -11   -1    0    0    0    0  0.00000000000E+00  0.00000000000E+00  0.45593999997E+02  0.45594000000E+02  0.51100000000E-03 0.  1.
         11   -1    0    0    0    0 -0.00000000000E+00 -0.00000000000E+00 -0.45593999997E+02  0.45594000000E+02  0.51100000000E-03 0. -1.
    9900012    2    1    2    0    0  0.44188225402E+00  0.10924122257E+01 -0.67146734118E-01  0.90007689413E+02  0.89999950114E+02 0.  0.
        -12    1    1    2    0    0 -0.44188225402E+00 -0.10924122257E+01  0.67146734118E-01  0.11803105867E+01  0.00000000000E+00 0.  1.
         11    1    3    3    0    0  0.31013764853E+02  0.24148073847E+02 -0.16292676172E+01  0.39340025344E+02  0.51100000000E-03 0. -1.
        -11    1    3    3    0    0  0.14732431230E+01  0.53712987499E+01  0.52739553005E+01  0.76704563315E+01  0.51100000000E-03 0.  1.
        -12    1    3    3    0    0 -0.32045125722E+02 -0.28426960372E+02 -0.37118344174E+01  0.42997207737E+02  0.00000000000E+00 0.  1.
</event>
<event>
 7    1  0.3752192E-015  0.9000773E+02  0.7816164E-02  0.1186339E+00
        -11   -1    0    0    0    0  0.00000000000E+00  0.00000000000E+00  0.45593999997E+02  0.45594000000E+02  0.51100000000E-03 0.  1.
         11   -1    0    0    0    0 -0.00000000000E+00 -0.00000000000E+00 -0.45593999997E+02  0.45594000000E+02  0.51100000000E-03 0. -1.
    9900012    2    1    2    0    0 -0.98282210806E+00 -0.16914072823E+00 -0.63126795337E+00  0.90007725832E+02  0.89999987013E+02 0.  0.
        -12    1    1    2    0    0  0.98282210806E+00  0.16914072823E+00  0.63126795337E+00  0.11802741677E+01  0.00000000000E+00 0.  1.
         11    1    3    3    0    0 -0.24491064752E+02  0.13909889616E+02 -0.12944236379E+02  0.30997589221E+02  0.51100000000E-03 0. -1.
        -11    1    3    3    0    0 -0.89726710030E+01 -0.21852756185E+02  0.64332224821E+00  0.23631877657E+02  0.51100000000E-03 0.  1.
         12    1    3    3    0    0  0.32480913647E+02  0.77737258411E+01  0.11669646177E+02  0.35378258955E+02  0.00000000000E+00 0. -1.
</event>
<event>
 7    1  0.3752192E-015  0.9000772E+02  0.7816164E-02  0.1186339E+00
        -11   -1    0    0    0    0  0.00000000000E+00  0.00000000000E+00  0.45593999997E+02  0.45594000000E+02  0.51100000000E-03 0. -1.
         11   -1    0    0    0    0 -0.00000000000E+00 -0.00000000000E+00 -0.45593999997E+02  0.45594000000E+02  0.51100000000E-03 0.  1.
    9900012    2    1    2    0    0  0.73661470979E+00  0.63931005388E+00  0.66464529640E+00  0.90007715312E+02  0.89999976354E+02 0.  0.
        -12    1    1    2    0    0 -0.73661470979E+00 -0.63931005388E+00 -0.66464529640E+00  0.11802846884E+01  0.00000000000E+00 0.  1.
         11    1    3    3    0    0  0.79744527442E+01 -0.33883451183E+02 -0.14126536794E+02  0.37566463803E+02  0.51100000000E-03 0. -1.
        -11    1    3    3    0    0  0.19495205737E+01  0.57843008805E+01 -0.11110545678E+02  0.12676868410E+02  0.51100000000E-03 0.  1.
        -12    1    3    3    0    0 -0.91873586081E+01  0.28738460356E+02  0.25901727769E+02  0.39764383099E+02  0.00000000000E+00 0.  1.
</event>
<event>
 7    1  0.3752192E-015  0.9000775E+02  0.7816164E-02  0.1186339E+00
        -11   -1    0    0    0    0  0.00000000000E+00  0.00000000000E+00  0.45593999997E+02  0.45594000000E+02  0.51100000000E-03 0.  1.
         11   -1    0    0    0    0 -0.00000000000E+00 -0.00000000000E+00 -0.45593999997E+02  0.45594000000E+02  0.51100000000E-03 0. -1.
    9900012    2    1    2    0    0  0.39307028670E+00  0.13198272309E+00 -0.11050217223E+01  0.90007747190E+02  0.90000008653E+02 0.  0.
        -12    1    1    2    0    0 -0.39307028670E+00 -0.13198272309E+00  0.11050217223E+01  0.11802528103E+01  0.00000000000E+00 0.  1.
         11    1    3    3    0    0  0.74436046678E+01 -0.25425401462E+02 -0.24136587869E+02  0.35838989442E+02  0.51100000000E-03 0. -1.
        -11    1    3    3    0    0  0.55622609152E+01 -0.60686627267E+01 -0.53709304365E+01  0.98292577438E+01  0.51100000000E-03 0.  1.
        -12    1    3    3    0    0 -0.12612795296E+02  0.31626046912E+02  0.28402496583E+02  0.44339500004E+02  0.00000000000E+00 0.  1.
</event>
<event>
 7    1  0.3752192E-015  0.9000778E+02  0.7816164E-02  0.1186339E+00
        -11   -1    0    0    0    0  0.00000000000E+00  0.00000000000E+00  0.45593999997E+02  0.45594000000E+02  0.51100000000E-03 0.  1.
         11   -1    0    0    0    0 -0.00000000000E+00 -0.00000000000E+00 -0.45593999997E+02  0.45594000000E+02  0.51100000000E-03 0. -1.
    9900012    2    1    2    0    0  0.75509855081E+00 -0.82838809784E+00  0.36948626764E+00  0.90007779358E+02  0.90000041245E+02 0.  0.
        -12    1    1    2    0    0 -0.75509855081E+00  0.82838809784E+00 -0.36948626764E+00  0.11802206421E+01  0.00000000000E+00 0.  1.
         11    1    3    3    0    0 -0.48222861234E+01 -0.77419512640E+00  0.88316793744E+01  0.10092194131E+02  0.51100000000E-03 0. -1.
        -11    1    3    3    0    0  0.21692903743E+02 -0.29465298501E+02  0.14406789379E+02  0.39323548530E+02  0.51100000000E-03 0.  1.
         12    1    3    3    0    0 -0.16115519068E+02  0.29411105529E+02 -0.22868982485E+02  0.40592036697E+02  0.00000000000E+00 0. -1.
</event>
<event>
 7    1  0.3752192E-015  0.9000741E+02  0.7816164E-02  0.1186340E+00
        -11   -1    0    0    0    0  0.00000000000E+00  0.00000000000E+00  0.45593999997E+02  0.45594000000E+02  0.51100000000E-03 0.  1.
         11   -1    0    0    0    0 -0.00000000000E+00 -0.00000000000E+00 -0.45593999997E+02  0.45594000000E+02  0.51100000000E-03 0. -1.
    9900012    2    1    2    0    0  0.27462916665E+00 -0.10842950909E+01 -0.37773406861E+00  0.90007406908E+02  0.89999663878E+02 0.  0.
        -12    1    1    2    0    0 -0.27462916665E+00  0.10842950909E+01  0.37773406861E+00  0.11805930924E+01  0.00000000000E+00 0.  1.
         11    1    3    3    0    0  0.22888409132E+02 -0.23112976227E+02 -0.21915101506E+02  0.39221940505E+02  0.51100000000E-03 0. -1.
        -11    1    3    3    0    0  0.60271960953E+01  0.68343162581E+01 -0.35617983964E+01  0.97837303501E+01  0.51100000000E-03 0.  1.
        -12    1    3    3    0    0 -0.28640976061E+02  0.15194364878E+02  0.25099165834E+02  0.41001736053E+02  0.00000000000E+00 0.  1.
</event>
<event>
 7    1  0.3752192E-015  0.9000773E+02  0.7816164E-02  0.1186339E+00
        -11   -1    0    0    0    0  0.00000000000E+00  0.00000000000E+00  0.45593999997E+02  0.45594000000E+02  0.51100000000E-03 0.  1.
         11   -1    0    0    0    0 -0.00000000000E+00 -0.00000000000E+00 -0.45593999997E+02  0.45594000000E+02  0.51100000000E-03 0. -1.
    9900012    2    1    2    0    0  0.67900818484E+00  0.37339644693E+00  0.89026353494E+00  0.90007726225E+02  0.89999987411E+02 0.  0.
        -12    1    1    2    0    0 -0.67900818484E+00 -0.37339644693E+00 -0.89026353494E+00  0.11802737747E+01  0.00000000000E+00 0.  1.
         11    1    3    3    0    0  0.16425318147E+02  0.20026049436E+02 -0.23646247340E+02  0.35071052818E+02  0.51100000000E-03 0. -1.
        -11    1    3    3    0    0  0.87273223736E+00  0.54623671588E+01 -0.85583599304E+01  0.10190419103E+02  0.51100000000E-03 0.  1.
        -12    1    3    3    0    0 -0.16619042199E+02 -0.25115020148E+02  0.33094870805E+02  0.44746254304E+02  0.00000000000E+00 0.  1.
</event>
<event>
 7    1  0.3752192E-015  0.9000764E+02  0.7816164E-02  0.1186339E+00
        -11   -1    0    0    0    0  0.00000000000E+00  0.00000000000E+00  0.45593999997E+02  0.45594000000E+02  0.51100000000E-03 0. -1.
         11   -1    0    0    0    0 -0.00000000000E+00 -0.00000000000E+00 -0.45593999997E+02  0.45594000000E+02  0.51100000000E-03 0.  1.
    9900012    2    1    2    0    0 -0.84185289681E+00 -0.81373612973E+00 -0.14952354395E+00  0.90007644088E+02  0.89999904190E+02 0.  0.
        -12    1    1    2    0    0  0.84185289681E+00  0.81373612973E+00  0.14952354395E+00  0.11803559120E+01  0.00000000000E+00 0.  1.
         11    1    3    3    0    0  0.32971438967E+01  0.76642302148E+01  0.15335867678E+02  0.17458534313E+02  0.51100000000E-03 0. -1.
        -11    1    3    3    0    0  0.10771849416E+02  0.13872674672E+02  0.20911926723E+02  0.27309202148E+02  0.51100000000E-03 0.  1.
        -12    1    3    3    0    0 -0.14910846210E+02 -0.22350641017E+02 -0.36397317945E+02  0.45239907627E+02  0.00000000000E+00 0.  1.
</event>
<event>
 7    1  0.3752192E-015  0.9000781E+02  0.7816164E-02  0.1186339E+00
        -11   -1    0    0    0    0  0.00000000000E+00  0.00000000000E+00  0.45593999997E+02  0.45594000000E+02  0.51100000000E-03 0.  1.
         11   -1    0    0    0    0 -0.00000000000E+00 -0.00000000000E+00 -0.45593999997E+02  0.45594000000E+02  0.51100000000E-03 0. -1.
    9900012    2    1    2    0    0  0.53415967334E+00  0.36921712927E+00 -0.98549186800E+00  0.90007812698E+02  0.90000075026E+02 0.  0.
        -12    1    1    2    0    0 -0.53415967334E+00 -0.36921712927E+00  0.98549186800E+00  0.11801873017E+01  0.00000000000E+00 0.  1.
         11    1    3    3    0    0  0.34209429834E+01 -0.24017679767E+02 -0.28270596984E+02  0.37252898496E+02  0.51100000000E-03 0. -1.
        -11    1    3    3    0    0 -0.38106322661E+01 -0.56619467225E+01 -0.51352568735E+01  0.85410434008E+01  0.51100000000E-03 0.  1.
        -12    1    3    3    0    0  0.92384895606E+00  0.30048843618E+02  0.32420361990E+02  0.44213870801E+02  0.00000000000E+00 0.  1.
</event>
<event>
 7    1  0.3752192E-015  0.9000792E+02  0.7816164E-02  0.1186339E+00
        -11   -1    0    0    0    0  0.00000000000E+00  0.00000000000E+00  0.45593999997E+02  0.45594000000E+02  0.51100000000E-03 0.  1.
         11   -1    0    0    0    0 -0.00000000000E+00 -0.00000000000E+00 -0.45593999997E+02  0.45594000000E+02  0.51100000000E-03 0. -1.
    9900012    2    1    2    0    0  0.10690138124E+01  0.42449163026E+00  0.26380836033E+00  0.90007924356E+02  0.90000188157E+02 0.  0.
        -12    1    1    2    0    0 -0.10690138124E+01 -0.42449163026E+00 -0.26380836033E+00  0.11800756443E+01  0.00000000000E+00 0.  1.
         11    1    3    3    0    0 -0.51446233428E+01 -0.21754374674E+02 -0.27624099886E+02  0.35536050168E+02  0.51100000000E-03 0. -1.
        -11    1    3    3    0    0  0.21554740652E+01 -0.84775756499E+01 -0.43764122285E+01  0.97810194561E+01  0.51100000000E-03 0.  1.
        -12    1    3    3    0    0  0.40581630900E+01  0.30656441954E+02  0.32264320475E+02  0.44690854731E+02  0.00000000000E+00 0.  1.
</event>
<event>
 7    1  0.3752192E-015  0.9000770E+02  0.7816164E-02  0.1186339E+00
        -11   -1    0    0    0    0  0.00000000000E+00  0.00000000000E+00  0.45593999997E+02  0.45594000000E+02  0.51100000000E-03 0. -1.
         11   -1    0    0    0    0 -0.00000000000E+00 -0.00000000000E+00 -0.45593999997E+02  0.45594000000E+02  0.51100000000E-03 0.  1.
    9900012    2    1    2    0    0 -0.51314480808E+00  0.10588905351E+01 -0.92458037392E-01  0.90007696968E+02  0.89999957768E+02 0.  0.
        -12    1    1    2    0    0  0.51314480808E+00 -0.10588905351E+01  0.92458037392E-01  0.11803030323E+01  0.00000000000E+00 0.  1.
         11    1    3    3    0    0 -0.37661112923E+01 -0.13574056155E+02  0.10511929709E+02  0.17576668092E+02  0.51100000000E-03 0. -1.
        -11    1    3    3    0    0 -0.16652631754E+02 -0.23071395129E+02  0.17200111876E+00  0.28453980428E+02  0.51100000000E-03 0.  1.
        -12    1    3    3    0    0  0.19905598239E+02  0.37704341819E+02 -0.10776388865E+02  0.43977048448E+02  0.00000000000E+00 0.  1.
</event>
<event>
 7    1  0.3752192E-015  0.9000778E+02  0.7816164E-02  0.1186339E+00
        -11   -1    0    0    0    0  0.00000000000E+00  0.00000000000E+00  0.45593999997E+02  0.45594000000E+02  0.51100000000E-03 0. -1.
         11   -1    0    0    0    0 -0.00000000000E+00 -0.00000000000E+00 -0.45593999997E+02  0.45594000000E+02  0.51100000000E-03 0.  1.
    9900012    2    1    2    0    0  0.10135062208E+01  0.41918207113E+00  0.43589031942E+00  0.90007784410E+02  0.90000046364E+02 0.  0.
        -12    1    1    2    0    0 -0.10135062208E+01 -0.41918207113E+00 -0.43589031942E+00  0.11802155900E+01  0.00000000000E+00 0.  1.
         11    1    3    3    0    0 -0.11732979998E+02 -0.24179197879E+02  0.22871958903E+02  0.35290550209E+02  0.51100000000E-03 0. -1.
        -11    1    3    3    0    0 -0.60843094792E+01 -0.70777608102E+01  0.31547997819E+01  0.98522221783E+01  0.51100000000E-03 0.  1.
        -12    1    3    3    0    0  0.18830795698E+02  0.31676140760E+02 -0.25590868366E+02  0.44865012023E+02  0.00000000000E+00 0.  1.
</event>
<event>
 7    1  0.3752192E-015  0.9000740E+02  0.7816164E-02  0.1186340E+00
        -11   -1    0    0    0    0  0.00000000000E+00  0.00000000000E+00  0.45593999997E+02  0.45594000000E+02  0.51100000000E-03 0. -1.
         11   -1    0    0    0    0 -0.00000000000E+00 -0.00000000000E+00 -0.45593999997E+02  0.45594000000E+02  0.51100000000E-03 0.  1.
    9900012    2    1    2    0    0 -0.11512705427E+01  0.11932664821E+00  0.23268965862E+00  0.90007403884E+02  0.89999660815E+02 0.  0.
        -12    1    1    2    0    0  0.11512705427E+01 -0.11932664821E+00 -0.23268965862E+00  0.11805961158E+01  0.00000000000E+00 0.  1.
         11    1    3    3    0    0 -0.26689335305E+02  0.25220403705E+02  0.51656756516E+01  0.37081984673E+02  0.51100000000E-03 0. -1.
        -11    1    3    3    0    0 -0.73750822215E+01  0.34646004923E+01  0.28949696151E+01  0.86473200287E+01  0.51100000000E-03 0.  1.
        -12    1    3    3    0    0  0.32913146984E+02 -0.28565677549E+02 -0.78279556081E+01  0.44278099183E+02  0.00000000000E+00 0.  1.
</event>
<event>
 7    1  0.3752192E-015  0.9000739E+02  0.7816164E-02  0.1186340E+00
        -11   -1    0    0    0    0  0.00000000000E+00  0.00000000000E+00  0.45593999997E+02  0.45594000000E+02  0.51100000000E-03 0. -1.
         11   -1    0    0    0    0 -0.00000000000E+00 -0.00000000000E+00 -0.45593999997E+02  0.45594000000E+02  0.51100000000E-03 0.  1.
    9900012    2    1    2    0    0  0.10825824931E+01  0.47021728907E+00 -0.27301319900E-01  0.90007392311E+02  0.89999649089E+02 0.  0.
        -12    1    1    2    0    0 -0.10825824931E+01 -0.47021728907E+00  0.27301319900E-01  0.11806076890E+01  0.00000000000E+00 0.  1.
         11    1    3    3    0    0  0.11557935074E+01  0.39786612179E+02 -0.36706113269E+01  0.39972287338E+02  0.51100000000E-03 0. -1.
        -11    1    3    3    0    0  0.75953240818E+01 -0.95669908759E+00 -0.60220000282E+01  0.97400567582E+01  0.51100000000E-03 0.  1.
        -12    1    3    3    0    0 -0.76685350960E+01 -0.38359695802E+02  0.96653100352E+01  0.40295048215E+02  0.00000000000E+00 0.  1.
</event>
<event>
 7    1  0.3752192E-015  0.9000767E+02  0.7816164E-02  0.1186339E+00
        -11   -1    0    0    0    0  0.00000000000E+00  0.00000000000E+00  0.45593999997E+02  0.45594000000E+02  0.51100000000E-03 0.  1.
         11   -1    0    0    0    0 -0.00000000000E+00 -0.00000000000E+00 -0.45593999997E+02  0.45594000000E+02  0.51100000000E-03 0. -1.
    9900012    2    1    2    0    0 -0.30080504305E-01  0.18391455378E+00 -0.11655241752E+01  0.90007671231E+02  0.89999931691E+02 0.  0.
        -12    1    1    2    0    0  0.30080504305E-01 -0.18391455378E+00  0.11655241752E+01  0.11803287690E+01  0.00000000000E+00 0.  1.
         11    1    3    3    0    0 -0.21964231454E+01 -0.84103964651E+01  0.22149940575E+01  0.89702420407E+01  0.51100000000E-03 0. -1.
        -11    1    3    3    0    0 -0.36092177773E+01  0.27027304074E+01  0.38291746523E+02  0.38556310206E+02  0.51100000000E-03 0.  1.
         12    1    3    3    0    0  0.57755604185E+01  0.58915806114E+01 -0.41672264756E+02  0.42481118984E+02  0.00000000000E+00 0. -1.
</event>
<event>
 7    1  0.3752192E-015  0.9000775E+02  0.7816164E-02  0.1186339E+00
        -11   -1    0    0    0    0  0.00000000000E+00  0.00000000000E+00  0.45593999997E+02  0.45594000000E+02  0.51100000000E-03 0. -1.
         11   -1    0    0    0    0 -0.00000000000E+00 -0.00000000000E+00 -0.45593999997E+02  0.45594000000E+02  0.51100000000E-03 0.  1.
    9900012    2    1    2    0    0  0.10492546496E+01 -0.38499110917E+00  0.37926059865E+00  0.90007749147E+02  0.90000010636E+02 0.  0.
        -12    1    1    2    0    0 -0.10492546496E+01  0.38499110917E+00 -0.37926059865E+00  0.11802508528E+01  0.00000000000E+00 0.  1.
         11    1    3    3    0    0  0.31124824020E+00  0.41253113039E+02  0.66089654977E+01  0.41780313978E+02  0.51100000000E-03 0. -1.
        -11    1    3    3    0    0  0.24863086556E+00 -0.15592988523E+01  0.60929136851E+01  0.62941899918E+01  0.51100000000E-03 0.  1.
        -12    1    3    3    0    0  0.48937554383E+00 -0.40078805296E+02 -0.12322618584E+02  0.41933245178E+02  0.00000000000E+00 0.  1.
</event>
<event>
 7    1  0.3752192E-015  0.9000773E+02  0.7816164E-02  0.1186339E+00
        -11   -1    0    0    0    0  0.00000000000E+00  0.00000000000E+00  0.45593999997E+02  0.45594000000E+02  0.51100000000E-03 0. -1.
         11   -1    0    0    0    0 -0.00000000000E+00 -0.00000000000E+00 -0.45593999997E+02  0.45594000000E+02  0.51100000000E-03 0.  1.
    9900012    2    1    2    0    0  0.58673633698E+00 -0.34894675061E+00  0.96281348903E+00  0.90007731734E+02  0.89999992993E+02 0.  0.
        -12    1    1    2    0    0 -0.58673633698E+00  0.34894675061E+00 -0.96281348903E+00  0.11802682655E+01  0.00000000000E+00 0.  1.
         11    1    3    3    0    0  0.20509110783E+02  0.17322114925E+02  0.24966104629E+02  0.36660410134E+02  0.51100000000E-03 0. -1.
        -11    1    3    3    0    0  0.89878506640E+01 -0.36295440716E+01  0.42224694727E+01  0.10572809392E+02  0.51100000000E-03 0.  1.
        -12    1    3    3    0    0 -0.28910225110E+02 -0.14041517604E+02 -0.28225760613E+02  0.42774512209E+02  0.00000000000E+00 0.  1.
</event>
<event>
 7    1  0.3752192E-015  0.9000775E+02  0.7816164E-02  0.1186339E+00
        -11   -1    0    0    0    0  0.00000000000E+00  0.00000000000E+00  0.45593999997E+02  0.45594000000E+02  0.51100000000E-03 0.  1.
         11   -1    0    0    0    0 -0.00000000000E+00 -0.00000000000E+00 -0.45593999997E+02  0.45594000000E+02  0.51100000000E-03 0. -1.
    9900012    2    1    2    0    0  0.19007288506E+00 -0.70643384867E+00 -0.92618174651E+00  0.90007750403E+02  0.90000011908E+02 0.  0.
        -12    1    1    2    0    0 -0.19007288506E+00  0.70643384867E+00  0.92618174651E+00  0.11802495972E+01  0.00000000000E+00 0.  1.
         11    1    3    3    0    0 -0.29255898044E+02 -0.19848121667E+01  0.20518651046E+02  0.35789133696E+02  0.51100000000E-03 0. -1.
        -11    1    3    3    0    0 -0.44726385296E+00  0.79548413972E+01  0.83123862574E+01  0.11514135320E+02  0.51100000000E-03 0.  1.
        -12    1    3    3    0    0  0.29893234782E+02 -0.66764630791E+01 -0.29757219050E+02  0.42704481387E+02  0.00000000000E+00 0.  1.
</event>
<event>
 7    1  0.3752192E-015  0.9000771E+02  0.7816164E-02  0.1186339E+00
        -11   -1    0    0    0    0  0.00000000000E+00  0.00000000000E+00  0.45593999997E+02  0.45594000000E+02  0.51100000000E-03 0. -1.
         11   -1    0    0    0    0 -0.00000000000E+00 -0.00000000000E+00 -0.45593999997E+02  0.45594000000E+02  0.51100000000E-03 0.  1.
    9900012    2    1    2    0    0 -0.21597753642E+00  0.14669739437E+00  0.11510463145E+01  0.90007714424E+02  0.89999975455E+02 0.  0.
        -12    1    1    2    0    0  0.21597753642E+00 -0.14669739437E+00 -0.11510463145E+01  0.11802855755E+01  0.00000000000E+00 0.  1.
         11    1    3    3    0    0  0.16158295254E+01  0.86146494270E+01  0.26729441915E+01  0.91633902415E+01  0.51100000000E-03 0. -1.
        -11    1    3    3    0    0 -0.29638107233E+02 -0.31623312862E+02 -0.80297845993E+01  0.44078665561E+02  0.51100000000E-03 0.  1.
         12    1    3    3    0    0  0.27806300171E+02  0.23155360829E+02  0.65078867223E+01  0.36765658622E+02  0.00000000000E+00 0. -1.
</event>
<event>
 7    1  0.3752192E-015  0.9000832E+02  0.7816164E-02  0.1186338E+00
        -11   -1    0    0    0    0  0.00000000000E+00  0.00000000000E+00  0.45593999997E+02  0.45594000000E+02  0.51100000000E-03 0.  1.
         11   -1    0    0    0    0 -0.00000000000E+00 -0.00000000000E+00 -0.45593999997E+02  0.45594000000E+02  0.51100000000E-03 0. -1.
    9900012    2    1    2    0    0 -0.10094406159E+01 -0.60352691541E+00 -0.91873708575E-01  0.90008315350E+02  0.90000584311E+02 0.  0.
        -12    1    1    2    0    0  0.10094406159E+01  0.60352691541E+00  0.91873708575E-01  0.11796846498E+01  0.00000000000E+00 0.  1.
         11    1    3    3    0    0 -0.39814239048E+01  0.23890632041E+02 -0.29663284661E+02  0.38295228068E+02  0.51100000000E-03 0. -1.
        -11    1    3    3    0    0 -0.73497870821E+01  0.51140677823E+01  0.52218112172E+00  0.89691545208E+01  0.51100000000E-03 0.  1.
        -12    1    3    3    0    0  0.10321770371E+02 -0.29608226739E+02  0.29049229830E+02  0.42743932762E+02  0.00000000000E+00 0.  1.
</event>
<event>
 7    1  0.3752192E-015  0.9000768E+02  0.7816164E-02  0.1186339E+00
        -11   -1    0    0    0    0  0.00000000000E+00  0.00000000000E+00  0.45593999997E+02  0.45594000000E+02  0.51100000000E-03 0. -1.
         11   -1    0    0    0    0 -0.00000000000E+00 -0.00000000000E+00 -0.45593999997E+02  0.45594000000E+02  0.51100000000E-03 0.  1.
    9900012    2    1    2    0    0 -0.10951576594E+01  0.11181031829E-01 -0.44006800089E+00  0.90007680060E+02  0.89999940637E+02 0.  0.
        -12    1    1    2    0    0  0.10951576594E+01 -0.11181031829E-01  0.44006800089E+00  0.11803199396E+01  0.00000000000E+00 0.  1.
         11    1    3    3    0    0 -0.95384936139E+00  0.33358397772E+02 -0.12130056029E+02  0.35508179199E+02  0.51100000000E-03 0. -1.
        -11    1    3    3    0    0 -0.27999815916E+01  0.77812468548E+01 -0.54061976367E+01  0.98800137995E+01  0.51100000000E-03 0.  1.
        -12    1    3    3    0    0  0.26586732936E+01 -0.41128463595E+02  0.17096185665E+02  0.44619487062E+02  0.00000000000E+00 0.  1.
</event>
<event>
 7    1  0.3752192E-015  0.9000768E+02  0.7816164E-02  0.1186339E+00
        -11   -1    0    0    0    0  0.00000000000E+00  0.00000000000E+00  0.45593999997E+02  0.45594000000E+02  0.51100000000E-03 0.  1.
         11   -1    0    0    0    0 -0.00000000000E+00 -0.00000000000E+00 -0.45593999997E+02  0.45594000000E+02  0.51100000000E-03 0. -1.
    9900012    2    1    2    0    0  0.10301044228E+01  0.11844491606E+00 -0.56392259356E+00  0.90007680970E+02  0.89999941559E+02 0.  0.
        -12    1    1    2    0    0 -0.10301044228E+01 -0.11844491606E+00  0.56392259356E+00  0.11803190295E+01  0.00000000000E+00 0.  1.
         11    1    3    3    0    0  0.14796392602E+02  0.14262949454E+02 -0.31011739955E+02  0.37203400066E+02  0.51100000000E-03 0. -1.
        -11    1    3    3    0    0 -0.74530267121E+01  0.11905385828E+02  0.28495690769E+01  0.14331987408E+02  0.51100000000E-03 0.  1.
        -12    1    3    3    0    0 -0.63132614676E+01 -0.26049890366E+02  0.27598248285E+02  0.38472293496E+02  0.00000000000E+00 0.  1.
</event>
<event>
 7    1  0.3752192E-015  0.9000771E+02  0.7816164E-02  0.1186339E+00
        -11   -1    0    0    0    0  0.00000000000E+00  0.00000000000E+00  0.45593999997E+02  0.45594000000E+02  0.51100000000E-03 0.  1.
         11   -1    0    0    0    0 -0.00000000000E+00 -0.00000000000E+00 -0.45593999997E+02  0.45594000000E+02  0.51100000000E-03 0. -1.
    9900012    2    1    2    0    0 -0.58110656887E+00  0.63012901488E+00 -0.81137257340E+00  0.90007714919E+02  0.89999975956E+02 0.  0.
        -12    1    1    2    0    0  0.58110656887E+00 -0.63012901488E+00  0.81137257340E+00  0.11802850811E+01  0.00000000000E+00 0.  1.
         11    1    3    3    0    0  0.56288023609E+01  0.30594935591E+02 -0.11265820017E+02  0.33085528570E+02  0.51100000000E-03 0. -1.
        -11    1    3    3    0    0 -0.13190999732E+01  0.10117439903E+02 -0.75678077227E+01  0.12703319602E+02  0.51100000000E-03 0.  1.
        -12    1    3    3    0    0 -0.48908089566E+01 -0.40082246479E+02  0.18022255167E+02  0.44218866747E+02  0.00000000000E+00 0.  1.
</event>
<event>
 7    1  0.3752192E-015  0.9000778E+02  0.7816164E-02  0.1186339E+00
        -11   -1    0    0    0    0  0.00000000000E+00  0.00000000000E+00  0.45593999997E+02  0.45594000000E+02  0.51100000000E-03 0.  1.
         11   -1    0    0    0    0 -0.00000000000E+00 -0.00000000000E+00 -0.45593999997E+02  0.45594000000E+02  0.51100000000E-03 0. -1.
    9900012    2    1    2    0    0  0.85172163277E+00  0.41813502069E+00 -0.70189604987E+00  0.90007777690E+02  0.90000039556E+02 0.  0.
        -12    1    1    2    0    0 -0.85172163277E+00 -0.41813502069E+00  0.70189604987E+00  0.11802223096E+01  0.00000000000E+00 0.  1.
         11    1    3    3    0    0  0.45305628776E+01  0.35925071334E+02 -0.33771314277E+01  0.36366767347E+02  0.51100000000E-03 0. -1.
        -11    1    3    3    0    0 -0.65601385084E+01  0.68738774175E+01  0.56561158000E+01  0.11057904603E+02  0.51100000000E-03 0.  1.
        -12    1    3    3    0    0  0.28812972636E+01 -0.42380813731E+02 -0.29808804221E+01  0.42583105740E+02  0.00000000000E+00 0.  1.
</event>
