<event>
 7    1  0.1830715E-013  0.7246155E+02  0.7816164E-02  0.1226708E+00
        -11   -1    0    0    0    0  0.00000000000E+00  0.00000000000E+00  0.45593999997E+02  0.45594000000E+02  0.51100000000E-03 0.  1.
         11   -1    0    0    0    0 -0.00000000000E+00 -0.00000000000E+00 -0.45593999997E+02  0.45594000000E+02  0.51100000000E-03 0. -1.
    9900012    2    1    2    0    0 -0.13391421194E+02  0.75991475264E+01 -0.10658453790E+02  0.72461552341E+02  0.69999976613E+02 0.  0.
        -12    1    1    2    0    0  0.13391421194E+02 -0.75991475264E+01  0.10658453790E+02  0.18726447659E+02  0.00000000000E+00 0.  1.
         11    1    3    3    0    0  0.30259187324E+01  0.14213891191E+02  0.10542017169E+02  0.17953412300E+02  0.51100000000E-03 0.  1.
        -11    1    3    3    0    0 -0.32008634469E+02 -0.10795034344E+02 -0.11542672155E+02  0.35697601149E+02  0.51100000000E-03 0. -1.
         12    1    3    3    0    0  0.15591294543E+02  0.41802906793E+01 -0.96577988034E+01  0.18810538892E+02  0.00000000000E+00 0. -1.
</event>
<event>
 7    1  0.1830715E-013  0.7246161E+02  0.7816164E-02  0.1226708E+00
        -11   -1    0    0    0    0  0.00000000000E+00  0.00000000000E+00  0.45593999997E+02  0.45594000000E+02  0.51100000000E-03 0. -1.
         11   -1    0    0    0    0 -0.00000000000E+00 -0.00000000000E+00 -0.45593999997E+02  0.45594000000E+02  0.51100000000E-03 0.  1.
    9900012    2    1    2    0    0 -0.91639477541E+01 -0.22073803798E+01  0.16181071499E+02  0.72461613765E+02  0.70000056628E+02 0.  0.
        -12    1    1    2    0    0  0.91639477541E+01  0.22073803798E+01 -0.16181071499E+02  0.18726386235E+02  0.00000000000E+00 0.  1.
         11    1    3    3    0    0  0.10503896456E+00  0.21899063049E+02  0.22252697902E+02  0.31221187674E+02  0.51100000000E-03 0. -1.
        -11    1    3    3    0    0  0.47156236329E+01 -0.25695734899E+02 -0.57681421400E+00  0.26131219128E+02  0.51100000000E-03 0.  1.
         12    1    3    3    0    0 -0.13984610351E+02  0.15892914703E+01 -0.54948121889E+01  0.15109206963E+02  0.00000000000E+00 0. -1.
</event>
<event>
 7    1  0.1830715E-013  0.7246155E+02  0.7816164E-02  0.1226708E+00
        -11   -1    0    0    0    0  0.00000000000E+00  0.00000000000E+00  0.45593999997E+02  0.45594000000E+02  0.51100000000E-03 0. -1.
         11   -1    0    0    0    0 -0.00000000000E+00 -0.00000000000E+00 -0.45593999997E+02  0.45594000000E+02  0.51100000000E-03 0.  1.
    9900012    2    1    2    0    0  0.70529489518E+01  0.82305378857E+01  0.15270699450E+02  0.72461545330E+02  0.69999967480E+02 0.  0.
        -12    1    1    2    0    0 -0.70529489518E+01 -0.82305378857E+01 -0.15270699450E+02  0.18726454670E+02  0.00000000000E+00 0.  1.
         11    1    3    3    0    0  0.10024592135E+02  0.22472458477E+02  0.49023284780E+01  0.25090569189E+02  0.51100000000E-03 0. -1.
        -11    1    3    3    0    0  0.18668814256E+02 -0.10562223649E+02  0.13279711853E+02  0.25227682044E+02  0.51100000000E-03 0.  1.
        -12    1    3    3    0    0 -0.21640457439E+02 -0.36796969422E+01 -0.29113408811E+01  0.22143294098E+02  0.00000000000E+00 0.  1.
</event>
<event>
 7    1  0.1830715E-013  0.7246159E+02  0.7816164E-02  0.1226708E+00
        -11   -1    0    0    0    0  0.00000000000E+00  0.00000000000E+00  0.45593999997E+02  0.45594000000E+02  0.51100000000E-03 0.  1.
         11   -1    0    0    0    0 -0.00000000000E+00 -0.00000000000E+00 -0.45593999997E+02  0.45594000000E+02  0.51100000000E-03 0. -1.
    9900012    2    1    2    0    0  0.11933408923E+02  0.13706583513E+02  0.45168274878E+01  0.72461590556E+02  0.70000026394E+02 0.  0.
        -12    1    1    2    0    0 -0.11933408923E+02 -0.13706583513E+02 -0.45168274878E+01  0.18726409444E+02  0.00000000000E+00 0.  1.
         11    1    3    3    0    0  0.40538180322E+01 -0.20051102796E+02 -0.25641883484E+01  0.20616867515E+02  0.51100000000E-03 0. -1.
        -11    1    3    3    0    0  0.19856690262E+02  0.29085620222E+02 -0.32291506069E+01  0.35365079751E+02  0.51100000000E-03 0.  1.
         12    1    3    3    0    0 -0.11977099371E+02  0.46720660871E+01  0.10310166443E+02  0.16479643290E+02  0.00000000000E+00 0. -1.
</event>
<event>
 7    1  0.1830715E-013  0.7246158E+02  0.7816164E-02  0.1226708E+00
        -11   -1    0    0    0    0  0.00000000000E+00  0.00000000000E+00  0.45593999997E+02  0.45594000000E+02  0.51100000000E-03 0.  1.
         11   -1    0    0    0    0 -0.00000000000E+00 -0.00000000000E+00 -0.45593999997E+02  0.45594000000E+02  0.51100000000E-03 0. -1.
    9900012    2    1    2    0    0 -0.26552022040E+01 -0.82157274284E+01  0.16617175417E+02  0.72461580301E+02  0.70000013035E+02 0.  0.
        -12    1    1    2    0    0  0.26552022040E+01  0.82157274284E+01 -0.16617175417E+02  0.18726419699E+02  0.00000000000E+00 0.  1.
         11    1    3    3    0    0  0.64149174231E+01  0.40262095963E+01 -0.35863622478E+01  0.83799477142E+01  0.51100000000E-03 0. -1.
        -11    1    3    3    0    0 -0.63006137903E+01 -0.31432626990E+02  0.28591489836E+02  0.42955570825E+02  0.51100000000E-03 0.  1.
        -12    1    3    3    0    0 -0.27695058369E+01  0.19190689965E+02 -0.83879521708E+01  0.21126061761E+02  0.00000000000E+00 0.  1.
</event>
<event>
 7    1  0.1830715E-013  0.7246152E+02  0.7816164E-02  0.1226708E+00
        -11   -1    0    0    0    0  0.00000000000E+00  0.00000000000E+00  0.45593999997E+02  0.45594000000E+02  0.51100000000E-03 0. -1.
         11   -1    0    0    0    0 -0.00000000000E+00 -0.00000000000E+00 -0.45593999997E+02  0.45594000000E+02  0.51100000000E-03 0.  1.
    9900012    2    1    2    0    0 -0.46045411369E+01 -0.15481378503E+02  0.94766162154E+01  0.72461517834E+02  0.69999931660E+02 0.  0.
        -12    1    1    2    0    0  0.46045411369E+01  0.15481378503E+02 -0.94766162154E+01  0.18726482166E+02  0.00000000000E+00 0.  1.
         11    1    3    3    0    0 -0.29302698879E+01 -0.14734741652E+02  0.38666503225E+02  0.41482497093E+02  0.51100000000E-03 0. -1.
        -11    1    3    3    0    0 -0.34516631342E+01  0.24617542557E+01 -0.51948348244E+01  0.67052607348E+01  0.51100000000E-03 0.  1.
         12    1    3    3    0    0  0.17773918851E+01 -0.32083911070E+01 -0.23995052186E+02  0.24273760005E+02  0.00000000000E+00 0. -1.
</event>
<event>
 7    1  0.1830715E-013  0.7246158E+02  0.7816164E-02  0.1226708E+00
        -11   -1    0    0    0    0  0.00000000000E+00  0.00000000000E+00  0.45593999997E+02  0.45594000000E+02  0.51100000000E-03 0. -1.
         11   -1    0    0    0    0 -0.00000000000E+00 -0.00000000000E+00 -0.45593999997E+02  0.45594000000E+02  0.51100000000E-03 0.  1.
    9900012    2    1    2    0    0  0.17436319101E+02 -0.68160634457E+01  0.44126963231E+00  0.72461583803E+02  0.70000017598E+02 0.  0.
        -12    1    1    2    0    0 -0.17436319101E+02  0.68160634457E+01 -0.44126963231E+00  0.18726416197E+02  0.00000000000E+00 0.  1.
         11    1    3    3    0    0  0.25935210858E+02  0.19942436190E+01  0.43094881319E+01  0.26366339490E+02  0.51100000000E-03 0. -1.
        -11    1    3    3    0    0 -0.59986218116E+01 -0.62669966310E+01 -0.24067635326E+02  0.25583388768E+02  0.51100000000E-03 0.  1.
         12    1    3    3    0    0 -0.25002699455E+01 -0.25433104338E+01  0.20199416827E+02  0.20511855545E+02  0.00000000000E+00 0. -1.
</event>
<event>
 7    1  0.1830715E-013  0.7246157E+02  0.7816164E-02  0.1226708E+00
        -11   -1    0    0    0    0  0.00000000000E+00  0.00000000000E+00  0.45593999997E+02  0.45594000000E+02  0.51100000000E-03 0.  1.
         11   -1    0    0    0    0 -0.00000000000E+00 -0.00000000000E+00 -0.45593999997E+02  0.45594000000E+02  0.51100000000E-03 0. -1.
    9900012    2    1    2    0    0  0.10730805714E+02  0.12348531328E+02 -0.91127737167E+01  0.72461573164E+02  0.70000003738E+02 0.  0.
        -12    1    1    2    0    0 -0.10730805714E+02 -0.12348531328E+02  0.91127737167E+01  0.18726426836E+02  0.00000000000E+00 0.  1.
         11    1    3    3    0    0 -0.50008703826E+01 -0.92251484967E+01 -0.24713241078E+02  0.26848768206E+02  0.51100000000E-03 0. -1.
        -11    1    3    3    0    0 -0.78627120861E+01  0.17048658109E+02  0.56173130494E+01  0.19596764805E+02  0.51100000000E-03 0.  1.
        -12    1    3    3    0    0  0.23594388183E+02  0.45250217160E+01  0.99831543115E+01  0.26016040153E+02  0.00000000000E+00 0.  1.
</event>
<event>
 7    1  0.1830715E-013  0.7246158E+02  0.7816164E-02  0.1226708E+00
        -11   -1    0    0    0    0  0.00000000000E+00  0.00000000000E+00  0.45593999997E+02  0.45594000000E+02  0.51100000000E-03 0. -1.
         11   -1    0    0    0    0 -0.00000000000E+00 -0.00000000000E+00 -0.45593999997E+02  0.45594000000E+02  0.51100000000E-03 0.  1.
    9900012    2    1    2    0    0  0.74088852918E+01  0.16911450863E+02  0.31289333318E+01  0.72461575479E+02  0.70000006753E+02 0.  0.
        -12    1    1    2    0    0 -0.74088852918E+01 -0.16911450863E+02 -0.31289333318E+01  0.18726424521E+02  0.00000000000E+00 0.  1.
         11    1    3    3    0    0  0.27543471026E+02 -0.15117353214E+02  0.95540432341E+01  0.32839867642E+02  0.51100000000E-03 0. -1.
        -11    1    3    3    0    0 -0.87532477694E+01  0.73145005367E+01 -0.47643010567E+01  0.12362031768E+02  0.51100000000E-03 0.  1.
         12    1    3    3    0    0 -0.11381337965E+02  0.24714303540E+02 -0.16608088457E+01  0.27259676069E+02  0.00000000000E+00 0. -1.
</event>
<event>
 7    1  0.1830715E-013  0.7246159E+02  0.7816164E-02  0.1226708E+00
        -11   -1    0    0    0    0  0.00000000000E+00  0.00000000000E+00  0.45593999997E+02  0.45594000000E+02  0.51100000000E-03 0.  1.
         11   -1    0    0    0    0 -0.00000000000E+00 -0.00000000000E+00 -0.45593999997E+02  0.45594000000E+02  0.51100000000E-03 0. -1.
    9900012    2    1    2    0    0  0.52616852075E-01  0.40399261219E+01 -0.18285365449E+02  0.72461591876E+02  0.70000028114E+02 0.  0.
        -12    1    1    2    0    0 -0.52616852075E-01 -0.40399261219E+01  0.18285365449E+02  0.18726408124E+02  0.00000000000E+00 0.  1.
         11    1    3    3    0    0  0.21510020737E+02 -0.72867955514E+01 -0.32221458307E+01  0.22938190982E+02  0.51100000000E-03 0. -1.
        -11    1    3    3    0    0 -0.27349638669E+02  0.10438716959E+02  0.40041545944E+01  0.29546620811E+02  0.51100000000E-03 0.  1.
         12    1    3    3    0    0  0.58922347832E+01  0.88800471462E+00 -0.19067374213E+02  0.19976780083E+02  0.00000000000E+00 0. -1.
</event>
<event>
 7    1  0.1830715E-013  0.7246157E+02  0.7816164E-02  0.1226708E+00
        -11   -1    0    0    0    0  0.00000000000E+00  0.00000000000E+00  0.45593999997E+02  0.45594000000E+02  0.51100000000E-03 0.  1.
         11   -1    0    0    0    0 -0.00000000000E+00 -0.00000000000E+00 -0.45593999997E+02  0.45594000000E+02  0.51100000000E-03 0. -1.
    9900012    2    1    2    0    0  0.18546870725E+02 -0.22022990229E+01  0.13574711446E+01  0.72461567810E+02  0.69999996763E+02 0.  0.
        -12    1    1    2    0    0 -0.18546870725E+02  0.22022990229E+01 -0.13574711446E+01  0.18726432190E+02  0.00000000000E+00 0.  1.
         11    1    3    3    0    0 -0.21875772482E+02 -0.10303282748E+00  0.13414910832E+02  0.25661642004E+02  0.51100000000E-03 0. -1.
        -11    1    3    3    0    0  0.20734529490E+02 -0.11119536063E+02 -0.53458159222E+01  0.24127630293E+02  0.51100000000E-03 0.  1.
         12    1    3    3    0    0  0.19688113717E+02  0.90202698678E+01 -0.67116237657E+01  0.22672295512E+02  0.00000000000E+00 0. -1.
</event>
<event>
 7    1  0.1830715E-013  0.7246116E+02  0.7816164E-02  0.1226709E+00
        -11   -1    0    0    0    0  0.00000000000E+00  0.00000000000E+00  0.45593999997E+02  0.45594000000E+02  0.51100000000E-03 0. -1.
         11   -1    0    0    0    0 -0.00000000000E+00 -0.00000000000E+00 -0.45593999997E+02  0.45594000000E+02  0.51100000000E-03 0.  1.
    9900012    2    1    2    0    0 -0.67142281494E+01  0.16134094891E+02  0.67308638482E+01  0.72461163488E+02  0.69999470058E+02 0.  0.
        -12    1    1    2    0    0  0.67142281494E+01 -0.16134094891E+02 -0.67308638482E+01  0.18726836512E+02  0.00000000000E+00 0.  1.
         11    1    3    3    0    0 -0.18263269549E+01 -0.23966841758E+02 -0.89977813585E+01  0.25665249728E+02  0.51100000000E-03 0. -1.
        -11    1    3    3    0    0 -0.13276542321E+01  0.31045735471E+02  0.19127735014E+02  0.36489321777E+02  0.51100000000E-03 0.  1.
        -12    1    3    3    0    0 -0.35602469623E+01  0.90552011772E+01 -0.33990898070E+01  0.10306591983E+02  0.00000000000E+00 0.  1.
</event>
<event>
 7    1  0.1830715E-013  0.7246159E+02  0.7816164E-02  0.1226708E+00
        -11   -1    0    0    0    0  0.00000000000E+00  0.00000000000E+00  0.45593999997E+02  0.45594000000E+02  0.51100000000E-03 0.  1.
         11   -1    0    0    0    0 -0.00000000000E+00 -0.00000000000E+00 -0.45593999997E+02  0.45594000000E+02  0.51100000000E-03 0. -1.
    9900012    2    1    2    0    0 -0.31222518432E+01 -0.52102131111E+01 -0.17713937016E+02  0.72461592394E+02  0.70000028789E+02 0.  0.
        -12    1    1    2    0    0  0.31222518432E+01  0.52102131111E+01  0.17713937016E+02  0.18726407606E+02  0.00000000000E+00 0.  1.
         11    1    3    3    0    0 -0.16741349708E+02 -0.29077028733E+02 -0.16257495566E+02  0.37283408540E+02  0.51100000000E-03 0. -1.
        -11    1    3    3    0    0  0.17363886170E+02  0.88119210981E+01  0.86871208501E+00  0.19491258485E+02  0.51100000000E-03 0.  1.
         12    1    3    3    0    0 -0.37447883054E+01  0.15054894524E+02 -0.23251535352E+01  0.15686925369E+02  0.00000000000E+00 0. -1.
</event>
<event>
 7    1  0.1830715E-013  0.7246128E+02  0.7816164E-02  0.1226709E+00
        -11   -1    0    0    0    0  0.00000000000E+00  0.00000000000E+00  0.45593999997E+02  0.45594000000E+02  0.51100000000E-03 0.  1.
         11   -1    0    0    0    0 -0.00000000000E+00 -0.00000000000E+00 -0.45593999997E+02  0.45594000000E+02  0.51100000000E-03 0. -1.
    9900012    2    1    2    0    0 -0.14515124074E+02  0.96355372918E+01  0.68671473664E+01  0.72461277950E+02  0.69999619166E+02 0.  0.
        -12    1    1    2    0    0  0.14515124074E+02 -0.96355372918E+01 -0.68671473664E+01  0.18726722050E+02  0.00000000000E+00 0.  1.
         11    1    3    3    0    0  0.47645042823E+01  0.20712399417E+02  0.13418682548E+01  0.21295647474E+02  0.51100000000E-03 0. -1.
        -11    1    3    3    0    0 -0.14468388519E+01 -0.10543570525E+02  0.23526278229E+02  0.25821425012E+02  0.51100000000E-03 0.  1.
         12    1    3    3    0    0 -0.17832789504E+02 -0.53329160026E+00 -0.18000999117E+02  0.25344205465E+02  0.00000000000E+00 0. -1.
</event>
<event>
 7    1  0.1830715E-013  0.7246155E+02  0.7816164E-02  0.1226708E+00
        -11   -1    0    0    0    0  0.00000000000E+00  0.00000000000E+00  0.45593999997E+02  0.45594000000E+02  0.51100000000E-03 0.  1.
         11   -1    0    0    0    0 -0.00000000000E+00 -0.00000000000E+00 -0.45593999997E+02  0.45594000000E+02  0.51100000000E-03 0. -1.
    9900012    2    1    2    0    0 -0.97225748618E+01 -0.12519100198E+02  0.99711450252E+01  0.72461546390E+02  0.69999968860E+02 0.  0.
        -12    1    1    2    0    0  0.97225748618E+01  0.12519100198E+02 -0.99711450252E+01  0.18726453610E+02  0.00000000000E+00 0.  1.
         11    1    3    3    0    0 -0.33082402330E+01 -0.14384664889E+02  0.25146940073E+02  0.29158731672E+02  0.51100000000E-03 0. -1.
        -11    1    3    3    0    0 -0.28928494083E+01  0.17964577863E+02  0.33566333759E+01  0.18503016602E+02  0.51100000000E-03 0.  1.
         12    1    3    3    0    0 -0.35214852206E+01 -0.16099013173E+02 -0.18532428424E+02  0.24799798116E+02  0.00000000000E+00 0. -1.
</event>
<event>
 7    1  0.1830715E-013  0.7246160E+02  0.7816164E-02  0.1226708E+00
        -11   -1    0    0    0    0  0.00000000000E+00  0.00000000000E+00  0.45593999997E+02  0.45594000000E+02  0.51100000000E-03 0. -1.
         11   -1    0    0    0    0 -0.00000000000E+00 -0.00000000000E+00 -0.45593999997E+02  0.45594000000E+02  0.51100000000E-03 0.  1.
    9900012    2    1    2    0    0 -0.12655758513E+02 -0.13785039958E+02  0.69450471391E+00  0.72461604538E+02  0.70000044609E+02 0.  0.
        -12    1    1    2    0    0  0.12655758513E+02  0.13785039958E+02 -0.69450471391E+00  0.18726395462E+02  0.00000000000E+00 0.  1.
         11    1    3    3    0    0 -0.12302820675E+01  0.11767726528E+02  0.12023862109E+02  0.16869091318E+02  0.51100000000E-03 0. -1.
        -11    1    3    3    0    0 -0.60983221340E+01 -0.39101825972E+02 -0.56978328478E+01  0.39982591545E+02  0.51100000000E-03 0.  1.
        -12    1    3    3    0    0 -0.53271543113E+01  0.13549059486E+02 -0.56315245474E+01  0.15609921676E+02  0.00000000000E+00 0.  1.
</event>
<event>
 7    1  0.1830715E-013  0.7246159E+02  0.7816164E-02  0.1226708E+00
        -11   -1    0    0    0    0  0.00000000000E+00  0.00000000000E+00  0.45593999997E+02  0.45594000000E+02  0.51100000000E-03 0. -1.
         11   -1    0    0    0    0 -0.00000000000E+00 -0.00000000000E+00 -0.45593999997E+02  0.45594000000E+02  0.51100000000E-03 0.  1.
    9900012    2    1    2    0    0 -0.94619828110E-01 -0.18658380359E+02 -0.15919820509E+01  0.72461587706E+02  0.70000022682E+02 0.  0.
        -12    1    1    2    0    0  0.94619828110E-01  0.18658380359E+02  0.15919820509E+01  0.18726412294E+02  0.00000000000E+00 0.  1.
         11    1    3    3    0    0  0.28000860377E+01 -0.43414670001E+02 -0.34958778375E+01  0.43645105284E+02  0.51100000000E-03 0. -1.
        -11    1    3    3    0    0  0.43045014027E+01  0.13296369225E+02  0.51578972759E+01  0.14897183340E+02  0.51100000000E-03 0.  1.
        -12    1    3    3    0    0 -0.71992072685E+01  0.11459920416E+02 -0.32540014893E+01  0.13919299082E+02  0.00000000000E+00 0.  1.
</event>
<event>
 7    1  0.1830715E-013  0.7246171E+02  0.7816164E-02  0.1226708E+00
        -11   -1    0    0    0    0  0.00000000000E+00  0.00000000000E+00  0.45593999997E+02  0.45594000000E+02  0.51100000000E-03 0.  1.
         11   -1    0    0    0    0 -0.00000000000E+00 -0.00000000000E+00 -0.45593999997E+02  0.45594000000E+02  0.51100000000E-03 0. -1.
    9900012    2    1    2    0    0  0.13434158830E+02 -0.56295859074E+01 -0.11768825304E+02  0.72461705385E+02  0.70000175981E+02 0.  0.
        -12    1    1    2    0    0 -0.13434158830E+02  0.56295859074E+01  0.11768825304E+02  0.18726294615E+02  0.00000000000E+00 0.  1.
         11    1    3    3    0    0 -0.16579525860E+02 -0.69908613878E+01 -0.24813760785E+02  0.30650865326E+02  0.51100000000E-03 0. -1.
        -11    1    3    3    0    0  0.12040922409E+02 -0.59289904891E+01  0.17358329752E+02  0.21941931381E+02  0.51100000000E-03 0.  1.
         12    1    3    3    0    0  0.17972762281E+02  0.72902659695E+01 -0.43133942710E+01  0.19868908678E+02  0.00000000000E+00 0. -1.
</event>
<event>
 7    1  0.1830715E-013  0.7246157E+02  0.7816164E-02  0.1226708E+00
        -11   -1    0    0    0    0  0.00000000000E+00  0.00000000000E+00  0.45593999997E+02  0.45594000000E+02  0.51100000000E-03 0. -1.
         11   -1    0    0    0    0 -0.00000000000E+00 -0.00000000000E+00 -0.45593999997E+02  0.45594000000E+02  0.51100000000E-03 0.  1.
    9900012    2    1    2    0    0  0.12139685524E+02 -0.10496778832E+02  0.96501149946E+01  0.72461573489E+02  0.70000004162E+02 0.  0.
        -12    1    1    2    0    0 -0.12139685524E+02  0.10496778832E+02 -0.96501149946E+01  0.18726426511E+02  0.00000000000E+00 0.  1.
         11    1    3    3    0    0  0.22534186110E+02 -0.37042822073E+01  0.28530498511E+01  0.23014150952E+02  0.51100000000E-03 0. -1.
        -11    1    3    3    0    0 -0.16250669050E+02 -0.89247288553E+01  0.24474235077E+02  0.30703798015E+02  0.51100000000E-03 0.  1.
         12    1    3    3    0    0  0.58561684640E+01  0.21322322310E+01 -0.17677169934E+02  0.18743624522E+02  0.00000000000E+00 0. -1.
</event>
<event>
 7    1  0.1830715E-013  0.7246165E+02  0.7816164E-02  0.1226708E+00
        -11   -1    0    0    0    0  0.00000000000E+00  0.00000000000E+00  0.45593999997E+02  0.45594000000E+02  0.51100000000E-03 0.  1.
         11   -1    0    0    0    0 -0.00000000000E+00 -0.00000000000E+00 -0.45593999997E+02  0.45594000000E+02  0.51100000000E-03 0. -1.
    9900012    2    1    2    0    0  0.15437290685E+02 -0.10543964949E+02  0.10913069611E+01  0.72461652480E+02  0.70000107062E+02 0.  0.
        -12    1    1    2    0    0 -0.15437290685E+02  0.10543964949E+02 -0.10913069611E+01  0.18726347520E+02  0.00000000000E+00 0.  1.
         11    1    3    3    0    0 -0.19487909333E+02  0.41601021879E+01  0.17991890848E+02  0.26847592014E+02  0.51100000000E-03 0. -1.
        -11    1    3    3    0    0  0.25398000735E+02 -0.60752212257E+01 -0.23818755736E+01  0.26222892399E+02  0.51100000000E-03 0.  1.
        -12    1    3    3    0    0  0.95271992838E+01 -0.86288459111E+01 -0.14518708313E+02  0.19391168068E+02  0.00000000000E+00 0.  1.
</event>
<event>
 7    1  0.1830715E-013  0.7246159E+02  0.7816164E-02  0.1226708E+00
        -11   -1    0    0    0    0  0.00000000000E+00  0.00000000000E+00  0.45593999997E+02  0.45594000000E+02  0.51100000000E-03 0. -1.
         11   -1    0    0    0    0 -0.00000000000E+00 -0.00000000000E+00 -0.45593999997E+02  0.45594000000E+02  0.51100000000E-03 0.  1.
    9900012    2    1    2    0    0  0.80376918839E+01  0.35842712075E+01 -0.16529575834E+02  0.72461591691E+02  0.70000027873E+02 0.  0.
        -12    1    1    2    0    0 -0.80376918839E+01 -0.35842712075E+01  0.16529575834E+02  0.18726408309E+02  0.00000000000E+00 0.  1.
         11    1    3    3    0    0  0.18265093977E+02 -0.99005072695E+01  0.19958574494E+02  0.28809345676E+02  0.51100000000E-03 0. -1.
        -11    1    3    3    0    0 -0.69052964953E+01  0.11493388806E+02 -0.96100131952E+01  0.16496468101E+02  0.51100000000E-03 0.  1.
         12    1    3    3    0    0 -0.33221055979E+01  0.19913896706E+01 -0.26878137132E+02  0.27155777914E+02  0.00000000000E+00 0. -1.
</event>
<event>
 7    1  0.1830715E-013  0.7246158E+02  0.7816164E-02  0.1226708E+00
        -11   -1    0    0    0    0  0.00000000000E+00  0.00000000000E+00  0.45593999997E+02  0.45594000000E+02  0.51100000000E-03 0.  1.
         11   -1    0    0    0    0 -0.00000000000E+00 -0.00000000000E+00 -0.45593999997E+02  0.45594000000E+02  0.51100000000E-03 0. -1.
    9900012    2    1    2    0    0  0.29379715139E+01 -0.88946024100E+00 -0.18473113806E+02  0.72461581500E+02  0.70000014598E+02 0.  0.
        -12    1    1    2    0    0 -0.29379715139E+01  0.88946024100E+00  0.18473113806E+02  0.18726418500E+02  0.00000000000E+00 0.  1.
         11    1    3    3    0    0 -0.94563037310E+01 -0.22558502333E+02 -0.26452540902E+02  0.36028386422E+02  0.51100000000E-03 0. -1.
        -11    1    3    3    0    0  0.13979692439E+01  0.77989822180E+01  0.15338544983E+02  0.17264107394E+02  0.51100000000E-03 0.  1.
         12    1    3    3    0    0  0.10996306001E+02  0.13870059874E+02 -0.73591178876E+01  0.19169087684E+02  0.00000000000E+00 0. -1.
</event>
<event>
 7    1  0.1830715E-013  0.7246157E+02  0.7816164E-02  0.1226708E+00
        -11   -1    0    0    0    0  0.00000000000E+00  0.00000000000E+00  0.45593999997E+02  0.45594000000E+02  0.51100000000E-03 0. -1.
         11   -1    0    0    0    0 -0.00000000000E+00 -0.00000000000E+00 -0.45593999997E+02  0.45594000000E+02  0.51100000000E-03 0.  1.
    9900012    2    1    2    0    0  0.10444730692E+02 -0.15532403444E+02 -0.57548002594E+00  0.72461571263E+02  0.70000001262E+02 0.  0.
        -12    1    1    2    0    0 -0.10444730692E+02  0.15532403444E+02  0.57548002594E+00  0.18726428737E+02  0.00000000000E+00 0.  1.
         11    1    3    3    0    0  0.83290396193E+01  0.21462840036E+02  0.55566961249E+00  0.23029007195E+02  0.51100000000E-03 0. -1.
        -11    1    3    3    0    0  0.13178486907E+02 -0.32123093545E+02  0.62353500569E+01  0.35276695518E+02  0.51100000000E-03 0.  1.
        -12    1    3    3    0    0 -0.11062795834E+02 -0.48721499349E+01 -0.73664996953E+01  0.14155868550E+02  0.00000000000E+00 0.  1.
</event>
<event>
 7    1  0.1830715E-013  0.7246147E+02  0.7816164E-02  0.1226708E+00
        -11   -1    0    0    0    0  0.00000000000E+00  0.00000000000E+00  0.45593999997E+02  0.45594000000E+02  0.51100000000E-03 0. -1.
         11   -1    0    0    0    0 -0.00000000000E+00 -0.00000000000E+00 -0.45593999997E+02  0.45594000000E+02  0.51100000000E-03 0.  1.
    9900012    2    1    2    0    0 -0.77600444921E+01 -0.16669875110E+02 -0.35467918306E+01  0.72461474455E+02  0.69999875151E+02 0.  0.
        -12    1    1    2    0    0  0.77600444921E+01  0.16669875110E+02  0.35467918306E+01  0.18726525545E+02  0.00000000000E+00 0.  1.
         11    1    3    3    0    0  0.19698147458E+02  0.62797144011E+01 -0.38196293375E+01  0.21024780493E+02  0.51100000000E-03 0. -1.
        -11    1    3    3    0    0 -0.29945281144E+02 -0.16630920731E+02  0.13300729791E+02  0.36745296303E+02  0.51100000000E-03 0.  1.
        -12    1    3    3    0    0  0.24870891939E+01 -0.63186687801E+01 -0.13027892284E+02  0.14691397659E+02  0.00000000000E+00 0.  1.
</event>
<event>
 7    1  0.1830715E-013  0.7246158E+02  0.7816164E-02  0.1226708E+00
        -11   -1    0    0    0    0  0.00000000000E+00  0.00000000000E+00  0.45593999997E+02  0.45594000000E+02  0.51100000000E-03 0.  1.
         11   -1    0    0    0    0 -0.00000000000E+00 -0.00000000000E+00 -0.45593999997E+02  0.45594000000E+02  0.51100000000E-03 0. -1.
    9900012    2    1    2    0    0 -0.38538116474E+01  0.16784047732E+02 -0.73568097134E+01  0.72461580918E+02  0.70000013839E+02 0.  0.
        -12    1    1    2    0    0  0.38538116474E+01 -0.16784047732E+02  0.73568097134E+01  0.18726419082E+02  0.00000000000E+00 0.  1.
         11    1    3    3    0    0 -0.61611532226E+01 -0.18386115375E+02  0.17459331210E+02  0.26092859065E+02  0.51100000000E-03 0.  1.
        -11    1    3    3    0    0  0.34724270545E+01  0.27439127662E+02 -0.26573729043E+02  0.38355267591E+02  0.51100000000E-03 0. -1.
         12    1    3    3    0    0 -0.11650854794E+01  0.77310354442E+01  0.17575881195E+01  0.80134542622E+01  0.00000000000E+00 0. -1.
</event>
<event>
 7    1  0.1830715E-013  0.7246157E+02  0.7816164E-02  0.1226708E+00
        -11   -1    0    0    0    0  0.00000000000E+00  0.00000000000E+00  0.45593999997E+02  0.45594000000E+02  0.51100000000E-03 0. -1.
         11   -1    0    0    0    0 -0.00000000000E+00 -0.00000000000E+00 -0.45593999997E+02  0.45594000000E+02  0.51100000000E-03 0.  1.
    9900012    2    1    2    0    0  0.78377929170E+01 -0.51468325374E+01  0.16209817148E+02  0.72461573353E+02  0.70000003985E+02 0.  0.
        -12    1    1    2    0    0 -0.78377929170E+01  0.51468325374E+01 -0.16209817148E+02  0.18726426647E+02  0.00000000000E+00 0.  1.
         11    1    3    3    0    0  0.23459100812E+02 -0.35577671747E+00  0.13215739963E+02  0.26927899491E+02  0.51100000000E-03 0. -1.
        -11    1    3    3    0    0 -0.17270709045E+02 -0.84905513015E+01 -0.16667482851E+02  0.25459219099E+02  0.51100000000E-03 0.  1.
         12    1    3    3    0    0  0.16494011496E+01  0.36994954816E+01  0.19661560036E+02  0.20074454763E+02  0.00000000000E+00 0. -1.
</event>
<event>
 7    1  0.1830715E-013  0.7246158E+02  0.7816164E-02  0.1226708E+00
        -11   -1    0    0    0    0  0.00000000000E+00  0.00000000000E+00  0.45593999997E+02  0.45594000000E+02  0.51100000000E-03 0.  1.
         11   -1    0    0    0    0 -0.00000000000E+00 -0.00000000000E+00 -0.45593999997E+02  0.45594000000E+02  0.51100000000E-03 0. -1.
    9900012    2    1    2    0    0  0.16283363383E+02  0.92482831228E+01  0.15082104875E-01  0.72461577724E+02  0.70000009679E+02 0.  0.
        -12    1    1    2    0    0 -0.16283363383E+02 -0.92482831228E+01 -0.15082104875E-01  0.18726422276E+02  0.00000000000E+00 0.  1.
         11    1    3    3    0    0  0.10804412371E+01  0.22630351874E+02 -0.42010940054E+01  0.23042338647E+02  0.51100000000E-03 0.  1.
        -11    1    3    3    0    0 -0.17282399612E+00 -0.27106397718E+02  0.84207155958E+01  0.28384769099E+02  0.51100000000E-03 0. -1.
         12    1    3    3    0    0  0.15375746142E+02  0.13724328967E+02 -0.42045394855E+01  0.21034469979E+02  0.00000000000E+00 0. -1.
</event>
<event>
 7    1  0.1830715E-013  0.7246159E+02  0.7816164E-02  0.1226708E+00
        -11   -1    0    0    0    0  0.00000000000E+00  0.00000000000E+00  0.45593999997E+02  0.45594000000E+02  0.51100000000E-03 0.  1.
         11   -1    0    0    0    0 -0.00000000000E+00 -0.00000000000E+00 -0.45593999997E+02  0.45594000000E+02  0.51100000000E-03 0. -1.
    9900012    2    1    2    0    0  0.32660742245E+00 -0.41296936574E+01 -0.18262455839E+02  0.72461592566E+02  0.70000029013E+02 0.  0.
        -12    1    1    2    0    0 -0.32660742245E+00  0.41296936574E+01  0.18262455839E+02  0.18726407434E+02  0.00000000000E+00 0.  1.
         11    1    3    3    0    0  0.12315705654E+02  0.18622248937E+02 -0.15530488837E+02  0.27196706511E+02  0.51100000000E-03 0. -1.
        -11    1    3    3    0    0 -0.11028141851E+02 -0.19516599929E+02 -0.18546325347E+02  0.29094394127E+02  0.51100000000E-03 0.  1.
        -12    1    3    3    0    0 -0.96095638023E+00 -0.32353426655E+01  0.15814358346E+02  0.16170491929E+02  0.00000000000E+00 0.  1.
</event>
<event>
 7    1  0.1830715E-013  0.7246158E+02  0.7816164E-02  0.1226708E+00
        -11   -1    0    0    0    0  0.00000000000E+00  0.00000000000E+00  0.45593999997E+02  0.45594000000E+02  0.51100000000E-03 0. -1.
         11   -1    0    0    0    0 -0.00000000000E+00 -0.00000000000E+00 -0.45593999997E+02  0.45594000000E+02  0.51100000000E-03 0.  1.
    9900012    2    1    2    0    0 -0.46168655940E+01  0.78035798116E+01  0.16384974099E+02  0.72461583311E+02  0.70000016957E+02 0.  0.
        -12    1    1    2    0    0  0.46168655940E+01 -0.78035798116E+01 -0.16384974099E+02  0.18726416689E+02  0.00000000000E+00 0.  1.
         11    1    3    3    0    0 -0.94781469442E+01  0.23502603864E-01  0.68733725077E+01  0.11708077202E+02  0.51100000000E-03 0. -1.
        -11    1    3    3    0    0  0.21815904200E+02  0.24678356939E+02  0.15002237088E+02  0.36194227374E+02  0.51100000000E-03 0.  1.
        -12    1    3    3    0    0 -0.16954622850E+02 -0.16898279731E+02 -0.54906354969E+01  0.24559278736E+02  0.00000000000E+00 0.  1.
</event>
<event>
 7    1  0.1830715E-013  0.7246172E+02  0.7816164E-02  0.1226708E+00
        -11   -1    0    0    0    0  0.00000000000E+00  0.00000000000E+00  0.45593999997E+02  0.45594000000E+02  0.51100000000E-03 0. -1.
         11   -1    0    0    0    0 -0.00000000000E+00 -0.00000000000E+00 -0.45593999997E+02  0.45594000000E+02  0.51100000000E-03 0.  1.
    9900012    2    1    2    0    0 -0.12106889403E+02  0.11811423088E+02 -0.80366164182E+01  0.72461716604E+02  0.70000190595E+02 0.  0.
        -12    1    1    2    0    0  0.12106889403E+02 -0.11811423088E+02  0.80366164182E+01  0.18726283396E+02  0.00000000000E+00 0.  1.
         11    1    3    3    0    0  0.40630162298E+01  0.16009259679E+02  0.20897940426E+02  0.26636974502E+02  0.51100000000E-03 0. -1.
        -11    1    3    3    0    0 -0.16932975432E+02  0.11072155171E+02 -0.15846352038E+02  0.25698738301E+02  0.51100000000E-03 0.  1.
         12    1    3    3    0    0  0.76306979964E+00 -0.15269991762E+02 -0.13088204806E+02  0.20126003800E+02  0.00000000000E+00 0. -1.
</event>
<event>
 7    1  0.1830715E-013  0.7246156E+02  0.7816164E-02  0.1226708E+00
        -11   -1    0    0    0    0  0.00000000000E+00  0.00000000000E+00  0.45593999997E+02  0.45594000000E+02  0.51100000000E-03 0. -1.
         11   -1    0    0    0    0 -0.00000000000E+00 -0.00000000000E+00 -0.45593999997E+02  0.45594000000E+02  0.51100000000E-03 0.  1.
    9900012    2    1    2    0    0 -0.24081117255E+01 -0.15543720279E+02  0.10162346309E+02  0.72461560812E+02  0.69999987647E+02 0.  0.
        -12    1    1    2    0    0  0.24081117255E+01  0.15543720279E+02 -0.10162346309E+02  0.18726439188E+02  0.00000000000E+00 0.  1.
         11    1    3    3    0    0  0.34658246534E+01 -0.24059721176E+02  0.59931956684E+01  0.25035984466E+02  0.51100000000E-03 0.  1.
        -11    1    3    3    0    0 -0.11956986684E+02  0.15088545249E+02  0.20920471083E+02  0.28430614466E+02  0.51100000000E-03 0. -1.
        -12    1    3    3    0    0  0.60830503050E+01 -0.65725443523E+01 -0.16751320442E+02  0.18994961880E+02  0.00000000000E+00 0.  1.
</event>
<event>
 7    1  0.1830715E-013  0.7246160E+02  0.7816164E-02  0.1226708E+00
        -11   -1    0    0    0    0  0.00000000000E+00  0.00000000000E+00  0.45593999997E+02  0.45594000000E+02  0.51100000000E-03 0.  1.
         11   -1    0    0    0    0 -0.00000000000E+00 -0.00000000000E+00 -0.45593999997E+02  0.45594000000E+02  0.51100000000E-03 0. -1.
    9900012    2    1    2    0    0  0.82418510824E+01 -0.59538842772E+01 -0.15725810261E+02  0.72461602706E+02  0.70000042223E+02 0.  0.
        -12    1    1    2    0    0 -0.82418510824E+01  0.59538842772E+01  0.15725810261E+02  0.18726397294E+02  0.00000000000E+00 0.  1.
         11    1    3    3    0    0 -0.12640404754E+02  0.68671314041E+01 -0.23875331420E+02  0.27874159660E+02  0.51100000000E-03 0. -1.
        -11    1    3    3    0    0  0.21663016718E+02 -0.81566677980E+01  0.20776211644E+02  0.31104155565E+02  0.51100000000E-03 0.  1.
         12    1    3    3    0    0 -0.78076088174E+00 -0.46643478833E+01 -0.12626690484E+02  0.13483287481E+02  0.00000000000E+00 0. -1.
</event>
<event>
 7    1  0.1830715E-013  0.7246159E+02  0.7816164E-02  0.1226708E+00
        -11   -1    0    0    0    0  0.00000000000E+00  0.00000000000E+00  0.45593999997E+02  0.45594000000E+02  0.51100000000E-03 0. -1.
         11   -1    0    0    0    0 -0.00000000000E+00 -0.00000000000E+00 -0.45593999997E+02  0.45594000000E+02  0.51100000000E-03 0.  1.
    9900012    2    1    2    0    0 -0.15836990864E+02  0.57074042511E+01 -0.82032816288E+01  0.72461586238E+02  0.70000020769E+02 0.  0.
        -12    1    1    2    0    0  0.15836990864E+02 -0.57074042511E+01  0.82032816288E+01  0.18726413762E+02  0.00000000000E+00 0.  1.
         11    1    3    3    0    0 -0.22258814966E+01  0.36009118047E+02  0.22288717044E+01  0.36146631936E+02  0.51100000000E-03 0. -1.
        -11    1    3    3    0    0 -0.70330550860E+01 -0.93186422134E+01 -0.80829541460E+01  0.14199827623E+02  0.51100000000E-03 0.  1.
         12    1    3    3    0    0 -0.65780542817E+01 -0.20983071583E+02 -0.23491991872E+01  0.22115126678E+02  0.00000000000E+00 0. -1.
</event>
<event>
 7    1  0.1830715E-013  0.7246155E+02  0.7816164E-02  0.1226708E+00
        -11   -1    0    0    0    0  0.00000000000E+00  0.00000000000E+00  0.45593999997E+02  0.45594000000E+02  0.51100000000E-03 0. -1.
         11   -1    0    0    0    0 -0.00000000000E+00 -0.00000000000E+00 -0.45593999997E+02  0.45594000000E+02  0.51100000000E-03 0.  1.
    9900012    2    1    2    0    0 -0.17197781777E+02 -0.67171654868E+01 -0.31298637044E+01  0.72461546598E+02  0.69999969131E+02 0.  0.
        -12    1    1    2    0    0  0.17197781777E+02  0.67171654868E+01  0.31298637044E+01  0.18726453402E+02  0.00000000000E+00 0.  1.
         11    1    3    3    0    0  0.38047585497E+01  0.14968501603E+02  0.13692361647E+02  0.20640082257E+02  0.51100000000E-03 0. -1.
        -11    1    3    3    0    0 -0.96649512143E+01 -0.24510822755E+02  0.52332069034E+01  0.26862207074E+02  0.51100000000E-03 0.  1.
        -12    1    3    3    0    0 -0.11337589112E+02  0.28251556658E+01 -0.22055432255E+02  0.24959257267E+02  0.00000000000E+00 0.  1.
</event>
<event>
 7    1  0.1830715E-013  0.7246167E+02  0.7816164E-02  0.1226708E+00
        -11   -1    0    0    0    0  0.00000000000E+00  0.00000000000E+00  0.45593999997E+02  0.45594000000E+02  0.51100000000E-03 0. -1.
         11   -1    0    0    0    0 -0.00000000000E+00 -0.00000000000E+00 -0.45593999997E+02  0.45594000000E+02  0.51100000000E-03 0.  1.
    9900012    2    1    2    0    0 -0.16189103450E+02  0.33079390370E+00  0.94063298151E+01  0.72461667318E+02  0.70000126391E+02 0.  0.
        -12    1    1    2    0    0  0.16189103450E+02 -0.33079390370E+00 -0.94063298151E+01  0.18726332682E+02  0.00000000000E+00 0.  1.
         11    1    3    3    0    0  0.15273499626E+02 -0.17305182811E+02  0.19923317821E+02  0.30490781168E+02  0.51100000000E-03 0. -1.
        -11    1    3    3    0    0 -0.29181819809E+02  0.17628771652E+02 -0.31263641189E+01  0.34236330852E+02  0.51100000000E-03 0.  1.
         12    1    3    3    0    0 -0.22807832669E+01  0.72050630761E-02 -0.73906238874E+01  0.77345552987E+01  0.00000000000E+00 0. -1.
</event>
<event>
 7    1  0.1830715E-013  0.7246157E+02  0.7816164E-02  0.1226708E+00
        -11   -1    0    0    0    0  0.00000000000E+00  0.00000000000E+00  0.45593999997E+02  0.45594000000E+02  0.51100000000E-03 0.  1.
         11   -1    0    0    0    0 -0.00000000000E+00 -0.00000000000E+00 -0.45593999997E+02  0.45594000000E+02  0.51100000000E-03 0. -1.
    9900012    2    1    2    0    0  0.60135849042E+00  0.10171070009E+01 -0.18689115570E+02  0.72461570029E+02  0.69999999654E+02 0.  0.
        -12    1    1    2    0    0 -0.60135849042E+00 -0.10171070009E+01  0.18689115570E+02  0.18726429971E+02  0.00000000000E+00 0.  1.
         11    1    3    3    0    0 -0.10464608523E+02 -0.20091881554E+02  0.16322844781E+02  0.27921801481E+02  0.51100000000E-03 0.  1.
        -11    1    3    3    0    0  0.13050035238E+02  0.12250397028E+02 -0.27212318511E+02  0.32571243852E+02  0.51100000000E-03 0. -1.
        -12    1    3    3    0    0 -0.19840682254E+01  0.88585915268E+01 -0.77996418405E+01  0.11968524696E+02  0.00000000000E+00 0.  1.
</event>
<event>
 8    1  0.1830715E-013  0.7246181E+02  0.7816164E-02  0.1226707E+00
        -11   -1    0    0    0    0  0.00000000000E+00  0.00000000000E+00  0.45593999997E+02  0.45594000000E+02  0.51100000000E-03 0. -1.
         11   -1    0    0    0    0 -0.00000000000E+00 -0.00000000000E+00 -0.45593999997E+02  0.45594000000E+02  0.51100000000E-03 0.  1.
    9900012    2    1    2    0    0  0.12771299627E+02 -0.21118195834E+01  0.13531607301E+02  0.72461807855E+02  0.70000309466E+02 0.  0.
         24    2    3    3    0    0  0.61211835748E+01 -0.13075049448E+02 -0.21582351812E+01  0.52198846326E+02  0.50116222645E+02 0.  0.
        -12    1    1    2    0    0 -0.12771299627E+02  0.21118195834E+01 -0.13531607301E+02  0.18726192145E+02  0.00000000000E+00 0.  1.
         11    1    3    3    0    0  0.66501160521E+01  0.10963229864E+02  0.15689842482E+02  0.20262961529E+02  0.51100000000E-03 0. -1.
        -11    1    4    4    0    0  0.19519606995E+02 -0.16664675402E+01 -0.19394010369E+02  0.27566643063E+02  0.51100000000E-03 0.  1.
         12    1    4    4    0    0 -0.13398423420E+02 -0.11408581907E+02  0.17235775188E+02  0.24632203263E+02  0.00000000000E+00 0. -1.
</event>
<event>
 7    1  0.1830715E-013  0.7246161E+02  0.7816164E-02  0.1226708E+00
        -11   -1    0    0    0    0  0.00000000000E+00  0.00000000000E+00  0.45593999997E+02  0.45594000000E+02  0.51100000000E-03 0. -1.
         11   -1    0    0    0    0 -0.00000000000E+00 -0.00000000000E+00 -0.45593999997E+02  0.45594000000E+02  0.51100000000E-03 0.  1.
    9900012    2    1    2    0    0 -0.10656838882E+02 -0.15220182006E+02  0.23357294336E+01  0.72461607202E+02  0.70000048079E+02 0.  0.
        -12    1    1    2    0    0  0.10656838882E+02  0.15220182006E+02 -0.23357294336E+01  0.18726392798E+02  0.00000000000E+00 0.  1.
         11    1    3    3    0    0 -0.25095656953E+02 -0.13302428835E+02  0.25437936643E+02  0.38129191333E+02  0.51100000000E-03 0. -1.
        -11    1    3    3    0    0  0.82751587008E+01 -0.99283560603E+01 -0.19901761371E+02  0.23730373186E+02  0.51100000000E-03 0.  1.
        -12    1    3    3    0    0  0.61636593709E+01  0.80106028890E+01 -0.32004458381E+01  0.10602042683E+02  0.00000000000E+00 0.  1.
</event>
<event>
 7    1  0.1830715E-013  0.7246162E+02  0.7816164E-02  0.1226708E+00
        -11   -1    0    0    0    0  0.00000000000E+00  0.00000000000E+00  0.45593999997E+02  0.45594000000E+02  0.51100000000E-03 0.  1.
         11   -1    0    0    0    0 -0.00000000000E+00 -0.00000000000E+00 -0.45593999997E+02  0.45594000000E+02  0.51100000000E-03 0. -1.
    9900012    2    1    2    0    0 -0.76306743630E+01  0.13839544444E+02 -0.10045742791E+02  0.72461624753E+02  0.70000070943E+02 0.  0.
        -12    1    1    2    0    0  0.76306743630E+01 -0.13839544444E+02  0.10045742791E+02  0.18726375247E+02  0.00000000000E+00 0.  1.
         11    1    3    3    0    0 -0.52484475349E+01  0.78475501226E+00  0.19295235404E+01  0.56466895886E+01  0.51100000000E-03 0. -1.
        -11    1    3    3    0    0  0.21386680858E+02 -0.17062309634E+02 -0.54789835639E+01  0.27902182518E+02  0.51100000000E-03 0.  1.
        -12    1    3    3    0    0 -0.23768907686E+02  0.30117099066E+02 -0.64962827676E+01  0.38912752646E+02  0.00000000000E+00 0.  1.
</event>
<event>
 7    1  0.1830715E-013  0.7246158E+02  0.7816164E-02  0.1226708E+00
        -11   -1    0    0    0    0  0.00000000000E+00  0.00000000000E+00  0.45593999997E+02  0.45594000000E+02  0.51100000000E-03 0.  1.
         11   -1    0    0    0    0 -0.00000000000E+00 -0.00000000000E+00 -0.45593999997E+02  0.45594000000E+02  0.51100000000E-03 0. -1.
    9900012    2    1    2    0    0  0.63828569343E+01 -0.21990491958E+01 -0.17467169650E+02  0.72461582948E+02  0.70000016484E+02 0.  0.
        -12    1    1    2    0    0 -0.63828569343E+01  0.21990491958E+01  0.17467169650E+02  0.18726417052E+02  0.00000000000E+00 0.  1.
         11    1    3    3    0    0  0.20700474211E+02 -0.10708367686E+02  0.14556429515E+02  0.27478508175E+02  0.51100000000E-03 0.  1.
        -11    1    3    3    0    0 -0.14261086083E+02  0.14653829188E+02 -0.11288983528E+02  0.23357106745E+02  0.51100000000E-03 0. -1.
         12    1    3    3    0    0 -0.56531193077E-01 -0.61445106983E+01 -0.20734615638E+02  0.21625968028E+02  0.00000000000E+00 0. -1.
</event>
<event>
 7    1  0.1830715E-013  0.7246153E+02  0.7816164E-02  0.1226708E+00
        -11   -1    0    0    0    0  0.00000000000E+00  0.00000000000E+00  0.45593999997E+02  0.45594000000E+02  0.51100000000E-03 0. -1.
         11   -1    0    0    0    0 -0.00000000000E+00 -0.00000000000E+00 -0.45593999997E+02  0.45594000000E+02  0.51100000000E-03 0.  1.
    9900012    2    1    2    0    0 -0.30910123672E+01  0.18235408759E+02  0.29318985771E+01  0.72461534254E+02  0.69999953051E+02 0.  0.
        -12    1    1    2    0    0  0.30910123672E+01 -0.18235408759E+02 -0.29318985771E+01  0.18726465746E+02  0.00000000000E+00 0.  1.
         11    1    3    3    0    0  0.20130226131E+02 -0.93612627059E+01  0.15360498467E+02  0.26996373033E+02  0.51100000000E-03 0.  1.
        -11    1    3    3    0    0 -0.23787911783E+02  0.30471764165E+02 -0.15098081257E+02  0.41501147168E+02  0.51100000000E-03 0. -1.
         12    1    3    3    0    0  0.56667328471E+00 -0.28750927000E+01  0.26694813666E+01  0.39640140529E+01  0.00000000000E+00 0. -1.
</event>
<event>
 7    1  0.1830715E-013  0.7246156E+02  0.7816164E-02  0.1226708E+00
        -11   -1    0    0    0    0  0.00000000000E+00  0.00000000000E+00  0.45593999997E+02  0.45594000000E+02  0.51100000000E-03 0.  1.
         11   -1    0    0    0    0 -0.00000000000E+00 -0.00000000000E+00 -0.45593999997E+02  0.45594000000E+02  0.51100000000E-03 0. -1.
    9900012    2    1    2    0    0  0.15967294122E+02  0.87900854414E+01 -0.42964640852E+01  0.72461556470E+02  0.69999981991E+02 0.  0.
        -12    1    1    2    0    0 -0.15967294122E+02 -0.87900854414E+01  0.42964640852E+01  0.18726443530E+02  0.00000000000E+00 0.  1.
         11    1    3    3    0    0 -0.11783857281E+02 -0.13654356692E+02  0.10506772443E+02  0.20873260802E+02  0.51100000000E-03 0.  1.
        -11    1    3    3    0    0  0.35708528741E+02  0.16342782648E+02 -0.13222853241E+02  0.41437053680E+02  0.51100000000E-03 0. -1.
        -12    1    3    3    0    0 -0.79573773382E+01  0.61016594847E+01 -0.15803832867E+01  0.10151241988E+02  0.00000000000E+00 0.  1.
</event>
<event>
 7    1  0.1830715E-013  0.7246172E+02  0.7816164E-02  0.1226708E+00
        -11   -1    0    0    0    0  0.00000000000E+00  0.00000000000E+00  0.45593999997E+02  0.45594000000E+02  0.51100000000E-03 0.  1.
         11   -1    0    0    0    0 -0.00000000000E+00 -0.00000000000E+00 -0.45593999997E+02  0.45594000000E+02  0.51100000000E-03 0. -1.
    9900012    2    1    2    0    0  0.18349760147E+02 -0.13232828448E+01 -0.34941239411E+01  0.72461716945E+02  0.70000191040E+02 0.  0.
        -12    1    1    2    0    0 -0.18349760147E+02  0.13232828448E+01  0.34941239411E+01  0.18726283055E+02  0.00000000000E+00 0.  1.
         11    1    3    3    0    0  0.15947797942E+02 -0.91318401936E+01  0.23319431892E+01  0.18524597805E+02  0.51100000000E-03 0. -1.
        -11    1    3    3    0    0 -0.13635237657E+01  0.25933665085E+02  0.11664768317E+02  0.28468948031E+02  0.51100000000E-03 0.  1.
        -12    1    3    3    0    0  0.37654859701E+01 -0.18125107737E+02 -0.17490835447E+02  0.25468171110E+02  0.00000000000E+00 0.  1.
</event>
<event>
 7    1  0.1830715E-013  0.7246120E+02  0.7816164E-02  0.1226709E+00
        -11   -1    0    0    0    0  0.00000000000E+00  0.00000000000E+00  0.45593999997E+02  0.45594000000E+02  0.51100000000E-03 0. -1.
         11   -1    0    0    0    0 -0.00000000000E+00 -0.00000000000E+00 -0.45593999997E+02  0.45594000000E+02  0.51100000000E-03 0.  1.
    9900012    2    1    2    0    0  0.18373561774E+01 -0.16323957577E+02  0.89914122417E+01  0.72461202014E+02  0.69999520245E+02 0.  0.
        -12    1    1    2    0    0 -0.18373561774E+01  0.16323957577E+02 -0.89914122417E+01  0.18726797986E+02  0.00000000000E+00 0.  1.
         11    1    3    3    0    0  0.69844948675E+01 -0.26938316531E+01  0.21757207798E+02  0.23009041461E+02  0.51100000000E-03 0. -1.
        -11    1    3    3    0    0 -0.94566222010E+01  0.10945216107E+02 -0.18860186460E+02  0.23768300163E+02  0.51100000000E-03 0.  1.
        -12    1    3    3    0    0  0.43094835109E+01 -0.24575342031E+02  0.60943909038E+01  0.25683860391E+02  0.00000000000E+00 0.  1.
</event>
<event>
 7    1  0.1830715E-013  0.7246154E+02  0.7816164E-02  0.1226708E+00
        -11   -1    0    0    0    0  0.00000000000E+00  0.00000000000E+00  0.45593999997E+02  0.45594000000E+02  0.51100000000E-03 0.  1.
         11   -1    0    0    0    0 -0.00000000000E+00 -0.00000000000E+00 -0.45593999997E+02  0.45594000000E+02  0.51100000000E-03 0. -1.
    9900012    2    1    2    0    0 -0.54087078090E+01 -0.31819802977E+01 -0.17643725622E+02  0.72461543511E+02  0.69999965110E+02 0.  0.
        -12    1    1    2    0    0  0.54087078090E+01  0.31819802977E+01  0.17643725622E+02  0.18726456489E+02  0.00000000000E+00 0.  1.
         11    1    3    3    0    0  0.73554332079E+01  0.11434215715E+01 -0.13143773736E+02  0.15105250704E+02  0.51100000000E-03 0. -1.
        -11    1    3    3    0    0 -0.33528659068E+02  0.56962970861E+01 -0.90396996528E+00  0.34021110231E+02  0.51100000000E-03 0.  1.
        -12    1    3    3    0    0  0.20764518051E+02 -0.10021698955E+02 -0.35959819214E+01  0.23335182576E+02  0.00000000000E+00 0.  1.
</event>
<event>
 7    1  0.1830715E-013  0.7246153E+02  0.7816164E-02  0.1226708E+00
        -11   -1    0    0    0    0  0.00000000000E+00  0.00000000000E+00  0.45593999997E+02  0.45594000000E+02  0.51100000000E-03 0.  1.
         11   -1    0    0    0    0 -0.00000000000E+00 -0.00000000000E+00 -0.45593999997E+02  0.45594000000E+02  0.51100000000E-03 0. -1.
    9900012    2    1    2    0    0 -0.16008008211E+02  0.69644740650E+01 -0.67764595119E+01  0.72461531315E+02  0.69999949223E+02 0.  0.
        -12    1    1    2    0    0  0.16008008211E+02 -0.69644740650E+01  0.67764595119E+01  0.18726468685E+02  0.00000000000E+00 0.  1.
         11    1    3    3    0    0  0.18367389860E+00 -0.18197126555E+02  0.53230949148E+01  0.18960603647E+02  0.51100000000E-03 0. -1.
        -11    1    3    3    0    0  0.11025855542E+02  0.15994488531E+02 -0.15127587808E+02  0.24621881873E+02  0.51100000000E-03 0.  1.
         12    1    3    3    0    0 -0.27217537652E+02  0.91671120886E+01  0.30280333818E+01  0.28879045795E+02  0.00000000000E+00 0. -1.
</event>
<event>
 7    1  0.1830715E-013  0.7246146E+02  0.7816164E-02  0.1226708E+00
        -11   -1    0    0    0    0  0.00000000000E+00  0.00000000000E+00  0.45593999997E+02  0.45594000000E+02  0.51100000000E-03 0. -1.
         11   -1    0    0    0    0 -0.00000000000E+00 -0.00000000000E+00 -0.45593999997E+02  0.45594000000E+02  0.51100000000E-03 0.  1.
    9900012    2    1    2    0    0 -0.39807053264E+01  0.12322828875E+02 -0.13527195912E+02  0.72461463865E+02  0.69999861356E+02 0.  0.
        -12    1    1    2    0    0  0.39807053264E+01 -0.12322828875E+02  0.13527195912E+02  0.18726536135E+02  0.00000000000E+00 0.  1.
         11    1    3    3    0    0 -0.48512773939E+01  0.11866989390E+02 -0.25624334508E+02  0.28652519066E+02  0.51100000000E-03 0. -1.
        -11    1    3    3    0    0 -0.12650977619E+02  0.91785747340E+01  0.20402286252E+02  0.25701104129E+02  0.51100000000E-03 0.  1.
        -12    1    3    3    0    0  0.13521549686E+02 -0.87227352496E+01 -0.83051476566E+01  0.18107840670E+02  0.00000000000E+00 0.  1.
</event>
<event>
 7    1  0.1830715E-013  0.7246160E+02  0.7816164E-02  0.1226708E+00
        -11   -1    0    0    0    0  0.00000000000E+00  0.00000000000E+00  0.45593999997E+02  0.45594000000E+02  0.51100000000E-03 0.  1.
         11   -1    0    0    0    0 -0.00000000000E+00 -0.00000000000E+00 -0.45593999997E+02  0.45594000000E+02  0.51100000000E-03 0. -1.
    9900012    2    1    2    0    0  0.52687156539E+01 -0.14535131967E+02 -0.10566387143E+02  0.72461602503E+02  0.70000041958E+02 0.  0.
        -12    1    1    2    0    0 -0.52687156539E+01  0.14535131967E+02  0.10566387143E+02  0.18726397497E+02  0.00000000000E+00 0.  1.
         11    1    3    3    0    0  0.10920299639E+02 -0.30686184419E+02 -0.26951556291E+02  0.42276249185E+02  0.51100000000E-03 0. -1.
        -11    1    3    3    0    0 -0.25457912220E+01  0.14853362217E+02  0.20132672020E+02  0.25148119314E+02  0.51100000000E-03 0.  1.
        -12    1    3    3    0    0 -0.31057927630E+01  0.12976902349E+01 -0.37475028728E+01  0.50372340043E+01  0.00000000000E+00 0.  1.
</event>
<event>
 7    1  0.1830715E-013  0.7246160E+02  0.7816164E-02  0.1226708E+00
        -11   -1    0    0    0    0  0.00000000000E+00  0.00000000000E+00  0.45593999997E+02  0.45594000000E+02  0.51100000000E-03 0.  1.
         11   -1    0    0    0    0 -0.00000000000E+00 -0.00000000000E+00 -0.45593999997E+02  0.45594000000E+02  0.51100000000E-03 0. -1.
    9900012    2    1    2    0    0  0.12809258709E+02  0.12247744290E+02 -0.60492632920E+01  0.72461603250E+02  0.70000042931E+02 0.  0.
        -12    1    1    2    0    0 -0.12809258709E+02 -0.12247744290E+02  0.60492632920E+01  0.18726396750E+02  0.00000000000E+00 0.  1.
         11    1    3    3    0    0  0.16900766987E+02 -0.74595365209E+01  0.12559471523E+01  0.18516425502E+02  0.51100000000E-03 0. -1.
        -11    1    3    3    0    0 -0.49538645477E+01  0.35850379261E+02  0.34135274990E-01  0.36191043541E+02  0.51100000000E-03 0.  1.
        -12    1    3    3    0    0  0.86235626977E+00 -0.16143098449E+02 -0.73393457193E+01  0.17754134208E+02  0.00000000000E+00 0.  1.
</event>
<event>
 7    1  0.1830715E-013  0.7246156E+02  0.7816164E-02  0.1226708E+00
        -11   -1    0    0    0    0  0.00000000000E+00  0.00000000000E+00  0.45593999997E+02  0.45594000000E+02  0.51100000000E-03 0. -1.
         11   -1    0    0    0    0 -0.00000000000E+00 -0.00000000000E+00 -0.45593999997E+02  0.45594000000E+02  0.51100000000E-03 0.  1.
    9900012    2    1    2    0    0  0.60927948142E+01  0.13641841683E+02  0.11289713875E+02  0.72461557932E+02  0.69999983896E+02 0.  0.
        -12    1    1    2    0    0 -0.60927948142E+01 -0.13641841683E+02 -0.11289713875E+02  0.18726442068E+02  0.00000000000E+00 0.  1.
         11    1    3    3    0    0  0.14102229288E+02  0.16710109001E+02  0.36282727304E+02  0.42361974866E+02  0.51100000000E-03 0. -1.
        -11    1    3    3    0    0 -0.99338939058E+01  0.24237660948E+01 -0.11404038633E+02  0.15316950989E+02  0.51100000000E-03 0.  1.
         12    1    3    3    0    0  0.19244594322E+01 -0.54920334127E+01 -0.13588974796E+02  0.14782632077E+02  0.00000000000E+00 0. -1.
</event>
<event>
 7    1  0.1830715E-013  0.7246175E+02  0.7816164E-02  0.1226708E+00
        -11   -1    0    0    0    0  0.00000000000E+00  0.00000000000E+00  0.45593999997E+02  0.45594000000E+02  0.51100000000E-03 0. -1.
         11   -1    0    0    0    0 -0.00000000000E+00 -0.00000000000E+00 -0.45593999997E+02  0.45594000000E+02  0.51100000000E-03 0.  1.
    9900012    2    1    2    0    0  0.86541261323E+01  0.46438007591E+00  0.16600092005E+02  0.72461745635E+02  0.70000228413E+02 0.  0.
        -12    1    1    2    0    0 -0.86541261323E+01 -0.46438007591E+00 -0.16600092005E+02  0.18726254365E+02  0.00000000000E+00 0.  1.
         11    1    3    3    0    0 -0.36298291949E+01  0.77287405869E+01  0.77984967380E+01  0.11563980399E+02  0.51100000000E-03 0. -1.
        -11    1    3    3    0    0  0.25545206266E+02 -0.23304673538E+02  0.16996955823E+02  0.38530012709E+02  0.51100000000E-03 0.  1.
        -12    1    3    3    0    0 -0.13261250938E+02  0.16040313027E+02 -0.81953605558E+01  0.22367752527E+02  0.00000000000E+00 0.  1.
</event>
<event>
 7    1  0.1830715E-013  0.7246160E+02  0.7816164E-02  0.1226708E+00
        -11   -1    0    0    0    0  0.00000000000E+00  0.00000000000E+00  0.45593999997E+02  0.45594000000E+02  0.51100000000E-03 0. -1.
         11   -1    0    0    0    0 -0.00000000000E+00 -0.00000000000E+00 -0.45593999997E+02  0.45594000000E+02  0.51100000000E-03 0.  1.
    9900012    2    1    2    0    0 -0.10603093551E+02 -0.15033657044E+02  0.34987794765E+01  0.72461604330E+02  0.70000044338E+02 0.  0.
        -12    1    1    2    0    0  0.10603093551E+02  0.15033657044E+02 -0.34987794765E+01  0.18726395670E+02  0.00000000000E+00 0.  1.
         11    1    3    3    0    0  0.11885338098E+02 -0.23444026774E+02  0.20545591863E+02  0.33361729547E+02  0.51100000000E-03 0. -1.
        -11    1    3    3    0    0 -0.58816764933E+01  0.14506867019E+02 -0.14290888672E+02  0.21196056434E+02  0.51100000000E-03 0.  1.
         12    1    3    3    0    0 -0.16606755155E+02 -0.60964972881E+01 -0.27559237143E+01  0.17903818349E+02  0.00000000000E+00 0. -1.
</event>
<event>
 7    1  0.1830715E-013  0.7246162E+02  0.7816164E-02  0.1226708E+00
        -11   -1    0    0    0    0  0.00000000000E+00  0.00000000000E+00  0.45593999997E+02  0.45594000000E+02  0.51100000000E-03 0. -1.
         11   -1    0    0    0    0 -0.00000000000E+00 -0.00000000000E+00 -0.45593999997E+02  0.45594000000E+02  0.51100000000E-03 0.  1.
    9900012    2    1    2    0    0  0.75335496889E+00 -0.26361642031E+01  0.18524586997E+02  0.72461622111E+02  0.70000067501E+02 0.  0.
        -12    1    1    2    0    0 -0.75335496889E+00  0.26361642031E+01 -0.18524586997E+02  0.18726377889E+02  0.00000000000E+00 0.  1.
         11    1    3    3    0    0  0.30734565252E+02 -0.38172400474E+01  0.81217702371E+01  0.32017932082E+02  0.51100000000E-03 0.  1.
        -11    1    3    3    0    0 -0.26401001277E+02  0.90673747188E+01  0.13978818681E+01  0.27949673106E+02  0.51100000000E-03 0. -1.
         12    1    3    3    0    0 -0.35802090054E+01 -0.78862988746E+01  0.90049348921E+01  0.12494016923E+02  0.00000000000E+00 0. -1.
</event>
<event>
 7    1  0.1830715E-013  0.7246156E+02  0.7816164E-02  0.1226708E+00
        -11   -1    0    0    0    0  0.00000000000E+00  0.00000000000E+00  0.45593999997E+02  0.45594000000E+02  0.51100000000E-03 0.  1.
         11   -1    0    0    0    0 -0.00000000000E+00 -0.00000000000E+00 -0.45593999997E+02  0.45594000000E+02  0.51100000000E-03 0. -1.
    9900012    2    1    2    0    0 -0.36830705360E+01  0.11762631145E+02 -0.14098049549E+02  0.72461561441E+02  0.69999988466E+02 0.  0.
        -12    1    1    2    0    0  0.36830705360E+01 -0.11762631145E+02  0.14098049549E+02  0.18726438559E+02  0.00000000000E+00 0.  1.
         11    1    3    3    0    0  0.16620508862E+02  0.33395488740E+02 -0.82459621592E+01  0.38203349005E+02  0.51100000000E-03 0. -1.
        -11    1    3    3    0    0 -0.11584048890E+02 -0.18473654508E+02  0.22794498965E+01  0.21924004918E+02  0.51100000000E-03 0.  1.
         12    1    3    3    0    0 -0.87195305087E+01 -0.31592030867E+01 -0.81315372867E+01  0.12334207517E+02  0.00000000000E+00 0. -1.
</event>
<event>
 7    1  0.1830715E-013  0.7246152E+02  0.7816164E-02  0.1226708E+00
        -11   -1    0    0    0    0  0.00000000000E+00  0.00000000000E+00  0.45593999997E+02  0.45594000000E+02  0.51100000000E-03 0.  1.
         11   -1    0    0    0    0 -0.00000000000E+00 -0.00000000000E+00 -0.45593999997E+02  0.45594000000E+02  0.51100000000E-03 0. -1.
    9900012    2    1    2    0    0  0.99544422872E+01  0.13120811059E+02 -0.89125981048E+01  0.72461521178E+02  0.69999936017E+02 0.  0.
        -12    1    1    2    0    0 -0.99544422872E+01 -0.13120811059E+02  0.89125981048E+01  0.18726478822E+02  0.00000000000E+00 0.  1.
         11    1    3    3    0    0  0.25569862431E+02  0.12723785406E+02 -0.17931728964E+02  0.33723278069E+02  0.51100000000E-03 0. -1.
        -11    1    3    3    0    0 -0.45638787047E+00 -0.75235100826E+01  0.17932016361E+02  0.19451701850E+02  0.51100000000E-03 0.  1.
         12    1    3    3    0    0 -0.15159032273E+02  0.79205357352E+01 -0.89128855011E+01  0.19286541259E+02  0.00000000000E+00 0. -1.
</event>
<event>
 7    1  0.1830715E-013  0.7246156E+02  0.7816164E-02  0.1226708E+00
        -11   -1    0    0    0    0  0.00000000000E+00  0.00000000000E+00  0.45593999997E+02  0.45594000000E+02  0.51100000000E-03 0.  1.
         11   -1    0    0    0    0 -0.00000000000E+00 -0.00000000000E+00 -0.45593999997E+02  0.45594000000E+02  0.51100000000E-03 0. -1.
    9900012    2    1    2    0    0 -0.22824043530E+01  0.63838231541E+01 -0.17456140604E+02  0.72461563807E+02  0.69999991549E+02 0.  0.
        -12    1    1    2    0    0  0.22824043530E+01 -0.63838231541E+01  0.17456140604E+02  0.18726436193E+02  0.00000000000E+00 0.  1.
         11    1    3    3    0    0  0.58934013864E+01 -0.65736659697E+01  0.14678894373E+02  0.17129366727E+02  0.51100000000E-03 0.  1.
        -11    1    3    3    0    0 -0.21095578467E+02  0.18551960092E+02 -0.29986808487E+02  0.41090234091E+02  0.51100000000E-03 0. -1.
         12    1    3    3    0    0  0.12919772728E+02 -0.55944709686E+01 -0.21482264901E+01  0.14241962990E+02  0.00000000000E+00 0. -1.
</event>
<event>
 7    1  0.1830715E-013  0.7246156E+02  0.7816164E-02  0.1226708E+00
        -11   -1    0    0    0    0  0.00000000000E+00  0.00000000000E+00  0.45593999997E+02  0.45594000000E+02  0.51100000000E-03 0. -1.
         11   -1    0    0    0    0 -0.00000000000E+00 -0.00000000000E+00 -0.45593999997E+02  0.45594000000E+02  0.51100000000E-03 0.  1.
    9900012    2    1    2    0    0  0.11824264871E+02  0.51842451211E+01  0.13564287459E+02  0.72461560630E+02  0.69999987410E+02 0.  0.
        -12    1    1    2    0    0 -0.11824264871E+02 -0.51842451211E+01 -0.13564287459E+02  0.18726439370E+02  0.00000000000E+00 0.  1.
         11    1    3    3    0    0 -0.15625939562E+02  0.55046747810E+01 -0.18327369797E+02  0.24705544228E+02  0.51100000000E-03 0.  1.
        -11    1    3    3    0    0  0.24908064298E+02 -0.36359124778E+00  0.11906779947E+02  0.27610057490E+02  0.51100000000E-03 0. -1.
        -12    1    3    3    0    0  0.25421401358E+01  0.43161587868E-01  0.19984877310E+02  0.20145958912E+02  0.00000000000E+00 0.  1.
</event>
<event>
 7    1  0.1830715E-013  0.7246159E+02  0.7816164E-02  0.1226708E+00
        -11   -1    0    0    0    0  0.00000000000E+00  0.00000000000E+00  0.45593999997E+02  0.45594000000E+02  0.51100000000E-03 0. -1.
         11   -1    0    0    0    0 -0.00000000000E+00 -0.00000000000E+00 -0.45593999997E+02  0.45594000000E+02  0.51100000000E-03 0.  1.
    9900012    2    1    2    0    0 -0.15249936372E+02 -0.10451249349E+02  0.29814695103E+01  0.72461592636E+02  0.70000029104E+02 0.  0.
        -12    1    1    2    0    0  0.15249936372E+02  0.10451249349E+02 -0.29814695103E+01  0.18726407364E+02  0.00000000000E+00 0.  1.
         11    1    3    3    0    0  0.91031997930E+01 -0.28561036715E+02  0.81759779992E+01  0.31071653982E+02  0.51100000000E-03 0. -1.
        -11    1    3    3    0    0 -0.24448473068E+02  0.83076084179E+01  0.60008208328E+01  0.26509508557E+02  0.51100000000E-03 0.  1.
        -12    1    3    3    0    0  0.95336903261E-01  0.98021789477E+01 -0.11195329322E+02  0.14880430097E+02  0.00000000000E+00 0.  1.
</event>
<event>
 7    1  0.1830715E-013  0.7246201E+02  0.7816164E-02  0.1226707E+00
        -11   -1    0    0    0    0  0.00000000000E+00  0.00000000000E+00  0.45593999997E+02  0.45594000000E+02  0.51100000000E-03 0.  1.
         11   -1    0    0    0    0 -0.00000000000E+00 -0.00000000000E+00 -0.45593999997E+02  0.45594000000E+02  0.51100000000E-03 0. -1.
    9900012    2    1    2    0    0  0.11917916522E+02  0.14407723463E+02  0.10215797407E+01  0.72462005907E+02  0.70000567464E+02 0.  0.
        -12    1    1    2    0    0 -0.11917916522E+02 -0.14407723463E+02 -0.10215797407E+01  0.18725994093E+02  0.00000000000E+00 0.  1.
         11    1    3    3    0    0 -0.58332703942E+01  0.19886344742E+02  0.13067978558E+02  0.24500322744E+02  0.51100000000E-03 0.  1.
        -11    1    3    3    0    0  0.87200454052E+01 -0.21826620927E+02 -0.16554315947E+02  0.28748668659E+02  0.51100000000E-03 0. -1.
         12    1    3    3    0    0  0.90311415108E+01  0.16347999648E+02  0.45079171296E+01  0.19213014504E+02  0.00000000000E+00 0. -1.
</event>
<event>
 7    1  0.1830715E-013  0.7246152E+02  0.7816164E-02  0.1226708E+00
        -11   -1    0    0    0    0  0.00000000000E+00  0.00000000000E+00  0.45593999997E+02  0.45594000000E+02  0.51100000000E-03 0.  1.
         11   -1    0    0    0    0 -0.00000000000E+00 -0.00000000000E+00 -0.45593999997E+02  0.45594000000E+02  0.51100000000E-03 0. -1.
    9900012    2    1    2    0    0 -0.17371876877E+02 -0.38930556620E+01 -0.58088826766E+01  0.72461518575E+02  0.69999932626E+02 0.  0.
        -12    1    1    2    0    0  0.17371876877E+02  0.38930556620E+01  0.58088826766E+01  0.18726481425E+02  0.00000000000E+00 0.  1.
         11    1    3    3    0    0 -0.23056669907E+02 -0.20008332668E+01  0.71911028576E+01  0.24234795678E+02  0.51100000000E-03 0. -1.
        -11    1    3    3    0    0 -0.12748135148E+02 -0.69480873728E+01 -0.22581309017E+02  0.26845975212E+02  0.51100000000E-03 0.  1.
        -12    1    3    3    0    0  0.18432928178E+02  0.50558649777E+01  0.95813234829E+01  0.21380747685E+02  0.00000000000E+00 0.  1.
</event>
<event>
 7    1  0.1830715E-013  0.7246186E+02  0.7816164E-02  0.1226707E+00
        -11   -1    0    0    0    0  0.00000000000E+00  0.00000000000E+00  0.45593999997E+02  0.45594000000E+02  0.51100000000E-03 0.  1.
         11   -1    0    0    0    0 -0.00000000000E+00 -0.00000000000E+00 -0.45593999997E+02  0.45594000000E+02  0.51100000000E-03 0. -1.
    9900012    2    1    2    0    0  0.36585204830E+01 -0.10177059995E+02 -0.15287610534E+02  0.72461858964E+02  0.70000376044E+02 0.  0.
        -12    1    1    2    0    0 -0.36585204830E+01  0.10177059995E+02  0.15287610534E+02  0.18726141036E+02  0.00000000000E+00 0.  1.
         11    1    3    3    0    0  0.29357046669E+01  0.17134707536E+02 -0.31178916888E+02  0.35697919026E+02  0.51100000000E-03 0. -1.
        -11    1    3    3    0    0  0.61256075852E+01 -0.24349681912E+02  0.72187850266E+01  0.26125484397E+02  0.51100000000E-03 0.  1.
        -12    1    3    3    0    0 -0.54027917691E+01 -0.29620856194E+01  0.86725213266E+01  0.10638455540E+02  0.00000000000E+00 0.  1.
</event>
<event>
 7    1  0.1830715E-013  0.7246156E+02  0.7816164E-02  0.1226708E+00
        -11   -1    0    0    0    0  0.00000000000E+00  0.00000000000E+00  0.45593999997E+02  0.45594000000E+02  0.51100000000E-03 0. -1.
         11   -1    0    0    0    0 -0.00000000000E+00 -0.00000000000E+00 -0.45593999997E+02  0.45594000000E+02  0.51100000000E-03 0.  1.
    9900012    2    1    2    0    0  0.12858581378E+02  0.12755546562E+02 -0.47573753643E+01  0.72461556037E+02  0.69999981427E+02 0.  0.
        -12    1    1    2    0    0 -0.12858581378E+02 -0.12755546562E+02  0.47573753643E+01  0.18726443963E+02  0.00000000000E+00 0.  1.
         11    1    3    3    0    0  0.10651108695E+02  0.18935582447E+02 -0.23274988531E+02  0.31839087462E+02  0.51100000000E-03 0. -1.
        -11    1    3    3    0    0  0.18366734469E+02 -0.52290909298E+01  0.14406706613E+02  0.23921403025E+02  0.51100000000E-03 0.  1.
         12    1    3    3    0    0 -0.16159261786E+02 -0.95094495496E+00  0.41109065537E+01  0.16701065549E+02  0.00000000000E+00 0. -1.
</event>
<event>
 7    1  0.1830715E-013  0.7246159E+02  0.7816164E-02  0.1226708E+00
        -11   -1    0    0    0    0  0.00000000000E+00  0.00000000000E+00  0.45593999997E+02  0.45594000000E+02  0.51100000000E-03 0.  1.
         11   -1    0    0    0    0 -0.00000000000E+00 -0.00000000000E+00 -0.45593999997E+02  0.45594000000E+02  0.51100000000E-03 0. -1.
    9900012    2    1    2    0    0  0.17716780316E+02  0.33653729020E+01 -0.50466185092E+01  0.72461590896E+02  0.70000026838E+02 0.  0.
        -12    1    1    2    0    0 -0.17716780316E+02 -0.33653729020E+01  0.50466185092E+01  0.18726409104E+02  0.00000000000E+00 0.  1.
         11    1    3    3    0    0  0.70495886748E+01  0.23442998870E+02  0.76417851060E+01  0.25645034147E+02  0.51100000000E-03 0. -1.
        -11    1    3    3    0    0  0.20182157456E+02 -0.24937275485E+02 -0.27063091926E+01  0.32194895526E+02  0.51100000000E-03 0.  1.
        -12    1    3    3    0    0 -0.95149658148E+01  0.48596495171E+01 -0.99820944226E+01  0.14621661224E+02  0.00000000000E+00 0.  1.
</event>
<event>
 7    1  0.1830715E-013  0.7246153E+02  0.7816164E-02  0.1226708E+00
        -11   -1    0    0    0    0  0.00000000000E+00  0.00000000000E+00  0.45593999997E+02  0.45594000000E+02  0.51100000000E-03 0.  1.
         11   -1    0    0    0    0 -0.00000000000E+00 -0.00000000000E+00 -0.45593999997E+02  0.45594000000E+02  0.51100000000E-03 0. -1.
    9900012    2    1    2    0    0  0.14854175528E+01 -0.98870657335E+01 -0.15834148831E+02  0.72461526671E+02  0.69999943173E+02 0.  0.
        -12    1    1    2    0    0 -0.14854175528E+01  0.98870657335E+01  0.15834148831E+02  0.18726473329E+02  0.00000000000E+00 0.  1.
         11    1    3    3    0    0 -0.10434320102E+02  0.17151138514E+02 -0.48653152772E+01  0.20656908804E+02  0.51100000000E-03 0. -1.
        -11    1    3    3    0    0 -0.87754226859E+01 -0.24404609359E+02  0.38451671498E+01  0.26217900602E+02  0.51100000000E-03 0.  1.
         12    1    3    3    0    0  0.20695160341E+02 -0.26335948888E+01 -0.14814000704E+02  0.25586717265E+02  0.00000000000E+00 0. -1.
</event>
<event>
 7    1  0.1830715E-013  0.7246156E+02  0.7816164E-02  0.1226708E+00
        -11   -1    0    0    0    0  0.00000000000E+00  0.00000000000E+00  0.45593999997E+02  0.45594000000E+02  0.51100000000E-03 0.  1.
         11   -1    0    0    0    0 -0.00000000000E+00 -0.00000000000E+00 -0.45593999997E+02  0.45594000000E+02  0.51100000000E-03 0. -1.
    9900012    2    1    2    0    0 -0.66576368924E+01  0.12036426883E+02 -0.12707472303E+02  0.72461560044E+02  0.69999986647E+02 0.  0.
        -12    1    1    2    0    0  0.66576368924E+01 -0.12036426883E+02  0.12707472303E+02  0.18726439956E+02  0.00000000000E+00 0.  1.
         11    1    3    3    0    0 -0.20929738060E+01  0.16414438643E+02 -0.26572068789E+02  0.31303181552E+02  0.51100000000E-03 0. -1.
        -11    1    3    3    0    0 -0.96695523991E+00 -0.21339507129E+02  0.65846738708E+01  0.22353243550E+02  0.51100000000E-03 0.  1.
        -12    1    3    3    0    0 -0.35977078465E+01  0.16961495369E+02  0.72799226154E+01  0.18805134942E+02  0.00000000000E+00 0.  1.
</event>
<event>
 7    1  0.1830715E-013  0.7246154E+02  0.7816164E-02  0.1226708E+00
        -11   -1    0    0    0    0  0.00000000000E+00  0.00000000000E+00  0.45593999997E+02  0.45594000000E+02  0.51100000000E-03 0.  1.
         11   -1    0    0    0    0 -0.00000000000E+00 -0.00000000000E+00 -0.45593999997E+02  0.45594000000E+02  0.51100000000E-03 0. -1.
    9900012    2    1    2    0    0  0.77621327756E+01  0.10287003305E+02 -0.13587024508E+02  0.72461538049E+02  0.69999957995E+02 0.  0.
        -12    1    1    2    0    0 -0.77621327756E+01 -0.10287003305E+02  0.13587024508E+02  0.18726461951E+02  0.00000000000E+00 0.  1.
         11    1    3    3    0    0 -0.19108369810E+02  0.22651468536E+01 -0.41613263350E+01  0.19686983624E+02  0.51100000000E-03 0. -1.
        -11    1    3    3    0    0  0.27033198841E+02 -0.13628316487E+02 -0.53294290733E+01  0.30739675736E+02  0.51100000000E-03 0.  1.
         12    1    3    3    0    0 -0.16269625553E+00  0.21650172938E+02 -0.40962690992E+01  0.22034878689E+02  0.00000000000E+00 0. -1.
</event>
<event>
 7    1  0.1830715E-013  0.7246161E+02  0.7816164E-02  0.1226708E+00
        -11   -1    0    0    0    0  0.00000000000E+00  0.00000000000E+00  0.45593999997E+02  0.45594000000E+02  0.51100000000E-03 0. -1.
         11   -1    0    0    0    0 -0.00000000000E+00 -0.00000000000E+00 -0.45593999997E+02  0.45594000000E+02  0.51100000000E-03 0.  1.
    9900012    2    1    2    0    0 -0.18353073824E+02 -0.23891922327E+01 -0.28520575856E+01  0.72461607107E+02  0.70000047956E+02 0.  0.
        -12    1    1    2    0    0  0.18353073824E+02  0.23891922327E+01  0.28520575856E+01  0.18726392893E+02  0.00000000000E+00 0.  1.
         11    1    3    3    0    0 -0.33650028222E+01  0.17434107465E+02  0.18231273646E+02  0.25448982025E+02  0.51100000000E-03 0. -1.
        -11    1    3    3    0    0 -0.22919863640E+02 -0.59437119923E+01 -0.19992227008E+02  0.30989304647E+02  0.51100000000E-03 0.  1.
         12    1    3    3    0    0  0.79317926385E+01 -0.13879587706E+02 -0.10911042241E+01  0.16023320435E+02  0.00000000000E+00 0. -1.
</event>
<event>
 7    1  0.1830715E-013  0.7246132E+02  0.7816164E-02  0.1226709E+00
        -11   -1    0    0    0    0  0.00000000000E+00  0.00000000000E+00  0.45593999997E+02  0.45594000000E+02  0.51100000000E-03 0. -1.
         11   -1    0    0    0    0 -0.00000000000E+00 -0.00000000000E+00 -0.45593999997E+02  0.45594000000E+02  0.51100000000E-03 0.  1.
    9900012    2    1    2    0    0 -0.14940532663E+02  0.47081018101E+01 -0.10261720881E+02  0.72461317049E+02  0.69999670100E+02 0.  0.
        -12    1    1    2    0    0  0.14940532663E+02 -0.47081018101E+01  0.10261720881E+02  0.18726682951E+02  0.00000000000E+00 0.  1.
         11    1    3    3    0    0 -0.31042367970E+00 -0.11791145181E+02  0.66411424443E+01  0.13536330402E+02  0.51100000000E-03 0. -1.
        -11    1    3    3    0    0 -0.44090012378E+01  0.91310595720E+01 -0.35243551735E+02  0.36673198388E+02  0.51100000000E-03 0.  1.
        -12    1    3    3    0    0 -0.10221107745E+02  0.73681874188E+01  0.18340688410E+02  0.22251788259E+02  0.00000000000E+00 0.  1.
</event>
<event>
 7    1  0.1830715E-013  0.7246160E+02  0.7816164E-02  0.1226708E+00
        -11   -1    0    0    0    0  0.00000000000E+00  0.00000000000E+00  0.45593999997E+02  0.45594000000E+02  0.51100000000E-03 0. -1.
         11   -1    0    0    0    0 -0.00000000000E+00 -0.00000000000E+00 -0.45593999997E+02  0.45594000000E+02  0.51100000000E-03 0.  1.
    9900012    2    1    2    0    0  0.17811889890E+02 -0.39914324477E+01  0.41812676376E+01  0.72461602762E+02  0.70000042295E+02 0.  0.
        -12    1    1    2    0    0 -0.17811889890E+02  0.39914324477E+01 -0.41812676376E+01  0.18726397238E+02  0.00000000000E+00 0.  1.
         11    1    3    3    0    0  0.16733198831E+02 -0.35123704748E+01  0.96395039709E+01  0.19627957778E+02  0.51100000000E-03 0. -1.
        -11    1    3    3    0    0  0.64408657319E+00  0.18828166389E+02 -0.20877624380E+02  0.28120986774E+02  0.51100000000E-03 0.  1.
        -12    1    3    3    0    0  0.43460448609E+00 -0.19307228362E+02  0.15419388047E+02  0.24712658210E+02  0.00000000000E+00 0.  1.
</event>
<event>
 7    1  0.1830715E-013  0.7246155E+02  0.7816164E-02  0.1226708E+00
        -11   -1    0    0    0    0  0.00000000000E+00  0.00000000000E+00  0.45593999997E+02  0.45594000000E+02  0.51100000000E-03 0. -1.
         11   -1    0    0    0    0 -0.00000000000E+00 -0.00000000000E+00 -0.45593999997E+02  0.45594000000E+02  0.51100000000E-03 0.  1.
    9900012    2    1    2    0    0  0.92827594415E+01 -0.81638682963E+01  0.14066320973E+02  0.72461554685E+02  0.69999979667E+02 0.  0.
        -12    1    1    2    0    0 -0.92827594415E+01  0.81638682963E+01 -0.14066320973E+02  0.18726445315E+02  0.00000000000E+00 0.  1.
         11    1    3    3    0    0 -0.77332706666E+01  0.28532990859E+02  0.86547968118E+01  0.30803255521E+02  0.51100000000E-03 0. -1.
        -11    1    3    3    0    0  0.12161875280E+01 -0.71249200951E+01 -0.16046159632E+01  0.74039442945E+01  0.51100000000E-03 0.  1.
         12    1    3    3    0    0  0.15799842580E+02 -0.29571939060E+02  0.70161401241E+01  0.34254354870E+02  0.00000000000E+00 0. -1.
</event>
<event>
 7    1  0.1830715E-013  0.7246157E+02  0.7816164E-02  0.1226708E+00
        -11   -1    0    0    0    0  0.00000000000E+00  0.00000000000E+00  0.45593999997E+02  0.45594000000E+02  0.51100000000E-03 0. -1.
         11   -1    0    0    0    0 -0.00000000000E+00 -0.00000000000E+00 -0.45593999997E+02  0.45594000000E+02  0.51100000000E-03 0.  1.
    9900012    2    1    2    0    0 -0.16998242847E+02  0.68017212366E+01  0.39339142792E+01  0.72461565389E+02  0.69999993610E+02 0.  0.
        -12    1    1    2    0    0  0.16998242847E+02 -0.68017212366E+01 -0.39339142792E+01  0.18726434611E+02  0.00000000000E+00 0.  1.
         11    1    3    3    0    0  0.18116412508E+02  0.12482195410E+02  0.85056833750E+01  0.23587205310E+02  0.51100000000E-03 0. -1.
        -11    1    3    3    0    0 -0.38104739879E+02 -0.11349873956E+01  0.44072529826E+01  0.38375555719E+02  0.51100000000E-03 0.  1.
         12    1    3    3    0    0  0.29900845245E+01 -0.45454867774E+01 -0.89790220783E+01  0.10498804360E+02  0.00000000000E+00 0. -1.
</event>
<event>
 7    1  0.1830715E-013  0.7246157E+02  0.7816164E-02  0.1226708E+00
        -11   -1    0    0    0    0  0.00000000000E+00  0.00000000000E+00  0.45593999997E+02  0.45594000000E+02  0.51100000000E-03 0. -1.
         11   -1    0    0    0    0 -0.00000000000E+00 -0.00000000000E+00 -0.45593999997E+02  0.45594000000E+02  0.51100000000E-03 0.  1.
    9900012    2    1    2    0    0  0.13085108093E+02 -0.86703146625E+00  0.13368151907E+02  0.72461567271E+02  0.69999996061E+02 0.  0.
        -12    1    1    2    0    0 -0.13085108093E+02  0.86703146625E+00 -0.13368151907E+02  0.18726432729E+02  0.00000000000E+00 0.  1.
         11    1    3    3    0    0  0.92077381927E+01  0.14469524837E+02  0.77748254810E+01  0.18830759495E+02  0.51100000000E-03 0. -1.
        -11    1    3    3    0    0  0.12159765592E+02 -0.19836547595E+02 -0.17220516716E+02  0.28946411107E+02  0.51100000000E-03 0.  1.
        -12    1    3    3    0    0 -0.82823956915E+01  0.44999912918E+01  0.22813843142E+02  0.24684396669E+02  0.00000000000E+00 0.  1.
</event>
<event>
 7    1  0.1830715E-013  0.7246149E+02  0.7816164E-02  0.1226708E+00
        -11   -1    0    0    0    0  0.00000000000E+00  0.00000000000E+00  0.45593999997E+02  0.45594000000E+02  0.51100000000E-03 0.  1.
         11   -1    0    0    0    0 -0.00000000000E+00 -0.00000000000E+00 -0.45593999997E+02  0.45594000000E+02  0.51100000000E-03 0. -1.
    9900012    2    1    2    0    0  0.70898004652E+01 -0.36847770553E+01 -0.16936334291E+02  0.72461487463E+02  0.69999892096E+02 0.  0.
        -12    1    1    2    0    0 -0.70898004652E+01  0.36847770553E+01  0.16936334291E+02  0.18726512537E+02  0.00000000000E+00 0.  1.
         11    1    3    3    0    0 -0.17227716395E+02 -0.68464921940E+01 -0.11478437116E+02  0.21804201119E+02  0.51100000000E-03 0. -1.
        -11    1    3    3    0    0  0.31020332929E+02 -0.33193072758E+01 -0.17230774007E+02  0.35639562693E+02  0.51100000000E-03 0.  1.
        -12    1    3    3    0    0 -0.67028160680E+01  0.64810224145E+01  0.11772876831E+02  0.15017723651E+02  0.00000000000E+00 0.  1.
</event>
<event>
 8    1  0.1830715E-013  0.7246153E+02  0.7816164E-02  0.1226708E+00
        -11   -1    0    0    0    0  0.00000000000E+00  0.00000000000E+00  0.45593999997E+02  0.45594000000E+02  0.51100000000E-03 0.  1.
         11   -1    0    0    0    0 -0.00000000000E+00 -0.00000000000E+00 -0.45593999997E+02  0.45594000000E+02  0.51100000000E-03 0. -1.
    9900012    2    1    2    0    0  0.85544941570E+01  0.12410350788E+02 -0.11112354075E+02  0.72461532366E+02  0.69999950591E+02 0.  0.
        -24    2    3    3    0    0  0.13247646934E+02 -0.60307832262E+01 -0.14064957317E+02  0.53204871884E+02  0.49204317618E+02 0.  0.
        -12    1    1    2    0    0 -0.85544941570E+01 -0.12410350788E+02  0.11112354075E+02  0.18726467634E+02  0.00000000000E+00 0.  1.
         11    1    4    4    0    0  0.25811683433E+02 -0.12235024183E+02 -0.22924926737E+02  0.36626371436E+02  0.51100000000E-03 0.  1.
        -11    1    3    3    0    0 -0.46931527769E+01  0.18441134014E+02  0.29526032418E+01  0.19256660481E+02  0.51100000000E-03 0. -1.
        -12    1    4    4    0    0 -0.12564036499E+02  0.62042409570E+01  0.88599694198E+01  0.16578500448E+02  0.00000000000E+00 0.  1.
</event>
<event>
 7    1  0.1830715E-013  0.7246159E+02  0.7816164E-02  0.1226708E+00
        -11   -1    0    0    0    0  0.00000000000E+00  0.00000000000E+00  0.45593999997E+02  0.45594000000E+02  0.51100000000E-03 0. -1.
         11   -1    0    0    0    0 -0.00000000000E+00 -0.00000000000E+00 -0.45593999997E+02  0.45594000000E+02  0.51100000000E-03 0.  1.
    9900012    2    1    2    0    0  0.64719806770E+01 -0.87039869460E+01  0.15265398274E+02  0.72461593321E+02  0.70000029997E+02 0.  0.
        -12    1    1    2    0    0 -0.64719806770E+01  0.87039869460E+01 -0.15265398274E+02  0.18726406679E+02  0.00000000000E+00 0.  1.
         11    1    3    3    0    0 -0.26287425103E+01  0.96612561603E+01 -0.15266173132E+02  0.18256675496E+02  0.51100000000E-03 0. -1.
        -11    1    3    3    0    0  0.23231616524E+02 -0.19213159782E+02  0.16942216454E+02  0.34581674536E+02  0.51100000000E-03 0.  1.
         12    1    3    3    0    0 -0.14130893336E+02  0.84791667560E+00  0.13589354952E+02  0.19623243289E+02  0.00000000000E+00 0. -1.
</event>
<event>
 7    1  0.1830715E-013  0.7246155E+02  0.7816164E-02  0.1226708E+00
        -11   -1    0    0    0    0  0.00000000000E+00  0.00000000000E+00  0.45593999997E+02  0.45594000000E+02  0.51100000000E-03 0. -1.
         11   -1    0    0    0    0 -0.00000000000E+00 -0.00000000000E+00 -0.45593999997E+02  0.45594000000E+02  0.51100000000E-03 0.  1.
    9900012    2    1    2    0    0 -0.78098021925E+01  0.79006729376E+01  0.15075350127E+02  0.72461552804E+02  0.69999977215E+02 0.  0.
        -12    1    1    2    0    0  0.78098021925E+01 -0.79006729376E+01 -0.15075350127E+02  0.18726447196E+02  0.00000000000E+00 0.  1.
         11    1    3    3    0    0  0.14577765885E+01 -0.26892313203E+02  0.14028834946E+02  0.30366590724E+02  0.51100000000E-03 0. -1.
        -11    1    3    3    0    0 -0.92726221245E+01  0.22931764765E+02 -0.92296435610E+01  0.26401395358E+02  0.51100000000E-03 0.  1.
         12    1    3    3    0    0  0.50433435455E-02  0.11861221376E+02  0.10276158742E+02  0.15693566722E+02  0.00000000000E+00 0. -1.
</event>
<event>
 7    1  0.1830715E-013  0.7246158E+02  0.7816164E-02  0.1226708E+00
        -11   -1    0    0    0    0  0.00000000000E+00  0.00000000000E+00  0.45593999997E+02  0.45594000000E+02  0.51100000000E-03 0. -1.
         11   -1    0    0    0    0 -0.00000000000E+00 -0.00000000000E+00 -0.45593999997E+02  0.45594000000E+02  0.51100000000E-03 0.  1.
    9900012    2    1    2    0    0  0.13308855834E+01 -0.94683250660E+01  0.16101504829E+02  0.72461577658E+02  0.70000009592E+02 0.  0.
        -12    1    1    2    0    0 -0.13308855834E+01  0.94683250660E+01 -0.16101504829E+02  0.18726422342E+02  0.00000000000E+00 0.  1.
         11    1    3    3    0    0 -0.13751714369E+02 -0.21675323550E+02  0.34072547885E+02  0.42659908799E+02  0.51100000000E-03 0. -1.
        -11    1    3    3    0    0  0.13838959375E+02  0.53875060910E+01 -0.17356190806E+02  0.22842490626E+02  0.51100000000E-03 0.  1.
         12    1    3    3    0    0  0.12436405776E+01  0.68194923929E+01 -0.61485225072E+00  0.69591782326E+01  0.00000000000E+00 0. -1.
</event>
<event>
 7    1  0.1830715E-013  0.7246146E+02  0.7816164E-02  0.1226708E+00
        -11   -1    0    0    0    0  0.00000000000E+00  0.00000000000E+00  0.45593999997E+02  0.45594000000E+02  0.51100000000E-03 0. -1.
         11   -1    0    0    0    0 -0.00000000000E+00 -0.00000000000E+00 -0.45593999997E+02  0.45594000000E+02  0.51100000000E-03 0.  1.
    9900012    2    1    2    0    0  0.10334758803E+02 -0.91787096979E+01  0.12634372687E+02  0.72461459358E+02  0.69999855485E+02 0.  0.
        -12    1    1    2    0    0 -0.10334758803E+02  0.91787096979E+01 -0.12634372687E+02  0.18726540642E+02  0.00000000000E+00 0.  1.
         11    1    3    3    0    0 -0.10653106628E+02 -0.28608067128E+02  0.47400219509E+01  0.30893008821E+02  0.51100000000E-03 0. -1.
        -11    1    3    3    0    0  0.22041175966E+02  0.83337978478E+00  0.59248829070E+01  0.22838830915E+02  0.51100000000E-03 0.  1.
         12    1    3    3    0    0 -0.10533105361E+01  0.18595977645E+02  0.19694678288E+01  0.18729619623E+02  0.00000000000E+00 0. -1.
</event>
<event>
 7    1  0.1830715E-013  0.7246157E+02  0.7816164E-02  0.1226708E+00
        -11   -1    0    0    0    0  0.00000000000E+00  0.00000000000E+00  0.45593999997E+02  0.45594000000E+02  0.51100000000E-03 0. -1.
         11   -1    0    0    0    0 -0.00000000000E+00 -0.00000000000E+00 -0.45593999997E+02  0.45594000000E+02  0.51100000000E-03 0.  1.
    9900012    2    1    2    0    0 -0.12589374355E+02  0.47168959295E+01  0.13036017621E+02  0.72461569233E+02  0.69999998618E+02 0.  0.
        -12    1    1    2    0    0  0.12589374355E+02 -0.47168959295E+01 -0.13036017621E+02  0.18726430767E+02  0.00000000000E+00 0.  1.
         11    1    3    3    0    0  0.16346432501E+02 -0.15056652902E+02 -0.12647227311E+02  0.25570706111E+02  0.51100000000E-03 0. -1.
        -11    1    3    3    0    0 -0.93454485168E+01  0.91644018439E+01  0.26587346683E+00  0.13091766806E+02  0.51100000000E-03 0.  1.
         12    1    3    3    0    0 -0.19590358339E+02  0.10609146988E+02  0.25417371464E+02  0.33799096316E+02  0.00000000000E+00 0. -1.
</event>
<event>
 7    1  0.1830715E-013  0.7246158E+02  0.7816164E-02  0.1226708E+00
        -11   -1    0    0    0    0  0.00000000000E+00  0.00000000000E+00  0.45593999997E+02  0.45594000000E+02  0.51100000000E-03 0. -1.
         11   -1    0    0    0    0 -0.00000000000E+00 -0.00000000000E+00 -0.45593999997E+02  0.45594000000E+02  0.51100000000E-03 0.  1.
    9900012    2    1    2    0    0  0.10648712151E+02 -0.13514313567E+02  0.73923696360E+01  0.72461578278E+02  0.70000010401E+02 0.  0.
        -12    1    1    2    0    0 -0.10648712151E+02  0.13514313567E+02 -0.73923696360E+01  0.18726421722E+02  0.00000000000E+00 0.  1.
         11    1    3    3    0    0  0.80180054207E+01  0.17653210495E+02  0.23159235648E+02  0.30203881336E+02  0.51100000000E-03 0.  1.
        -11    1    3    3    0    0 -0.48675800799E+01 -0.28629695412E+02 -0.59448905460E+01  0.29642781905E+02  0.51100000000E-03 0. -1.
        -12    1    3    3    0    0  0.74982868101E+01 -0.25378286509E+01 -0.98219754658E+01  0.12614915037E+02  0.00000000000E+00 0.  1.
</event>
<event>
 7    1  0.1830715E-013  0.7246156E+02  0.7816164E-02  0.1226708E+00
        -11   -1    0    0    0    0  0.00000000000E+00  0.00000000000E+00  0.45593999997E+02  0.45594000000E+02  0.51100000000E-03 0.  1.
         11   -1    0    0    0    0 -0.00000000000E+00 -0.00000000000E+00 -0.45593999997E+02  0.45594000000E+02  0.51100000000E-03 0. -1.
    9900012    2    1    2    0    0 -0.30890012534E+00  0.16728170283E+02 -0.84114465589E+01  0.72461560575E+02  0.69999987339E+02 0.  0.
        -12    1    1    2    0    0  0.30890012534E+00 -0.16728170283E+02  0.84114465589E+01  0.18726439425E+02  0.00000000000E+00 0.  1.
         11    1    3    3    0    0 -0.13096454323E+02 -0.10326095255E+02  0.16235811851E+02  0.23275458014E+02  0.51100000000E-03 0. -1.
        -11    1    3    3    0    0 -0.46361928454E+01  0.21151243107E+02 -0.49067095996E+01  0.22202368532E+02  0.51100000000E-03 0.  1.
         12    1    3    3    0    0  0.17423747043E+02  0.59030224310E+01 -0.19740548810E+02  0.26983734030E+02  0.00000000000E+00 0. -1.
</event>
<event>
 7    1  0.1830715E-013  0.7246156E+02  0.7816164E-02  0.1226708E+00
        -11   -1    0    0    0    0  0.00000000000E+00  0.00000000000E+00  0.45593999997E+02  0.45594000000E+02  0.51100000000E-03 0. -1.
         11   -1    0    0    0    0 -0.00000000000E+00 -0.00000000000E+00 -0.45593999997E+02  0.45594000000E+02  0.51100000000E-03 0.  1.
    9900012    2    1    2    0    0  0.87526675662E+01 -0.16183813742E+02  0.34863591004E+01  0.72461555689E+02  0.69999980974E+02 0.  0.
        -12    1    1    2    0    0 -0.87526675662E+01  0.16183813742E+02 -0.34863591004E+01  0.18726444311E+02  0.00000000000E+00 0.  1.
         11    1    3    3    0    0 -0.81185428676E+01 -0.17323051229E+02  0.24981754588E+02  0.31465646422E+02  0.51100000000E-03 0. -1.
        -11    1    3    3    0    0 -0.37625626243E+01  0.70031385680E+01 -0.17438079544E+02  0.19164744865E+02  0.51100000000E-03 0.  1.
        -12    1    3    3    0    0  0.20633773058E+02 -0.58639010806E+01 -0.40573159436E+01  0.21831164402E+02  0.00000000000E+00 0.  1.
</event>
<event>
 7    1  0.1830715E-013  0.7246156E+02  0.7816164E-02  0.1226708E+00
        -11   -1    0    0    0    0  0.00000000000E+00  0.00000000000E+00  0.45593999997E+02  0.45594000000E+02  0.51100000000E-03 0. -1.
         11   -1    0    0    0    0 -0.00000000000E+00 -0.00000000000E+00 -0.45593999997E+02  0.45594000000E+02  0.51100000000E-03 0.  1.
    9900012    2    1    2    0    0 -0.64472756661E+01  0.15217551716E+02  0.88055882736E+01  0.72461558037E+02  0.69999984032E+02 0.  0.
        -12    1    1    2    0    0  0.64472756661E+01 -0.15217551716E+02 -0.88055882736E+01  0.18726441963E+02  0.00000000000E+00 0.  1.
         11    1    3    3    0    0  0.10962035568E+01  0.27029164797E+02  0.87087008392E+01  0.28418636182E+02  0.51100000000E-03 0. -1.
        -11    1    3    3    0    0 -0.21735685878E+02 -0.16768689261E+02  0.56305642024E+01  0.28023779788E+02  0.51100000000E-03 0.  1.
         12    1    3    3    0    0  0.14192206655E+02  0.49570761806E+01 -0.55336767680E+01  0.16019142067E+02  0.00000000000E+00 0. -1.
</event>
<event>
 7    1  0.1830715E-013  0.7246159E+02  0.7816164E-02  0.1226708E+00
        -11   -1    0    0    0    0  0.00000000000E+00  0.00000000000E+00  0.45593999997E+02  0.45594000000E+02  0.51100000000E-03 0. -1.
         11   -1    0    0    0    0 -0.00000000000E+00 -0.00000000000E+00 -0.45593999997E+02  0.45594000000E+02  0.51100000000E-03 0.  1.
    9900012    2    1    2    0    0 -0.49382329290E+01  0.12798125355E+02  0.12747564074E+02  0.72461586919E+02  0.70000021657E+02 0.  0.
        -12    1    1    2    0    0  0.49382329290E+01 -0.12798125355E+02 -0.12747564074E+02  0.18726413081E+02  0.00000000000E+00 0.  1.
         11    1    3    3    0    0  0.60004909154E+01  0.87083109959E+01  0.27791995161E+02  0.29736098717E+02  0.51100000000E-03 0. -1.
        -11    1    3    3    0    0 -0.19600001052E+02 -0.53328663882E+01  0.30726879051E+01  0.20543634449E+02  0.51100000000E-03 0.  1.
         12    1    3    3    0    0  0.86612772076E+01  0.94226807470E+01 -0.18117118992E+02  0.22181853752E+02  0.00000000000E+00 0. -1.
</event>
<event>
 7    1  0.1830715E-013  0.7246159E+02  0.7816164E-02  0.1226708E+00
        -11   -1    0    0    0    0  0.00000000000E+00  0.00000000000E+00  0.45593999997E+02  0.45594000000E+02  0.51100000000E-03 0.  1.
         11   -1    0    0    0    0 -0.00000000000E+00 -0.00000000000E+00 -0.45593999997E+02  0.45594000000E+02  0.51100000000E-03 0. -1.
    9900012    2    1    2    0    0 -0.15622621844E+02  0.61209105221E+01 -0.83154451821E+01  0.72461588505E+02  0.70000023723E+02 0.  0.
        -12    1    1    2    0    0  0.15622621844E+02 -0.61209105221E+01  0.83154451821E+01  0.18726411495E+02  0.00000000000E+00 0.  1.
         11    1    3    3    0    0  0.15596285958E+02  0.50026563739E+01 -0.17023017788E+02  0.23623163238E+02  0.51100000000E-03 0. -1.
        -11    1    3    3    0    0 -0.32499011498E+02 -0.90255814962E+01 -0.23095754935E+01  0.33808002143E+02  0.51100000000E-03 0.  1.
         12    1    3    3    0    0  0.12801036968E+01  0.10143835644E+02  0.11017148100E+02  0.15030423125E+02  0.00000000000E+00 0. -1.
</event>
<event>
 7    1  0.1830715E-013  0.7246155E+02  0.7816164E-02  0.1226708E+00
        -11   -1    0    0    0    0  0.00000000000E+00  0.00000000000E+00  0.45593999997E+02  0.45594000000E+02  0.51100000000E-03 0. -1.
         11   -1    0    0    0    0 -0.00000000000E+00 -0.00000000000E+00 -0.45593999997E+02  0.45594000000E+02  0.51100000000E-03 0.  1.
    9900012    2    1    2    0    0 -0.11063825721E+01 -0.18488379468E+02 -0.27632395481E+01  0.72461554781E+02  0.69999979790E+02 0.  0.
        -12    1    1    2    0    0  0.11063825721E+01  0.18488379468E+02  0.27632395481E+01  0.18726445219E+02  0.00000000000E+00 0.  1.
         11    1    3    3    0    0 -0.66843858417E+01  0.15393461954E+01  0.26472846154E+02  0.27347069030E+02  0.51100000000E-03 0. -1.
        -11    1    3    3    0    0 -0.85861316026E+01 -0.18620205517E+01 -0.16746785006E+02  0.18911467017E+02  0.51100000000E-03 0.  1.
        -12    1    3    3    0    0  0.14164134872E+02 -0.18165705112E+02 -0.12489300695E+02  0.26203018733E+02  0.00000000000E+00 0.  1.
</event>
<event>
 7    1  0.1830715E-013  0.7246154E+02  0.7816164E-02  0.1226708E+00
        -11   -1    0    0    0    0  0.00000000000E+00  0.00000000000E+00  0.45593999997E+02  0.45594000000E+02  0.51100000000E-03 0.  1.
         11   -1    0    0    0    0 -0.00000000000E+00 -0.00000000000E+00 -0.45593999997E+02  0.45594000000E+02  0.51100000000E-03 0. -1.
    9900012    2    1    2    0    0  0.12474029765E+02 -0.43032929195E+01 -0.13287605594E+02  0.72461542488E+02  0.69999963777E+02 0.  0.
        -12    1    1    2    0    0 -0.12474029765E+02  0.43032929195E+01  0.13287605594E+02  0.18726457512E+02  0.00000000000E+00 0.  1.
         11    1    3    3    0    0 -0.51121080156E+01 -0.20571456534E+02  0.18803099763E+02  0.28335049554E+02  0.51100000000E-03 0.  1.
        -11    1    3    3    0    0  0.25729605633E+01  0.14947987785E+02 -0.17345906730E+02  0.23042199232E+02  0.51100000000E-03 0. -1.
         12    1    3    3    0    0  0.15013177217E+02  0.13201758288E+01 -0.14744798627E+02  0.21084293702E+02  0.00000000000E+00 0. -1.
</event>
<event>
 7    1  0.1830715E-013  0.7246155E+02  0.7816164E-02  0.1226708E+00
        -11   -1    0    0    0    0  0.00000000000E+00  0.00000000000E+00  0.45593999997E+02  0.45594000000E+02  0.51100000000E-03 0.  1.
         11   -1    0    0    0    0 -0.00000000000E+00 -0.00000000000E+00 -0.45593999997E+02  0.45594000000E+02  0.51100000000E-03 0. -1.
    9900012    2    1    2    0    0 -0.57583783929E+01 -0.98778230043E+01 -0.14830695892E+02  0.72461552135E+02  0.69999976344E+02 0.  0.
        -12    1    1    2    0    0  0.57583783929E+01  0.98778230043E+01  0.14830695892E+02  0.18726447865E+02  0.00000000000E+00 0.  1.
         11    1    3    3    0    0 -0.40433930453E+00 -0.39022833198E+02 -0.89341738287E+01  0.40034540878E+02  0.51100000000E-03 0. -1.
        -11    1    3    3    0    0 -0.51994037355E+01  0.76014534931E+01  0.21013827825E+01  0.94462534516E+01  0.51100000000E-03 0.  1.
         12    1    3    3    0    0 -0.15463535290E+00  0.21543556700E+02 -0.79979048455E+01  0.22980757805E+02  0.00000000000E+00 0. -1.
</event>
<event>
 7    1  0.1830715E-013  0.7246169E+02  0.7816164E-02  0.1226708E+00
        -11   -1    0    0    0    0  0.00000000000E+00  0.00000000000E+00  0.45593999997E+02  0.45594000000E+02  0.51100000000E-03 0. -1.
         11   -1    0    0    0    0 -0.00000000000E+00 -0.00000000000E+00 -0.45593999997E+02  0.45594000000E+02  0.51100000000E-03 0.  1.
    9900012    2    1    2    0    0  0.78258813527E+01  0.85990887222E+01  0.14679438878E+02  0.72461690391E+02  0.70000156448E+02 0.  0.
        -12    1    1    2    0    0 -0.78258813527E+01 -0.85990887222E+01 -0.14679438878E+02  0.18726309609E+02  0.00000000000E+00 0.  1.
         11    1    3    3    0    0 -0.15757386669E+01 -0.33333131896E+01  0.20477062504E+02  0.20806345624E+02  0.51100000000E-03 0. -1.
        -11    1    3    3    0    0  0.22225835014E+02  0.17103180313E+02  0.10800181354E+02  0.30052461404E+02  0.51100000000E-03 0.  1.
        -12    1    3    3    0    0 -0.12824214995E+02 -0.51707784008E+01 -0.16597804979E+02  0.21602883364E+02  0.00000000000E+00 0.  1.
</event>
<event>
 7    1  0.1830715E-013  0.7246152E+02  0.7816164E-02  0.1226708E+00
        -11   -1    0    0    0    0  0.00000000000E+00  0.00000000000E+00  0.45593999997E+02  0.45594000000E+02  0.51100000000E-03 0. -1.
         11   -1    0    0    0    0 -0.00000000000E+00 -0.00000000000E+00 -0.45593999997E+02  0.45594000000E+02  0.51100000000E-03 0.  1.
    9900012    2    1    2    0    0  0.15016522163E+02  0.87117781895E+01  0.70206928304E+01  0.72461517551E+02  0.69999931292E+02 0.  0.
        -12    1    1    2    0    0 -0.15016522163E+02 -0.87117781895E+01 -0.70206928304E+01  0.18726482449E+02  0.00000000000E+00 0.  1.
         11    1    3    3    0    0  0.48111767079E+01 -0.10969449558E+01  0.71430010773E+01  0.86817725266E+01  0.51100000000E-03 0. -1.
        -11    1    3    3    0    0  0.14744756335E+01  0.27698046970E+02 -0.21107462775E+02  0.34855141219E+02  0.51100000000E-03 0.  1.
        -12    1    3    3    0    0  0.87308698216E+01 -0.17889323824E+02  0.20985154528E+02  0.28924603805E+02  0.00000000000E+00 0.  1.
</event>
<event>
 7    1  0.1830715E-013  0.7246156E+02  0.7816164E-02  0.1226708E+00
        -11   -1    0    0    0    0  0.00000000000E+00  0.00000000000E+00  0.45593999997E+02  0.45594000000E+02  0.51100000000E-03 0.  1.
         11   -1    0    0    0    0 -0.00000000000E+00 -0.00000000000E+00 -0.45593999997E+02  0.45594000000E+02  0.51100000000E-03 0. -1.
    9900012    2    1    2    0    0  0.13698098025E+02  0.19496574078E+01 -0.12619053857E+02  0.72461559501E+02  0.69999985940E+02 0.  0.
        -12    1    1    2    0    0 -0.13698098025E+02 -0.19496574078E+01  0.12619053857E+02  0.18726440499E+02  0.00000000000E+00 0.  1.
         11    1    3    3    0    0 -0.13977809931E+02  0.16141596855E+02 -0.28610942577E+02  0.35700369114E+02  0.51100000000E-03 0. -1.
        -11    1    3    3    0    0  0.64418394095E+01  0.69215311524E-01  0.73232586730E+01  0.97535738881E+01  0.51100000000E-03 0.  1.
         12    1    3    3    0    0  0.21234068546E+02 -0.14261154759E+02  0.86686300462E+01  0.27007616499E+02  0.00000000000E+00 0. -1.
</event>
<event>
 7    1  0.1830715E-013  0.7246157E+02  0.7816164E-02  0.1226708E+00
        -11   -1    0    0    0    0  0.00000000000E+00  0.00000000000E+00  0.45593999997E+02  0.45594000000E+02  0.51100000000E-03 0.  1.
         11   -1    0    0    0    0 -0.00000000000E+00 -0.00000000000E+00 -0.45593999997E+02  0.45594000000E+02  0.51100000000E-03 0. -1.
    9900012    2    1    2    0    0 -0.17820849633E+02  0.93834039215E+00 -0.56758998277E+01  0.72461574736E+02  0.70000005786E+02 0.  0.
        -12    1    1    2    0    0  0.17820849633E+02 -0.93834039215E+00  0.56758998277E+01  0.18726425264E+02  0.00000000000E+00 0.  1.
         11    1    3    3    0    0 -0.24053391231E+02 -0.19314290854E+02 -0.96857272360E+01  0.32332967282E+02  0.51100000000E-03 0. -1.
        -11    1    3    3    0    0 -0.25611653692E+01  0.27988332160E+02  0.14655120760E+01  0.28143454498E+02  0.51100000000E-03 0.  1.
        -12    1    3    3    0    0  0.87937069675E+01 -0.77357009142E+01  0.25443153323E+01  0.11985152956E+02  0.00000000000E+00 0.  1.
</event>
<event>
 7    1  0.1830715E-013  0.7246152E+02  0.7816164E-02  0.1226708E+00
        -11   -1    0    0    0    0  0.00000000000E+00  0.00000000000E+00  0.45593999997E+02  0.45594000000E+02  0.51100000000E-03 0. -1.
         11   -1    0    0    0    0 -0.00000000000E+00 -0.00000000000E+00 -0.45593999997E+02  0.45594000000E+02  0.51100000000E-03 0.  1.
    9900012    2    1    2    0    0 -0.41235191016E+01 -0.16005699514E+02  0.88031318242E+01  0.72461522578E+02  0.69999937841E+02 0.  0.
        -12    1    1    2    0    0  0.41235191016E+01  0.16005699514E+02 -0.88031318242E+01  0.18726477422E+02  0.00000000000E+00 0.  1.
         11    1    3    3    0    0  0.34460126780E+01 -0.25932535055E+02 -0.68670363664E+01  0.27046766285E+02  0.51100000000E-03 0.  1.
        -11    1    3    3    0    0  0.12682772580E+02  0.11453937566E+02  0.18179246843E+02  0.24950559556E+02  0.51100000000E-03 0. -1.
        -12    1    3    3    0    0 -0.20252304359E+02 -0.15271020254E+01 -0.25090786528E+01  0.20464196738E+02  0.00000000000E+00 0.  1.
</event>
<event>
 7    1  0.1830715E-013  0.7246147E+02  0.7816164E-02  0.1226708E+00
        -11   -1    0    0    0    0  0.00000000000E+00  0.00000000000E+00  0.45593999997E+02  0.45594000000E+02  0.51100000000E-03 0.  1.
         11   -1    0    0    0    0 -0.00000000000E+00 -0.00000000000E+00 -0.45593999997E+02  0.45594000000E+02  0.51100000000E-03 0. -1.
    9900012    2    1    2    0    0 -0.13225736711E+02  0.17185092187E+01 -0.13145702178E+02  0.72461471458E+02  0.69999871247E+02 0.  0.
        -12    1    1    2    0    0  0.13225736711E+02 -0.17185092187E+01  0.13145702178E+02  0.18726528542E+02  0.00000000000E+00 0.  1.
         11    1    3    3    0    0 -0.12675706815E+02 -0.11176310630E+02 -0.87806651264E+01  0.19044252226E+02  0.51100000000E-03 0. -1.
        -11    1    3    3    0    0 -0.10909778518E+02  0.28292922291E+02  0.76945061101E+01  0.31284471286E+02  0.51100000000E-03 0.  1.
        -12    1    3    3    0    0  0.10359748622E+02 -0.15398102443E+02 -0.12059543162E+02  0.22132747946E+02  0.00000000000E+00 0.  1.
</event>
<event>
 7    1  0.1830715E-013  0.7246157E+02  0.7816164E-02  0.1226708E+00
        -11   -1    0    0    0    0  0.00000000000E+00  0.00000000000E+00  0.45593999997E+02  0.45594000000E+02  0.51100000000E-03 0.  1.
         11   -1    0    0    0    0 -0.00000000000E+00 -0.00000000000E+00 -0.45593999997E+02  0.45594000000E+02  0.51100000000E-03 0. -1.
    9900012    2    1    2    0    0  0.15708580463E+02 -0.10190640984E+02 -0.26573456736E+00  0.72461567380E+02  0.69999996204E+02 0.  0.
        -12    1    1    2    0    0 -0.15708580463E+02  0.10190640984E+02  0.26573456736E+00  0.18726432620E+02  0.00000000000E+00 0.  1.
         11    1    3    3    0    0  0.10480477632E+02  0.30476987339E+01 -0.61845362663E+01  0.12545013673E+02  0.51100000000E-03 0. -1.
        -11    1    3    3    0    0 -0.20114215373E+02 -0.14502405116E+02  0.19121408848E+02  0.31313410719E+02  0.51100000000E-03 0.  1.
        -12    1    3    3    0    0  0.25342318204E+02  0.12640653988E+01 -0.13202607149E+02  0.28603142988E+02  0.00000000000E+00 0.  1.
</event>
<event>
 7    1  0.1830715E-013  0.7246154E+02  0.7816164E-02  0.1226708E+00
        -11   -1    0    0    0    0  0.00000000000E+00  0.00000000000E+00  0.45593999997E+02  0.45594000000E+02  0.51100000000E-03 0.  1.
         11   -1    0    0    0    0 -0.00000000000E+00 -0.00000000000E+00 -0.45593999997E+02  0.45594000000E+02  0.51100000000E-03 0. -1.
    9900012    2    1    2    0    0 -0.12327083738E+02  0.89833444490E+01 -0.10863832059E+02  0.72461539630E+02  0.69999960054E+02 0.  0.
        -12    1    1    2    0    0  0.12327083738E+02 -0.89833444490E+01  0.10863832059E+02  0.18726460370E+02  0.00000000000E+00 0.  1.
         11    1    3    3    0    0  0.13389429625E+01  0.22044824329E+02  0.15426573576E+01  0.22139260149E+02  0.51100000000E-03 0. -1.
        -11    1    3    3    0    0 -0.23565502122E+02 -0.23502869031E+02 -0.36573217077E+01  0.33482738020E+02  0.51100000000E-03 0.  1.
         12    1    3    3    0    0  0.98994754208E+01  0.10441389151E+02 -0.87491677093E+01  0.16839541461E+02  0.00000000000E+00 0. -1.
</event>
<event>
 7    1  0.1830715E-013  0.7246158E+02  0.7816164E-02  0.1226708E+00
        -11   -1    0    0    0    0  0.00000000000E+00  0.00000000000E+00  0.45593999997E+02  0.45594000000E+02  0.51100000000E-03 0. -1.
         11   -1    0    0    0    0 -0.00000000000E+00 -0.00000000000E+00 -0.45593999997E+02  0.45594000000E+02  0.51100000000E-03 0.  1.
    9900012    2    1    2    0    0 -0.15308461439E+02  0.76124963472E+01 -0.76406711852E+01  0.72461576198E+02  0.70000007690E+02 0.  0.
        -12    1    1    2    0    0  0.15308461439E+02 -0.76124963472E+01  0.76406711852E+01  0.18726423802E+02  0.00000000000E+00 0.  1.
         11    1    3    3    0    0 -0.10361214654E+02  0.19699449835E+02 -0.29347490394E+02  0.36833385475E+02  0.51100000000E-03 0. -1.
        -11    1    3    3    0    0 -0.14324454694E+02 -0.21219491301E+01  0.97542530419E+01  0.17459614058E+02  0.51100000000E-03 0.  1.
         12    1    3    3    0    0  0.93772079095E+01 -0.99650043574E+01  0.11952566167E+02  0.18168576664E+02  0.00000000000E+00 0. -1.
</event>
<event>
 7    1  0.1830715E-013  0.7246158E+02  0.7816164E-02  0.1226708E+00
        -11   -1    0    0    0    0  0.00000000000E+00  0.00000000000E+00  0.45593999997E+02  0.45594000000E+02  0.51100000000E-03 0.  1.
         11   -1    0    0    0    0 -0.00000000000E+00 -0.00000000000E+00 -0.45593999997E+02  0.45594000000E+02  0.51100000000E-03 0. -1.
    9900012    2    1    2    0    0 -0.13248513261E+02 -0.88122630762E+00 -0.13205264294E+02  0.72461583672E+02  0.70000017427E+02 0.  0.
        -12    1    1    2    0    0  0.13248513261E+02  0.88122630762E+00  0.13205264294E+02  0.18726416328E+02  0.00000000000E+00 0.  1.
         11    1    3    3    0    0  0.21699914725E+02 -0.11403593581E+02 -0.16434472768E+02  0.29513050351E+02  0.51100000000E-03 0.  1.
        -11    1    3    3    0    0 -0.32083355385E+02  0.12658673853E+02 -0.41601217950E+01  0.34740327144E+02  0.51100000000E-03 0. -1.
        -12    1    3    3    0    0 -0.28650726006E+01 -0.21363065803E+01  0.73893302687E+01  0.82082061763E+01  0.00000000000E+00 0.  1.
</event>
<event>
 7    1  0.1830715E-013  0.7246141E+02  0.7816164E-02  0.1226708E+00
        -11   -1    0    0    0    0  0.00000000000E+00  0.00000000000E+00  0.45593999997E+02  0.45594000000E+02  0.51100000000E-03 0.  1.
         11   -1    0    0    0    0 -0.00000000000E+00 -0.00000000000E+00 -0.45593999997E+02  0.45594000000E+02  0.51100000000E-03 0. -1.
    9900012    2    1    2    0    0 -0.43754678044E-01 -0.15506025447E+02 -0.10499838532E+02  0.72461405307E+02  0.69999785073E+02 0.  0.
        -12    1    1    2    0    0  0.43754678044E-01  0.15506025447E+02  0.10499838532E+02  0.18726594693E+02  0.00000000000E+00 0.  1.
         11    1    3    3    0    0  0.22492594412E+01  0.84083539306E+01 -0.18064965326E+02  0.20052495015E+02  0.51100000000E-03 0. -1.
        -11    1    3    3    0    0 -0.18675315593E+02 -0.28813611375E+02  0.81848670563E+01  0.35298493764E+02  0.51100000000E-03 0.  1.
         12    1    3    3    0    0  0.16382301474E+02  0.48992319980E+01 -0.61974026215E+00  0.17110416528E+02  0.00000000000E+00 0. -1.
</event>
<event>
 7    1  0.1830715E-013  0.7246156E+02  0.7816164E-02  0.1226708E+00
        -11   -1    0    0    0    0  0.00000000000E+00  0.00000000000E+00  0.45593999997E+02  0.45594000000E+02  0.51100000000E-03 0. -1.
         11   -1    0    0    0    0 -0.00000000000E+00 -0.00000000000E+00 -0.45593999997E+02  0.45594000000E+02  0.51100000000E-03 0.  1.
    9900012    2    1    2    0    0  0.77492779066E+01  0.12226114380E+02 -0.11880677321E+02  0.72461556811E+02  0.69999982436E+02 0.  0.
        -12    1    1    2    0    0 -0.77492779066E+01 -0.12226114380E+02  0.11880677321E+02  0.18726443189E+02  0.00000000000E+00 0.  1.
         11    1    3    3    0    0  0.19034734955E+02  0.19568656147E+02 -0.14636750979E+02  0.30975601974E+02  0.51100000000E-03 0. -1.
        -11    1    3    3    0    0 -0.89264112920E+01  0.92775930365E+01  0.15688816087E+02  0.20295159560E+02  0.51100000000E-03 0.  1.
        -12    1    3    3    0    0 -0.23590457562E+01 -0.16620134803E+02 -0.12932742428E+02  0.21190795277E+02  0.00000000000E+00 0.  1.
</event>
<event>
 7    1  0.1830715E-013  0.7246158E+02  0.7816164E-02  0.1226708E+00
        -11   -1    0    0    0    0  0.00000000000E+00  0.00000000000E+00  0.45593999997E+02  0.45594000000E+02  0.51100000000E-03 0. -1.
         11   -1    0    0    0    0 -0.00000000000E+00 -0.00000000000E+00 -0.45593999997E+02  0.45594000000E+02  0.51100000000E-03 0.  1.
    9900012    2    1    2    0    0 -0.43466702819E+01  0.17577916618E+02  0.47751667167E+01  0.72461577161E+02  0.70000008946E+02 0.  0.
        -12    1    1    2    0    0  0.43466702819E+01 -0.17577916618E+02 -0.47751667167E+01  0.18726422839E+02  0.00000000000E+00 0.  1.
         11    1    3    3    0    0 -0.58665698290E+01 -0.19455324544E+02  0.50571909458E+01  0.20940426815E+02  0.51100000000E-03 0.  1.
        -11    1    3    3    0    0 -0.87371996367E+01  0.37383032525E+02  0.68854125407E+01  0.39003059936E+02  0.51100000000E-03 0. -1.
         12    1    3    3    0    0  0.10257099184E+02 -0.34979136301E+00 -0.71674367698E+01  0.12518090410E+02  0.00000000000E+00 0. -1.
</event>
<event>
 7    1  0.1830715E-013  0.7246156E+02  0.7816164E-02  0.1226708E+00
        -11   -1    0    0    0    0  0.00000000000E+00  0.00000000000E+00  0.45593999997E+02  0.45594000000E+02  0.51100000000E-03 0. -1.
         11   -1    0    0    0    0 -0.00000000000E+00 -0.00000000000E+00 -0.45593999997E+02  0.45594000000E+02  0.51100000000E-03 0.  1.
    9900012    2    1    2    0    0 -0.16179739907E+02  0.87445124790E+01 -0.35254943611E+01  0.72461559002E+02  0.69999985290E+02 0.  0.
        -12    1    1    2    0    0  0.16179739907E+02 -0.87445124790E+01  0.35254943611E+01  0.18726440998E+02  0.00000000000E+00 0.  1.
         11    1    3    3    0    0 -0.14111818972E+02 -0.74932494961E+00  0.22463658200E+02  0.26539044116E+02  0.51100000000E-03 0. -1.
        -11    1    3    3    0    0 -0.12577325448E+01 -0.78894891679E+01 -0.27325158097E+02  0.28469109501E+02  0.51100000000E-03 0.  1.
        -12    1    3    3    0    0 -0.81018839032E+00  0.17383326596E+02  0.13360055355E+01  0.17453405386E+02  0.00000000000E+00 0.  1.
</event>
<event>
 7    1  0.1830715E-013  0.7246157E+02  0.7816164E-02  0.1226708E+00
        -11   -1    0    0    0    0  0.00000000000E+00  0.00000000000E+00  0.45593999997E+02  0.45594000000E+02  0.51100000000E-03 0. -1.
         11   -1    0    0    0    0 -0.00000000000E+00 -0.00000000000E+00 -0.45593999997E+02  0.45594000000E+02  0.51100000000E-03 0.  1.
    9900012    2    1    2    0    0  0.72884551382E+01 -0.13885521477E+02  0.10234743616E+02  0.72461567829E+02  0.69999996788E+02 0.  0.
        -12    1    1    2    0    0 -0.72884551382E+01  0.13885521477E+02 -0.10234743616E+02  0.18726432171E+02  0.00000000000E+00 0.  1.
         11    1    3    3    0    0 -0.21638467086E+02 -0.22347949637E+02  0.38842307598E+00  0.31109564181E+02  0.51100000000E-03 0. -1.
        -11    1    3    3    0    0  0.14058451104E+02  0.45370344688E+01 -0.87903234285E+01  0.17189953911E+02  0.51100000000E-03 0.  1.
         12    1    3    3    0    0  0.14868471120E+02  0.39253936917E+01  0.18636643968E+02  0.24162049737E+02  0.00000000000E+00 0. -1.
</event>
<event>
 7    1  0.1830715E-013  0.7246156E+02  0.7816164E-02  0.1226708E+00
        -11   -1    0    0    0    0  0.00000000000E+00  0.00000000000E+00  0.45593999997E+02  0.45594000000E+02  0.51100000000E-03 0. -1.
         11   -1    0    0    0    0 -0.00000000000E+00 -0.00000000000E+00 -0.45593999997E+02  0.45594000000E+02  0.51100000000E-03 0.  1.
    9900012    2    1    2    0    0  0.51597617824E+01 -0.79521647441E+01  0.16149905183E+02  0.72461561385E+02  0.69999988394E+02 0.  0.
        -12    1    1    2    0    0 -0.51597617824E+01  0.79521647441E+01 -0.16149905183E+02  0.18726438615E+02  0.00000000000E+00 0.  1.
         11    1    3    3    0    0  0.28147339945E+02  0.14882503650E+01  0.13595234524E+02  0.31294057537E+02  0.51100000000E-03 0. -1.
        -11    1    3    3    0    0 -0.17782744752E+02 -0.29062044386E+01  0.16811532976E+02  0.24643450985E+02  0.51100000000E-03 0.  1.
         12    1    3    3    0    0 -0.52048334105E+01 -0.65342106705E+01 -0.14256862317E+02  0.16524052864E+02  0.00000000000E+00 0. -1.
</event>
<event>
 7    1  0.1830715E-013  0.7246157E+02  0.7816164E-02  0.1226708E+00
        -11   -1    0    0    0    0  0.00000000000E+00  0.00000000000E+00  0.45593999997E+02  0.45594000000E+02  0.51100000000E-03 0.  1.
         11   -1    0    0    0    0 -0.00000000000E+00 -0.00000000000E+00 -0.45593999997E+02  0.45594000000E+02  0.51100000000E-03 0. -1.
    9900012    2    1    2    0    0  0.14029548607E+02  0.11470596370E+02 -0.47197983387E+01  0.72461566502E+02  0.69999995060E+02 0.  0.
        -12    1    1    2    0    0 -0.14029548607E+02 -0.11470596370E+02  0.47197983387E+01  0.18726433498E+02  0.00000000000E+00 0.  1.
         11    1    3    3    0    0  0.10110115397E+02  0.28454176296E+02 -0.28700021467E+02  0.41659882555E+02  0.51100000000E-03 0. -1.
        -11    1    3    3    0    0 -0.45761062735E+00 -0.13601869406E+02  0.14992755433E+02  0.20248530183E+02  0.51100000000E-03 0.  1.
         12    1    3    3    0    0  0.43770438375E+01 -0.33817105191E+01  0.89874676959E+01  0.10553153764E+02  0.00000000000E+00 0. -1.
</event>
<event>
 7    1  0.1830715E-013  0.7246155E+02  0.7816164E-02  0.1226708E+00
        -11   -1    0    0    0    0  0.00000000000E+00  0.00000000000E+00  0.45593999997E+02  0.45594000000E+02  0.51100000000E-03 0.  1.
         11   -1    0    0    0    0 -0.00000000000E+00 -0.00000000000E+00 -0.45593999997E+02  0.45594000000E+02  0.51100000000E-03 0. -1.
    9900012    2    1    2    0    0  0.15023541604E+02  0.24979872271E+01 -0.10896470564E+02  0.72461553106E+02  0.69999977609E+02 0.  0.
        -12    1    1    2    0    0 -0.15023541604E+02 -0.24979872271E+01  0.10896470564E+02  0.18726446894E+02  0.00000000000E+00 0.  1.
         11    1    3    3    0    0 -0.14823441866E+01 -0.25699047492E+02  0.67402185739E+00  0.25750586246E+02  0.51100000000E-03 0. -1.
        -11    1    3    3    0    0 -0.28981209938E+01  0.25209232742E+02 -0.89339017964E+01  0.26902028219E+02  0.51100000000E-03 0.  1.
        -12    1    3    3    0    0  0.19404006785E+02  0.29878019768E+01 -0.26365906252E+01  0.19808938641E+02  0.00000000000E+00 0.  1.
</event>
<event>
 7    1  0.1830715E-013  0.7246176E+02  0.7816164E-02  0.1226708E+00
        -11   -1    0    0    0    0  0.00000000000E+00  0.00000000000E+00  0.45593999997E+02  0.45594000000E+02  0.51100000000E-03 0.  1.
         11   -1    0    0    0    0 -0.00000000000E+00 -0.00000000000E+00 -0.45593999997E+02  0.45594000000E+02  0.51100000000E-03 0. -1.
    9900012    2    1    2    0    0  0.13293628018E+02  0.80739227013E+01 -0.10428967083E+02  0.72461758303E+02  0.70000244916E+02 0.  0.
        -12    1    1    2    0    0 -0.13293628018E+02 -0.80739227013E+01  0.10428967083E+02  0.18726241697E+02  0.00000000000E+00 0.  1.
         11    1    3    3    0    0  0.18662783311E+02  0.22597475179E+02 -0.98628522326E+01  0.30922826840E+02  0.51100000000E-03 0. -1.
        -11    1    3    3    0    0  0.92870097340E+01 -0.25365109182E+01  0.14456888104E+02  0.17369054417E+02  0.51100000000E-03 0.  1.
         12    1    3    3    0    0 -0.14656165027E+02 -0.11987041559E+02 -0.15023002954E+02  0.24169877046E+02  0.00000000000E+00 0. -1.
</event>
<event>
 7    1  0.1830715E-013  0.7246149E+02  0.7816164E-02  0.1226708E+00
        -11   -1    0    0    0    0  0.00000000000E+00  0.00000000000E+00  0.45593999997E+02  0.45594000000E+02  0.51100000000E-03 0. -1.
         11   -1    0    0    0    0 -0.00000000000E+00 -0.00000000000E+00 -0.45593999997E+02  0.45594000000E+02  0.51100000000E-03 0.  1.
    9900012    2    1    2    0    0  0.93859753476E+01  0.15638337754E+02 -0.42459271808E+01  0.72461493690E+02  0.69999900209E+02 0.  0.
        -12    1    1    2    0    0 -0.93859753476E+01 -0.15638337754E+02  0.42459271808E+01  0.18726506310E+02  0.00000000000E+00 0.  1.
         11    1    3    3    0    0 -0.18616752221E+02  0.99548613260E+01  0.11769931716E+02  0.24170519650E+02  0.51100000000E-03 0. -1.
        -11    1    3    3    0    0  0.21034336637E+02  0.20337357822E+02 -0.89852261923E+01  0.30606955597E+02  0.51100000000E-03 0.  1.
         12    1    3    3    0    0  0.69683909315E+01 -0.14653881394E+02 -0.70306327043E+01  0.17684018443E+02  0.00000000000E+00 0. -1.
</event>
<event>
 7    1  0.1830715E-013  0.7246156E+02  0.7816164E-02  0.1226708E+00
        -11   -1    0    0    0    0  0.00000000000E+00  0.00000000000E+00  0.45593999997E+02  0.45594000000E+02  0.51100000000E-03 0. -1.
         11   -1    0    0    0    0 -0.00000000000E+00 -0.00000000000E+00 -0.45593999997E+02  0.45594000000E+02  0.51100000000E-03 0.  1.
    9900012    2    1    2    0    0 -0.16984206795E+02 -0.32582760173E+01 -0.71833111632E+01  0.72461558738E+02  0.69999984946E+02 0.  0.
        -12    1    1    2    0    0  0.16984206795E+02  0.32582760173E+01  0.71833111632E+01  0.18726441262E+02  0.00000000000E+00 0.  1.
         11    1    3    3    0    0 -0.24349476623E+02 -0.75226474689E+01  0.18320612688E+02  0.31386813892E+02  0.51100000000E-03 0. -1.
        -11    1    3    3    0    0  0.35659050935E+01  0.17408968200E+02 -0.18688851871E+02  0.25788777354E+02  0.51100000000E-03 0.  1.
        -12    1    3    3    0    0  0.37993647346E+01 -0.13144596748E+02 -0.68150719800E+01  0.15285967492E+02  0.00000000000E+00 0.  1.
</event>
<event>
 7    1  0.1830715E-013  0.7246156E+02  0.7816164E-02  0.1226708E+00
        -11   -1    0    0    0    0  0.00000000000E+00  0.00000000000E+00  0.45593999997E+02  0.45594000000E+02  0.51100000000E-03 0.  1.
         11   -1    0    0    0    0 -0.00000000000E+00 -0.00000000000E+00 -0.45593999997E+02  0.45594000000E+02  0.51100000000E-03 0. -1.
    9900012    2    1    2    0    0  0.15387548223E+02 -0.95676462054E+00 -0.10629559968E+02  0.72461559228E+02  0.69999985584E+02 0.  0.
        -12    1    1    2    0    0 -0.15387548223E+02  0.95676462054E+00  0.10629559968E+02  0.18726440772E+02  0.00000000000E+00 0.  1.
         11    1    3    3    0    0  0.38620010465E+02 -0.15826166232E+02 -0.13616044797E+02  0.43901815703E+02  0.51100000000E-03 0. -1.
        -11    1    3    3    0    0 -0.12625383058E+01  0.10610455482E+01  0.19997034629E+01  0.25920329530E+01  0.51100000000E-03 0.  1.
         12    1    3    3    0    0 -0.21969923935E+02  0.13808356063E+02  0.98678136652E+00  0.25967710572E+02  0.00000000000E+00 0. -1.
</event>
<event>
 7    1  0.1830715E-013  0.7246154E+02  0.7816164E-02  0.1226708E+00
        -11   -1    0    0    0    0  0.00000000000E+00  0.00000000000E+00  0.45593999997E+02  0.45594000000E+02  0.51100000000E-03 0. -1.
         11   -1    0    0    0    0 -0.00000000000E+00 -0.00000000000E+00 -0.45593999997E+02  0.45594000000E+02  0.51100000000E-03 0.  1.
    9900012    2    1    2    0    0 -0.15969039303E+02  0.17765348552E+01  0.96184117017E+01  0.72461544489E+02  0.69999966384E+02 0.  0.
        -12    1    1    2    0    0  0.15969039303E+02 -0.17765348552E+01 -0.96184117017E+01  0.18726455511E+02  0.00000000000E+00 0.  1.
         11    1    3    3    0    0  0.46925422157E+01 -0.27548645986E+02  0.87302577321E+01  0.29277384590E+02  0.51100000000E-03 0. -1.
        -11    1    3    3    0    0 -0.70866464046E+01  0.28329334635E+02 -0.19965289013E+01  0.29270426817E+02  0.51100000000E-03 0.  1.
        -12    1    3    3    0    0 -0.13574935114E+02  0.99584620625E+00  0.28846828709E+01  0.13913733082E+02  0.00000000000E+00 0.  1.
</event>
<event>
 7    1  0.1830715E-013  0.7246155E+02  0.7816164E-02  0.1226708E+00
        -11   -1    0    0    0    0  0.00000000000E+00  0.00000000000E+00  0.45593999997E+02  0.45594000000E+02  0.51100000000E-03 0.  1.
         11   -1    0    0    0    0 -0.00000000000E+00 -0.00000000000E+00 -0.45593999997E+02  0.45594000000E+02  0.51100000000E-03 0. -1.
    9900012    2    1    2    0    0  0.10781169382E+02 -0.16038064719E+01 -0.15227407900E+02  0.72461554534E+02  0.69999979469E+02 0.  0.
        -12    1    1    2    0    0 -0.10781169382E+02  0.16038064719E+01  0.15227407900E+02  0.18726445466E+02  0.00000000000E+00 0.  1.
         11    1    3    3    0    0  0.14448826990E+02  0.25422509771E+02 -0.20399744561E+02  0.35654202878E+02  0.51100000000E-03 0. -1.
        -11    1    3    3    0    0  0.99984322751E+01 -0.11751029278E+02  0.52901365795E+01  0.16310759711E+02  0.51100000000E-03 0.  1.
         12    1    3    3    0    0 -0.13666089883E+02 -0.15275286965E+02 -0.11779991861E+00  0.20496591945E+02  0.00000000000E+00 0. -1.
</event>
<event>
 7    1  0.1830715E-013  0.7246160E+02  0.7816164E-02  0.1226708E+00
        -11   -1    0    0    0    0  0.00000000000E+00  0.00000000000E+00  0.45593999997E+02  0.45594000000E+02  0.51100000000E-03 0.  1.
         11   -1    0    0    0    0 -0.00000000000E+00 -0.00000000000E+00 -0.45593999997E+02  0.45594000000E+02  0.51100000000E-03 0. -1.
    9900012    2    1    2    0    0  0.11492664680E+02 -0.14537017921E+02 -0.26966263044E+01  0.72461600856E+02  0.70000039812E+02 0.  0.
        -12    1    1    2    0    0 -0.11492664680E+02  0.14537017921E+02  0.26966263044E+01  0.18726399144E+02  0.00000000000E+00 0.  1.
         11    1    3    3    0    0 -0.21768707907E+02 -0.10798423710E+02 -0.92081067891E+01  0.25985992947E+02  0.51100000000E-03 0. -1.
        -11    1    3    3    0    0  0.39337918520E+02 -0.49176037835E+01  0.70357099583E+01  0.40263580012E+02  0.51100000000E-03 0.  1.
        -12    1    3    3    0    0 -0.60765459336E+01  0.11790095728E+01 -0.52422947362E+00  0.62120278973E+01  0.00000000000E+00 0.  1.
</event>
<event>
 7    1  0.1830715E-013  0.7246154E+02  0.7816164E-02  0.1226708E+00
        -11   -1    0    0    0    0  0.00000000000E+00  0.00000000000E+00  0.45593999997E+02  0.45594000000E+02  0.51100000000E-03 0.  1.
         11   -1    0    0    0    0 -0.00000000000E+00 -0.00000000000E+00 -0.45593999997E+02  0.45594000000E+02  0.51100000000E-03 0. -1.
    9900012    2    1    2    0    0  0.10434817886E+02 -0.15527623566E+02 -0.82922817080E+00  0.72461544455E+02  0.69999966339E+02 0.  0.
        -12    1    1    2    0    0 -0.10434817886E+02  0.15527623566E+02  0.82922817080E+00  0.18726455545E+02  0.00000000000E+00 0.  1.
         11    1    3    3    0    0  0.28960162381E+01 -0.13812449949E+02 -0.20076228194E+02  0.24540285703E+02  0.51100000000E-03 0. -1.
        -11    1    3    3    0    0  0.16422338437E+02  0.16388334734E+02  0.66127794831E+01  0.24124667207E+02  0.51100000000E-03 0.  1.
         12    1    3    3    0    0 -0.88835367887E+01 -0.18103508352E+02  0.12634220540E+02  0.23796591545E+02  0.00000000000E+00 0. -1.
</event>
<event>
 7    1  0.1830715E-013  0.7246157E+02  0.7816164E-02  0.1226708E+00
        -11   -1    0    0    0    0  0.00000000000E+00  0.00000000000E+00  0.45593999997E+02  0.45594000000E+02  0.51100000000E-03 0.  1.
         11   -1    0    0    0    0 -0.00000000000E+00 -0.00000000000E+00 -0.45593999997E+02  0.45594000000E+02  0.51100000000E-03 0. -1.
    9900012    2    1    2    0    0 -0.10666928166E+02 -0.15284829133E+02  0.18083141572E+01  0.72461565256E+02  0.69999993437E+02 0.  0.
        -12    1    1    2    0    0  0.10666928166E+02  0.15284829133E+02 -0.18083141572E+01  0.18726434744E+02  0.00000000000E+00 0.  1.
         11    1    3    3    0    0  0.19452085300E+02 -0.12922704717E+02 -0.70649242516E+01  0.24398628541E+02  0.51100000000E-03 0. -1.
        -11    1    3    3    0    0 -0.28012168171E+02  0.13517771742E+02  0.42654783631E+01  0.31394362940E+02  0.51100000000E-03 0.  1.
        -12    1    3    3    0    0 -0.21068452953E+01 -0.15879896157E+02  0.46077600458E+01  0.16668573775E+02  0.00000000000E+00 0.  1.
</event>
<event>
 7    1  0.1830715E-013  0.7246157E+02  0.7816164E-02  0.1226708E+00
        -11   -1    0    0    0    0  0.00000000000E+00  0.00000000000E+00  0.45593999997E+02  0.45594000000E+02  0.51100000000E-03 0. -1.
         11   -1    0    0    0    0 -0.00000000000E+00 -0.00000000000E+00 -0.45593999997E+02  0.45594000000E+02  0.51100000000E-03 0.  1.
    9900012    2    1    2    0    0  0.15301462616E+02 -0.10660671581E+02 -0.17012818592E+01  0.72461573840E+02  0.70000004620E+02 0.  0.
        -12    1    1    2    0    0 -0.15301462616E+02  0.10660671581E+02  0.17012818592E+01  0.18726426160E+02  0.00000000000E+00 0.  1.
         11    1    3    3    0    0  0.16750526713E+02 -0.23143997241E+02 -0.33632299109E+01  0.28766926655E+02  0.51100000000E-03 0. -1.
        -11    1    3    3    0    0 -0.17407375847E+02 -0.36981126785E+01  0.88275317120E+01  0.19864996543E+02  0.51100000000E-03 0.  1.
        -12    1    3    3    0    0  0.15958311749E+02  0.16181438338E+02 -0.71655836604E+01  0.23829650643E+02  0.00000000000E+00 0.  1.
</event>
<event>
 7    1  0.1830715E-013  0.7246167E+02  0.7816164E-02  0.1226708E+00
        -11   -1    0    0    0    0  0.00000000000E+00  0.00000000000E+00  0.45593999997E+02  0.45594000000E+02  0.51100000000E-03 0.  1.
         11   -1    0    0    0    0 -0.00000000000E+00 -0.00000000000E+00 -0.45593999997E+02  0.45594000000E+02  0.51100000000E-03 0. -1.
    9900012    2    1    2    0    0  0.43622981061E+01 -0.79664823920E+01 -0.16376227208E+02  0.72461673504E+02  0.70000134450E+02 0.  0.
        -12    1    1    2    0    0 -0.43622981061E+01  0.79664823920E+01  0.16376227208E+02  0.18726326496E+02  0.00000000000E+00 0.  1.
         11    1    3    3    0    0 -0.13902885290E+02 -0.14020351682E+02 -0.32250256469E+02  0.37814541162E+02  0.51100000000E-03 0. -1.
        -11    1    3    3    0    0  0.16308576018E+02 -0.68654299116E+01  0.83077445371E+01  0.19547951278E+02  0.51100000000E-03 0.  1.
         12    1    3    3    0    0  0.19566073777E+01  0.12919299202E+02  0.75662847243E+01  0.15099181065E+02  0.00000000000E+00 0. -1.
</event>
<event>
 7    1  0.1830715E-013  0.7246156E+02  0.7816164E-02  0.1226708E+00
        -11   -1    0    0    0    0  0.00000000000E+00  0.00000000000E+00  0.45593999997E+02  0.45594000000E+02  0.51100000000E-03 0.  1.
         11   -1    0    0    0    0 -0.00000000000E+00 -0.00000000000E+00 -0.45593999997E+02  0.45594000000E+02  0.51100000000E-03 0. -1.
    9900012    2    1    2    0    0 -0.13704520298E+01  0.15038323022E+02 -0.11074759840E+02  0.72461558705E+02  0.69999984903E+02 0.  0.
        -12    1    1    2    0    0  0.13704520298E+01 -0.15038323022E+02  0.11074759840E+02  0.18726441295E+02  0.00000000000E+00 0.  1.
         11    1    3    3    0    0  0.15653608152E+02  0.25984621894E+02 -0.16798279138E+02  0.34675902373E+02  0.51100000000E-03 0. -1.
        -11    1    3    3    0    0 -0.53910317472E+01 -0.16444523834E+02  0.14193036717E+02  0.22381418162E+02  0.51100000000E-03 0.  1.
         12    1    3    3    0    0 -0.11633028435E+02  0.54982249621E+01 -0.84695174184E+01  0.15404238170E+02  0.00000000000E+00 0. -1.
</event>
<event>
 7    1  0.1830715E-013  0.7246158E+02  0.7816164E-02  0.1226708E+00
        -11   -1    0    0    0    0  0.00000000000E+00  0.00000000000E+00  0.45593999997E+02  0.45594000000E+02  0.51100000000E-03 0. -1.
         11   -1    0    0    0    0 -0.00000000000E+00 -0.00000000000E+00 -0.45593999997E+02  0.45594000000E+02  0.51100000000E-03 0.  1.
    9900012    2    1    2    0    0 -0.34293199015E+01 -0.17344967310E+02  0.61701497923E+01  0.72461578174E+02  0.70000010264E+02 0.  0.
        -12    1    1    2    0    0  0.34293199015E+01  0.17344967310E+02 -0.61701497923E+01  0.18726421826E+02  0.00000000000E+00 0.  1.
         11    1    3    3    0    0  0.40787764779E+01  0.15172328777E+02  0.44908873828E+01  0.16340258499E+02  0.51100000000E-03 0. -1.
        -11    1    3    3    0    0 -0.24332971872E+02 -0.74171932338E+01 -0.27280878616E+01  0.25584189243E+02  0.51100000000E-03 0.  1.
         12    1    3    3    0    0  0.16824875492E+02 -0.25100102853E+02  0.44073502711E+01  0.30537130431E+02  0.00000000000E+00 0. -1.
</event>
<event>
 7    1  0.1830715E-013  0.7246237E+02  0.7816164E-02  0.1226706E+00
        -11   -1    0    0    0    0  0.00000000000E+00  0.00000000000E+00  0.45593999997E+02  0.45594000000E+02  0.51100000000E-03 0. -1.
         11   -1    0    0    0    0 -0.00000000000E+00 -0.00000000000E+00 -0.45593999997E+02  0.45594000000E+02  0.51100000000E-03 0.  1.
    9900012    2    1    2    0    0  0.16794336208E+01  0.15159406320E+01  0.18588454744E+02  0.72462369889E+02  0.70001041613E+02 0.  0.
        -12    1    1    2    0    0 -0.16794336208E+01 -0.15159406320E+01 -0.18588454744E+02  0.18725630111E+02  0.00000000000E+00 0.  1.
         11    1    3    3    0    0  0.62868580321E+01  0.15617573241E+02 -0.15730061647E+02  0.23040573290E+02  0.51100000000E-03 0. -1.
        -11    1    3    3    0    0 -0.75863721675E+01 -0.21013757182E+02  0.10968252372E+02  0.24888422889E+02  0.51100000000E-03 0.  1.
         12    1    3    3    0    0  0.29789477562E+01  0.69121245730E+01  0.23350264019E+02  0.24533373710E+02  0.00000000000E+00 0. -1.
</event>
<event>
 7    1  0.1830715E-013  0.7246156E+02  0.7816164E-02  0.1226708E+00
        -11   -1    0    0    0    0  0.00000000000E+00  0.00000000000E+00  0.45593999997E+02  0.45594000000E+02  0.51100000000E-03 0.  1.
         11   -1    0    0    0    0 -0.00000000000E+00 -0.00000000000E+00 -0.45593999997E+02  0.45594000000E+02  0.51100000000E-03 0. -1.
    9900012    2    1    2    0    0  0.10006393835E+02  0.15605258848E+02  0.26509564654E+01  0.72461559028E+02  0.69999985324E+02 0.  0.
        -12    1    1    2    0    0 -0.10006393835E+02 -0.15605258848E+02 -0.26509564654E+01  0.18726440972E+02  0.00000000000E+00 0.  1.
         11    1    3    3    0    0 -0.10480365903E+02  0.22728584157E+02 -0.25008995199E+01  0.25153153001E+02  0.51100000000E-03 0. -1.
        -11    1    3    3    0    0  0.22721489907E+02  0.60996113972E+01  0.17309214220E+02  0.29207537725E+02  0.51100000000E-03 0.  1.
        -12    1    3    3    0    0 -0.22347301691E+01 -0.13222936706E+02 -0.12157358234E+02  0.18100868302E+02  0.00000000000E+00 0.  1.
</event>
<event>
 7    1  0.1830715E-013  0.7246157E+02  0.7816164E-02  0.1226708E+00
        -11   -1    0    0    0    0  0.00000000000E+00  0.00000000000E+00  0.45593999997E+02  0.45594000000E+02  0.51100000000E-03 0. -1.
         11   -1    0    0    0    0 -0.00000000000E+00 -0.00000000000E+00 -0.45593999997E+02  0.45594000000E+02  0.51100000000E-03 0.  1.
    9900012    2    1    2    0    0 -0.10078148707E+02 -0.15069836725E+02  0.46914851999E+01  0.72461572320E+02  0.70000002639E+02 0.  0.
        -12    1    1    2    0    0  0.10078148707E+02  0.15069836725E+02 -0.46914851999E+01  0.18726427680E+02  0.00000000000E+00 0.  1.
         11    1    3    3    0    0 -0.15421578114E+02  0.13509179815E+02  0.26772929479E+02  0.33721102650E+02  0.51100000000E-03 0. -1.
        -11    1    3    3    0    0  0.21046266476E+01 -0.71717478257E+01 -0.13539445894E+02  0.15465445858E+02  0.51100000000E-03 0.  1.
         12    1    3    3    0    0  0.32388027592E+01 -0.21407268714E+02 -0.85419983844E+01  0.23275023813E+02  0.00000000000E+00 0. -1.
</event>
<event>
 7    1  0.1830715E-013  0.7246156E+02  0.7816164E-02  0.1226708E+00
        -11   -1    0    0    0    0  0.00000000000E+00  0.00000000000E+00  0.45593999997E+02  0.45594000000E+02  0.51100000000E-03 0. -1.
         11   -1    0    0    0    0 -0.00000000000E+00 -0.00000000000E+00 -0.45593999997E+02  0.45594000000E+02  0.51100000000E-03 0.  1.
    9900012    2    1    2    0    0  0.45674880655E+01  0.11963971888E+02  0.13663121056E+02  0.72461562871E+02  0.69999990330E+02 0.  0.
        -12    1    1    2    0    0 -0.45674880655E+01 -0.11963971888E+02 -0.13663121056E+02  0.18726437129E+02  0.00000000000E+00 0.  1.
         11    1    3    3    0    0  0.39016181092E+01  0.19296242154E+02 -0.15111963701E+02  0.24818119032E+02  0.51100000000E-03 0.  1.
        -11    1    3    3    0    0  0.69312562613E+01 -0.14269062296E+02  0.33576274440E+02  0.37135086612E+02  0.51100000000E-03 0. -1.
        -12    1    3    3    0    0 -0.62653863050E+01  0.69367920305E+01 -0.48011896831E+01  0.10508357226E+02  0.00000000000E+00 0.  1.
</event>
<event>
 7    1  0.1830715E-013  0.7246117E+02  0.7816164E-02  0.1226709E+00
        -11   -1    0    0    0    0  0.00000000000E+00  0.00000000000E+00  0.45593999997E+02  0.45594000000E+02  0.51100000000E-03 0.  1.
         11   -1    0    0    0    0 -0.00000000000E+00 -0.00000000000E+00 -0.45593999997E+02  0.45594000000E+02  0.51100000000E-03 0. -1.
    9900012    2    1    2    0    0  0.11007752608E+01  0.16342991186E+02 -0.90768362812E+01  0.72461173681E+02  0.69999483336E+02 0.  0.
        -12    1    1    2    0    0 -0.11007752608E+01 -0.16342991186E+02  0.90768362812E+01  0.18726826319E+02  0.00000000000E+00 0.  1.
         11    1    3    3    0    0  0.51771879468E+01 -0.17675988005E+02 -0.38021728109E+01  0.18806922803E+02  0.51100000000E-03 0. -1.
        -11    1    3    3    0    0 -0.15980694613E+02  0.37678802401E+02 -0.35522310750E+01  0.41081542042E+02  0.51100000000E-03 0.  1.
        -12    1    3    3    0    0  0.11904281927E+02 -0.36598232094E+01 -0.17224323953E+01  0.12572708836E+02  0.00000000000E+00 0.  1.
</event>
<event>
 7    1  0.1830715E-013  0.7246155E+02  0.7816164E-02  0.1226708E+00
        -11   -1    0    0    0    0  0.00000000000E+00  0.00000000000E+00  0.45593999997E+02  0.45594000000E+02  0.51100000000E-03 0.  1.
         11   -1    0    0    0    0 -0.00000000000E+00 -0.00000000000E+00 -0.45593999997E+02  0.45594000000E+02  0.51100000000E-03 0. -1.
    9900012    2    1    2    0    0 -0.33857829679E+01 -0.14021388308E+02 -0.11942234565E+02  0.72461552852E+02  0.69999977278E+02 0.  0.
        -12    1    1    2    0    0  0.33857829679E+01  0.14021388308E+02  0.11942234565E+02  0.18726447148E+02  0.00000000000E+00 0.  1.
         11    1    3    3    0    0  0.80855033704E-01 -0.46894500722E+01 -0.47441565084E+01  0.66711693692E+01  0.51100000000E-03 0. -1.
        -11    1    3    3    0    0 -0.32537769070E+02 -0.73961870480E+01  0.58325121767E+01  0.33873709532E+02  0.51100000000E-03 0.  1.
        -12    1    3    3    0    0  0.29071131068E+02 -0.19357511884E+01 -0.13030590233E+02  0.31916673951E+02  0.00000000000E+00 0.  1.
</event>
<event>
 7    1  0.1830715E-013  0.7246158E+02  0.7816164E-02  0.1226708E+00
        -11   -1    0    0    0    0  0.00000000000E+00  0.00000000000E+00  0.45593999997E+02  0.45594000000E+02  0.51100000000E-03 0. -1.
         11   -1    0    0    0    0 -0.00000000000E+00 -0.00000000000E+00 -0.45593999997E+02  0.45594000000E+02  0.51100000000E-03 0.  1.
    9900012    2    1    2    0    0 -0.46958711361E+01 -0.42889646785E+01  0.17613415128E+02  0.72461579728E+02  0.70000012289E+02 0.  0.
        -12    1    1    2    0    0  0.46958711361E+01  0.42889646785E+01 -0.17613415128E+02  0.18726420272E+02  0.00000000000E+00 0.  1.
         11    1    3    3    0    0  0.20059362040E+02 -0.15805581219E+02  0.31547892092E+02  0.40588962771E+02  0.51100000000E-03 0. -1.
        -11    1    3    3    0    0 -0.72570759056E+01  0.71231195832E+01 -0.78039555694E+01  0.12818178735E+02  0.51100000000E-03 0.  1.
         12    1    3    3    0    0 -0.17498157270E+02  0.43934969573E+01 -0.61305213948E+01  0.19054438221E+02  0.00000000000E+00 0. -1.
</event>
<event>
 7    1  0.1830715E-013  0.7246158E+02  0.7816164E-02  0.1226708E+00
        -11   -1    0    0    0    0  0.00000000000E+00  0.00000000000E+00  0.45593999997E+02  0.45594000000E+02  0.51100000000E-03 0. -1.
         11   -1    0    0    0    0 -0.00000000000E+00 -0.00000000000E+00 -0.45593999997E+02  0.45594000000E+02  0.51100000000E-03 0.  1.
    9900012    2    1    2    0    0 -0.22891887154E+01 -0.18111578386E+02  0.41724307692E+01  0.72461579222E+02  0.70000011630E+02 0.  0.
        -12    1    1    2    0    0  0.22891887154E+01  0.18111578386E+02 -0.41724307692E+01  0.18726420778E+02  0.00000000000E+00 0.  1.
         11    1    3    3    0    0  0.67556683498E+00 -0.43020379696E+01  0.26875149558E+02  0.27225678785E+02  0.51100000000E-03 0. -1.
        -11    1    3    3    0    0  0.59781367025E+01 -0.22914346954E+02 -0.22206101277E+02  0.32464077824E+02  0.51100000000E-03 0.  1.
        -12    1    3    3    0    0 -0.89428922528E+01  0.91048065372E+01 -0.49661751199E+00  0.12771822614E+02  0.00000000000E+00 0.  1.
</event>
<event>
 7    1  0.1830715E-013  0.7246155E+02  0.7816164E-02  0.1226708E+00
        -11   -1    0    0    0    0  0.00000000000E+00  0.00000000000E+00  0.45593999997E+02  0.45594000000E+02  0.51100000000E-03 0. -1.
         11   -1    0    0    0    0 -0.00000000000E+00 -0.00000000000E+00 -0.45593999997E+02  0.45594000000E+02  0.51100000000E-03 0.  1.
    9900012    2    1    2    0    0  0.20083387242E+01  0.18365904869E+02  0.30561547091E+01  0.72461548983E+02  0.69999972239E+02 0.  0.
        -12    1    1    2    0    0 -0.20083387242E+01 -0.18365904869E+02 -0.30561547091E+01  0.18726451017E+02  0.00000000000E+00 0.  1.
         11    1    3    3    0    0 -0.12084612247E+02  0.16199364694E+02  0.24883080278E+02  0.32056589869E+02  0.51100000000E-03 0. -1.
        -11    1    3    3    0    0  0.50738438389E+01  0.96055634986E+01 -0.25850888644E+02  0.28040670202E+02  0.51100000000E-03 0.  1.
         12    1    3    3    0    0  0.90191071326E+01 -0.74390233243E+01  0.40239630750E+01  0.12364288913E+02  0.00000000000E+00 0. -1.
</event>
<event>
 7    1  0.1830715E-013  0.7246159E+02  0.7816164E-02  0.1226708E+00
        -11   -1    0    0    0    0  0.00000000000E+00  0.00000000000E+00  0.45593999997E+02  0.45594000000E+02  0.51100000000E-03 0.  1.
         11   -1    0    0    0    0 -0.00000000000E+00 -0.00000000000E+00 -0.45593999997E+02  0.45594000000E+02  0.51100000000E-03 0. -1.
    9900012    2    1    2    0    0  0.15337971715E+02 -0.12846441987E+00 -0.10742831198E+02  0.72461593469E+02  0.70000030189E+02 0.  0.
        -12    1    1    2    0    0 -0.15337971715E+02  0.12846441987E+00  0.10742831198E+02  0.18726406531E+02  0.00000000000E+00 0.  1.
         11    1    3    3    0    0 -0.14091799467E+02  0.11372038172E+01 -0.31263464527E+02  0.34311459590E+02  0.51100000000E-03 0. -1.
        -11    1    3    3    0    0  0.89902069596E+01  0.33091427375E+01  0.12437582525E+02  0.15699289989E+02  0.51100000000E-03 0.  1.
         12    1    3    3    0    0  0.20439564222E+02 -0.45748109746E+01  0.80830508047E+01  0.22450843890E+02  0.00000000000E+00 0. -1.
</event>
<event>
 7    1  0.1830715E-013  0.7246155E+02  0.7816164E-02  0.1226708E+00
        -11   -1    0    0    0    0  0.00000000000E+00  0.00000000000E+00  0.45593999997E+02  0.45594000000E+02  0.51100000000E-03 0. -1.
         11   -1    0    0    0    0 -0.00000000000E+00 -0.00000000000E+00 -0.45593999997E+02  0.45594000000E+02  0.51100000000E-03 0.  1.
    9900012    2    1    2    0    0 -0.36082654973E+01  0.36703450045E+01  0.18005243942E+02  0.72461552879E+02  0.69999977313E+02 0.  0.
        -12    1    1    2    0    0  0.36082654973E+01 -0.36703450045E+01 -0.18005243942E+02  0.18726447121E+02  0.00000000000E+00 0.  1.
         11    1    3    3    0    0  0.91415917653E+01 -0.21963195887E+02  0.26586251315E+02  0.35676034432E+02  0.51100000000E-03 0. -1.
        -11    1    3    3    0    0  0.46934130479E+01  0.62455884811E+01 -0.72713505789E+01  0.10672771009E+02  0.51100000000E-03 0.  1.
         12    1    3    3    0    0 -0.17443270310E+02  0.19387952411E+02 -0.13096567935E+01  0.26112747437E+02  0.00000000000E+00 0. -1.
</event>
<event>
 7    1  0.1830715E-013  0.7246160E+02  0.7816164E-02  0.1226708E+00
        -11   -1    0    0    0    0  0.00000000000E+00  0.00000000000E+00  0.45593999997E+02  0.45594000000E+02  0.51100000000E-03 0.  1.
         11   -1    0    0    0    0 -0.00000000000E+00 -0.00000000000E+00 -0.45593999997E+02  0.45594000000E+02  0.51100000000E-03 0. -1.
    9900012    2    1    2    0    0 -0.87558008921E+01  0.48919056890E+01 -0.15814020295E+02  0.72461600762E+02  0.70000039690E+02 0.  0.
        -12    1    1    2    0    0  0.87558008921E+01 -0.48919056890E+01  0.15814020295E+02  0.18726399238E+02  0.00000000000E+00 0.  1.
         11    1    3    3    0    0  0.54306248994E+01 -0.26488987093E+02 -0.92764821512E+01  0.28586906887E+02  0.51100000000E-03 0. -1.
        -11    1    3    3    0    0 -0.13008786457E+02  0.55291804509E+01  0.57093418312E+01  0.15244571032E+02  0.51100000000E-03 0.  1.
         12    1    3    3    0    0 -0.11776393342E+01  0.25851712331E+02 -0.12246879975E+02  0.28630122842E+02  0.00000000000E+00 0. -1.
</event>
<event>
 7    1  0.1830715E-013  0.7246157E+02  0.7816164E-02  0.1226708E+00
        -11   -1    0    0    0    0  0.00000000000E+00  0.00000000000E+00  0.45593999997E+02  0.45594000000E+02  0.51100000000E-03 0. -1.
         11   -1    0    0    0    0 -0.00000000000E+00 -0.00000000000E+00 -0.45593999997E+02  0.45594000000E+02  0.51100000000E-03 0.  1.
    9900012    2    1    2    0    0  0.61291934814E+01 -0.17084674791E+02  0.46071780953E+01  0.72461569068E+02  0.69999998402E+02 0.  0.
        -12    1    1    2    0    0 -0.61291934814E+01  0.17084674791E+02 -0.46071780953E+01  0.18726430932E+02  0.00000000000E+00 0.  1.
         11    1    3    3    0    0  0.15218577946E+02  0.17366092960E+02 -0.49617924603E+01  0.23617910239E+02  0.51100000000E-03 0. -1.
        -11    1    3    3    0    0 -0.71821283408E+01 -0.35903178969E+02 -0.23463189368E+01  0.36689595806E+02  0.51100000000E-03 0.  1.
        -12    1    3    3    0    0 -0.19072561237E+01  0.14524112182E+01  0.11915289492E+02  0.12154063023E+02  0.00000000000E+00 0.  1.
</event>
<event>
 7    1  0.1830715E-013  0.7246165E+02  0.7816164E-02  0.1226708E+00
        -11   -1    0    0    0    0  0.00000000000E+00  0.00000000000E+00  0.45593999997E+02  0.45594000000E+02  0.51100000000E-03 0.  1.
         11   -1    0    0    0    0 -0.00000000000E+00 -0.00000000000E+00 -0.45593999997E+02  0.45594000000E+02  0.51100000000E-03 0. -1.
    9900012    2    1    2    0    0  0.16202575578E+02  0.93326070867E+01  0.10272722904E+01  0.72461646945E+02  0.70000099851E+02 0.  0.
        -12    1    1    2    0    0 -0.16202575578E+02 -0.93326070867E+01 -0.10272722904E+01  0.18726353055E+02  0.00000000000E+00 0.  1.
         11    1    3    3    0    0  0.13958741747E+02  0.35140022333E+02 -0.30010104384E+01  0.37929852420E+02  0.51100000000E-03 0. -1.
        -11    1    3    3    0    0 -0.45560523998E+00 -0.29065368684E+02  0.62790831412E+01  0.29739369836E+02  0.51100000000E-03 0.  1.
        -12    1    3    3    0    0  0.26994390706E+01  0.32579534382E+01 -0.22508004125E+01  0.47924246888E+01  0.00000000000E+00 0.  1.
</event>
<event>
 7    1  0.1830715E-013  0.7246156E+02  0.7816164E-02  0.1226708E+00
        -11   -1    0    0    0    0  0.00000000000E+00  0.00000000000E+00  0.45593999997E+02  0.45594000000E+02  0.51100000000E-03 0.  1.
         11   -1    0    0    0    0 -0.00000000000E+00 -0.00000000000E+00 -0.45593999997E+02  0.45594000000E+02  0.51100000000E-03 0. -1.
    9900012    2    1    2    0    0 -0.49997264154E+01 -0.17863105391E+02 -0.25674479150E+01  0.72461559142E+02  0.69999985471E+02 0.  0.
        -12    1    1    2    0    0  0.49997264154E+01  0.17863105391E+02  0.25674479150E+01  0.18726440858E+02  0.00000000000E+00 0.  1.
         11    1    3    3    0    0 -0.13221836783E+02 -0.49785495589E+01 -0.33436800184E+02  0.36299070655E+02  0.51100000000E-03 0. -1.
        -11    1    3    3    0    0 -0.20705009457E+01 -0.39011447665E+01  0.37395123199E+01  0.57870421898E+01  0.51100000000E-03 0.  1.
         12    1    3    3    0    0  0.10292611313E+02 -0.89834110653E+01  0.27129839949E+02  0.30375446296E+02  0.00000000000E+00 0. -1.
</event>
<event>
 7    1  0.1830715E-013  0.7246136E+02  0.7816164E-02  0.1226709E+00
        -11   -1    0    0    0    0  0.00000000000E+00  0.00000000000E+00  0.45593999997E+02  0.45594000000E+02  0.51100000000E-03 0.  1.
         11   -1    0    0    0    0 -0.00000000000E+00 -0.00000000000E+00 -0.45593999997E+02  0.45594000000E+02  0.51100000000E-03 0. -1.
    9900012    2    1    2    0    0 -0.35486124709E+01 -0.16874030325E+02  0.73048834715E+01  0.72461364627E+02  0.69999732079E+02 0.  0.
        -12    1    1    2    0    0  0.35486124709E+01  0.16874030325E+02 -0.73048834715E+01  0.18726635373E+02  0.00000000000E+00 0.  1.
         11    1    3    3    0    0  0.44310057034E+01  0.38307770255E+01 -0.93343218149E+01  0.11019901459E+02  0.51100000000E-03 0. -1.
        -11    1    3    3    0    0 -0.30524707835E+02 -0.17212665405E+02  0.16241415323E+02  0.38624049641E+02  0.51100000000E-03 0.  1.
        -12    1    3    3    0    0  0.22545089660E+02 -0.34921419450E+01  0.39778996353E+00  0.22817413526E+02  0.00000000000E+00 0.  1.
</event>
<event>
 7    1  0.1830715E-013  0.7246156E+02  0.7816164E-02  0.1226708E+00
        -11   -1    0    0    0    0  0.00000000000E+00  0.00000000000E+00  0.45593999997E+02  0.45594000000E+02  0.51100000000E-03 0.  1.
         11   -1    0    0    0    0 -0.00000000000E+00 -0.00000000000E+00 -0.45593999997E+02  0.45594000000E+02  0.51100000000E-03 0. -1.
    9900012    2    1    2    0    0 -0.17329994077E+02 -0.63649999132E+01  0.31364885917E+01  0.72461562023E+02  0.69999989225E+02 0.  0.
        -12    1    1    2    0    0  0.17329994077E+02  0.63649999132E+01 -0.31364885917E+01  0.18726437977E+02  0.00000000000E+00 0.  1.
         11    1    3    3    0    0 -0.13172180125E+02 -0.18251573303E+02 -0.27295508777E+02  0.35378963480E+02  0.51100000000E-03 0. -1.
        -11    1    3    3    0    0 -0.62152936019E+01 -0.24658159729E+01  0.92622641959E+01  0.11423644833E+02  0.51100000000E-03 0.  1.
         12    1    3    3    0    0  0.20574796502E+01  0.14352389363E+02  0.21169733172E+02  0.25658953711E+02  0.00000000000E+00 0. -1.
</event>
<event>
 7    1  0.1830715E-013  0.7246188E+02  0.7816164E-02  0.1226707E+00
        -11   -1    0    0    0    0  0.00000000000E+00  0.00000000000E+00  0.45593999997E+02  0.45594000000E+02  0.51100000000E-03 0. -1.
         11   -1    0    0    0    0 -0.00000000000E+00 -0.00000000000E+00 -0.45593999997E+02  0.45594000000E+02  0.51100000000E-03 0.  1.
    9900012    2    1    2    0    0  0.10280880922E+02 -0.10013720046E+02  0.12028981471E+02  0.72461881958E+02  0.70000405999E+02 0.  0.
        -12    1    1    2    0    0 -0.10280880922E+02  0.10013720046E+02 -0.12028981471E+02  0.18726118042E+02  0.00000000000E+00 0.  1.
         11    1    3    3    0    0 -0.16375574369E+02  0.20819049124E+02  0.23750947396E+01  0.26593858645E+02  0.51100000000E-03 0. -1.
        -11    1    3    3    0    0  0.22042342502E+02 -0.23062064551E+02  0.15122831220E+02  0.35304726436E+02  0.51100000000E-03 0.  1.
        -12    1    3    3    0    0  0.46141127885E+01 -0.77707046184E+01 -0.54689444893E+01  0.10563296877E+02  0.00000000000E+00 0.  1.
</event>
<event>
 7    1  0.1830715E-013  0.7246157E+02  0.7816164E-02  0.1226708E+00
        -11   -1    0    0    0    0  0.00000000000E+00  0.00000000000E+00  0.45593999997E+02  0.45594000000E+02  0.51100000000E-03 0.  1.
         11   -1    0    0    0    0 -0.00000000000E+00 -0.00000000000E+00 -0.45593999997E+02  0.45594000000E+02  0.51100000000E-03 0. -1.
    9900012    2    1    2    0    0 -0.49879603797E+01  0.50746569703E+01 -0.17321871301E+02  0.72461571684E+02  0.70000001810E+02 0.  0.
        -12    1    1    2    0    0  0.49879603797E+01 -0.50746569703E+01  0.17321871301E+02  0.18726428316E+02  0.00000000000E+00 0.  1.
         11    1    3    3    0    0  0.13009557920E+02  0.72597208613E+01 -0.17516908431E+02  0.22995526206E+02  0.51100000000E-03 0. -1.
        -11    1    3    3    0    0 -0.30384212377E+02 -0.41522496480E+01 -0.11074274781E+02  0.32604924492E+02  0.51100000000E-03 0.  1.
        -12    1    3    3    0    0  0.12386694078E+02  0.19671857571E+01  0.11269311911E+02  0.16861120987E+02  0.00000000000E+00 0.  1.
</event>
<event>
 7    1  0.1830715E-013  0.7246156E+02  0.7816164E-02  0.1226708E+00
        -11   -1    0    0    0    0  0.00000000000E+00  0.00000000000E+00  0.45593999997E+02  0.45594000000E+02  0.51100000000E-03 0. -1.
         11   -1    0    0    0    0 -0.00000000000E+00 -0.00000000000E+00 -0.45593999997E+02  0.45594000000E+02  0.51100000000E-03 0.  1.
    9900012    2    1    2    0    0 -0.23544518219E+01  0.17295458386E+02  0.67825544970E+01  0.72461564950E+02  0.69999993038E+02 0.  0.
        -12    1    1    2    0    0  0.23544518219E+01 -0.17295458386E+02 -0.67825544970E+01  0.18726435050E+02  0.00000000000E+00 0.  1.
         11    1    3    3    0    0 -0.21106255644E+02  0.21965333101E+02 -0.11104833585E+02  0.32423251144E+02  0.51100000000E-03 0. -1.
        -11    1    3    3    0    0  0.15925515132E+02 -0.91512083973E+01 -0.28922672767E+01  0.18593866129E+02  0.51100000000E-03 0.  1.
         12    1    3    3    0    0  0.28262886898E+01  0.44813336823E+01  0.20779655359E+02  0.21444447677E+02  0.00000000000E+00 0. -1.
</event>
<event>
 7    1  0.1830715E-013  0.7246154E+02  0.7816164E-02  0.1226708E+00
        -11   -1    0    0    0    0  0.00000000000E+00  0.00000000000E+00  0.45593999997E+02  0.45594000000E+02  0.51100000000E-03 0. -1.
         11   -1    0    0    0    0 -0.00000000000E+00 -0.00000000000E+00 -0.45593999997E+02  0.45594000000E+02  0.51100000000E-03 0.  1.
    9900012    2    1    2    0    0 -0.96833009811E+01 -0.73592905857E+01  0.14239196347E+02  0.72461543089E+02  0.69999964560E+02 0.  0.
        -12    1    1    2    0    0  0.96833009811E+01  0.73592905857E+01 -0.14239196347E+02  0.18726456911E+02  0.00000000000E+00 0.  1.
         11    1    3    3    0    0 -0.56876039533E+01 -0.19898621246E+02 -0.18188929478E+02  0.27552515712E+02  0.51100000000E-03 0. -1.
        -11    1    3    3    0    0  0.59733703094E+01  0.82263281747E+01  0.32493524290E+02  0.34046772962E+02  0.51100000000E-03 0.  1.
         12    1    3    3    0    0 -0.99690673371E+01  0.43130024857E+01 -0.65398464518E-01  0.10862254415E+02  0.00000000000E+00 0. -1.
</event>
<event>
 7    1  0.1830715E-013  0.7246159E+02  0.7816164E-02  0.1226708E+00
        -11   -1    0    0    0    0  0.00000000000E+00  0.00000000000E+00  0.45593999997E+02  0.45594000000E+02  0.51100000000E-03 0.  1.
         11   -1    0    0    0    0 -0.00000000000E+00 -0.00000000000E+00 -0.45593999997E+02  0.45594000000E+02  0.51100000000E-03 0. -1.
    9900012    2    1    2    0    0 -0.49304087478E+01  0.15875425901E+02 -0.86220911092E+01  0.72461587288E+02  0.70000022137E+02 0.  0.
        -12    1    1    2    0    0  0.49304087478E+01 -0.15875425901E+02  0.86220911092E+01  0.18726412712E+02  0.00000000000E+00 0.  1.
         11    1    3    3    0    0 -0.13394301306E+02  0.36257018127E+02 -0.12007245333E+02  0.40474098034E+02  0.51100000000E-03 0. -1.
        -11    1    3    3    0    0  0.11555496168E+01 -0.87754582313E+01  0.12647741226E+02  0.15437270499E+02  0.51100000000E-03 0.  1.
         12    1    3    3    0    0  0.73083429410E+01 -0.11606133994E+02 -0.92625870023E+01  0.16550218754E+02  0.00000000000E+00 0. -1.
</event>
<event>
 7    1  0.1830715E-013  0.7246158E+02  0.7816164E-02  0.1226708E+00
        -11   -1    0    0    0    0  0.00000000000E+00  0.00000000000E+00  0.45593999997E+02  0.45594000000E+02  0.51100000000E-03 0. -1.
         11   -1    0    0    0    0 -0.00000000000E+00 -0.00000000000E+00 -0.45593999997E+02  0.45594000000E+02  0.51100000000E-03 0.  1.
    9900012    2    1    2    0    0 -0.64031632771E+01  0.87106330058E+01  0.15290628353E+02  0.72461576349E+02  0.70000007887E+02 0.  0.
        -12    1    1    2    0    0  0.64031632771E+01 -0.87106330058E+01 -0.15290628353E+02  0.18726423651E+02  0.00000000000E+00 0.  1.
         11    1    3    3    0    0  0.88700672464E+01  0.25857527865E+02  0.49732611468E+01  0.27785304874E+02  0.51100000000E-03 0. -1.
        -11    1    3    3    0    0 -0.26417852984E+02 -0.18351609351E+02  0.89169714718E+01  0.33379588112E+02  0.51100000000E-03 0.  1.
        -12    1    3    3    0    0  0.11144622461E+02  0.12047144923E+01  0.14003957347E+01  0.11296683363E+02  0.00000000000E+00 0.  1.
</event>
<event>
 7    1  0.1830715E-013  0.7246159E+02  0.7816164E-02  0.1226708E+00
        -11   -1    0    0    0    0  0.00000000000E+00  0.00000000000E+00  0.45593999997E+02  0.45594000000E+02  0.51100000000E-03 0.  1.
         11   -1    0    0    0    0 -0.00000000000E+00 -0.00000000000E+00 -0.45593999997E+02  0.45594000000E+02  0.51100000000E-03 0. -1.
    9900012    2    1    2    0    0 -0.15772366169E+02 -0.10033171611E+02 -0.11163835754E+01  0.72461591391E+02  0.70000027482E+02 0.  0.
        -12    1    1    2    0    0  0.15772366169E+02  0.10033171611E+02  0.11163835754E+01  0.18726408609E+02  0.00000000000E+00 0.  1.
         11    1    3    3    0    0  0.13153917544E+02 -0.10512769014E+02 -0.17738252876E+02  0.24457912308E+02  0.51100000000E-03 0. -1.
        -11    1    3    3    0    0 -0.30810053907E+02 -0.11465368356E+02  0.10977136380E+02  0.34658499919E+02  0.51100000000E-03 0.  1.
        -12    1    3    3    0    0  0.18837701936E+01  0.11944965760E+02  0.56447329215E+01  0.13345179163E+02  0.00000000000E+00 0.  1.
</event>
<event>
 7    1  0.1830715E-013  0.7246156E+02  0.7816164E-02  0.1226708E+00
        -11   -1    0    0    0    0  0.00000000000E+00  0.00000000000E+00  0.45593999997E+02  0.45594000000E+02  0.51100000000E-03 0.  1.
         11   -1    0    0    0    0 -0.00000000000E+00 -0.00000000000E+00 -0.45593999997E+02  0.45594000000E+02  0.51100000000E-03 0. -1.
    9900012    2    1    2    0    0 -0.15204841854E+01  0.61176255417E+01 -0.17633556789E+02  0.72461560417E+02  0.69999987132E+02 0.  0.
        -12    1    1    2    0    0  0.15204841854E+01 -0.61176255417E+01  0.17633556789E+02  0.18726439583E+02  0.00000000000E+00 0.  1.
         11    1    3    3    0    0  0.91943836691E+01  0.14406471771E+02  0.15769989997E+02  0.23254584595E+02  0.51100000000E-03 0.  1.
        -11    1    3    3    0    0 -0.86498954936E+01 -0.15073856786E+02 -0.37274555264E+02  0.41127050962E+02  0.51100000000E-03 0. -1.
         12    1    3    3    0    0 -0.20649723610E+01  0.67850105568E+01  0.38710084768E+01  0.80799248595E+01  0.00000000000E+00 0. -1.
</event>
<event>
 7    1  0.1830715E-013  0.7246160E+02  0.7816164E-02  0.1226708E+00
        -11   -1    0    0    0    0  0.00000000000E+00  0.00000000000E+00  0.45593999997E+02  0.45594000000E+02  0.51100000000E-03 0. -1.
         11   -1    0    0    0    0 -0.00000000000E+00 -0.00000000000E+00 -0.45593999997E+02  0.45594000000E+02  0.51100000000E-03 0.  1.
    9900012    2    1    2    0    0 -0.14125775543E+02 -0.12264173310E+02 -0.85465263040E+00  0.72461603849E+02  0.70000043712E+02 0.  0.
        -12    1    1    2    0    0  0.14125775543E+02  0.12264173310E+02  0.85465263040E+00  0.18726396151E+02  0.00000000000E+00 0.  1.
         11    1    3    3    0    0 -0.74011512917E+01  0.13881306318E+02  0.28849073048E+01  0.15993448532E+02  0.51100000000E-03 0.  1.
        -11    1    3    3    0    0 -0.17801753154E+02 -0.96427191467E+01  0.17944283242E+02  0.27053313092E+02  0.51100000000E-03 0. -1.
        -12    1    3    3    0    0  0.11077128902E+02 -0.16502760481E+02 -0.21683843178E+02  0.29414842226E+02  0.00000000000E+00 0.  1.
</event>
<event>
 7    1  0.1830715E-013  0.7246159E+02  0.7816164E-02  0.1226708E+00
        -11   -1    0    0    0    0  0.00000000000E+00  0.00000000000E+00  0.45593999997E+02  0.45594000000E+02  0.51100000000E-03 0. -1.
         11   -1    0    0    0    0 -0.00000000000E+00 -0.00000000000E+00 -0.45593999997E+02  0.45594000000E+02  0.51100000000E-03 0.  1.
    9900012    2    1    2    0    0 -0.10708692312E+02 -0.14870450975E+01  0.15290221645E+02  0.72461594255E+02  0.70000031213E+02 0.  0.
        -12    1    1    2    0    0  0.10708692312E+02  0.14870450975E+01 -0.15290221645E+02  0.18726405745E+02  0.00000000000E+00 0.  1.
         11    1    3    3    0    0  0.12574850340E+02 -0.11129463617E+02  0.22200270578E+02  0.27836016875E+02  0.51100000000E-03 0. -1.
        -11    1    3    3    0    0 -0.70556068393E+00  0.90556318432E+01 -0.17472323638E+02  0.19692241557E+02  0.51100000000E-03 0.  1.
        -12    1    3    3    0    0 -0.22577981968E+02  0.58678667659E+00  0.10562274705E+02  0.24933335823E+02  0.00000000000E+00 0.  1.
</event>
<event>
 7    1  0.1830715E-013  0.7246156E+02  0.7816164E-02  0.1226708E+00
        -11   -1    0    0    0    0  0.00000000000E+00  0.00000000000E+00  0.45593999997E+02  0.45594000000E+02  0.51100000000E-03 0. -1.
         11   -1    0    0    0    0 -0.00000000000E+00 -0.00000000000E+00 -0.45593999997E+02  0.45594000000E+02  0.51100000000E-03 0.  1.
    9900012    2    1    2    0    0 -0.18069225325E+02  0.27363270232E+01  0.40859711195E+01  0.72461560151E+02  0.69999986787E+02 0.  0.
        -12    1    1    2    0    0  0.18069225325E+02 -0.27363270232E+01 -0.40859711195E+01  0.18726439849E+02  0.00000000000E+00 0.  1.
         11    1    3    3    0    0 -0.13570997784E+02  0.11880455394E+02 -0.40642167489E+01  0.18488781985E+02  0.51100000000E-03 0. -1.
        -11    1    3    3    0    0 -0.39674595213E+01 -0.22965093151E+02 -0.14489610105E+02  0.27442394935E+02  0.51100000000E-03 0.  1.
        -12    1    3    3    0    0 -0.53076801905E+00  0.13820964780E+02  0.22639797974E+02  0.26530383232E+02  0.00000000000E+00 0.  1.
</event>
<event>
 7    1  0.1830715E-013  0.7246154E+02  0.7816164E-02  0.1226708E+00
        -11   -1    0    0    0    0  0.00000000000E+00  0.00000000000E+00  0.45593999997E+02  0.45594000000E+02  0.51100000000E-03 0. -1.
         11   -1    0    0    0    0 -0.00000000000E+00 -0.00000000000E+00 -0.45593999997E+02  0.45594000000E+02  0.51100000000E-03 0.  1.
    9900012    2    1    2    0    0 -0.68505027167E+00 -0.31328957712E+01  0.18449827983E+02  0.72461535241E+02  0.69999954336E+02 0.  0.
        -12    1    1    2    0    0  0.68505027167E+00  0.31328957712E+01 -0.18449827983E+02  0.18726464759E+02  0.00000000000E+00 0.  1.
         11    1    3    3    0    0  0.12878525864E+02 -0.19130243832E+02  0.64010343344E+01  0.23933154793E+02  0.51100000000E-03 0. -1.
        -11    1    3    3    0    0 -0.14949835484E+02  0.23360411191E+02 -0.65323977675E+01  0.28493483691E+02  0.51100000000E-03 0.  1.
         12    1    3    3    0    0  0.13862593479E+01 -0.73630631297E+01  0.18581191416E+02  0.20034896757E+02  0.00000000000E+00 0. -1.
</event>
<event>
 7    1  0.1830715E-013  0.7246145E+02  0.7816164E-02  0.1226708E+00
        -11   -1    0    0    0    0  0.00000000000E+00  0.00000000000E+00  0.45593999997E+02  0.45594000000E+02  0.51100000000E-03 0. -1.
         11   -1    0    0    0    0 -0.00000000000E+00 -0.00000000000E+00 -0.45593999997E+02  0.45594000000E+02  0.51100000000E-03 0.  1.
    9900012    2    1    2    0    0  0.48037882427E+01  0.12572695058E+01  0.18056208104E+02  0.72461447750E+02  0.69999840363E+02 0.  0.
        -12    1    1    2    0    0 -0.48037882427E+01 -0.12572695058E+01 -0.18056208104E+02  0.18726552250E+02  0.00000000000E+00 0.  1.
         11    1    3    3    0    0 -0.98046306447E+01 -0.98734814309E+01  0.97463739008E+01  0.16988473213E+02  0.51100000000E-03 0. -1.
        -11    1    3    3    0    0  0.27755191866E+02  0.19767504815E+02 -0.55306203083E+01  0.34520902123E+02  0.51100000000E-03 0.  1.
        -12    1    3    3    0    0 -0.13146772979E+02 -0.86367538788E+01  0.13840454511E+02  0.20952072413E+02  0.00000000000E+00 0.  1.
</event>
<event>
 7    1  0.1830715E-013  0.7246158E+02  0.7816164E-02  0.1226708E+00
        -11   -1    0    0    0    0  0.00000000000E+00  0.00000000000E+00  0.45593999997E+02  0.45594000000E+02  0.51100000000E-03 0.  1.
         11   -1    0    0    0    0 -0.00000000000E+00 -0.00000000000E+00 -0.45593999997E+02  0.45594000000E+02  0.51100000000E-03 0. -1.
    9900012    2    1    2    0    0 -0.67118851152E+01 -0.16639553992E+02 -0.53623510228E+01  0.72461575692E+02  0.70000007032E+02 0.  0.
        -12    1    1    2    0    0  0.67118851152E+01  0.16639553992E+02  0.53623510228E+01  0.18726424308E+02  0.00000000000E+00 0.  1.
         11    1    3    3    0    0  0.92475145838E+01 -0.47775994968E+01 -0.27414302692E+02  0.29323812427E+02  0.51100000000E-03 0. -1.
        -11    1    3    3    0    0 -0.47784609804E+01 -0.21315818727E+02  0.93795013448E+01  0.23773364572E+02  0.51100000000E-03 0.  1.
         12    1    3    3    0    0 -0.11180938719E+02  0.94538642308E+01  0.12672450324E+02  0.19364398693E+02  0.00000000000E+00 0. -1.
</event>
<event>
 7    1  0.1830715E-013  0.7246155E+02  0.7816164E-02  0.1226708E+00
        -11   -1    0    0    0    0  0.00000000000E+00  0.00000000000E+00  0.45593999997E+02  0.45594000000E+02  0.51100000000E-03 0.  1.
         11   -1    0    0    0    0 -0.00000000000E+00 -0.00000000000E+00 -0.45593999997E+02  0.45594000000E+02  0.51100000000E-03 0. -1.
    9900012    2    1    2    0    0  0.67641235907E+01 -0.38941776343E+01 -0.17022400216E+02  0.72461545543E+02  0.69999967757E+02 0.  0.
        -12    1    1    2    0    0 -0.67641235907E+01  0.38941776343E+01  0.17022400216E+02  0.18726454457E+02  0.00000000000E+00 0.  1.
         11    1    3    3    0    0 -0.24786258102E+02  0.11554858397E+02 -0.11980545967E+02  0.29856436914E+02  0.51100000000E-03 0. -1.
        -11    1    3    3    0    0  0.18971199196E+02  0.11631711760E+01  0.47353611223E+01  0.19587828143E+02  0.51100000000E-03 0.  1.
         12    1    3    3    0    0  0.12579182496E+02 -0.16612207207E+02 -0.97772153720E+01  0.23017280486E+02  0.00000000000E+00 0. -1.
</event>
<event>
 7    1  0.2544384E-013  0.7246157E+02  0.7816164E-02  0.1226708E+00
        -11   -1    0    0    0    0  0.00000000000E+00  0.00000000000E+00  0.45593999997E+02  0.45594000000E+02  0.51100000000E-03 0. -1.
         11   -1    0    0    0    0 -0.00000000000E+00 -0.00000000000E+00 -0.45593999997E+02  0.45594000000E+02  0.51100000000E-03 0.  1.
    9900012    2    1    2    0    0  0.42805210031E+01 -0.14032222338E+02  0.11638428551E+02  0.72461571004E+02  0.70000000925E+02 0.  0.
        -12    1    1    2    0    0 -0.42805210031E+01  0.14032222338E+02 -0.11638428551E+02  0.18726428996E+02  0.00000000000E+00 0.  1.
         11    1    3    3    0    0  0.67102840683E+01  0.61166120527E+01  0.29683768708E+02  0.31041375296E+02  0.51100000000E-03 0. -1.
        -11    1    3    3    0    0 -0.97492655688E+01  0.35586140920E+01 -0.12033138821E+02  0.15890511116E+02  0.51100000000E-03 0.  1.
         12    1    3    3    0    0  0.73195025036E+01 -0.23707448483E+02 -0.60122013359E+01  0.25529684592E+02  0.00000000000E+00 0. -1.
</event>
<event>
 7    1  0.1830715E-013  0.7246156E+02  0.7816164E-02  0.1226708E+00
        -11   -1    0    0    0    0  0.00000000000E+00  0.00000000000E+00  0.45593999997E+02  0.45594000000E+02  0.51100000000E-03 0. -1.
         11   -1    0    0    0    0 -0.00000000000E+00 -0.00000000000E+00 -0.45593999997E+02  0.45594000000E+02  0.51100000000E-03 0.  1.
    9900012    2    1    2    0    0 -0.11089729797E+01 -0.18383840530E+02  0.33888436351E+01  0.72461556801E+02  0.69999982422E+02 0.  0.
        -12    1    1    2    0    0  0.11089729797E+01  0.18383840530E+02 -0.33888436351E+01  0.18726443199E+02  0.00000000000E+00 0.  1.
         11    1    3    3    0    0  0.99828567409E+01  0.61972813583E+00  0.14360125650E+02  0.17500134303E+02  0.51100000000E-03 0. -1.
        -11    1    3    3    0    0  0.24356466343E+01  0.32684811515E+01 -0.25025094589E+02  0.25354895051E+02  0.51100000000E-03 0.  1.
        -12    1    3    3    0    0 -0.13527476355E+02 -0.22272049817E+02  0.14053812574E+02  0.29606527447E+02  0.00000000000E+00 0.  1.
</event>
<event>
 7    1  0.1830715E-013  0.7246149E+02  0.7816164E-02  0.1226708E+00
        -11   -1    0    0    0    0  0.00000000000E+00  0.00000000000E+00  0.45593999997E+02  0.45594000000E+02  0.51100000000E-03 0.  1.
         11   -1    0    0    0    0 -0.00000000000E+00 -0.00000000000E+00 -0.45593999997E+02  0.45594000000E+02  0.51100000000E-03 0. -1.
    9900012    2    1    2    0    0  0.37992910121E+01  0.85160793640E+01  0.16239574505E+02  0.72461494720E+02  0.69999901550E+02 0.  0.
        -12    1    1    2    0    0 -0.37992910121E+01 -0.85160793640E+01 -0.16239574505E+02  0.18726505280E+02  0.00000000000E+00 0.  1.
         11    1    3    3    0    0  0.96088294199E+01  0.45703813051E+01 -0.25328935099E+02  0.27473131267E+02  0.51100000000E-03 0. -1.
        -11    1    3    3    0    0  0.35463292178E+01 -0.28149362942E+01  0.20202986962E+02  0.20704130015E+02  0.51100000000E-03 0.  1.
         12    1    3    3    0    0 -0.93558676255E+01  0.67606343531E+01  0.21365522642E+02  0.24284233437E+02  0.00000000000E+00 0. -1.
</event>
<event>
 7    1  0.1830715E-013  0.7246160E+02  0.7816164E-02  0.1226708E+00
        -11   -1    0    0    0    0  0.00000000000E+00  0.00000000000E+00  0.45593999997E+02  0.45594000000E+02  0.51100000000E-03 0.  1.
         11   -1    0    0    0    0 -0.00000000000E+00 -0.00000000000E+00 -0.45593999997E+02  0.45594000000E+02  0.51100000000E-03 0. -1.
    9900012    2    1    2    0    0 -0.10037426152E+02 -0.18023158311E+01 -0.15706048912E+02  0.72461595152E+02  0.70000032381E+02 0.  0.
        -12    1    1    2    0    0  0.10037426152E+02  0.18023158311E+01  0.15706048912E+02  0.18726404848E+02  0.00000000000E+00 0.  1.
         11    1    3    3    0    0 -0.14076032267E+02  0.30490670540E+02 -0.10009180650E+02  0.35042821974E+02  0.51100000000E-03 0. -1.
        -11    1    3    3    0    0  0.80504233711E+01 -0.24711623126E+02  0.17652266947E+01  0.26049753541E+02  0.51100000000E-03 0.  1.
         12    1    3    3    0    0 -0.40118172560E+01 -0.75813632453E+01 -0.74620949572E+01  0.11369019637E+02  0.00000000000E+00 0. -1.
</event>
<event>
 7    1  0.1830715E-013  0.7246157E+02  0.7816164E-02  0.1226708E+00
        -11   -1    0    0    0    0  0.00000000000E+00  0.00000000000E+00  0.45593999997E+02  0.45594000000E+02  0.51100000000E-03 0. -1.
         11   -1    0    0    0    0 -0.00000000000E+00 -0.00000000000E+00 -0.45593999997E+02  0.45594000000E+02  0.51100000000E-03 0.  1.
    9900012    2    1    2    0    0  0.17061162705E+02  0.77139233741E+01 -0.30204237850E+00  0.72461571716E+02  0.70000001853E+02 0.  0.
        -12    1    1    2    0    0 -0.17061162705E+02 -0.77139233741E+01  0.30204237850E+00  0.18726428284E+02  0.00000000000E+00 0.  1.
         11    1    3    3    0    0 -0.94382705070E+01  0.74480863679E+01 -0.19504685936E+02  0.22912610380E+02  0.51100000000E-03 0.  1.
        -11    1    3    3    0    0  0.22536131888E+02 -0.16752365418E+02  0.10061442257E+02  0.29828704432E+02  0.51100000000E-03 0. -1.
        -12    1    3    3    0    0  0.39633013242E+01  0.17018202424E+02  0.91412013012E+01  0.19720256904E+02  0.00000000000E+00 0.  1.
</event>
<event>
 7    1  0.1830715E-013  0.7246154E+02  0.7816164E-02  0.1226708E+00
        -11   -1    0    0    0    0  0.00000000000E+00  0.00000000000E+00  0.45593999997E+02  0.45594000000E+02  0.51100000000E-03 0.  1.
         11   -1    0    0    0    0 -0.00000000000E+00 -0.00000000000E+00 -0.45593999997E+02  0.45594000000E+02  0.51100000000E-03 0. -1.
    9900012    2    1    2    0    0  0.23764115624E+01  0.63956065762E+01 -0.17439298264E+02  0.72461541731E+02  0.69999962790E+02 0.  0.
        -12    1    1    2    0    0 -0.23764115624E+01 -0.63956065762E+01  0.17439298264E+02  0.18726458269E+02  0.00000000000E+00 0.  1.
         11    1    3    3    0    0  0.17305338226E+02  0.30203631266E+02  0.47492179842E+01  0.35132451444E+02  0.51100000000E-03 0. -1.
        -11    1    3    3    0    0 -0.16349388084E+01 -0.38440595699E+01  0.62885945747E+00  0.42243678063E+01  0.51100000000E-03 0.  1.
         12    1    3    3    0    0 -0.13293987855E+02 -0.19963965120E+02 -0.22817375705E+02  0.33104722480E+02  0.00000000000E+00 0. -1.
</event>
<event>
 7    1  0.1830715E-013  0.7246156E+02  0.7816164E-02  0.1226708E+00
        -11   -1    0    0    0    0  0.00000000000E+00  0.00000000000E+00  0.45593999997E+02  0.45594000000E+02  0.51100000000E-03 0. -1.
         11   -1    0    0    0    0 -0.00000000000E+00 -0.00000000000E+00 -0.45593999997E+02  0.45594000000E+02  0.51100000000E-03 0.  1.
    9900012    2    1    2    0    0  0.13094407690E+01 -0.68319569142E+01  0.17386463503E+02  0.72461564579E+02  0.69999992555E+02 0.  0.
        -12    1    1    2    0    0 -0.13094407690E+01  0.68319569142E+01 -0.17386463503E+02  0.18726435421E+02  0.00000000000E+00 0.  1.
         11    1    3    3    0    0 -0.24992782882E+02 -0.17813456362E+02  0.12672778569E+02  0.33204784906E+02  0.51100000000E-03 0. -1.
        -11    1    3    3    0    0  0.42231534765E+01  0.15430262501E+02 -0.97250069370E+00  0.16027282489E+02  0.51100000000E-03 0.  1.
        -12    1    3    3    0    0  0.22079070174E+02 -0.44487630527E+01  0.56861856283E+01  0.23229497185E+02  0.00000000000E+00 0.  1.
</event>
<event>
 7    1  0.1830715E-013  0.7246155E+02  0.7816164E-02  0.1226708E+00
        -11   -1    0    0    0    0  0.00000000000E+00  0.00000000000E+00  0.45593999997E+02  0.45594000000E+02  0.51100000000E-03 0.  1.
         11   -1    0    0    0    0 -0.00000000000E+00 -0.00000000000E+00 -0.45593999997E+02  0.45594000000E+02  0.51100000000E-03 0. -1.
    9900012    2    1    2    0    0  0.14726938078E+02 -0.11533384796E+02 -0.88228506336E+00  0.72461545533E+02  0.69999967743E+02 0.  0.
        -12    1    1    2    0    0 -0.14726938078E+02  0.11533384796E+02  0.88228506336E+00  0.18726454467E+02  0.00000000000E+00 0.  1.
         11    1    3    3    0    0 -0.23268624172E+02 -0.13481324293E+02 -0.37219914797E+01  0.27148263230E+02  0.51100000000E-03 0. -1.
        -11    1    3    3    0    0  0.38135237287E+01 -0.85777294129E+01 -0.43815027114E+00  0.93974667348E+01  0.51100000000E-03 0.  1.
         12    1    3    3    0    0  0.34182038521E+02  0.10525668910E+02  0.32778566875E+01  0.35915815568E+02  0.00000000000E+00 0. -1.
</event>
<event>
 7    1  0.1830715E-013  0.7246175E+02  0.7816164E-02  0.1226708E+00
        -11   -1    0    0    0    0  0.00000000000E+00  0.00000000000E+00  0.45593999997E+02  0.45594000000E+02  0.51100000000E-03 0. -1.
         11   -1    0    0    0    0 -0.00000000000E+00 -0.00000000000E+00 -0.45593999997E+02  0.45594000000E+02  0.51100000000E-03 0.  1.
    9900012    2    1    2    0    0  0.18273980487E+02  0.22554039070E+01  0.34128077948E+01  0.72461749263E+02  0.70000233140E+02 0.  0.
        -12    1    1    2    0    0 -0.18273980487E+02 -0.22554039070E+01 -0.34128077948E+01  0.18726250737E+02  0.00000000000E+00 0.  1.
         11    1    3    3    0    0  0.17998358259E+02  0.12831176765E+02  0.13177285454E+02  0.25733652080E+02  0.51100000000E-03 0. -1.
        -11    1    3    3    0    0 -0.20927354498E+02  0.37950308158E+00 -0.91788018943E+01  0.22854946803E+02  0.51100000000E-03 0.  1.
        -12    1    3    3    0    0  0.21202976727E+02 -0.10955275939E+02 -0.58567576495E+00  0.23873150380E+02  0.00000000000E+00 0.  1.
</event>
<event>
 7    1  0.1830715E-013  0.7246154E+02  0.7816164E-02  0.1226708E+00
        -11   -1    0    0    0    0  0.00000000000E+00  0.00000000000E+00  0.45593999997E+02  0.45594000000E+02  0.51100000000E-03 0. -1.
         11   -1    0    0    0    0 -0.00000000000E+00 -0.00000000000E+00 -0.45593999997E+02  0.45594000000E+02  0.51100000000E-03 0.  1.
    9900012    2    1    2    0    0 -0.16161640361E+02 -0.47404258545E+01  0.81859670376E+01  0.72461539769E+02  0.69999960235E+02 0.  0.
        -12    1    1    2    0    0  0.16161640361E+02  0.47404258545E+01 -0.81859670376E+01  0.18726460231E+02  0.00000000000E+00 0.  1.
         11    1    3    3    0    0  0.22490734618E+02 -0.47952265503E+01  0.15319798998E+01  0.23047219008E+02  0.51100000000E-03 0. -1.
        -11    1    3    3    0    0 -0.13900764584E+02 -0.71488716614E+01 -0.10154430619E+02  0.18640012969E+02  0.51100000000E-03 0.  1.
         12    1    3    3    0    0 -0.24751610395E+02  0.72036723571E+01  0.16808417757E+02  0.30774307792E+02  0.00000000000E+00 0. -1.
</event>
<event>
 7    1  0.1830715E-013  0.7246156E+02  0.7816164E-02  0.1226708E+00
        -11   -1    0    0    0    0  0.00000000000E+00  0.00000000000E+00  0.45593999997E+02  0.45594000000E+02  0.51100000000E-03 0.  1.
         11   -1    0    0    0    0 -0.00000000000E+00 -0.00000000000E+00 -0.45593999997E+02  0.45594000000E+02  0.51100000000E-03 0. -1.
    9900012    2    1    2    0    0 -0.13683470917E+02 -0.10178223664E+02 -0.77360229860E+01  0.72461557067E+02  0.69999982769E+02 0.  0.
        -12    1    1    2    0    0  0.13683470917E+02  0.10178223664E+02  0.77360229860E+01  0.18726442933E+02  0.00000000000E+00 0.  1.
         11    1    3    3    0    0  0.10439190447E+02 -0.53388212521E+01 -0.16814680362E+02  0.20499102065E+02  0.51100000000E-03 0. -1.
        -11    1    3    3    0    0 -0.26744127168E+02 -0.16140345284E+02 -0.71197951825E+01  0.32038267238E+02  0.51100000000E-03 0.  1.
        -12    1    3    3    0    0  0.26214658053E+01  0.11300942872E+02  0.16198452558E+02  0.19924187764E+02  0.00000000000E+00 0.  1.
</event>
<event>
 7    1  0.1830715E-013  0.7246159E+02  0.7816164E-02  0.1226708E+00
        -11   -1    0    0    0    0  0.00000000000E+00  0.00000000000E+00  0.45593999997E+02  0.45594000000E+02  0.51100000000E-03 0.  1.
         11   -1    0    0    0    0 -0.00000000000E+00 -0.00000000000E+00 -0.45593999997E+02  0.45594000000E+02  0.51100000000E-03 0. -1.
    9900012    2    1    2    0    0 -0.16800394804E+02  0.16753435228E+01  0.81005160760E+01  0.72461590782E+02  0.70000026689E+02 0.  0.
        -12    1    1    2    0    0  0.16800394804E+02 -0.16753435228E+01 -0.81005160760E+01  0.18726409218E+02  0.00000000000E+00 0.  1.
         11    1    3    3    0    0 -0.34022851813E+02  0.90269546709E+01 -0.54858392748E+01  0.35624918091E+02  0.51100000000E-03 0. -1.
        -11    1    3    3    0    0  0.92660371758E+01 -0.15942513606E+02  0.16528730656E+02  0.24763322119E+02  0.51100000000E-03 0.  1.
         12    1    3    3    0    0  0.79564198332E+01  0.85909024581E+01 -0.29423753048E+01  0.12073350572E+02  0.00000000000E+00 0. -1.
</event>
<event>
 7    1  0.1830715E-013  0.7246155E+02  0.7816164E-02  0.1226708E+00
        -11   -1    0    0    0    0  0.00000000000E+00  0.00000000000E+00  0.45593999997E+02  0.45594000000E+02  0.51100000000E-03 0. -1.
         11   -1    0    0    0    0 -0.00000000000E+00 -0.00000000000E+00 -0.45593999997E+02  0.45594000000E+02  0.51100000000E-03 0.  1.
    9900012    2    1    2    0    0 -0.58473728681E+01 -0.16280484927E+02  0.71717487812E+01  0.72461549736E+02  0.69999973219E+02 0.  0.
        -12    1    1    2    0    0  0.58473728681E+01  0.16280484927E+02 -0.71717487812E+01  0.18726450264E+02  0.00000000000E+00 0.  1.
         11    1    3    3    0    0 -0.63395473763E+01  0.12241409916E+02 -0.67442974626E+01  0.15346906079E+02  0.51100000000E-03 0. -1.
        -11    1    3    3    0    0  0.69908967597E+01 -0.59785271437E+00  0.25309040329E+02  0.26263617192E+02  0.51100000000E-03 0.  1.
        -12    1    3    3    0    0 -0.64987222515E+01 -0.27924042129E+02 -0.11392994085E+02  0.30851026465E+02  0.00000000000E+00 0.  1.
</event>
<event>
 7    1  0.1830715E-013  0.7246157E+02  0.7816164E-02  0.1226708E+00
        -11   -1    0    0    0    0  0.00000000000E+00  0.00000000000E+00  0.45593999997E+02  0.45594000000E+02  0.51100000000E-03 0. -1.
         11   -1    0    0    0    0 -0.00000000000E+00 -0.00000000000E+00 -0.45593999997E+02  0.45594000000E+02  0.51100000000E-03 0.  1.
    9900012    2    1    2    0    0  0.15445742703E+02  0.66451694303E+01  0.82431747173E+01  0.72461570180E+02  0.69999999851E+02 0.  0.
        -12    1    1    2    0    0 -0.15445742703E+02 -0.66451694303E+01 -0.82431747173E+01  0.18726429820E+02  0.00000000000E+00 0.  1.
         11    1    3    3    0    0  0.53507382518E+01 -0.93067062705E+01  0.31868363630E+01  0.11198263602E+02  0.51100000000E-03 0. -1.
        -11    1    3    3    0    0 -0.11458661907E+02  0.30590769659E+02  0.11128869996E+02  0.34510112557E+02  0.51100000000E-03 0.  1.
        -12    1    3    3    0    0  0.21553666358E+02 -0.14638893958E+02 -0.60725316414E+01  0.26753194021E+02  0.00000000000E+00 0.  1.
</event>
<event>
 7    1  0.1830715E-013  0.7246158E+02  0.7816164E-02  0.1226708E+00
        -11   -1    0    0    0    0  0.00000000000E+00  0.00000000000E+00  0.45593999997E+02  0.45594000000E+02  0.51100000000E-03 0.  1.
         11   -1    0    0    0    0 -0.00000000000E+00 -0.00000000000E+00 -0.45593999997E+02  0.45594000000E+02  0.51100000000E-03 0. -1.
    9900012    2    1    2    0    0  0.14776954100E+02  0.85628044994E+01 -0.76810787046E+01  0.72461575797E+02  0.70000007168E+02 0.  0.
        -12    1    1    2    0    0 -0.14776954100E+02 -0.85628044994E+01  0.76810787046E+01  0.18726424203E+02  0.00000000000E+00 0.  1.
         11    1    3    3    0    0  0.16607026617E+02  0.17046185707E+02 -0.13704210133E+02  0.27462176823E+02  0.51100000000E-03 0. -1.
        -11    1    3    3    0    0 -0.22685080998E+02 -0.58466073645E+01  0.49965332649E+01  0.23953310053E+02  0.51100000000E-03 0.  1.
        -12    1    3    3    0    0  0.20855008482E+02 -0.26367738433E+01  0.10265981635E+01  0.21046088921E+02  0.00000000000E+00 0.  1.
</event>
<event>
 7    1  0.1830715E-013  0.7246171E+02  0.7816164E-02  0.1226708E+00
        -11   -1    0    0    0    0  0.00000000000E+00  0.00000000000E+00  0.45593999997E+02  0.45594000000E+02  0.51100000000E-03 0.  1.
         11   -1    0    0    0    0 -0.00000000000E+00 -0.00000000000E+00 -0.45593999997E+02  0.45594000000E+02  0.51100000000E-03 0. -1.
    9900012    2    1    2    0    0 -0.58592185492E+01  0.16240852675E+02  0.72510772925E+01  0.72461712073E+02  0.70000184693E+02 0.  0.
        -12    1    1    2    0    0  0.58592185492E+01 -0.16240852675E+02 -0.72510772925E+01  0.18726287927E+02  0.00000000000E+00 0.  1.
         11    1    3    3    0    0 -0.17400991875E+02  0.26248954738E+02  0.22092503204E+02  0.38469219399E+02  0.51100000000E-03 0. -1.
        -11    1    3    3    0    0  0.11734313783E+02 -0.18593190424E+02 -0.10326919932E+02  0.24290865066E+02  0.51100000000E-03 0.  1.
         12    1    3    3    0    0 -0.19254045707E+00  0.85850883620E+01 -0.45145059791E+01  0.97016276081E+01  0.00000000000E+00 0. -1.
</event>
<event>
 7    1  0.1830715E-013  0.7246160E+02  0.7816164E-02  0.1226708E+00
        -11   -1    0    0    0    0  0.00000000000E+00  0.00000000000E+00  0.45593999997E+02  0.45594000000E+02  0.51100000000E-03 0.  1.
         11   -1    0    0    0    0 -0.00000000000E+00 -0.00000000000E+00 -0.45593999997E+02  0.45594000000E+02  0.51100000000E-03 0. -1.
    9900012    2    1    2    0    0 -0.16300673933E+01  0.33523172176E+01 -0.18351645828E+02  0.72461600051E+02  0.70000038764E+02 0.  0.
        -12    1    1    2    0    0  0.16300673933E+01 -0.33523172176E+01  0.18351645828E+02  0.18726399949E+02  0.00000000000E+00 0.  1.
         11    1    3    3    0    0 -0.24900307521E+02 -0.41523972201E+01 -0.15752417981E+02  0.29755779100E+02  0.51100000000E-03 0. -1.
        -11    1    3    3    0    0  0.10637927129E+02  0.77739754698E+01  0.15682467469E+02  0.20482674981E+02  0.51100000000E-03 0.  1.
         12    1    3    3    0    0  0.12632312999E+02 -0.26926103213E+00 -0.18281695316E+02  0.22223145971E+02  0.00000000000E+00 0. -1.
</event>
<event>
 7    1  0.1830715E-013  0.7246157E+02  0.7816164E-02  0.1226708E+00
        -11   -1    0    0    0    0  0.00000000000E+00  0.00000000000E+00  0.45593999997E+02  0.45594000000E+02  0.51100000000E-03 0. -1.
         11   -1    0    0    0    0 -0.00000000000E+00 -0.00000000000E+00 -0.45593999997E+02  0.45594000000E+02  0.51100000000E-03 0.  1.
    9900012    2    1    2    0    0 -0.32744721256E+01 -0.15027782567E+02  0.10682831678E+02  0.72461566564E+02  0.69999995141E+02 0.  0.
        -12    1    1    2    0    0  0.32744721256E+01  0.15027782567E+02 -0.10682831678E+02  0.18726433436E+02  0.00000000000E+00 0.  1.
         11    1    3    3    0    0 -0.22879234100E+02 -0.32144179992E+02 -0.37949703699E+01  0.39637223172E+02  0.51100000000E-03 0. -1.
        -11    1    3    3    0    0  0.14834353647E+02  0.18586736967E+02  0.90355966866E+01  0.25439474188E+02  0.51100000000E-03 0.  1.
        -12    1    3    3    0    0  0.47704083277E+01 -0.14703395417E+01  0.54422053610E+01  0.73848692048E+01  0.00000000000E+00 0.  1.
</event>
<event>
 7    1  0.1830715E-013  0.7246156E+02  0.7816164E-02  0.1226708E+00
        -11   -1    0    0    0    0  0.00000000000E+00  0.00000000000E+00  0.45593999997E+02  0.45594000000E+02  0.51100000000E-03 0.  1.
         11   -1    0    0    0    0 -0.00000000000E+00 -0.00000000000E+00 -0.45593999997E+02  0.45594000000E+02  0.51100000000E-03 0. -1.
    9900012    2    1    2    0    0  0.53796428611E+01  0.13839745268E+02 -0.11410544199E+02  0.72461558125E+02  0.69999984147E+02 0.  0.
        -12    1    1    2    0    0 -0.53796428611E+01 -0.13839745268E+02  0.11410544199E+02  0.18726441875E+02  0.00000000000E+00 0.  1.
         11    1    3    3    0    0  0.12414534198E+02 -0.19250198398E+02  0.17382532308E+01  0.22971989950E+02  0.51100000000E-03 0. -1.
        -11    1    3    3    0    0  0.55240116430E+01  0.26274097663E+02  0.40250039729E+01  0.27148546367E+02  0.51100000000E-03 0.  1.
        -12    1    3    3    0    0 -0.12558902980E+02  0.68158460029E+01 -0.17173801402E+02  0.22341021807E+02  0.00000000000E+00 0.  1.
</event>
<event>
 8    1  0.1830715E-013  0.7246157E+02  0.7816164E-02  0.1226708E+00
        -11   -1    0    0    0    0  0.00000000000E+00  0.00000000000E+00  0.45593999997E+02  0.45594000000E+02  0.51100000000E-03 0.  1.
         11   -1    0    0    0    0 -0.00000000000E+00 -0.00000000000E+00 -0.45593999997E+02  0.45594000000E+02  0.51100000000E-03 0. -1.
    9900012    2    1    2    0    0 -0.17612903353E+02  0.62805301256E+01  0.10098203264E+01  0.72461570542E+02  0.70000000322E+02 0.  0.
        -24    2    3    3    0    0  0.11555073938E+01 -0.15657425270E+01 -0.41962224090E+01  0.51463472587E+02  0.51255184920E+02 0.  0.
        -12    1    1    2    0    0  0.17612903353E+02 -0.62805301256E+01 -0.10098203264E+01  0.18726429458E+02  0.00000000000E+00 0.  1.
         11    1    4    4    0    0  0.14705002716E+01  0.91525082611E+01 -0.25761970254E+02  0.27379004550E+02  0.51100000000E-03 0. -1.
        -11    1    3    3    0    0 -0.18768410747E+02  0.78462726526E+01  0.52060427354E+01  0.20998097955E+02  0.51100000000E-03 0.  1.
        -12    1    4    4    0    0 -0.31499287777E+00 -0.10718250788E+02  0.21565747845E+02  0.24084468036E+02  0.00000000000E+00 0.  1.
</event>
<event>
 7    1  0.1830715E-013  0.7246158E+02  0.7816164E-02  0.1226708E+00
        -11   -1    0    0    0    0  0.00000000000E+00  0.00000000000E+00  0.45593999997E+02  0.45594000000E+02  0.51100000000E-03 0. -1.
         11   -1    0    0    0    0 -0.00000000000E+00 -0.00000000000E+00 -0.45593999997E+02  0.45594000000E+02  0.51100000000E-03 0.  1.
    9900012    2    1    2    0    0 -0.77671477938E+01  0.11390039857E+02  0.12673486318E+02  0.72461578872E+02  0.70000011175E+02 0.  0.
        -12    1    1    2    0    0  0.77671477938E+01 -0.11390039857E+02 -0.12673486318E+02  0.18726421128E+02  0.00000000000E+00 0.  1.
         11    1    3    3    0    0  0.21273169601E+02 -0.82057960002E+00  0.21646404789E+02  0.30360960728E+02  0.51100000000E-03 0. -1.
        -11    1    3    3    0    0 -0.13502344140E+02  0.18443784128E+02 -0.10760047137E+02  0.25263908742E+02  0.51100000000E-03 0.  1.
         12    1    3    3    0    0 -0.15537973254E+02 -0.62331646710E+01  0.17871286656E+01  0.16836709403E+02  0.00000000000E+00 0. -1.
</event>
<event>
 7    1  0.1830715E-013  0.7246148E+02  0.7816164E-02  0.1226708E+00
        -11   -1    0    0    0    0  0.00000000000E+00  0.00000000000E+00  0.45593999997E+02  0.45594000000E+02  0.51100000000E-03 0. -1.
         11   -1    0    0    0    0 -0.00000000000E+00 -0.00000000000E+00 -0.45593999997E+02  0.45594000000E+02  0.51100000000E-03 0.  1.
    9900012    2    1    2    0    0  0.14385315360E+02 -0.11002965042E+02  0.47623509024E+01  0.72461480733E+02  0.69999883330E+02 0.  0.
        -12    1    1    2    0    0 -0.14385315360E+02  0.11002965042E+02 -0.47623509024E+01  0.18726519267E+02  0.00000000000E+00 0.  1.
         11    1    3    3    0    0 -0.81554124712E+01 -0.66653847261E+01  0.22971626511E+02  0.25271203591E+02  0.51100000000E-03 0. -1.
        -11    1    3    3    0    0 -0.18986551774E+00 -0.99578592920E+01 -0.21356407307E+02  0.23564616354E+02  0.51100000000E-03 0.  1.
        -12    1    3    3    0    0  0.22730593349E+02  0.56202789758E+01  0.31471316983E+01  0.23625660788E+02  0.00000000000E+00 0.  1.
</event>
<event>
 7    1  0.1830715E-013  0.7246175E+02  0.7816164E-02  0.1226708E+00
        -11   -1    0    0    0    0  0.00000000000E+00  0.00000000000E+00  0.45593999997E+02  0.45594000000E+02  0.51100000000E-03 0.  1.
         11   -1    0    0    0    0 -0.00000000000E+00 -0.00000000000E+00 -0.45593999997E+02  0.45594000000E+02  0.51100000000E-03 0. -1.
    9900012    2    1    2    0    0 -0.15360061777E+02  0.59827266850E+01 -0.88852747456E+01  0.72461745071E+02  0.70000227678E+02 0.  0.
        -12    1    1    2    0    0  0.15360061777E+02 -0.59827266850E+01  0.88852747456E+01  0.18726254929E+02  0.00000000000E+00 0.  1.
         11    1    3    3    0    0 -0.67340616193E+01 -0.10561250883E+02 -0.16289097771E+01  0.12630952198E+02  0.51100000000E-03 0. -1.
        -11    1    3    3    0    0  0.81581769445E+00  0.26788869128E+02 -0.25420198302E+02  0.36939078896E+02  0.51100000000E-03 0.  1.
        -12    1    3    3    0    0 -0.94418178519E+01 -0.10244891560E+02  0.18163833334E+02  0.22891713977E+02  0.00000000000E+00 0.  1.
</event>
<event>
 7    1  0.1830715E-013  0.7246146E+02  0.7816164E-02  0.1226708E+00
        -11   -1    0    0    0    0  0.00000000000E+00  0.00000000000E+00  0.45593999997E+02  0.45594000000E+02  0.51100000000E-03 0. -1.
         11   -1    0    0    0    0 -0.00000000000E+00 -0.00000000000E+00 -0.45593999997E+02  0.45594000000E+02  0.51100000000E-03 0.  1.
    9900012    2    1    2    0    0 -0.62479303834E+01  0.15904980810E+02  0.76601752626E+01  0.72461459110E+02  0.69999855162E+02 0.  0.
        -12    1    1    2    0    0  0.62479303834E+01 -0.15904980810E+02 -0.76601752626E+01  0.18726540890E+02  0.00000000000E+00 0.  1.
         11    1    3    3    0    0 -0.16779462449E+02 -0.12096417984E+02 -0.11312423194E+02  0.23576356947E+02  0.51100000000E-03 0. -1.
        -11    1    3    3    0    0  0.60215534906E+01  0.34971370388E+02  0.10462159650E+02  0.36996116527E+02  0.51100000000E-03 0.  1.
        -12    1    3    3    0    0  0.45099785750E+01 -0.69699715944E+01  0.85104388068E+01  0.11888985636E+02  0.00000000000E+00 0.  1.
</event>
<event>
 7    1  0.1830715E-013  0.7246158E+02  0.7816164E-02  0.1226708E+00
        -11   -1    0    0    0    0  0.00000000000E+00  0.00000000000E+00  0.45593999997E+02  0.45594000000E+02  0.51100000000E-03 0. -1.
         11   -1    0    0    0    0 -0.00000000000E+00 -0.00000000000E+00 -0.45593999997E+02  0.45594000000E+02  0.51100000000E-03 0.  1.
    9900012    2    1    2    0    0 -0.57004904678E+01  0.92371055741E+01  0.15259724169E+02  0.72461577686E+02  0.70000009630E+02 0.  0.
        -12    1    1    2    0    0  0.57004904678E+01 -0.92371055741E+01 -0.15259724169E+02  0.18726422314E+02  0.00000000000E+00 0.  1.
         11    1    3    3    0    0 -0.90257455768E+01  0.55813058166E+01  0.32468853052E+02  0.34159061413E+02  0.51100000000E-03 0. -1.
        -11    1    3    3    0    0  0.15012244915E+02  0.56220975208E+01 -0.20480358617E+02  0.26008086575E+02  0.51100000000E-03 0.  1.
        -12    1    3    3    0    0 -0.11686989806E+02 -0.19662977633E+01  0.32712297337E+01  0.12294429698E+02  0.00000000000E+00 0.  1.
</event>
<event>
 7    1  0.1830715E-013  0.7246156E+02  0.7816164E-02  0.1226708E+00
        -11   -1    0    0    0    0  0.00000000000E+00  0.00000000000E+00  0.45593999997E+02  0.45594000000E+02  0.51100000000E-03 0.  1.
         11   -1    0    0    0    0 -0.00000000000E+00 -0.00000000000E+00 -0.45593999997E+02  0.45594000000E+02  0.51100000000E-03 0. -1.
    9900012    2    1    2    0    0 -0.15674333230E+02 -0.47032690018E+01 -0.91035227119E+01  0.72461559140E+02  0.69999985470E+02 0.  0.
        -12    1    1    2    0    0  0.15674333230E+02  0.47032690018E+01  0.91035227119E+01  0.18726440860E+02  0.00000000000E+00 0.  1.
         11    1    3    3    0    0 -0.12398240180E+02 -0.37348362664E+01 -0.62632051079E+01  0.14383779058E+02  0.51100000000E-03 0. -1.
        -11    1    3    3    0    0  0.54641083414E+01 -0.22407308495E+02  0.16131429866E+02  0.28145461157E+02  0.51100000000E-03 0.  1.
        -12    1    3    3    0    0 -0.87402013916E+01  0.21438875759E+02 -0.18971747470E+02  0.29932318926E+02  0.00000000000E+00 0.  1.
</event>
<event>
 7    1  0.1830715E-013  0.7246154E+02  0.7816164E-02  0.1226708E+00
        -11   -1    0    0    0    0  0.00000000000E+00  0.00000000000E+00  0.45593999997E+02  0.45594000000E+02  0.51100000000E-03 0.  1.
         11   -1    0    0    0    0 -0.00000000000E+00 -0.00000000000E+00 -0.45593999997E+02  0.45594000000E+02  0.51100000000E-03 0. -1.
    9900012    2    1    2    0    0 -0.39745742205E+01 -0.39110645488E+01 -0.17876985296E+02  0.72461540927E+02  0.69999961743E+02 0.  0.
        -12    1    1    2    0    0  0.39745742205E+01  0.39110645488E+01  0.17876985296E+02  0.18726459073E+02  0.00000000000E+00 0.  1.
         11    1    3    3    0    0 -0.11989052080E+02 -0.29208882539E+02 -0.15156747500E+02  0.35023180666E+02  0.51100000000E-03 0. -1.
        -11    1    3    3    0    0  0.15068116400E+02  0.59812012934E+01 -0.44214514806E+01  0.16803932106E+02  0.51100000000E-03 0.  1.
         12    1    3    3    0    0 -0.70536385409E+01  0.19316616696E+02  0.17012136840E+01  0.20634428154E+02  0.00000000000E+00 0. -1.
</event>
<event>
 7    1  0.1830715E-013  0.7246154E+02  0.7816164E-02  0.1226708E+00
        -11   -1    0    0    0    0  0.00000000000E+00  0.00000000000E+00  0.45593999997E+02  0.45594000000E+02  0.51100000000E-03 0.  1.
         11   -1    0    0    0    0 -0.00000000000E+00 -0.00000000000E+00 -0.45593999997E+02  0.45594000000E+02  0.51100000000E-03 0. -1.
    9900012    2    1    2    0    0 -0.17378242087E+02 -0.68706859355E+01  0.12127377948E+01  0.72461538610E+02  0.69999958725E+02 0.  0.
        -12    1    1    2    0    0  0.17378242087E+02  0.68706859355E+01 -0.12127377948E+01  0.18726461390E+02  0.00000000000E+00 0.  1.
         11    1    3    3    0    0 -0.24350649050E+02 -0.25885504519E+02  0.65871537112E+01  0.36144211814E+02  0.51100000000E-03 0. -1.
        -11    1    3    3    0    0  0.45612926405E+01  0.23209946815E+02  0.56137955364E+01  0.24310938326E+02  0.51100000000E-03 0.  1.
        -12    1    3    3    0    0  0.24111143226E+01 -0.41951282315E+01 -0.10988211453E+02  0.12006388470E+02  0.00000000000E+00 0.  1.
</event>
<event>
 7    1  0.1830715E-013  0.7246171E+02  0.7816164E-02  0.1226708E+00
        -11   -1    0    0    0    0  0.00000000000E+00  0.00000000000E+00  0.45593999997E+02  0.45594000000E+02  0.51100000000E-03 0.  1.
         11   -1    0    0    0    0 -0.00000000000E+00 -0.00000000000E+00 -0.45593999997E+02  0.45594000000E+02  0.51100000000E-03 0. -1.
    9900012    2    1    2    0    0 -0.86891398876E+01 -0.15637707885E+02 -0.55348905566E+01  0.72461706363E+02  0.70000177255E+02 0.  0.
        -12    1    1    2    0    0  0.86891398876E+01  0.15637707885E+02  0.55348905566E+01  0.18726293637E+02  0.00000000000E+00 0.  1.
         11    1    3    3    0    0 -0.20348923588E+02 -0.13151720942E+02 -0.59295689617E+01  0.24944062284E+02  0.51100000000E-03 0. -1.
        -11    1    3    3    0    0  0.10622000691E+02  0.16201645376E+02 -0.14003061629E+02  0.23904098954E+02  0.51100000000E-03 0.  1.
        -12    1    3    3    0    0  0.10377830092E+01 -0.18687632319E+02  0.14397740034E+02  0.23613545125E+02  0.00000000000E+00 0.  1.
</event>
<event>
 7    1  0.1830715E-013  0.7246152E+02  0.7816164E-02  0.1226708E+00
        -11   -1    0    0    0    0  0.00000000000E+00  0.00000000000E+00  0.45593999997E+02  0.45594000000E+02  0.51100000000E-03 0. -1.
         11   -1    0    0    0    0 -0.00000000000E+00 -0.00000000000E+00 -0.45593999997E+02  0.45594000000E+02  0.51100000000E-03 0.  1.
    9900012    2    1    2    0    0  0.18514837092E+02 -0.17622734426E+01 -0.21854553089E+01  0.72461521016E+02  0.69999935805E+02 0.  0.
        -12    1    1    2    0    0 -0.18514837092E+02  0.17622734426E+01  0.21854553089E+01  0.18726478984E+02  0.00000000000E+00 0.  1.
         11    1    3    3    0    0  0.96689900317E+01 -0.74002562287E+00  0.85508936973E+01  0.12928835579E+02  0.51100000000E-03 0. -1.
        -11    1    3    3    0    0 -0.11250988283E+02 -0.21928379269E+02 -0.16902391694E+02  0.29885270618E+02  0.51100000000E-03 0.  1.
        -12    1    3    3    0    0  0.20096835344E+02  0.20906131449E+02  0.61660426875E+01  0.29647414818E+02  0.00000000000E+00 0.  1.
</event>
<event>
 7    1  0.1830715E-013  0.7246155E+02  0.7816164E-02  0.1226708E+00
        -11   -1    0    0    0    0  0.00000000000E+00  0.00000000000E+00  0.45593999997E+02  0.45594000000E+02  0.51100000000E-03 0.  1.
         11   -1    0    0    0    0 -0.00000000000E+00 -0.00000000000E+00 -0.45593999997E+02  0.45594000000E+02  0.51100000000E-03 0. -1.
    9900012    2    1    2    0    0 -0.52100562192E+01  0.16727360776E+02 -0.66129121568E+01  0.72461551016E+02  0.69999974886E+02 0.  0.
        -12    1    1    2    0    0  0.52100562192E+01 -0.16727360776E+02  0.66129121568E+01  0.18726448984E+02  0.00000000000E+00 0.  1.
         11    1    3    3    0    0 -0.10043918528E+02  0.32134470574E+02 -0.29089897913E+02  0.44494119379E+02  0.51100000000E-03 0. -1.
        -11    1    3    3    0    0  0.33145609400E+01 -0.46131609139E+01  0.65871264269E+01  0.86981493817E+01  0.51100000000E-03 0.  1.
         12    1    3    3    0    0  0.15193013686E+01 -0.10793948884E+02  0.15889859329E+02  0.19269282256E+02  0.00000000000E+00 0. -1.
</event>
<event>
 7    1  0.1830715E-013  0.7246154E+02  0.7816164E-02  0.1226708E+00
        -11   -1    0    0    0    0  0.00000000000E+00  0.00000000000E+00  0.45593999997E+02  0.45594000000E+02  0.51100000000E-03 0.  1.
         11   -1    0    0    0    0 -0.00000000000E+00 -0.00000000000E+00 -0.45593999997E+02  0.45594000000E+02  0.51100000000E-03 0. -1.
    9900012    2    1    2    0    0 -0.76690932298E+01  0.15488360245E+02 -0.72094318038E+01  0.72461542754E+02  0.69999964123E+02 0.  0.
        -12    1    1    2    0    0  0.76690932298E+01 -0.15488360245E+02  0.72094318038E+01  0.18726457246E+02  0.00000000000E+00 0.  1.
         11    1    3    3    0    0 -0.27362673390E+02  0.79589626175E+01 -0.13852533554E+02  0.31685227901E+02  0.51100000000E-03 0. -1.
        -11    1    3    3    0    0  0.15176489677E+02 -0.28854450312E+01  0.18673512797E+02  0.24235340154E+02  0.51100000000E-03 0.  1.
        -12    1    3    3    0    0  0.45170904833E+01  0.10414842659E+02 -0.12030411047E+02  0.16540974699E+02  0.00000000000E+00 0.  1.
</event>
<event>
 7    1  0.1830715E-013  0.7246177E+02  0.7816164E-02  0.1226707E+00
        -11   -1    0    0    0    0  0.00000000000E+00  0.00000000000E+00  0.45593999997E+02  0.45594000000E+02  0.51100000000E-03 0.  1.
         11   -1    0    0    0    0 -0.00000000000E+00 -0.00000000000E+00 -0.45593999997E+02  0.45594000000E+02  0.51100000000E-03 0. -1.
    9900012    2    1    2    0    0  0.62552637466E+01  0.12070794956E+02 -0.12877862969E+02  0.72461767863E+02  0.70000257369E+02 0.  0.
        -12    1    1    2    0    0 -0.62552637466E+01 -0.12070794956E+02  0.12877862969E+02  0.18726232137E+02  0.00000000000E+00 0.  1.
         11    1    3    3    0    0 -0.99021265235E+01  0.87923497308E+01 -0.39894955411E+01  0.13830169862E+02  0.51100000000E-03 0. -1.
        -11    1    3    3    0    0  0.36321203790E+02 -0.38266089166E+01 -0.68113972120E+01  0.37151957052E+02  0.51100000000E-03 0.  1.
        -12    1    3    3    0    0 -0.20163813520E+02  0.71050541417E+01 -0.20769702162E+01  0.21479640949E+02  0.00000000000E+00 0.  1.
</event>
<event>
 7    1  0.1830715E-013  0.7246156E+02  0.7816164E-02  0.1226708E+00
        -11   -1    0    0    0    0  0.00000000000E+00  0.00000000000E+00  0.45593999997E+02  0.45594000000E+02  0.51100000000E-03 0. -1.
         11   -1    0    0    0    0 -0.00000000000E+00 -0.00000000000E+00 -0.45593999997E+02  0.45594000000E+02  0.51100000000E-03 0.  1.
    9900012    2    1    2    0    0 -0.13320092000E+02  0.16674064331E+01  0.13056589191E+02  0.72461558363E+02  0.69999984457E+02 0.  0.
        -12    1    1    2    0    0  0.13320092000E+02 -0.16674064331E+01 -0.13056589191E+02  0.18726441637E+02  0.00000000000E+00 0.  1.
         11    1    3    3    0    0  0.13477464064E+02  0.26170854647E+02  0.16235133520E+02  0.33617484011E+02  0.51100000000E-03 0. -1.
        -11    1    3    3    0    0 -0.25560776820E+02 -0.20683581370E+02 -0.66377437569E+01  0.33544351125E+02  0.51100000000E-03 0.  1.
        -12    1    3    3    0    0 -0.12367792433E+01 -0.38198668442E+01  0.34591994275E+01  0.52997232270E+01  0.00000000000E+00 0.  1.
</event>
<event>
 7    1  0.1830715E-013  0.7246183E+02  0.7816164E-02  0.1226707E+00
        -11   -1    0    0    0    0  0.00000000000E+00  0.00000000000E+00  0.45593999997E+02  0.45594000000E+02  0.51100000000E-03 0.  1.
         11   -1    0    0    0    0 -0.00000000000E+00 -0.00000000000E+00 -0.45593999997E+02  0.45594000000E+02  0.51100000000E-03 0. -1.
    9900012    2    1    2    0    0  0.14134159125E+02 -0.10348842416E+02 -0.66178823213E+01  0.72461832215E+02  0.70000341199E+02 0.  0.
        -12    1    1    2    0    0 -0.14134159125E+02  0.10348842416E+02  0.66178823213E+01  0.18726167785E+02  0.00000000000E+00 0.  1.
         11    1    3    3    0    0 -0.67570427507E+01  0.14477309509E+02  0.60932197938E+01  0.17099048075E+02  0.51100000000E-03 0. -1.
        -11    1    3    3    0    0  0.90584264567E+01 -0.35849217689E+02 -0.12982463469E+02  0.39188848628E+02  0.51100000000E-03 0.  1.
         12    1    3    3    0    0  0.11832775419E+02  0.11023065764E+02  0.27136135375E+00  0.16173935511E+02  0.00000000000E+00 0. -1.
</event>
<event>
 7    1  0.1830715E-013  0.7246160E+02  0.7816164E-02  0.1226708E+00
        -11   -1    0    0    0    0  0.00000000000E+00  0.00000000000E+00  0.45593999997E+02  0.45594000000E+02  0.51100000000E-03 0. -1.
         11   -1    0    0    0    0 -0.00000000000E+00 -0.00000000000E+00 -0.45593999997E+02  0.45594000000E+02  0.51100000000E-03 0.  1.
    9900012    2    1    2    0    0 -0.76886834314E+01  0.13684342115E+02 -0.10212781900E+02  0.72461601890E+02  0.70000041159E+02 0.  0.
        -12    1    1    2    0    0  0.76886834314E+01 -0.13684342115E+02  0.10212781900E+02  0.18726398110E+02  0.00000000000E+00 0.  1.
         11    1    3    3    0    0  0.16016294913E+01 -0.82346547207E+01 -0.29411549762E+02  0.30584538824E+02  0.51100000000E-03 0. -1.
        -11    1    3    3    0    0 -0.67199870423E+01  0.18003992588E+02 -0.27689255858E+01  0.19415687578E+02  0.51100000000E-03 0.  1.
         12    1    3    3    0    0 -0.25703258803E+01  0.39150042482E+01  0.21967693448E+02  0.22461375488E+02  0.00000000000E+00 0. -1.
</event>
<event>
 7    1  0.1830715E-013  0.7246158E+02  0.7816164E-02  0.1226708E+00
        -11   -1    0    0    0    0  0.00000000000E+00  0.00000000000E+00  0.45593999997E+02  0.45594000000E+02  0.51100000000E-03 0.  1.
         11   -1    0    0    0    0 -0.00000000000E+00 -0.00000000000E+00 -0.45593999997E+02  0.45594000000E+02  0.51100000000E-03 0. -1.
    9900012    2    1    2    0    0  0.17423851960E+02  0.13054072111E+00 -0.68608291219E+01  0.72461584587E+02  0.70000018618E+02 0.  0.
        -12    1    1    2    0    0 -0.17423851960E+02 -0.13054072111E+00  0.68608291219E+01  0.18726415413E+02  0.00000000000E+00 0.  1.
         11    1    3    3    0    0 -0.43637370975E+01  0.54116527165E+01 -0.30246678549E+02  0.31035298453E+02  0.51100000000E-03 0. -1.
        -11    1    3    3    0    0  0.23210276023E+02 -0.81817631120E+01  0.82600870464E+01  0.25959337414E+02  0.51100000000E-03 0.  1.
         12    1    3    3    0    0 -0.14226869656E+01  0.29006511166E+01  0.15125762381E+02  0.15466948720E+02  0.00000000000E+00 0. -1.
</event>
<event>
 7    1  0.1830715E-013  0.7246154E+02  0.7816164E-02  0.1226708E+00
        -11   -1    0    0    0    0  0.00000000000E+00  0.00000000000E+00  0.45593999997E+02  0.45594000000E+02  0.51100000000E-03 0. -1.
         11   -1    0    0    0    0 -0.00000000000E+00 -0.00000000000E+00 -0.45593999997E+02  0.45594000000E+02  0.51100000000E-03 0.  1.
    9900012    2    1    2    0    0 -0.33302508752E+01 -0.52443248832E+01  0.17665975736E+02  0.72461542431E+02  0.69999963703E+02 0.  0.
        -12    1    1    2    0    0  0.33302508752E+01  0.52443248832E+01 -0.17665975736E+02  0.18726457569E+02  0.00000000000E+00 0.  1.
         11    1    3    3    0    0 -0.12206602382E+02 -0.23002365091E+02 -0.41561133499E+01  0.26370119831E+02  0.51100000000E-03 0. -1.
        -11    1    3    3    0    0  0.63753473143E+01  0.27232484832E+02  0.78935807014E+01  0.29061347182E+02  0.51100000000E-03 0.  1.
         12    1    3    3    0    0  0.25010041920E+01 -0.94744446242E+01  0.13928508385E+02  0.17030075418E+02  0.00000000000E+00 0. -1.
</event>
<event>
 7    1  0.1830715E-013  0.7246154E+02  0.7816164E-02  0.1226708E+00
        -11   -1    0    0    0    0  0.00000000000E+00  0.00000000000E+00  0.45593999997E+02  0.45594000000E+02  0.51100000000E-03 0. -1.
         11   -1    0    0    0    0 -0.00000000000E+00 -0.00000000000E+00 -0.45593999997E+02  0.45594000000E+02  0.51100000000E-03 0.  1.
    9900012    2    1    2    0    0 -0.13782437012E+02 -0.24036612923E+01  0.12447776385E+02  0.72461540257E+02  0.69999960870E+02 0.  0.
        -12    1    1    2    0    0  0.13782437012E+02  0.24036612923E+01 -0.12447776385E+02  0.18726459743E+02  0.00000000000E+00 0.  1.
         11    1    3    3    0    0 -0.16065932809E+02 -0.19959052126E+02  0.12463957526E+02  0.28492598973E+02  0.51100000000E-03 0. -1.
        -11    1    3    3    0    0  0.18261619387E+02  0.13063663746E+02 -0.10022424214E+02  0.24588514402E+02  0.51100000000E-03 0.  1.
         12    1    3    3    0    0 -0.15978123590E+02  0.44917270881E+01  0.10006243073E+02  0.19380426882E+02  0.00000000000E+00 0. -1.
</event>
<event>
 7    1  0.1830715E-013  0.7246157E+02  0.7816164E-02  0.1226708E+00
        -11   -1    0    0    0    0  0.00000000000E+00  0.00000000000E+00  0.45593999997E+02  0.45594000000E+02  0.51100000000E-03 0. -1.
         11   -1    0    0    0    0 -0.00000000000E+00 -0.00000000000E+00 -0.45593999997E+02  0.45594000000E+02  0.51100000000E-03 0.  1.
    9900012    2    1    2    0    0  0.15916145001E+02 -0.84127810357E+01 -0.51556351401E+01  0.72461571345E+02  0.70000001369E+02 0.  0.
        -12    1    1    2    0    0 -0.15916145001E+02  0.84127810357E+01  0.51556351401E+01  0.18726428655E+02  0.00000000000E+00 0.  1.
         11    1    3    3    0    0 -0.23251163994E+01 -0.77226754475E+01 -0.26385925066E+02  0.27590993534E+02  0.51100000000E-03 0. -1.
        -11    1    3    3    0    0 -0.10382863183E+02 -0.15963464547E+00  0.89887342837E+01  0.13734142688E+02  0.51100000000E-03 0.  1.
         12    1    3    3    0    0  0.28624124584E+02 -0.53047094273E+00  0.12241555642E+02  0.31136435123E+02  0.00000000000E+00 0. -1.
</event>
<event>
 7    1  0.1830715E-013  0.7246158E+02  0.7816164E-02  0.1226708E+00
        -11   -1    0    0    0    0  0.00000000000E+00  0.00000000000E+00  0.45593999997E+02  0.45594000000E+02  0.51100000000E-03 0.  1.
         11   -1    0    0    0    0 -0.00000000000E+00 -0.00000000000E+00 -0.45593999997E+02  0.45594000000E+02  0.51100000000E-03 0. -1.
    9900012    2    1    2    0    0 -0.61750862289E+00  0.14785223622E+02 -0.11475834234E+02  0.72461576801E+02  0.70000008476E+02 0.  0.
        -12    1    1    2    0    0  0.61750862289E+00 -0.14785223622E+02  0.11475834234E+02  0.18726423199E+02  0.00000000000E+00 0.  1.
         11    1    3    3    0    0 -0.57187476639E+01 -0.13887913063E+02 -0.13744362465E+02  0.20358921973E+02  0.51100000000E-03 0. -1.
        -11    1    3    3    0    0 -0.12084652690E+02  0.26886521106E+02  0.12504148580E+02  0.32019955962E+02  0.51100000000E-03 0.  1.
         12    1    3    3    0    0  0.17185891731E+02  0.17866155785E+01 -0.10235620349E+02  0.20082698866E+02  0.00000000000E+00 0. -1.
</event>
<event>
 7    1  0.1830715E-013  0.7246157E+02  0.7816164E-02  0.1226708E+00
        -11   -1    0    0    0    0  0.00000000000E+00  0.00000000000E+00  0.45593999997E+02  0.45594000000E+02  0.51100000000E-03 0. -1.
         11   -1    0    0    0    0 -0.00000000000E+00 -0.00000000000E+00 -0.45593999997E+02  0.45594000000E+02  0.51100000000E-03 0.  1.
    9900012    2    1    2    0    0  0.11338202704E+02  0.43715510506E+01  0.14248293485E+02  0.72461570378E+02  0.70000000109E+02 0.  0.
        -12    1    1    2    0    0 -0.11338202704E+02 -0.43715510506E+01 -0.14248293485E+02  0.18726429622E+02  0.00000000000E+00 0.  1.
         11    1    3    3    0    0 -0.11890021699E+02  0.74958723623E+01  0.20493785112E+02  0.24850672968E+02  0.51100000000E-03 0. -1.
        -11    1    3    3    0    0  0.33489770818E+02  0.26586103145E+01  0.13037958533E+01  0.33620422992E+02  0.51100000000E-03 0.  1.
         12    1    3    3    0    0 -0.10261546415E+02 -0.57829316262E+01 -0.75492874801E+01  0.13990474419E+02  0.00000000000E+00 0. -1.
</event>
<event>
 7    1  0.1830715E-013  0.7246155E+02  0.7816164E-02  0.1226708E+00
        -11   -1    0    0    0    0  0.00000000000E+00  0.00000000000E+00  0.45593999997E+02  0.45594000000E+02  0.51100000000E-03 0. -1.
         11   -1    0    0    0    0 -0.00000000000E+00 -0.00000000000E+00 -0.45593999997E+02  0.45594000000E+02  0.51100000000E-03 0.  1.
    9900012    2    1    2    0    0 -0.13421025327E+02 -0.22694091509E+01  0.12861023439E+02  0.72461546448E+02  0.69999968936E+02 0.  0.
        -12    1    1    2    0    0  0.13421025327E+02  0.22694091509E+01 -0.12861023439E+02  0.18726453552E+02  0.00000000000E+00 0.  1.
         11    1    3    3    0    0 -0.37137197166E+02  0.93793502930E+01 -0.44621947837E+00  0.38305909953E+02  0.51100000000E-03 0. -1.
        -11    1    3    3    0    0  0.60517449722E+01 -0.36773249629E+01 -0.40341369667E+01  0.81498832764E+01  0.51100000000E-03 0.  1.
         12    1    3    3    0    0  0.17664426866E+02 -0.79714344810E+01  0.17341379884E+02  0.26005753219E+02  0.00000000000E+00 0. -1.
</event>
<event>
 7    1  0.1830715E-013  0.7246155E+02  0.7816164E-02  0.1226708E+00
        -11   -1    0    0    0    0  0.00000000000E+00  0.00000000000E+00  0.45593999997E+02  0.45594000000E+02  0.51100000000E-03 0.  1.
         11   -1    0    0    0    0 -0.00000000000E+00 -0.00000000000E+00 -0.45593999997E+02  0.45594000000E+02  0.51100000000E-03 0. -1.
    9900012    2    1    2    0    0 -0.20401807155E+01 -0.14959172082E+02 -0.11078843926E+02  0.72461549470E+02  0.69999972872E+02 0.  0.
        -12    1    1    2    0    0  0.20401807155E+01  0.14959172082E+02  0.11078843926E+02  0.18726450530E+02  0.00000000000E+00 0.  1.
         11    1    3    3    0    0  0.18071836841E+02  0.15606697199E+02  0.12281573748E+02  0.26851393600E+02  0.51100000000E-03 0.  1.
        -11    1    3    3    0    0 -0.18019119267E+02 -0.18784404788E+02 -0.20928133177E+02  0.33399540131E+02  0.51100000000E-03 0. -1.
        -12    1    3    3    0    0 -0.20928982899E+01 -0.11781464493E+02 -0.24322844969E+01  0.12210615739E+02  0.00000000000E+00 0.  1.
</event>
<event>
 7    1  0.1830715E-013  0.7246156E+02  0.7816164E-02  0.1226708E+00
        -11   -1    0    0    0    0  0.00000000000E+00  0.00000000000E+00  0.45593999997E+02  0.45594000000E+02  0.51100000000E-03 0.  1.
         11   -1    0    0    0    0 -0.00000000000E+00 -0.00000000000E+00 -0.45593999997E+02  0.45594000000E+02  0.51100000000E-03 0. -1.
    9900012    2    1    2    0    0 -0.89017782052E+01 -0.19514834993E+01  0.16359393630E+02  0.72461556050E+02  0.69999981444E+02 0.  0.
        -12    1    1    2    0    0  0.89017782052E+01  0.19514834993E+01 -0.16359393630E+02  0.18726443950E+02  0.00000000000E+00 0.  1.
         11    1    3    3    0    0 -0.55741334090E+01 -0.14674663735E+01 -0.48369895310E+01  0.75246852959E+01  0.51100000000E-03 0. -1.
        -11    1    3    3    0    0  0.28911547651E+02  0.15340035515E+01  0.79484445928E+01  0.30023466259E+02  0.51100000000E-03 0.  1.
        -12    1    3    3    0    0 -0.32239192448E+02 -0.20180206773E+01  0.13247938568E+02  0.34913404495E+02  0.00000000000E+00 0.  1.
</event>
<event>
 7    1  0.1830715E-013  0.7246157E+02  0.7816164E-02  0.1226708E+00
        -11   -1    0    0    0    0  0.00000000000E+00  0.00000000000E+00  0.45593999997E+02  0.45594000000E+02  0.51100000000E-03 0. -1.
         11   -1    0    0    0    0 -0.00000000000E+00 -0.00000000000E+00 -0.45593999997E+02  0.45594000000E+02  0.51100000000E-03 0.  1.
    9900012    2    1    2    0    0  0.34426114031E+01  0.13123474219E+02  0.12907438669E+02  0.72461571567E+02  0.70000001658E+02 0.  0.
        -12    1    1    2    0    0 -0.34426114031E+01 -0.13123474219E+02 -0.12907438669E+02  0.18726428433E+02  0.00000000000E+00 0.  1.
         11    1    3    3    0    0 -0.52936320744E+01 -0.17577303479E+01  0.12755904478E+02  0.13922113914E+02  0.51100000000E-03 0. -1.
        -11    1    3    3    0    0  0.28054430222E+02  0.23969672883E+02  0.29018110481E+01  0.37013737731E+02  0.51100000000E-03 0.  1.
        -12    1    3    3    0    0 -0.19318186744E+02 -0.90884683161E+01 -0.27502768566E+01  0.21525719923E+02  0.00000000000E+00 0.  1.
</event>
<event>
 7    1  0.1830715E-013  0.7246155E+02  0.7816164E-02  0.1226708E+00
        -11   -1    0    0    0    0  0.00000000000E+00  0.00000000000E+00  0.45593999997E+02  0.45594000000E+02  0.51100000000E-03 0. -1.
         11   -1    0    0    0    0 -0.00000000000E+00 -0.00000000000E+00 -0.45593999997E+02  0.45594000000E+02  0.51100000000E-03 0.  1.
    9900012    2    1    2    0    0  0.17726883942E+02 -0.55579217513E+01 -0.23552103915E+01  0.72461550137E+02  0.69999973741E+02 0.  0.
        -12    1    1    2    0    0 -0.17726883942E+02  0.55579217513E+01  0.23552103915E+01  0.18726449863E+02  0.00000000000E+00 0.  1.
         11    1    3    3    0    0  0.26429562944E+02 -0.18678236623E+02  0.24048145945E+00  0.32364427267E+02  0.51100000000E-03 0.  1.
        -11    1    3    3    0    0 -0.12290222058E+02  0.18095763280E+02 -0.14818521435E+02  0.26421483393E+02  0.51100000000E-03 0. -1.
         12    1    3    3    0    0  0.35875430558E+01 -0.49754484089E+01  0.12222829584E+02  0.13675639476E+02  0.00000000000E+00 0. -1.
</event>
<event>
 7    1  0.1830715E-013  0.7246151E+02  0.7816164E-02  0.1226708E+00
        -11   -1    0    0    0    0  0.00000000000E+00  0.00000000000E+00  0.45593999997E+02  0.45594000000E+02  0.51100000000E-03 0.  1.
         11   -1    0    0    0    0 -0.00000000000E+00 -0.00000000000E+00 -0.45593999997E+02  0.45594000000E+02  0.51100000000E-03 0. -1.
    9900012    2    1    2    0    0 -0.95422633461E+01  0.14578996932E+02  0.68614569607E+01  0.72461507190E+02  0.69999917795E+02 0.  0.
        -12    1    1    2    0    0  0.95422633461E+01 -0.14578996932E+02 -0.68614569607E+01  0.18726492810E+02  0.00000000000E+00 0.  1.
         11    1    3    3    0    0 -0.14767694732E+02  0.21561970942E+02 -0.11690684233E+02  0.28629975492E+02  0.51100000000E-03 0. -1.
        -11    1    3    3    0    0 -0.93956375793E+01 -0.15437180114E+02  0.19909011944E+02  0.26887790766E+02  0.51100000000E-03 0.  1.
        -12    1    3    3    0    0  0.14621068966E+02  0.84542061045E+01 -0.13568707511E+01  0.16943740933E+02  0.00000000000E+00 0.  1.
</event>
<event>
 7    1  0.1830715E-013  0.7246161E+02  0.7816164E-02  0.1226708E+00
        -11   -1    0    0    0    0  0.00000000000E+00  0.00000000000E+00  0.45593999997E+02  0.45594000000E+02  0.51100000000E-03 0.  1.
         11   -1    0    0    0    0 -0.00000000000E+00 -0.00000000000E+00 -0.45593999997E+02  0.45594000000E+02  0.51100000000E-03 0. -1.
    9900012    2    1    2    0    0  0.79078979470E+01  0.16952838335E+02 -0.86255782700E+00  0.72461612640E+02  0.70000055163E+02 0.  0.
        -12    1    1    2    0    0 -0.79078979470E+01 -0.16952838335E+02  0.86255782700E+00  0.18726387360E+02  0.00000000000E+00 0.  1.
         11    1    3    3    0    0 -0.21314282711E+01 -0.97412098043E+01 -0.25984970101E+02  0.27832585693E+02  0.51100000000E-03 0. -1.
        -11    1    3    3    0    0  0.11959238698E+02  0.53445212416E+01  0.17540593478E+02  0.21892001219E+02  0.51100000000E-03 0.  1.
        -12    1    3    3    0    0 -0.19199124802E+01  0.21349526898E+02  0.75818187963E+01  0.22737025728E+02  0.00000000000E+00 0.  1.
</event>
<event>
 7    1  0.1830715E-013  0.7246158E+02  0.7816164E-02  0.1226708E+00
        -11   -1    0    0    0    0  0.00000000000E+00  0.00000000000E+00  0.45593999997E+02  0.45594000000E+02  0.51100000000E-03 0.  1.
         11   -1    0    0    0    0 -0.00000000000E+00 -0.00000000000E+00 -0.45593999997E+02  0.45594000000E+02  0.51100000000E-03 0. -1.
    9900012    2    1    2    0    0 -0.15848244584E+01 -0.71756019921E+01 -0.17224336905E+02  0.72461582448E+02  0.70000015832E+02 0.  0.
        -12    1    1    2    0    0  0.15848244584E+01  0.71756019921E+01  0.17224336905E+02  0.18726417552E+02  0.00000000000E+00 0.  1.
         11    1    3    3    0    0 -0.90549777897E+01 -0.12491954539E+02 -0.28617908825E+02  0.32511940218E+02  0.51100000000E-03 0. -1.
        -11    1    3    3    0    0  0.19418764375E+02  0.39915726752E+00  0.17050172558E+02  0.25844847085E+02  0.51100000000E-03 0.  1.
         12    1    3    3    0    0 -0.11948611043E+02  0.49171952790E+01 -0.56566006379E+01  0.14104795144E+02  0.00000000000E+00 0. -1.
</event>
<event>
 7    1  0.1830715E-013  0.7246149E+02  0.7816164E-02  0.1226708E+00
        -11   -1    0    0    0    0  0.00000000000E+00  0.00000000000E+00  0.45593999997E+02  0.45594000000E+02  0.51100000000E-03 0. -1.
         11   -1    0    0    0    0 -0.00000000000E+00 -0.00000000000E+00 -0.45593999997E+02  0.45594000000E+02  0.51100000000E-03 0.  1.
    9900012    2    1    2    0    0 -0.64990471007E+00  0.14127911527E+02  0.12274439620E+02  0.72461491296E+02  0.69999897090E+02 0.  0.
        -12    1    1    2    0    0  0.64990471007E+00 -0.14127911527E+02 -0.12274439620E+02  0.18726508704E+02  0.00000000000E+00 0.  1.
         11    1    3    3    0    0 -0.18863452924E+01  0.36882080614E+02  0.21492298299E+02  0.42728972085E+02  0.51100000000E-03 0. -1.
        -11    1    3    3    0    0 -0.40289116696E+01 -0.15235472559E+02  0.12518407914E+01  0.15808822187E+02  0.51100000000E-03 0.  1.
        -12    1    3    3    0    0  0.52653522520E+01 -0.75186965281E+01 -0.10469699470E+02  0.13923697024E+02  0.00000000000E+00 0.  1.
</event>
<event>
 7    1  0.1830715E-013  0.7246157E+02  0.7816164E-02  0.1226708E+00
        -11   -1    0    0    0    0  0.00000000000E+00  0.00000000000E+00  0.45593999997E+02  0.45594000000E+02  0.51100000000E-03 0.  1.
         11   -1    0    0    0    0 -0.00000000000E+00 -0.00000000000E+00 -0.45593999997E+02  0.45594000000E+02  0.51100000000E-03 0. -1.
    9900012    2    1    2    0    0  0.86607803539E+01  0.16601819820E+02 -0.22245978758E+00  0.72461574125E+02  0.70000004991E+02 0.  0.
        -12    1    1    2    0    0 -0.86607803539E+01 -0.16601819820E+02  0.22245978758E+00  0.18726425875E+02  0.00000000000E+00 0.  1.
         11    1    3    3    0    0  0.30101561153E+02  0.12720137216E+02 -0.23472882128E+02  0.40235333605E+02  0.51100000000E-03 0. -1.
        -11    1    3    3    0    0 -0.73811083734E+01 -0.64644295898E+00  0.61454554197E+01  0.96262802731E+01  0.51100000000E-03 0.  1.
         12    1    3    3    0    0 -0.14059672426E+02  0.45281255627E+01  0.17104966920E+02  0.22599960247E+02  0.00000000000E+00 0. -1.
</event>
<event>
 7    1  0.1830715E-013  0.7246158E+02  0.7816164E-02  0.1226708E+00
        -11   -1    0    0    0    0  0.00000000000E+00  0.00000000000E+00  0.45593999997E+02  0.45594000000E+02  0.51100000000E-03 0. -1.
         11   -1    0    0    0    0 -0.00000000000E+00 -0.00000000000E+00 -0.45593999997E+02  0.45594000000E+02  0.51100000000E-03 0.  1.
    9900012    2    1    2    0    0  0.14759014553E+02  0.43276235627E+01  0.10682781276E+02  0.72461584111E+02  0.70000017999E+02 0.  0.
        -12    1    1    2    0    0 -0.14759014553E+02 -0.43276235627E+01 -0.10682781276E+02  0.18726415889E+02  0.00000000000E+00 0.  1.
         11    1    3    3    0    0  0.30032582476E+02 -0.15132757959E+02  0.15356636031E+02  0.36970023588E+02  0.51100000000E-03 0. -1.
        -11    1    3    3    0    0 -0.17031902372E+02  0.13512919414E+02  0.65170094237E+01  0.22697050504E+02  0.51100000000E-03 0.  1.
        -12    1    3    3    0    0  0.17583344486E+01  0.59474621070E+01 -0.11190864179E+02  0.12794510019E+02  0.00000000000E+00 0.  1.
</event>
<event>
 7    1  0.1830715E-013  0.7246159E+02  0.7816164E-02  0.1226708E+00
        -11   -1    0    0    0    0  0.00000000000E+00  0.00000000000E+00  0.45593999997E+02  0.45594000000E+02  0.51100000000E-03 0.  1.
         11   -1    0    0    0    0 -0.00000000000E+00 -0.00000000000E+00 -0.45593999997E+02  0.45594000000E+02  0.51100000000E-03 0. -1.
    9900012    2    1    2    0    0  0.44654099747E+01  0.18180113883E+02  0.47112745864E+00  0.72461591158E+02  0.70000027179E+02 0.  0.
        -12    1    1    2    0    0 -0.44654099747E+01 -0.18180113883E+02 -0.47112745864E+00  0.18726408842E+02  0.00000000000E+00 0.  1.
         11    1    3    3    0    0  0.10680136820E+02  0.36849680931E+02 -0.51885139232E+01  0.38715435994E+02  0.51100000000E-03 0. -1.
        -11    1    3    3    0    0 -0.43646894861E+01  0.35342561907E+01  0.95976197201E+01  0.11120062306E+02  0.51100000000E-03 0.  1.
         12    1    3    3    0    0 -0.18500373593E+01 -0.22203823239E+02 -0.39379783382E+01  0.22626092859E+02  0.00000000000E+00 0. -1.
</event>
<event>
 7    1  0.1830715E-013  0.7246165E+02  0.7816164E-02  0.1226708E+00
        -11   -1    0    0    0    0  0.00000000000E+00  0.00000000000E+00  0.45593999997E+02  0.45594000000E+02  0.51100000000E-03 0.  1.
         11   -1    0    0    0    0 -0.00000000000E+00 -0.00000000000E+00 -0.45593999997E+02  0.45594000000E+02  0.51100000000E-03 0. -1.
    9900012    2    1    2    0    0 -0.16765139932E+02 -0.20408788864E+01 -0.80895674546E+01  0.72461649443E+02  0.70000103106E+02 0.  0.
        -12    1    1    2    0    0  0.16765139932E+02  0.20408788864E+01  0.80895674546E+01  0.18726350557E+02  0.00000000000E+00 0.  1.
         11    1    3    3    0    0 -0.24620692591E+02 -0.14558020891E+02 -0.19273833666E+02  0.34490507975E+02  0.51100000000E-03 0. -1.
        -11    1    3    3    0    0  0.77429483805E+00  0.32966818865E+01  0.21899915595E+02  0.22160188340E+02  0.51100000000E-03 0.  1.
        -12    1    3    3    0    0  0.70812578211E+01  0.92204601184E+01 -0.10715649383E+02  0.15810953128E+02  0.00000000000E+00 0.  1.
</event>
<event>
 7    1  0.1830715E-013  0.7246158E+02  0.7816164E-02  0.1226708E+00
        -11   -1    0    0    0    0  0.00000000000E+00  0.00000000000E+00  0.45593999997E+02  0.45594000000E+02  0.51100000000E-03 0. -1.
         11   -1    0    0    0    0 -0.00000000000E+00 -0.00000000000E+00 -0.45593999997E+02  0.45594000000E+02  0.51100000000E-03 0.  1.
    9900012    2    1    2    0    0  0.67128135283E+01  0.11904428406E+02 -0.12802397681E+02  0.72461583698E+02  0.70000017461E+02 0.  0.
        -12    1    1    2    0    0 -0.67128135283E+01 -0.11904428406E+02  0.12802397681E+02  0.18726416302E+02  0.00000000000E+00 0.  1.
         11    1    3    3    0    0 -0.14515455601E+02 -0.13073370785E+02  0.15830708151E+02  0.25144040961E+02  0.51100000000E-03 0. -1.
        -11    1    3    3    0    0  0.16543664401E+02  0.17295296213E+02 -0.29825132135E+02  0.38240797717E+02  0.51100000000E-03 0.  1.
         12    1    3    3    0    0  0.46846047279E+01  0.76825029778E+01  0.11920263030E+01  0.90767450205E+01  0.00000000000E+00 0. -1.
</event>
<event>
 7    1  0.1830715E-013  0.7246157E+02  0.7816164E-02  0.1226708E+00
        -11   -1    0    0    0    0  0.00000000000E+00  0.00000000000E+00  0.45593999997E+02  0.45594000000E+02  0.51100000000E-03 0.  1.
         11   -1    0    0    0    0 -0.00000000000E+00 -0.00000000000E+00 -0.45593999997E+02  0.45594000000E+02  0.51100000000E-03 0. -1.
    9900012    2    1    2    0    0 -0.43082602291E+01  0.82850854315E+01 -0.16231926375E+02  0.72461569997E+02  0.69999999613E+02 0.  0.
        -12    1    1    2    0    0  0.43082602291E+01 -0.82850854315E+01  0.16231926375E+02  0.18726430003E+02  0.00000000000E+00 0.  1.
         11    1    3    3    0    0 -0.59940227412E+01 -0.65014174566E+01  0.17469193714E+02  0.19579822953E+02  0.51100000000E-03 0. -1.
        -11    1    3    3    0    0  0.11571186715E+02 -0.91175793472E+01 -0.10063601894E+02  0.17840927625E+02  0.51100000000E-03 0.  1.
         12    1    3    3    0    0 -0.98854242033E+01  0.23904082235E+02 -0.23637518195E+02  0.35040819420E+02  0.00000000000E+00 0. -1.
</event>
<event>
 7    1  0.1830715E-013  0.7246160E+02  0.7816164E-02  0.1226708E+00
        -11   -1    0    0    0    0  0.00000000000E+00  0.00000000000E+00  0.45593999997E+02  0.45594000000E+02  0.51100000000E-03 0.  1.
         11   -1    0    0    0    0 -0.00000000000E+00 -0.00000000000E+00 -0.45593999997E+02  0.45594000000E+02  0.51100000000E-03 0. -1.
    9900012    2    1    2    0    0  0.61539991278E+01 -0.12872501919E+02 -0.12128694583E+02  0.72461595028E+02  0.70000032220E+02 0.  0.
        -12    1    1    2    0    0 -0.61539991278E+01  0.12872501919E+02  0.12128694583E+02  0.18726404972E+02  0.00000000000E+00 0.  1.
         11    1    3    3    0    0 -0.19597180117E+01 -0.20164067471E+02 -0.28969251800E+02  0.35350355893E+02  0.51100000000E-03 0. -1.
        -11    1    3    3    0    0  0.18928403836E+02  0.18442222325E+01  0.39476179041E+01  0.19423421809E+02  0.51100000000E-03 0.  1.
        -12    1    3    3    0    0 -0.10814686696E+02  0.54473433203E+01  0.12892939313E+02  0.17687817325E+02  0.00000000000E+00 0.  1.
</event>
<event>
 7    1  0.1830715E-013  0.7246161E+02  0.7816164E-02  0.1226708E+00
        -11   -1    0    0    0    0  0.00000000000E+00  0.00000000000E+00  0.45593999997E+02  0.45594000000E+02  0.51100000000E-03 0. -1.
         11   -1    0    0    0    0 -0.00000000000E+00 -0.00000000000E+00 -0.45593999997E+02  0.45594000000E+02  0.51100000000E-03 0.  1.
    9900012    2    1    2    0    0 -0.76753909077E+01  0.16857334673E+02 -0.27561345260E+01  0.72461611256E+02  0.70000053360E+02 0.  0.
        -12    1    1    2    0    0  0.76753909077E+01 -0.16857334673E+02  0.27561345260E+01  0.18726388744E+02  0.00000000000E+00 0.  1.
         11    1    3    3    0    0 -0.85726718638E+01 -0.23429118578E+02 -0.32832496524E+01  0.25163346931E+02  0.51100000000E-03 0.  1.
        -11    1    3    3    0    0 -0.89182221615E+01  0.32849586850E+02  0.45539487488E+01  0.34341934893E+02  0.51100000000E-03 0. -1.
        -12    1    3    3    0    0  0.98155031176E+01  0.74368664009E+01 -0.40268336223E+01  0.12956329432E+02  0.00000000000E+00 0.  1.
</event>
<event>
 7    1  0.1830715E-013  0.7246146E+02  0.7816164E-02  0.1226708E+00
        -11   -1    0    0    0    0  0.00000000000E+00  0.00000000000E+00  0.45593999997E+02  0.45594000000E+02  0.51100000000E-03 0.  1.
         11   -1    0    0    0    0 -0.00000000000E+00 -0.00000000000E+00 -0.45593999997E+02  0.45594000000E+02  0.51100000000E-03 0. -1.
    9900012    2    1    2    0    0  0.11063275840E+02 -0.94764223682E+01  0.11767944129E+02  0.72461463688E+02  0.69999861126E+02 0.  0.
        -12    1    1    2    0    0 -0.11063275840E+02  0.94764223682E+01 -0.11767944129E+02  0.18726536312E+02  0.00000000000E+00 0.  1.
         11    1    3    3    0    0  0.32887959079E+02 -0.16195292470E+02 -0.32146134764E+01  0.36799987644E+02  0.51100000000E-03 0. -1.
        -11    1    3    3    0    0 -0.25003816400E+00  0.10453990462E+02  0.44530472859E+01  0.11365652909E+02  0.51100000000E-03 0.  1.
         12    1    3    3    0    0 -0.21574645075E+02 -0.37351203602E+01  0.10529510320E+02  0.24295823135E+02  0.00000000000E+00 0. -1.
</event>
<event>
 7    1  0.1830715E-013  0.7246166E+02  0.7816164E-02  0.1226708E+00
        -11   -1    0    0    0    0  0.00000000000E+00  0.00000000000E+00  0.45593999997E+02  0.45594000000E+02  0.51100000000E-03 0.  1.
         11   -1    0    0    0    0 -0.00000000000E+00 -0.00000000000E+00 -0.45593999997E+02  0.45594000000E+02  0.51100000000E-03 0. -1.
    9900012    2    1    2    0    0 -0.79763444162E+01  0.15266959283E+02 -0.73466669256E+01  0.72461664777E+02  0.70000123081E+02 0.  0.
        -12    1    1    2    0    0  0.79763444162E+01 -0.15266959283E+02  0.73466669256E+01  0.18726335223E+02  0.00000000000E+00 0.  1.
         11    1    3    3    0    0 -0.30694409532E+01 -0.94600892849E+01 -0.70366492243E+01  0.12183151875E+02  0.51100000000E-03 0. -1.
        -11    1    3    3    0    0 -0.11538325291E+02  0.41011595621E+02 -0.17245911273E+01  0.42638693000E+02  0.51100000000E-03 0.  1.
        -12    1    3    3    0    0  0.66314218276E+01 -0.16284547053E+02  0.14145734260E+01  0.17639819902E+02  0.00000000000E+00 0.  1.
</event>
<event>
 7    1  0.1830715E-013  0.7246155E+02  0.7816164E-02  0.1226708E+00
        -11   -1    0    0    0    0  0.00000000000E+00  0.00000000000E+00  0.45593999997E+02  0.45594000000E+02  0.51100000000E-03 0. -1.
         11   -1    0    0    0    0 -0.00000000000E+00 -0.00000000000E+00 -0.45593999997E+02  0.45594000000E+02  0.51100000000E-03 0.  1.
    9900012    2    1    2    0    0  0.16314326171E+02 -0.66555817707E+01  0.63423862335E+01  0.72461551585E+02  0.69999975628E+02 0.  0.
        -12    1    1    2    0    0 -0.16314326171E+02  0.66555817707E+01 -0.63423862335E+01  0.18726448415E+02  0.00000000000E+00 0.  1.
         11    1    3    3    0    0  0.25892113035E+02  0.97366414659E+01  0.26228707512E+02  0.38120188909E+02  0.51100000000E-03 0. -1.
        -11    1    3    3    0    0  0.55018993571E+01 -0.60292013542E+01 -0.11773695247E+02  0.14326271864E+02  0.51100000000E-03 0.  1.
         12    1    3    3    0    0 -0.15079686221E+02 -0.10363021882E+02 -0.81126260319E+01  0.20015090812E+02  0.00000000000E+00 0. -1.
</event>
<event>
 7    1  0.1830715E-013  0.7246163E+02  0.7816164E-02  0.1226708E+00
        -11   -1    0    0    0    0  0.00000000000E+00  0.00000000000E+00  0.45593999997E+02  0.45594000000E+02  0.51100000000E-03 0.  1.
         11   -1    0    0    0    0 -0.00000000000E+00 -0.00000000000E+00 -0.45593999997E+02  0.45594000000E+02  0.51100000000E-03 0. -1.
    9900012    2    1    2    0    0  0.14866578836E+02  0.56962924902E+01 -0.98597169173E+01  0.72461630034E+02  0.70000077822E+02 0.  0.
        -12    1    1    2    0    0 -0.14866578836E+02 -0.56962924902E+01  0.98597169173E+01  0.18726369966E+02  0.00000000000E+00 0.  1.
         11    1    3    3    0    0  0.38562648854E+02  0.13306531961E+02  0.61464011910E+01  0.41254332225E+02  0.51100000000E-03 0.  1.
        -11    1    3    3    0    0 -0.19701552353E+02 -0.76550569012E+01 -0.16960631610E+02  0.27100075389E+02  0.51100000000E-03 0. -1.
         12    1    3    3    0    0 -0.39945176653E+01  0.44817429993E-01  0.95451350114E+00  0.41072224196E+01  0.00000000000E+00 0. -1.
</event>
<event>
 7    1  0.1830715E-013  0.7246158E+02  0.7816164E-02  0.1226708E+00
        -11   -1    0    0    0    0  0.00000000000E+00  0.00000000000E+00  0.45593999997E+02  0.45594000000E+02  0.51100000000E-03 0.  1.
         11   -1    0    0    0    0 -0.00000000000E+00 -0.00000000000E+00 -0.45593999997E+02  0.45594000000E+02  0.51100000000E-03 0. -1.
    9900012    2    1    2    0    0  0.16236695613E+02 -0.64022092213E+01  0.67867587818E+01  0.72461583843E+02  0.70000017649E+02 0.  0.
        -12    1    1    2    0    0 -0.16236695613E+02  0.64022092213E+01 -0.67867587818E+01  0.18726416157E+02  0.00000000000E+00 0.  1.
         11    1    3    3    0    0  0.10366128308E+02  0.24343356290E+01  0.71979015775E+01  0.12852719301E+02  0.51100000000E-03 0. -1.
        -11    1    3    3    0    0 -0.11018048407E+02 -0.29953799959E+02 -0.46018808340E+01  0.32246004872E+02  0.51100000000E-03 0.  1.
        -12    1    3    3    0    0  0.16888615712E+02  0.21117255109E+02  0.41907380383E+01  0.27362859670E+02  0.00000000000E+00 0.  1.
</event>
<event>
 7    1  0.1830715E-013  0.7246161E+02  0.7816164E-02  0.1226708E+00
        -11   -1    0    0    0    0  0.00000000000E+00  0.00000000000E+00  0.45593999997E+02  0.45594000000E+02  0.51100000000E-03 0.  1.
         11   -1    0    0    0    0 -0.00000000000E+00 -0.00000000000E+00 -0.45593999997E+02  0.45594000000E+02  0.51100000000E-03 0. -1.
    9900012    2    1    2    0    0  0.12356244002E+02 -0.87712725254E+01 -0.11002982665E+02  0.72461611798E+02  0.70000054067E+02 0.  0.
        -12    1    1    2    0    0 -0.12356244002E+02  0.87712725254E+01  0.11002982665E+02  0.18726388202E+02  0.00000000000E+00 0.  1.
         11    1    3    3    0    0  0.56283741840E+01  0.27797320823E+02 -0.55239544456E+01  0.28894354360E+02  0.51100000000E-03 0. -1.
        -11    1    3    3    0    0  0.90840910200E+01 -0.10116417625E+02  0.57135288861E+01  0.14748119467E+02  0.51100000000E-03 0.  1.
         12    1    3    3    0    0 -0.23562212021E+01 -0.26452175723E+02 -0.11192557105E+02  0.28819137971E+02  0.00000000000E+00 0. -1.
</event>
<event>
 7    1  0.1830715E-013  0.7246158E+02  0.7816164E-02  0.1226708E+00
        -11   -1    0    0    0    0  0.00000000000E+00  0.00000000000E+00  0.45593999997E+02  0.45594000000E+02  0.51100000000E-03 0. -1.
         11   -1    0    0    0    0 -0.00000000000E+00 -0.00000000000E+00 -0.45593999997E+02  0.45594000000E+02  0.51100000000E-03 0.  1.
    9900012    2    1    2    0    0 -0.14749725563E+02 -0.11016359622E+02  0.34299228382E+01  0.72461576044E+02  0.70000007490E+02 0.  0.
        -12    1    1    2    0    0  0.14749725563E+02  0.11016359622E+02 -0.34299228382E+01  0.18726423956E+02  0.00000000000E+00 0.  1.
         11    1    3    3    0    0  0.13023351278E+02  0.88034805046E+01 -0.19330543866E+02  0.24915434452E+02  0.51100000000E-03 0.  1.
        -11    1    3    3    0    0 -0.23860089171E+02 -0.17152228477E+02  0.58200644199E+01  0.29956233861E+02  0.51100000000E-03 0. -1.
         12    1    3    3    0    0 -0.39129876699E+01 -0.26676116494E+01  0.16940402285E+02  0.17589907731E+02  0.00000000000E+00 0. -1.
</event>
<event>
 7    1  0.1830715E-013  0.7246157E+02  0.7816164E-02  0.1226708E+00
        -11   -1    0    0    0    0  0.00000000000E+00  0.00000000000E+00  0.45593999997E+02  0.45594000000E+02  0.51100000000E-03 0.  1.
         11   -1    0    0    0    0 -0.00000000000E+00 -0.00000000000E+00 -0.45593999997E+02  0.45594000000E+02  0.51100000000E-03 0. -1.
    9900012    2    1    2    0    0  0.24963849139E+01  0.12203986047E+00 -0.18558892365E+02  0.72461566352E+02  0.69999994864E+02 0.  0.
        -12    1    1    2    0    0 -0.24963849139E+01 -0.12203986047E+00  0.18558892365E+02  0.18726433648E+02  0.00000000000E+00 0.  1.
         11    1    3    3    0    0  0.14241893121E+02 -0.18108662790E+02 -0.25601310315E+02  0.34440997050E+02  0.51100000000E-03 0. -1.
        -11    1    3    3    0    0 -0.21810841416E+02  0.10980301085E+02  0.15905630716E+01  0.24470588598E+02  0.51100000000E-03 0.  1.
         12    1    3    3    0    0  0.10065333209E+02  0.72504015653E+01  0.54518548784E+01  0.13549980704E+02  0.00000000000E+00 0. -1.
</event>
<event>
 7    1  0.1830715E-013  0.7246150E+02  0.7816164E-02  0.1226708E+00
        -11   -1    0    0    0    0  0.00000000000E+00  0.00000000000E+00  0.45593999997E+02  0.45594000000E+02  0.51100000000E-03 0. -1.
         11   -1    0    0    0    0 -0.00000000000E+00 -0.00000000000E+00 -0.45593999997E+02  0.45594000000E+02  0.51100000000E-03 0.  1.
    9900012    2    1    2    0    0  0.41827812659E+01  0.55954402030E+01  0.17374614658E+02  0.72461498867E+02  0.69999906952E+02 0.  0.
        -12    1    1    2    0    0 -0.41827812659E+01 -0.55954402030E+01 -0.17374614658E+02  0.18726501133E+02  0.00000000000E+00 0.  1.
         11    1    3    3    0    0 -0.15191039722E+02 -0.12445985624E-01 -0.11798926838E+02  0.19234929621E+02  0.51100000000E-03 0.  1.
        -11    1    3    3    0    0  0.19200825677E+02 -0.12503333994E+02  0.57612325721E+01  0.23626190312E+02  0.51100000000E-03 0. -1.
        -12    1    3    3    0    0  0.17299531051E+00  0.18111220182E+02  0.23412308924E+02  0.29600378934E+02  0.00000000000E+00 0.  1.
</event>
<event>
 7    1  0.1830715E-013  0.7246156E+02  0.7816164E-02  0.1226708E+00
        -11   -1    0    0    0    0  0.00000000000E+00  0.00000000000E+00  0.45593999997E+02  0.45594000000E+02  0.51100000000E-03 0.  1.
         11   -1    0    0    0    0 -0.00000000000E+00 -0.00000000000E+00 -0.45593999997E+02  0.45594000000E+02  0.51100000000E-03 0. -1.
    9900012    2    1    2    0    0  0.13623413929E+02  0.12625728597E+02  0.23818076935E+01  0.72461563138E+02  0.69999990677E+02 0.  0.
        -12    1    1    2    0    0 -0.13623413929E+02 -0.12625728597E+02 -0.23818076935E+01  0.18726436862E+02  0.00000000000E+00 0.  1.
         11    1    3    3    0    0  0.18475757099E+02  0.17475885803E+02  0.26327421026E+02  0.36604552765E+02  0.51100000000E-03 0. -1.
        -11    1    3    3    0    0 -0.15431183388E+02 -0.26566545419E+01 -0.11834920880E+02  0.19627648525E+02  0.51100000000E-03 0.  1.
        -12    1    3    3    0    0  0.10578840218E+02 -0.21935026649E+01 -0.12110692453E+02  0.16229361848E+02  0.00000000000E+00 0.  1.
</event>
<event>
 7    1  0.1830715E-013  0.7246162E+02  0.7816164E-02  0.1226708E+00
        -11   -1    0    0    0    0  0.00000000000E+00  0.00000000000E+00  0.45593999997E+02  0.45594000000E+02  0.51100000000E-03 0.  1.
         11   -1    0    0    0    0 -0.00000000000E+00 -0.00000000000E+00 -0.45593999997E+02  0.45594000000E+02  0.51100000000E-03 0. -1.
    9900012    2    1    2    0    0 -0.65249722749E+01  0.45117166510E+01 -0.16963090761E+02  0.72461620251E+02  0.70000065078E+02 0.  0.
        -12    1    1    2    0    0  0.65249722749E+01 -0.45117166510E+01  0.16963090761E+02  0.18726379749E+02  0.00000000000E+00 0.  1.
         11    1    3    3    0    0 -0.75260456765E+00  0.70682945349E+01 -0.23294958918E+02  0.24355334375E+02  0.51100000000E-03 0. -1.
        -11    1    3    3    0    0 -0.25457979927E+02 -0.89516600216E+01  0.32945322695E+01  0.27186299899E+02  0.51100000000E-03 0.  1.
         12    1    3    3    0    0  0.19685612219E+02  0.63950821377E+01  0.30373358873E+01  0.20919985977E+02  0.00000000000E+00 0. -1.
</event>
<event>
 7    1  0.1830715E-013  0.7246177E+02  0.7816164E-02  0.1226707E+00
        -11   -1    0    0    0    0  0.00000000000E+00  0.00000000000E+00  0.45593999997E+02  0.45594000000E+02  0.51100000000E-03 0.  1.
         11   -1    0    0    0    0 -0.00000000000E+00 -0.00000000000E+00 -0.45593999997E+02  0.45594000000E+02  0.51100000000E-03 0. -1.
    9900012    2    1    2    0    0 -0.20478763889E+00 -0.36219889138E+01 -0.18371466540E+02  0.72461774419E+02  0.70000265910E+02 0.  0.
        -12    1    1    2    0    0  0.20478763889E+00  0.36219889138E+01  0.18371466540E+02  0.18726225581E+02  0.00000000000E+00 0.  1.
         11    1    3    3    0    0 -0.29252547587E+02 -0.18262765069E+01 -0.15732780172E+02  0.33265104816E+02  0.51100000000E-03 0. -1.
        -11    1    3    3    0    0  0.22031903639E+02  0.90748261219E+01 -0.80809690573E+01  0.25160669870E+02  0.51100000000E-03 0.  1.
         12    1    3    3    0    0  0.70158563086E+01 -0.10870538529E+02  0.54422826892E+01  0.14035999734E+02  0.00000000000E+00 0. -1.
</event>
<event>
 7    1  0.1830715E-013  0.7246156E+02  0.7816164E-02  0.1226708E+00
        -11   -1    0    0    0    0  0.00000000000E+00  0.00000000000E+00  0.45593999997E+02  0.45594000000E+02  0.51100000000E-03 0.  1.
         11   -1    0    0    0    0 -0.00000000000E+00 -0.00000000000E+00 -0.45593999997E+02  0.45594000000E+02  0.51100000000E-03 0. -1.
    9900012    2    1    2    0    0  0.16001282805E+02  0.49734279010E+00  0.97155101096E+01  0.72461560457E+02  0.69999987185E+02 0.  0.
        -12    1    1    2    0    0 -0.16001282805E+02 -0.49734279010E+00 -0.97155101096E+01  0.18726439543E+02  0.00000000000E+00 0.  1.
         11    1    3    3    0    0  0.34270197449E+02  0.88748902627E+01 -0.11722133083E+02  0.37290997769E+02  0.51100000000E-03 0. -1.
        -11    1    3    3    0    0 -0.19281395696E+02 -0.31123339700E+01  0.87595690732E+01  0.21405347307E+02  0.51100000000E-03 0.  1.
        -12    1    3    3    0    0  0.10124810525E+01 -0.52652135026E+01  0.12678074120E+02  0.13765215381E+02  0.00000000000E+00 0.  1.
</event>
<event>
 7    1  0.1830715E-013  0.7246156E+02  0.7816164E-02  0.1226708E+00
        -11   -1    0    0    0    0  0.00000000000E+00  0.00000000000E+00  0.45593999997E+02  0.45594000000E+02  0.51100000000E-03 0.  1.
         11   -1    0    0    0    0 -0.00000000000E+00 -0.00000000000E+00 -0.45593999997E+02  0.45594000000E+02  0.51100000000E-03 0. -1.
    9900012    2    1    2    0    0 -0.85016963819E+01 -0.10869657912E+02 -0.12659042558E+02  0.72461557119E+02  0.69999982837E+02 0.  0.
        -12    1    1    2    0    0  0.85016963819E+01  0.10869657912E+02  0.12659042558E+02  0.18726442881E+02  0.00000000000E+00 0.  1.
         11    1    3    3    0    0  0.15315380245E+02  0.16792387897E+01 -0.32410100341E+02  0.35885865175E+02  0.51100000000E-03 0. -1.
        -11    1    3    3    0    0 -0.75007655253E+01  0.20880965580E+01  0.12370051537E+01  0.78836420969E+01  0.51100000000E-03 0.  1.
         12    1    3    3    0    0 -0.16316311102E+02 -0.14636993260E+02  0.18514052630E+02  0.28692049847E+02  0.00000000000E+00 0. -1.
</event>
<event>
 7    1  0.1830715E-013  0.7246156E+02  0.7816164E-02  0.1226708E+00
        -11   -1    0    0    0    0  0.00000000000E+00  0.00000000000E+00  0.45593999997E+02  0.45594000000E+02  0.51100000000E-03 0. -1.
         11   -1    0    0    0    0 -0.00000000000E+00 -0.00000000000E+00 -0.45593999997E+02  0.45594000000E+02  0.51100000000E-03 0.  1.
    9900012    2    1    2    0    0 -0.11772237613E+02 -0.10874763882E+02 -0.96867674408E+01  0.72461560633E+02  0.69999987415E+02 0.  0.
        -12    1    1    2    0    0  0.11772237613E+02  0.10874763882E+02  0.96867674408E+01  0.18726439367E+02  0.00000000000E+00 0.  1.
         11    1    3    3    0    0  0.95281487685E+00  0.21378215308E+02 -0.73946007135E+01  0.22641026168E+02  0.51100000000E-03 0. -1.
        -11    1    3    3    0    0 -0.16273662162E+02 -0.26010319278E+02 -0.15808698020E+02  0.34514978234E+02  0.51100000000E-03 0.  1.
        -12    1    3    3    0    0  0.35486096722E+01 -0.62426599118E+01  0.13516531293E+02  0.15305556232E+02  0.00000000000E+00 0.  1.
</event>
<event>
 7    1  0.1830715E-013  0.7246157E+02  0.7816164E-02  0.1226708E+00
        -11   -1    0    0    0    0  0.00000000000E+00  0.00000000000E+00  0.45593999997E+02  0.45594000000E+02  0.51100000000E-03 0. -1.
         11   -1    0    0    0    0 -0.00000000000E+00 -0.00000000000E+00 -0.45593999997E+02  0.45594000000E+02  0.51100000000E-03 0.  1.
    9900012    2    1    2    0    0  0.91521347859E+01  0.92038712143E+01  0.13498381845E+02  0.72461571379E+02  0.70000001413E+02 0.  0.
        -12    1    1    2    0    0 -0.91521347859E+01 -0.92038712143E+01 -0.13498381845E+02  0.18726428621E+02  0.00000000000E+00 0.  1.
         11    1    3    3    0    0 -0.21660302320E+02  0.14923325732E+02  0.20310673144E+02  0.33232480968E+02  0.51100000000E-03 0. -1.
        -11    1    3    3    0    0  0.23087286846E+02 -0.21284034107E+01 -0.14836617511E+02  0.27525953833E+02  0.51100000000E-03 0.  1.
         12    1    3    3    0    0  0.77251502594E+01 -0.35910511069E+01  0.80243262126E+01  0.11703136577E+02  0.00000000000E+00 0. -1.
</event>
<event>
 7    1  0.1830715E-013  0.7246156E+02  0.7816164E-02  0.1226708E+00
        -11   -1    0    0    0    0  0.00000000000E+00  0.00000000000E+00  0.45593999997E+02  0.45594000000E+02  0.51100000000E-03 0.  1.
         11   -1    0    0    0    0 -0.00000000000E+00 -0.00000000000E+00 -0.45593999997E+02  0.45594000000E+02  0.51100000000E-03 0. -1.
    9900012    2    1    2    0    0  0.14510516806E+02  0.59121947263E+01 -0.10255266413E+02  0.72461557902E+02  0.69999983856E+02 0.  0.
        -12    1    1    2    0    0 -0.14510516806E+02 -0.59121947263E+01  0.10255266413E+02  0.18726442098E+02  0.00000000000E+00 0.  1.
         11    1    3    3    0    0  0.12256771365E+02 -0.34781751062E+01 -0.29560231390E+02  0.32189026491E+02  0.51100000000E-03 0. -1.
        -11    1    3    3    0    0  0.30782180093E+01  0.11485289262E+02  0.28460338584E+02  0.30844418751E+02  0.51100000000E-03 0.  1.
        -12    1    3    3    0    0 -0.82447256823E+00 -0.20949194292E+01 -0.91553736072E+01  0.94281126594E+01  0.00000000000E+00 0.  1.
</event>
<event>
 7    1  0.1830715E-013  0.7246155E+02  0.7816164E-02  0.1226708E+00
        -11   -1    0    0    0    0  0.00000000000E+00  0.00000000000E+00  0.45593999997E+02  0.45594000000E+02  0.51100000000E-03 0. -1.
         11   -1    0    0    0    0 -0.00000000000E+00 -0.00000000000E+00 -0.45593999997E+02  0.45594000000E+02  0.51100000000E-03 0.  1.
    9900012    2    1    2    0    0  0.47988135172E+01  0.86561226292E+01  0.15897264599E+02  0.72461545667E+02  0.69999967919E+02 0.  0.
        -12    1    1    2    0    0 -0.47988135172E+01 -0.86561226292E+01 -0.15897264599E+02  0.18726454333E+02  0.00000000000E+00 0.  1.
         11    1    3    3    0    0  0.11862593790E+02  0.21680283195E+02 -0.41782741882E+01  0.25064193310E+02  0.51100000000E-03 0. -1.
        -11    1    3    3    0    0  0.51774889420E+01 -0.15393501025E+02 -0.69260016672E+01  0.17656040465E+02  0.51100000000E-03 0.  1.
         12    1    3    3    0    0 -0.12241269215E+02  0.23693404593E+01  0.27001540454E+02  0.29741311893E+02  0.00000000000E+00 0. -1.
</event>
<event>
 7    1  0.1830715E-013  0.7246154E+02  0.7816164E-02  0.1226708E+00
        -11   -1    0    0    0    0  0.00000000000E+00  0.00000000000E+00  0.45593999997E+02  0.45594000000E+02  0.51100000000E-03 0. -1.
         11   -1    0    0    0    0 -0.00000000000E+00 -0.00000000000E+00 -0.45593999997E+02  0.45594000000E+02  0.51100000000E-03 0.  1.
    9900012    2    1    2    0    0 -0.99277767052E+01 -0.15526957616E+02 -0.33216094415E+01  0.72461541381E+02  0.69999962336E+02 0.  0.
        -12    1    1    2    0    0  0.99277767052E+01  0.15526957616E+02  0.33216094415E+01  0.18726458619E+02  0.00000000000E+00 0.  1.
         11    1    3    3    0    0  0.72640521079E+01  0.36968083579E+01  0.17513162138E+02  0.19316927639E+02  0.51100000000E-03 0. -1.
        -11    1    3    3    0    0 -0.11099651664E+02 -0.47094365389E+01 -0.31767943482E+02  0.33979159686E+02  0.51100000000E-03 0.  1.
        -12    1    3    3    0    0 -0.60921771491E+01 -0.14514329435E+02  0.10933171903E+02  0.19165454057E+02  0.00000000000E+00 0.  1.
</event>
<event>
 7    1  0.1830715E-013  0.7246157E+02  0.7816164E-02  0.1226708E+00
        -11   -1    0    0    0    0  0.00000000000E+00  0.00000000000E+00  0.45593999997E+02  0.45594000000E+02  0.51100000000E-03 0.  1.
         11   -1    0    0    0    0 -0.00000000000E+00 -0.00000000000E+00 -0.45593999997E+02  0.45594000000E+02  0.51100000000E-03 0. -1.
    9900012    2    1    2    0    0 -0.18008433355E+01  0.51851638098E+01 -0.17903917615E+02  0.72461568775E+02  0.69999998021E+02 0.  0.
        -12    1    1    2    0    0  0.18008433355E+01 -0.51851638098E+01  0.17903917615E+02  0.18726431225E+02  0.00000000000E+00 0.  1.
         11    1    3    3    0    0  0.29871148715E+01  0.98751069503E+01  0.28825644689E+01  0.10712131941E+02  0.51100000000E-03 0.  1.
        -11    1    3    3    0    0 -0.26123116208E+02  0.36003352761E+01 -0.27295274425E+02  0.37952755114E+02  0.51100000000E-03 0. -1.
        -12    1    3    3    0    0  0.21335158001E+02 -0.82902784166E+01  0.65087923411E+01  0.23796681721E+02  0.00000000000E+00 0.  1.
</event>
<event>
 7    1  0.1830715E-013  0.7246151E+02  0.7816164E-02  0.1226708E+00
        -11   -1    0    0    0    0  0.00000000000E+00  0.00000000000E+00  0.45593999997E+02  0.45594000000E+02  0.51100000000E-03 0.  1.
         11   -1    0    0    0    0 -0.00000000000E+00 -0.00000000000E+00 -0.45593999997E+02  0.45594000000E+02  0.51100000000E-03 0. -1.
    9900012    2    1    2    0    0  0.16259190045E+01  0.18634234802E+02  0.89624535717E+00  0.72461506068E+02  0.69999916333E+02 0.  0.
        -12    1    1    2    0    0 -0.16259190045E+01 -0.18634234802E+02 -0.89624535717E+00  0.18726493932E+02  0.00000000000E+00 0.  1.
         11    1    3    3    0    0  0.17928793750E+02 -0.34218679559E+01  0.72333589959E+01  0.19633448710E+02  0.51100000000E-03 0. -1.
        -11    1    3    3    0    0 -0.22258431338E+02  0.18480437057E+02  0.13415562383E+02  0.31889522319E+02  0.51100000000E-03 0.  1.
        -12    1    3    3    0    0  0.59555565923E+01  0.35756657002E+01 -0.19752676022E+02  0.20938535038E+02  0.00000000000E+00 0.  1.
</event>
<event>
 7    1  0.2531981E-013  0.7246159E+02  0.7816164E-02  0.1226708E+00
        -11   -1    0    0    0    0  0.00000000000E+00  0.00000000000E+00  0.45593999997E+02  0.45594000000E+02  0.51100000000E-03 0. -1.
         11   -1    0    0    0    0 -0.00000000000E+00 -0.00000000000E+00 -0.45593999997E+02  0.45594000000E+02  0.51100000000E-03 0.  1.
    9900012    2    1    2    0    0  0.46406975974E+01 -0.84246491070E+01  0.16067592845E+02  0.72461592800E+02  0.70000029318E+02 0.  0.
        -12    1    1    2    0    0 -0.46406975974E+01  0.84246491070E+01 -0.16067592845E+02  0.18726407200E+02  0.00000000000E+00 0.  1.
         11    1    3    3    0    0 -0.74322121969E+00 -0.27159343185E+02  0.83538465333E+01  0.28424796432E+02  0.51100000000E-03 0. -1.
        -11    1    3    3    0    0  0.18346049454E+02  0.13339463811E+02  0.15977479110E+02  0.27745245797E+02  0.51100000000E-03 0.  1.
        -12    1    3    3    0    0 -0.12962130637E+02  0.53952302667E+01 -0.82637327985E+01  0.16291550572E+02  0.00000000000E+00 0.  1.
</event>
<event>
 7    1  0.1830715E-013  0.7246159E+02  0.7816164E-02  0.1226708E+00
        -11   -1    0    0    0    0  0.00000000000E+00  0.00000000000E+00  0.45593999997E+02  0.45594000000E+02  0.51100000000E-03 0.  1.
         11   -1    0    0    0    0 -0.00000000000E+00 -0.00000000000E+00 -0.45593999997E+02  0.45594000000E+02  0.51100000000E-03 0. -1.
    9900012    2    1    2    0    0 -0.50324763714E+01 -0.10959775417E+02 -0.14326057883E+02  0.72461590037E+02  0.70000025719E+02 0.  0.
        -12    1    1    2    0    0  0.50324763714E+01  0.10959775417E+02  0.14326057883E+02  0.18726409963E+02  0.00000000000E+00 0.  1.
         11    1    3    3    0    0 -0.14248871668E+02 -0.32332988469E+02 -0.21968994402E+02  0.41606360120E+02  0.51100000000E-03 0. -1.
        -11    1    3    3    0    0  0.53680698743E+01 -0.15787042107E+01  0.48707410477E+01  0.74183960379E+01  0.51100000000E-03 0.  1.
         12    1    3    3    0    0  0.38483254220E+01  0.22951917262E+02  0.27721954716E+01  0.23436833880E+02  0.00000000000E+00 0. -1.
</event>
<event>
 7    1  0.1830715E-013  0.7246154E+02  0.7816164E-02  0.1226708E+00
        -11   -1    0    0    0    0  0.00000000000E+00  0.00000000000E+00  0.45593999997E+02  0.45594000000E+02  0.51100000000E-03 0.  1.
         11   -1    0    0    0    0 -0.00000000000E+00 -0.00000000000E+00 -0.45593999997E+02  0.45594000000E+02  0.51100000000E-03 0. -1.
    9900012    2    1    2    0    0 -0.10556490010E+02  0.14737606286E+01 -0.15397036442E+02  0.72461543236E+02  0.69999964752E+02 0.  0.
        -12    1    1    2    0    0  0.10556490010E+02 -0.14737606286E+01  0.15397036442E+02  0.18726456764E+02  0.00000000000E+00 0.  1.
         11    1    3    3    0    0  0.27528913118E+01  0.20513447911E+02 -0.32356146778E+01  0.20948726891E+02  0.51100000000E-03 0. -1.
        -11    1    3    3    0    0  0.23670085656E+01 -0.25119722364E+02  0.68385021579E+01  0.26141313915E+02  0.51100000000E-03 0.  1.
         12    1    3    3    0    0 -0.15676389887E+02  0.60800350813E+01 -0.18999923922E+02  0.25371502430E+02  0.00000000000E+00 0. -1.
</event>
<event>
 7    1  0.1830715E-013  0.7246155E+02  0.7816164E-02  0.1226708E+00
        -11   -1    0    0    0    0  0.00000000000E+00  0.00000000000E+00  0.45593999997E+02  0.45594000000E+02  0.51100000000E-03 0. -1.
         11   -1    0    0    0    0 -0.00000000000E+00 -0.00000000000E+00 -0.45593999997E+02  0.45594000000E+02  0.51100000000E-03 0.  1.
    9900012    2    1    2    0    0 -0.18220816228E+02 -0.10721818067E+01  0.41871489344E+01  0.72461549882E+02  0.69999973409E+02 0.  0.
        -12    1    1    2    0    0  0.18220816228E+02  0.10721818067E+01 -0.41871489344E+01  0.18726450118E+02  0.00000000000E+00 0.  1.
         11    1    3    3    0    0 -0.26281278239E+02  0.14369170884E+02 -0.58149704215E+01  0.30512170343E+02  0.51100000000E-03 0. -1.
        -11    1    3    3    0    0  0.79371589086E+00 -0.98846472660E+01 -0.13487910504E+02  0.16740966714E+02  0.51100000000E-03 0.  1.
         12    1    3    3    0    0  0.72667461201E+01 -0.55567054242E+01  0.23490029860E+02  0.25208412825E+02  0.00000000000E+00 0. -1.
</event>
<event>
 7    1  0.1830715E-013  0.7246155E+02  0.7816164E-02  0.1226708E+00
        -11   -1    0    0    0    0  0.00000000000E+00  0.00000000000E+00  0.45593999997E+02  0.45594000000E+02  0.51100000000E-03 0.  1.
         11   -1    0    0    0    0 -0.00000000000E+00 -0.00000000000E+00 -0.45593999997E+02  0.45594000000E+02  0.51100000000E-03 0. -1.
    9900012    2    1    2    0    0  0.91778475336E+00 -0.31123919523E+01 -0.18443172175E+02  0.72461550459E+02  0.69999974161E+02 0.  0.
        -12    1    1    2    0    0 -0.91778475336E+00  0.31123919523E+01  0.18443172175E+02  0.18726449541E+02  0.00000000000E+00 0.  1.
         11    1    3    3    0    0  0.19489156833E+01 -0.50428800219E+01 -0.16046907020E+02  0.16933166757E+02  0.51100000000E-03 0. -1.
        -11    1    3    3    0    0 -0.12691096109E+02  0.24919560017E+02  0.56391153116E+01  0.28528021552E+02  0.51100000000E-03 0.  1.
        -12    1    3    3    0    0  0.11659965179E+02 -0.22989071948E+02 -0.80353804668E+01  0.27000362150E+02  0.00000000000E+00 0.  1.
</event>
<event>
 7    1  0.1830715E-013  0.7246160E+02  0.7816164E-02  0.1226708E+00
        -11   -1    0    0    0    0  0.00000000000E+00  0.00000000000E+00  0.45593999997E+02  0.45594000000E+02  0.51100000000E-03 0.  1.
         11   -1    0    0    0    0 -0.00000000000E+00 -0.00000000000E+00 -0.45593999997E+02  0.45594000000E+02  0.51100000000E-03 0. -1.
    9900012    2    1    2    0    0  0.99967082752E+01 -0.10897395907E+02 -0.11488725339E+02  0.72461595545E+02  0.70000032893E+02 0.  0.
        -12    1    1    2    0    0 -0.99967082752E+01  0.10897395907E+02  0.11488725339E+02  0.18726404455E+02  0.00000000000E+00 0.  1.
         11    1    3    3    0    0  0.19219734236E+01 -0.61110288350E+00 -0.67760842870E+01  0.70698477424E+01  0.51100000000E-03 0. -1.
        -11    1    3    3    0    0  0.24075800907E+02 -0.19991190785E+02  0.17890673285E+02  0.36046748663E+02  0.51100000000E-03 0.  1.
        -12    1    3    3    0    0 -0.16001066055E+02  0.97048977613E+01 -0.22603314337E+02  0.29344999139E+02  0.00000000000E+00 0.  1.
</event>
<event>
 7    1  0.1830715E-013  0.7246152E+02  0.7816164E-02  0.1226708E+00
        -11   -1    0    0    0    0  0.00000000000E+00  0.00000000000E+00  0.45593999997E+02  0.45594000000E+02  0.51100000000E-03 0.  1.
         11   -1    0    0    0    0 -0.00000000000E+00 -0.00000000000E+00 -0.45593999997E+02  0.45594000000E+02  0.51100000000E-03 0. -1.
    9900012    2    1    2    0    0 -0.15766171953E+02  0.94835795523E+01 -0.34886501193E+01  0.72461517713E+02  0.69999931504E+02 0.  0.
        -12    1    1    2    0    0  0.15766171953E+02 -0.94835795523E+01  0.34886501193E+01  0.18726482287E+02  0.00000000000E+00 0.  1.
         11    1    3    3    0    0  0.19281077282E+02 -0.24434150656E+01  0.71893590117E+00  0.19448575460E+02  0.51100000000E-03 0.  1.
        -11    1    3    3    0    0 -0.39674954990E+02  0.16264750175E+02 -0.10427719484E+02  0.44129145535E+02  0.51100000000E-03 0. -1.
         12    1    3    3    0    0  0.46277057557E+01 -0.43377555573E+01  0.62201334634E+01  0.88837967187E+01  0.00000000000E+00 0. -1.
</event>
<event>
 7    1  0.1830715E-013  0.7246161E+02  0.7816164E-02  0.1226708E+00
        -11   -1    0    0    0    0  0.00000000000E+00  0.00000000000E+00  0.45593999997E+02  0.45594000000E+02  0.51100000000E-03 0.  1.
         11   -1    0    0    0    0 -0.00000000000E+00 -0.00000000000E+00 -0.45593999997E+02  0.45594000000E+02  0.51100000000E-03 0. -1.
    9900012    2    1    2    0    0  0.97454299896E+01 -0.50896772699E+01 -0.15159134221E+02  0.72461612983E+02  0.70000055609E+02 0.  0.
        -12    1    1    2    0    0 -0.97454299896E+01  0.50896772699E+01  0.15159134221E+02  0.18726387017E+02  0.00000000000E+00 0.  1.
         11    1    3    3    0    0 -0.10228976995E+02  0.71797204758E+01 -0.19271432507E+02  0.22968858648E+02  0.51100000000E-03 0. -1.
        -11    1    3    3    0    0  0.45365191363E+01 -0.26846354387E+01  0.22815082695E+02  0.23416132728E+02  0.51100000000E-03 0.  1.
         12    1    3    3    0    0  0.15437887849E+02 -0.95847623071E+01 -0.18702784409E+02  0.26076621606E+02  0.00000000000E+00 0. -1.
</event>
<event>
 7    1  0.1830715E-013  0.7246161E+02  0.7816164E-02  0.1226708E+00
        -11   -1    0    0    0    0  0.00000000000E+00  0.00000000000E+00  0.45593999997E+02  0.45594000000E+02  0.51100000000E-03 0. -1.
         11   -1    0    0    0    0 -0.00000000000E+00 -0.00000000000E+00 -0.45593999997E+02  0.45594000000E+02  0.51100000000E-03 0.  1.
    9900012    2    1    2    0    0 -0.38191350762E+01 -0.16825593751E+02  0.72795224446E+01  0.72461605664E+02  0.70000046076E+02 0.  0.
        -12    1    1    2    0    0  0.38191350762E+01  0.16825593751E+02 -0.72795224446E+01  0.18726394336E+02  0.00000000000E+00 0.  1.
         11    1    3    3    0    0 -0.12792074530E+02 -0.50797902055E+01 -0.76262485344E+00  0.13784884339E+02  0.51100000000E-03 0. -1.
        -11    1    3    3    0    0  0.29626674854E+02  0.67635329258E+01  0.41428020722E+01  0.30669986139E+02  0.51100000000E-03 0.  1.
        -12    1    3    3    0    0 -0.20653735400E+02 -0.18509336471E+02  0.38993452259E+01  0.28006735186E+02  0.00000000000E+00 0.  1.
</event>
<event>
 7    1  0.1830715E-013  0.7246157E+02  0.7816164E-02  0.1226708E+00
        -11   -1    0    0    0    0  0.00000000000E+00  0.00000000000E+00  0.45593999997E+02  0.45594000000E+02  0.51100000000E-03 0. -1.
         11   -1    0    0    0    0 -0.00000000000E+00 -0.00000000000E+00 -0.45593999997E+02  0.45594000000E+02  0.51100000000E-03 0.  1.
    9900012    2    1    2    0    0  0.15875715691E+02  0.93602893649E+00  0.98876010721E+01  0.72461570713E+02  0.70000000545E+02 0.  0.
        -12    1    1    2    0    0 -0.15875715691E+02 -0.93602893649E+00 -0.98876010721E+01  0.18726429287E+02  0.00000000000E+00 0.  1.
         11    1    3    3    0    0  0.28205536161E+02  0.23539151130E+02  0.18988607597E+02  0.41354698945E+02  0.51100000000E-03 0. -1.
        -11    1    3    3    0    0 -0.37463244483E+01 -0.18044531471E+02 -0.10619549310E+02  0.21270046796E+02  0.51100000000E-03 0.  1.
         12    1    3    3    0    0 -0.85834960218E+01 -0.45585907227E+01  0.15185427850E+01  0.98368249717E+01  0.00000000000E+00 0. -1.
</event>
<event>
 7    1  0.1830715E-013  0.7246179E+02  0.7816164E-02  0.1226707E+00
        -11   -1    0    0    0    0  0.00000000000E+00  0.00000000000E+00  0.45593999997E+02  0.45594000000E+02  0.51100000000E-03 0. -1.
         11   -1    0    0    0    0 -0.00000000000E+00 -0.00000000000E+00 -0.45593999997E+02  0.45594000000E+02  0.51100000000E-03 0.  1.
    9900012    2    1    2    0    0  0.74886569469E+01 -0.69300536489E+01  0.15702397410E+02  0.72461790803E+02  0.70000287253E+02 0.  0.
        -12    1    1    2    0    0 -0.74886569469E+01  0.69300536489E+01 -0.15702397410E+02  0.18726209197E+02  0.00000000000E+00 0.  1.
         11    1    3    3    0    0  0.91987943115E+01  0.20738688995E+02  0.22700813538E+02  0.32094204673E+02  0.51100000000E-03 0. -1.
        -11    1    3    3    0    0 -0.14911800820E+02 -0.12776650351E+02 -0.55881594957E+01  0.20416466998E+02  0.51100000000E-03 0.  1.
        -12    1    3    3    0    0  0.13201663456E+02 -0.14892092293E+02 -0.14102566322E+01  0.19951119132E+02  0.00000000000E+00 0.  1.
</event>
<event>
 7    1  0.1830715E-013  0.7246153E+02  0.7816164E-02  0.1226708E+00
        -11   -1    0    0    0    0  0.00000000000E+00  0.00000000000E+00  0.45593999997E+02  0.45594000000E+02  0.51100000000E-03 0. -1.
         11   -1    0    0    0    0 -0.00000000000E+00 -0.00000000000E+00 -0.45593999997E+02  0.45594000000E+02  0.51100000000E-03 0.  1.
    9900012    2    1    2    0    0  0.13043406960E+02 -0.27870820169E+01  0.13144669896E+02  0.72461531086E+02  0.69999948924E+02 0.  0.
        -12    1    1    2    0    0 -0.13043406960E+02  0.27870820169E+01 -0.13144669896E+02  0.18726468914E+02  0.00000000000E+00 0.  1.
         11    1    3    3    0    0  0.29921385140E+02 -0.10976580467E+02 -0.12748889349E+02  0.34326502696E+02  0.51100000000E-03 0. -1.
        -11    1    3    3    0    0 -0.38628030285E+01  0.12343568553E+02  0.66734692075E+01  0.14554041479E+02  0.51100000000E-03 0.  1.
         12    1    3    3    0    0 -0.13015175151E+02 -0.41540701030E+01  0.19220090038E+02  0.23580986911E+02  0.00000000000E+00 0. -1.
</event>
<event>
 7    1  0.1830715E-013  0.7246158E+02  0.7816164E-02  0.1226708E+00
        -11   -1    0    0    0    0  0.00000000000E+00  0.00000000000E+00  0.45593999997E+02  0.45594000000E+02  0.51100000000E-03 0. -1.
         11   -1    0    0    0    0 -0.00000000000E+00 -0.00000000000E+00 -0.45593999997E+02  0.45594000000E+02  0.51100000000E-03 0.  1.
    9900012    2    1    2    0    0 -0.18330319505E+02  0.37855812382E+01 -0.58955209455E+00  0.72461579890E+02  0.70000012500E+02 0.  0.
        -12    1    1    2    0    0  0.18330319505E+02 -0.37855812382E+01  0.58955209455E+00  0.18726420110E+02  0.00000000000E+00 0.  1.
         11    1    3    3    0    0  0.12191993338E+02 -0.12496603683E+02 -0.20689102801E+02  0.27071179881E+02  0.51100000000E-03 0.  1.
        -11    1    3    3    0    0 -0.24512665789E+02  0.74505662821E+01  0.37970923366E+01  0.25899799854E+02  0.51100000000E-03 0. -1.
         12    1    3    3    0    0 -0.60096470547E+01  0.88316186391E+01  0.16302458370E+02  0.19490600155E+02  0.00000000000E+00 0. -1.
</event>
<event>
 7    1  0.1830715E-013  0.7246150E+02  0.7816164E-02  0.1226708E+00
        -11   -1    0    0    0    0  0.00000000000E+00  0.00000000000E+00  0.45593999997E+02  0.45594000000E+02  0.51100000000E-03 0.  1.
         11   -1    0    0    0    0 -0.00000000000E+00 -0.00000000000E+00 -0.45593999997E+02  0.45594000000E+02  0.51100000000E-03 0. -1.
    9900012    2    1    2    0    0 -0.11311507515E+02  0.14899608123E+02  0.85637568589E+00  0.72461497288E+02  0.69999904896E+02 0.  0.
        -12    1    1    2    0    0  0.11311507515E+02 -0.14899608123E+02 -0.85637568589E+00  0.18726502712E+02  0.00000000000E+00 0.  1.
         11    1    3    3    0    0  0.92110734617E+01 -0.18744151200E+02  0.15360439283E+01  0.20941502089E+02  0.51100000000E-03 0. -1.
        -11    1    3    3    0    0 -0.14556428241E+02  0.31182736595E+02  0.12686754198E+02  0.36677055458E+02  0.51100000000E-03 0.  1.
        -12    1    3    3    0    0 -0.59661527352E+01  0.24610227277E+01 -0.13366422440E+02  0.14842939742E+02  0.00000000000E+00 0.  1.
</event>
<event>
 7    1  0.1830715E-013  0.7246148E+02  0.7816164E-02  0.1226708E+00
        -11   -1    0    0    0    0  0.00000000000E+00  0.00000000000E+00  0.45593999997E+02  0.45594000000E+02  0.51100000000E-03 0. -1.
         11   -1    0    0    0    0 -0.00000000000E+00 -0.00000000000E+00 -0.45593999997E+02  0.45594000000E+02  0.51100000000E-03 0.  1.
    9900012    2    1    2    0    0 -0.38664011256E+01  0.17957085449E+02  0.36436865195E+01  0.72461483320E+02  0.69999886700E+02 0.  0.
        -12    1    1    2    0    0  0.38664011256E+01 -0.17957085449E+02 -0.36436865195E+01  0.18726516680E+02  0.00000000000E+00 0.  1.
         11    1    3    3    0    0 -0.34412582627E+01  0.17401485048E+02  0.15492633769E+02  0.23551552850E+02  0.51100000000E-03 0. -1.
        -11    1    3    3    0    0  0.19012767463E+02  0.24928920716E+01 -0.20032431997E+02  0.27730816242E+02  0.51100000000E-03 0.  1.
        -12    1    3    3    0    0 -0.19437910326E+02 -0.19372916702E+01  0.81834847484E+01  0.21179114228E+02  0.00000000000E+00 0.  1.
</event>
<event>
 7    1  0.1830715E-013  0.7246140E+02  0.7816164E-02  0.1226708E+00
        -11   -1    0    0    0    0  0.00000000000E+00  0.00000000000E+00  0.45593999997E+02  0.45594000000E+02  0.51100000000E-03 0. -1.
         11   -1    0    0    0    0 -0.00000000000E+00 -0.00000000000E+00 -0.45593999997E+02  0.45594000000E+02  0.51100000000E-03 0.  1.
    9900012    2    1    2    0    0 -0.15985439760E+02 -0.40608252968E+01  0.88690956286E+01  0.72461402774E+02  0.69999781773E+02 0.  0.
        -12    1    1    2    0    0  0.15985439760E+02  0.40608252968E+01 -0.88690956286E+01  0.18726597226E+02  0.00000000000E+00 0.  1.
         11    1    3    3    0    0 -0.19044094130E+02 -0.63036111010E+00  0.32735444119E+01  0.19333674499E+02  0.51100000000E-03 0. -1.
        -11    1    3    3    0    0  0.97226133563E+01  0.87959231244E+01 -0.20043910254E+02  0.23951112972E+02  0.51100000000E-03 0.  1.
        -12    1    3    3    0    0 -0.66639589861E+01 -0.12226387311E+02  0.25639461470E+02  0.29176615303E+02  0.00000000000E+00 0.  1.
</event>
<event>
 7    1  0.1830715E-013  0.7246089E+02  0.7816164E-02  0.1226710E+00
        -11   -1    0    0    0    0  0.00000000000E+00  0.00000000000E+00  0.45593999997E+02  0.45594000000E+02  0.51100000000E-03 0.  1.
         11   -1    0    0    0    0 -0.00000000000E+00 -0.00000000000E+00 -0.45593999997E+02  0.45594000000E+02  0.51100000000E-03 0. -1.
    9900012    2    1    2    0    0 -0.14885321416E+02  0.29023707975E+01  0.10986728112E+02  0.72460887448E+02  0.69999110460E+02 0.  0.
        -12    1    1    2    0    0  0.14885321416E+02 -0.29023707975E+01 -0.10986728112E+02  0.18727112552E+02  0.00000000000E+00 0.  1.
         11    1    3    3    0    0 -0.20747675015E+02  0.37440753635E+01 -0.10499394792E+02  0.23552524496E+02  0.51100000000E-03 0. -1.
        -11    1    3    3    0    0  0.18967376898E+02 -0.10050982282E+02 -0.77957763254E+00  0.21480022643E+02  0.51100000000E-03 0.  1.
        -12    1    3    3    0    0 -0.13105023299E+02  0.92092777164E+01  0.22265700537E+02  0.27428340309E+02  0.00000000000E+00 0.  1.
</event>
<event>
 7    1  0.1830715E-013  0.7246156E+02  0.7816164E-02  0.1226708E+00
        -11   -1    0    0    0    0  0.00000000000E+00  0.00000000000E+00  0.45593999997E+02  0.45594000000E+02  0.51100000000E-03 0. -1.
         11   -1    0    0    0    0 -0.00000000000E+00 -0.00000000000E+00 -0.45593999997E+02  0.45594000000E+02  0.51100000000E-03 0.  1.
    9900012    2    1    2    0    0  0.11450322511E+02  0.11115843294E+02  0.97983441784E+01  0.72461563970E+02  0.69999991762E+02 0.  0.
        -12    1    1    2    0    0 -0.11450322511E+02 -0.11115843294E+02 -0.97983441784E+01  0.18726436030E+02  0.00000000000E+00 0.  1.
         11    1    3    3    0    0 -0.98554958959E+01  0.30083941746E+02  0.84660268740E+01  0.32769619492E+02  0.51100000000E-03 0.  1.
        -11    1    3    3    0    0  0.15756901680E+02 -0.24527001132E+02  0.70308062806E+01  0.29988097177E+02  0.51100000000E-03 0. -1.
        -12    1    3    3    0    0  0.55489167271E+01  0.55589026795E+01 -0.56984889762E+01  0.97038473018E+01  0.00000000000E+00 0.  1.
</event>
<event>
 7    1  0.1830715E-013  0.7246156E+02  0.7816164E-02  0.1226708E+00
        -11   -1    0    0    0    0  0.00000000000E+00  0.00000000000E+00  0.45593999997E+02  0.45594000000E+02  0.51100000000E-03 0. -1.
         11   -1    0    0    0    0 -0.00000000000E+00 -0.00000000000E+00 -0.45593999997E+02  0.45594000000E+02  0.51100000000E-03 0.  1.
    9900012    2    1    2    0    0 -0.13451407215E+02 -0.11410874140E+02 -0.62873950544E+01  0.72461555028E+02  0.69999980113E+02 0.  0.
        -12    1    1    2    0    0  0.13451407215E+02  0.11410874140E+02  0.62873950544E+01  0.18726444972E+02  0.00000000000E+00 0.  1.
         11    1    3    3    0    0 -0.26285685588E+01  0.79316932704E+01  0.30284936588E+01  0.88877952782E+01  0.51100000000E-03 0. -1.
        -11    1    3    3    0    0 -0.21441009868E+02  0.49027708347E+01 -0.24608512911E+02  0.33005044675E+02  0.51100000000E-03 0.  1.
        -12    1    3    3    0    0  0.10618171212E+02 -0.24245338245E+02  0.15292624198E+02  0.30568715075E+02  0.00000000000E+00 0.  1.
</event>
<event>
 7    1  0.1830715E-013  0.7246156E+02  0.7816164E-02  0.1226708E+00
        -11   -1    0    0    0    0  0.00000000000E+00  0.00000000000E+00  0.45593999997E+02  0.45594000000E+02  0.51100000000E-03 0. -1.
         11   -1    0    0    0    0 -0.00000000000E+00 -0.00000000000E+00 -0.45593999997E+02  0.45594000000E+02  0.51100000000E-03 0.  1.
    9900012    2    1    2    0    0 -0.10344956959E+02  0.15304398212E+02  0.30719152517E+01  0.72461564076E+02  0.69999991899E+02 0.  0.
        -12    1    1    2    0    0  0.10344956959E+02 -0.15304398212E+02 -0.30719152517E+01  0.18726435924E+02  0.00000000000E+00 0.  1.
         11    1    3    3    0    0  0.22583596692E+01  0.12479178740E+02 -0.21456973986E+02  0.24924522530E+02  0.51100000000E-03 0. -1.
        -11    1    3    3    0    0  0.74988452471E+01 -0.13016850260E+02  0.74554139921E+01  0.16770637102E+02  0.51100000000E-03 0.  1.
         12    1    3    3    0    0 -0.20102161875E+02  0.15842069732E+02  0.17073475246E+02  0.30766404444E+02  0.00000000000E+00 0. -1.
</event>
<event>
 7    1  0.1830715E-013  0.7246149E+02  0.7816164E-02  0.1226708E+00
        -11   -1    0    0    0    0  0.00000000000E+00  0.00000000000E+00  0.45593999997E+02  0.45594000000E+02  0.51100000000E-03 0. -1.
         11   -1    0    0    0    0 -0.00000000000E+00 -0.00000000000E+00 -0.45593999997E+02  0.45594000000E+02  0.51100000000E-03 0.  1.
    9900012    2    1    2    0    0 -0.18250666912E+02  0.21466019171E+01  0.36038236253E+01  0.72461487050E+02  0.69999891559E+02 0.  0.
        -12    1    1    2    0    0  0.18250666912E+02 -0.21466019171E+01 -0.36038236253E+01  0.18726512950E+02  0.00000000000E+00 0.  1.
         11    1    3    3    0    0 -0.27787734086E+02 -0.12196581150E+01 -0.17068447470E+02  0.32633995019E+02  0.51100000000E-03 0. -1.
        -11    1    3    3    0    0  0.37862629406E+01  0.17108075505E+02  0.17153984920E+02  0.24521036549E+02  0.51100000000E-03 0.  1.
        -12    1    3    3    0    0  0.57508042333E+01 -0.13741815473E+02  0.35182861758E+01  0.15306455483E+02  0.00000000000E+00 0.  1.
</event>
<event>
 7    1  0.1830715E-013  0.7246155E+02  0.7816164E-02  0.1226708E+00
        -11   -1    0    0    0    0  0.00000000000E+00  0.00000000000E+00  0.45593999997E+02  0.45594000000E+02  0.51100000000E-03 0. -1.
         11   -1    0    0    0    0 -0.00000000000E+00 -0.00000000000E+00 -0.45593999997E+02  0.45594000000E+02  0.51100000000E-03 0.  1.
    9900012    2    1    2    0    0 -0.10211476443E+02 -0.12529109866E+02  0.94565951076E+01  0.72461547154E+02  0.69999969855E+02 0.  0.
        -12    1    1    2    0    0  0.10211476443E+02  0.12529109866E+02 -0.94565951076E+01  0.18726452846E+02  0.00000000000E+00 0.  1.
         11    1    3    3    0    0  0.19657134614E+02  0.16836216589E+02  0.10358113654E+02  0.27877439785E+02  0.51100000000E-03 0. -1.
        -11    1    3    3    0    0 -0.17449894418E+02 -0.26079526290E+02  0.18987946660E+01  0.31436379056E+02  0.51100000000E-03 0.  1.
         12    1    3    3    0    0 -0.12418716639E+02 -0.32858001655E+01 -0.28003132124E+01  0.13147728312E+02  0.00000000000E+00 0. -1.
</event>
<event>
 7    1  0.1830715E-013  0.7246158E+02  0.7816164E-02  0.1226708E+00
        -11   -1    0    0    0    0  0.00000000000E+00  0.00000000000E+00  0.45593999997E+02  0.45594000000E+02  0.51100000000E-03 0.  1.
         11   -1    0    0    0    0 -0.00000000000E+00 -0.00000000000E+00 -0.45593999997E+02  0.45594000000E+02  0.51100000000E-03 0. -1.
    9900012    2    1    2    0    0 -0.14531389146E+02 -0.11242652611E+02  0.36221895826E+01  0.72461581078E+02  0.70000014048E+02 0.  0.
        -12    1    1    2    0    0  0.14531389146E+02  0.11242652611E+02 -0.36221895826E+01  0.18726418922E+02  0.00000000000E+00 0.  1.
         11    1    3    3    0    0  0.18284728992E+02 -0.10684843235E+02  0.80787160882E+01  0.22666337225E+02  0.51100000000E-03 0. -1.
        -11    1    3    3    0    0 -0.26638933950E+02  0.84343478442E+01  0.11706136276E+02  0.30295290927E+02  0.51100000000E-03 0.  1.
        -12    1    3    3    0    0 -0.61771841881E+01 -0.89921572202E+01 -0.16162662782E+02  0.19499952927E+02  0.00000000000E+00 0.  1.
</event>
<event>
 7    1  0.1830715E-013  0.7246147E+02  0.7816164E-02  0.1226708E+00
        -11   -1    0    0    0    0  0.00000000000E+00  0.00000000000E+00  0.45593999997E+02  0.45594000000E+02  0.51100000000E-03 0. -1.
         11   -1    0    0    0    0 -0.00000000000E+00 -0.00000000000E+00 -0.45593999997E+02  0.45594000000E+02  0.51100000000E-03 0.  1.
    9900012    2    1    2    0    0 -0.67994052479E+01  0.19099288200E+01  0.17343681732E+02  0.72461467063E+02  0.69999865521E+02 0.  0.
        -12    1    1    2    0    0  0.67994052479E+01 -0.19099288200E+01 -0.17343681732E+02  0.18726532937E+02  0.00000000000E+00 0.  1.
         11    1    3    3    0    0 -0.12238857288E+02  0.20166432898E+02  0.79753998993E+00  0.23603192874E+02  0.51100000000E-03 0. -1.
        -11    1    3    3    0    0  0.79717564451E+01 -0.30817175119E+02  0.62930613350E+01  0.32447647131E+02  0.51100000000E-03 0.  1.
         12    1    3    3    0    0 -0.25323044052E+01  0.12560671040E+02  0.10253080407E+02  0.16410627058E+02  0.00000000000E+00 0. -1.
</event>
<event>
 7    1  0.1830715E-013  0.7246156E+02  0.7816164E-02  0.1226708E+00
        -11   -1    0    0    0    0  0.00000000000E+00  0.00000000000E+00  0.45593999997E+02  0.45594000000E+02  0.51100000000E-03 0. -1.
         11   -1    0    0    0    0 -0.00000000000E+00 -0.00000000000E+00 -0.45593999997E+02  0.45594000000E+02  0.51100000000E-03 0.  1.
    9900012    2    1    2    0    0  0.47093951475E+01 -0.17820337974E+02  0.33070906605E+01  0.72461556216E+02  0.69999981661E+02 0.  0.
        -12    1    1    2    0    0 -0.47093951475E+01  0.17820337974E+02 -0.33070906605E+01  0.18726443784E+02  0.00000000000E+00 0.  1.
         11    1    3    3    0    0  0.16830175489E+02 -0.19841565599E+02 -0.25021968399E+01  0.26138162171E+02  0.51100000000E-03 0. -1.
        -11    1    3    3    0    0 -0.43320247551E+01  0.22150795491E+02  0.93876703676E+01  0.24444887698E+02  0.51100000000E-03 0.  1.
         12    1    3    3    0    0 -0.77887555864E+01 -0.20129567866E+02 -0.35783828672E+01  0.21878506347E+02  0.00000000000E+00 0. -1.
</event>
<event>
 7    1  0.1830715E-013  0.7246136E+02  0.7816164E-02  0.1226709E+00
        -11   -1    0    0    0    0  0.00000000000E+00  0.00000000000E+00  0.45593999997E+02  0.45594000000E+02  0.51100000000E-03 0.  1.
         11   -1    0    0    0    0 -0.00000000000E+00 -0.00000000000E+00 -0.45593999997E+02  0.45594000000E+02  0.51100000000E-03 0. -1.
    9900012    2    1    2    0    0  0.10306210216E+02  0.58578323546E+01 -0.14496714473E+02  0.72461363905E+02  0.69999731140E+02 0.  0.
        -12    1    1    2    0    0 -0.10306210216E+02 -0.58578323546E+01  0.14496714473E+02  0.18726636095E+02  0.00000000000E+00 0.  1.
         11    1    3    3    0    0 -0.11385279987E+02  0.23605259440E+02  0.15516287483E+02  0.30456330231E+02  0.51100000000E-03 0. -1.
        -11    1    3    3    0    0  0.77593923424E+01 -0.51445622370E+01 -0.45516085944E+01  0.10363003001E+02  0.51100000000E-03 0.  1.
         12    1    3    3    0    0  0.13932097860E+02 -0.12602864849E+02 -0.25461393362E+02  0.31642030673E+02  0.00000000000E+00 0. -1.
</event>
<event>
 7    1  0.1830715E-013  0.7246158E+02  0.7816164E-02  0.1226708E+00
        -11   -1    0    0    0    0  0.00000000000E+00  0.00000000000E+00  0.45593999997E+02  0.45594000000E+02  0.51100000000E-03 0. -1.
         11   -1    0    0    0    0 -0.00000000000E+00 -0.00000000000E+00 -0.45593999997E+02  0.45594000000E+02  0.51100000000E-03 0.  1.
    9900012    2    1    2    0    0 -0.92440464859E+01  0.15913352198E+01  0.16207842551E+02  0.72461577400E+02  0.70000009257E+02 0.  0.
        -12    1    1    2    0    0  0.92440464859E+01 -0.15913352198E+01 -0.16207842551E+02  0.18726422600E+02  0.00000000000E+00 0.  1.
         11    1    3    3    0    0  0.17982608600E+02  0.50602920842E+01  0.31348903403E+02  0.36492937849E+02  0.51100000000E-03 0. -1.
        -11    1    3    3    0    0 -0.15831489983E+02  0.65338752689E+01 -0.10595339581E+02  0.20139235890E+02  0.51100000000E-03 0.  1.
         12    1    3    3    0    0 -0.11395165103E+02 -0.10002832133E+02 -0.45457212696E+01  0.15829403661E+02  0.00000000000E+00 0. -1.
</event>
<event>
 7    1  0.1830715E-013  0.7246190E+02  0.7816164E-02  0.1226707E+00
        -11   -1    0    0    0    0  0.00000000000E+00  0.00000000000E+00  0.45593999997E+02  0.45594000000E+02  0.51100000000E-03 0.  1.
         11   -1    0    0    0    0 -0.00000000000E+00 -0.00000000000E+00 -0.45593999997E+02  0.45594000000E+02  0.51100000000E-03 0. -1.
    9900012    2    1    2    0    0  0.16007675471E+01 -0.86574904908E+01 -0.16527322790E+02  0.72461895308E+02  0.70000423389E+02 0.  0.
        -12    1    1    2    0    0 -0.16007675471E+01  0.86574904908E+01  0.16527322790E+02  0.18726104692E+02  0.00000000000E+00 0.  1.
         11    1    3    3    0    0  0.47660229105E+01 -0.31483618073E+02 -0.20664983346E+02  0.37960172791E+02  0.51100000000E-03 0. -1.
        -11    1    3    3    0    0 -0.35908527313E+01  0.52546935812E+01  0.13253077979E+02  0.14702044217E+02  0.51100000000E-03 0.  1.
         12    1    3    3    0    0  0.42559736796E+00  0.17571434001E+02 -0.91154174234E+01  0.19799678300E+02  0.00000000000E+00 0. -1.
</event>
<event>
 7    1  0.1830715E-013  0.7246156E+02  0.7816164E-02  0.1226708E+00
        -11   -1    0    0    0    0  0.00000000000E+00  0.00000000000E+00  0.45593999997E+02  0.45594000000E+02  0.51100000000E-03 0. -1.
         11   -1    0    0    0    0 -0.00000000000E+00 -0.00000000000E+00 -0.45593999997E+02  0.45594000000E+02  0.51100000000E-03 0.  1.
    9900012    2    1    2    0    0  0.47129027375E+01  0.45588999980E+01  0.17540936160E+02  0.72461562465E+02  0.69999989801E+02 0.  0.
        -12    1    1    2    0    0 -0.47129027375E+01 -0.45588999980E+01 -0.17540936160E+02  0.18726437535E+02  0.00000000000E+00 0.  1.
         11    1    3    3    0    0  0.69118062467E+01  0.27486544566E+02  0.13894794281E+02  0.31564988613E+02  0.51100000000E-03 0. -1.
        -11    1    3    3    0    0  0.10465533188E+02 -0.25224763951E+02 -0.67944004440E+00  0.27318084492E+02  0.51100000000E-03 0.  1.
        -12    1    3    3    0    0 -0.12664436697E+02  0.22971193827E+01  0.43255819232E+01  0.13578489360E+02  0.00000000000E+00 0.  1.
</event>
<event>
 7    1  0.1830715E-013  0.7246199E+02  0.7816164E-02  0.1226707E+00
        -11   -1    0    0    0    0  0.00000000000E+00  0.00000000000E+00  0.45593999997E+02  0.45594000000E+02  0.51100000000E-03 0.  1.
         11   -1    0    0    0    0 -0.00000000000E+00 -0.00000000000E+00 -0.45593999997E+02  0.45594000000E+02  0.51100000000E-03 0. -1.
    9900012    2    1    2    0    0 -0.80202700547E+00 -0.51731407130E+01 -0.17979404731E+02  0.72461985298E+02  0.70000540617E+02 0.  0.
        -12    1    1    2    0    0  0.80202700547E+00  0.51731407130E+01  0.17979404731E+02  0.18726014702E+02  0.00000000000E+00 0.  1.
         11    1    3    3    0    0 -0.48086189149E+01 -0.31139173021E+01 -0.14078423866E+02  0.15199385370E+02  0.51100000000E-03 0. -1.
        -11    1    3    3    0    0  0.31126358393E+00  0.10688647224E+02  0.24050165457E+02  0.26320230304E+02  0.51100000000E-03 0.  1.
        -12    1    3    3    0    0  0.36953283256E+01 -0.12747870635E+02 -0.27951146323E+02  0.30942369623E+02  0.00000000000E+00 0.  1.
</event>
<event>
 7    1  0.1830715E-013  0.7246157E+02  0.7816164E-02  0.1226708E+00
        -11   -1    0    0    0    0  0.00000000000E+00  0.00000000000E+00  0.45593999997E+02  0.45594000000E+02  0.51100000000E-03 0. -1.
         11   -1    0    0    0    0 -0.00000000000E+00 -0.00000000000E+00 -0.45593999997E+02  0.45594000000E+02  0.51100000000E-03 0.  1.
    9900012    2    1    2    0    0 -0.17080093153E+01  0.18468990015E+02 -0.25803789423E+01  0.72461568319E+02  0.69999997427E+02 0.  0.
        -12    1    1    2    0    0  0.17080093153E+01 -0.18468990015E+02  0.25803789423E+01  0.18726431681E+02  0.00000000000E+00 0.  1.
         11    1    3    3    0    0 -0.12583669315E+02 -0.61905139223E+01  0.15411781295E+02  0.20837327060E+02  0.51100000000E-03 0. -1.
        -11    1    3    3    0    0  0.18317788380E+02  0.22630073492E+02 -0.27040025155E+02  0.39734425352E+02  0.51100000000E-03 0.  1.
        -12    1    3    3    0    0 -0.74421283795E+01  0.20294304454E+01  0.90478649171E+01  0.11889815907E+02  0.00000000000E+00 0.  1.
</event>
<event>
 7    1  0.1830715E-013  0.7246157E+02  0.7816164E-02  0.1226708E+00
        -11   -1    0    0    0    0  0.00000000000E+00  0.00000000000E+00  0.45593999997E+02  0.45594000000E+02  0.51100000000E-03 0. -1.
         11   -1    0    0    0    0 -0.00000000000E+00 -0.00000000000E+00 -0.45593999997E+02  0.45594000000E+02  0.51100000000E-03 0.  1.
    9900012    2    1    2    0    0 -0.61038672840E+01  0.13170036573E+02 -0.11830975356E+02  0.72461573832E+02  0.70000004608E+02 0.  0.
        -12    1    1    2    0    0  0.61038672840E+01 -0.13170036573E+02  0.11830975356E+02  0.18726426168E+02  0.00000000000E+00 0.  1.
         11    1    3    3    0    0  0.71927599666E+01  0.84187056028E+01  0.89651747346E+01  0.14247271958E+02  0.51100000000E-03 0. -1.
        -11    1    3    3    0    0 -0.19586376877E+02 -0.18637002387E+02 -0.12048966209E+01  0.27063181507E+02  0.51100000000E-03 0.  1.
        -12    1    3    3    0    0  0.62897496261E+01  0.23388333357E+02 -0.19591253470E+02  0.31151120367E+02  0.00000000000E+00 0.  1.
</event>
<event>
 7    1  0.1830715E-013  0.7246167E+02  0.7816164E-02  0.1226708E+00
        -11   -1    0    0    0    0  0.00000000000E+00  0.00000000000E+00  0.45593999997E+02  0.45594000000E+02  0.51100000000E-03 0.  1.
         11   -1    0    0    0    0 -0.00000000000E+00 -0.00000000000E+00 -0.45593999997E+02  0.45594000000E+02  0.51100000000E-03 0. -1.
    9900012    2    1    2    0    0 -0.59613983733E+01  0.15144404880E+02 -0.92619766725E+01  0.72461668763E+02  0.70000128273E+02 0.  0.
        -12    1    1    2    0    0  0.59613983733E+01 -0.15144404880E+02  0.92619766725E+01  0.18726331237E+02  0.00000000000E+00 0.  1.
         11    1    3    3    0    0 -0.16128021991E+02  0.67076067795E+01  0.87892516645E+01  0.19553926131E+02  0.51100000000E-03 0. -1.
        -11    1    3    3    0    0 -0.33097703083E+01 -0.49766684549E+01 -0.29908277927E+02  0.30499621263E+02  0.51100000000E-03 0.  1.
        -12    1    3    3    0    0  0.13476393926E+02  0.13413466555E+02  0.11857049590E+02  0.22408121368E+02  0.00000000000E+00 0.  1.
</event>
<event>
 7    1  0.1830715E-013  0.7246170E+02  0.7816164E-02  0.1226708E+00
        -11   -1    0    0    0    0  0.00000000000E+00  0.00000000000E+00  0.45593999997E+02  0.45594000000E+02  0.51100000000E-03 0.  1.
         11   -1    0    0    0    0 -0.00000000000E+00 -0.00000000000E+00 -0.45593999997E+02  0.45594000000E+02  0.51100000000E-03 0. -1.
    9900012    2    1    2    0    0  0.12261933276E+02 -0.12173332816E+02 -0.72200571622E+01  0.72461701249E+02  0.70000170592E+02 0.  0.
        -12    1    1    2    0    0 -0.12261933276E+02  0.12173332816E+02  0.72200571622E+01  0.18726298751E+02  0.00000000000E+00 0.  1.
         11    1    3    3    0    0 -0.43001982176E+01 -0.61186593775E+01  0.18331932313E+02  0.19798723188E+02  0.51100000000E-03 0. -1.
        -11    1    3    3    0    0 -0.93491935323E+01  0.85730235800E+01 -0.17901475542E+02  0.21940077025E+02  0.51100000000E-03 0.  1.
         12    1    3    3    0    0  0.25911325026E+02 -0.14627697018E+02 -0.76505139325E+01  0.30722901036E+02  0.00000000000E+00 0. -1.
</event>
<event>
 7    1  0.1830715E-013  0.7246138E+02  0.7816164E-02  0.1226709E+00
        -11   -1    0    0    0    0  0.00000000000E+00  0.00000000000E+00  0.45593999997E+02  0.45594000000E+02  0.51100000000E-03 0. -1.
         11   -1    0    0    0    0 -0.00000000000E+00 -0.00000000000E+00 -0.45593999997E+02  0.45594000000E+02  0.51100000000E-03 0.  1.
    9900012    2    1    2    0    0 -0.10239933922E+02  0.12559494701E+02  0.93855891443E+01  0.72461376240E+02  0.69999747208E+02 0.  0.
        -12    1    1    2    0    0  0.10239933922E+02 -0.12559494701E+02 -0.93855891443E+01  0.18726623760E+02  0.00000000000E+00 0.  1.
         11    1    3    3    0    0 -0.58110518153E+01 -0.12041339753E+02  0.17891561178E+02  0.22335401226E+02  0.51100000000E-03 0. -1.
        -11    1    3    3    0    0  0.80375722507E+01  0.32003430411E+02  0.60397419583E+00  0.33002831861E+02  0.51100000000E-03 0.  1.
        -12    1    3    3    0    0 -0.12466454358E+02 -0.74025959564E+01 -0.91099462299E+01  0.17123143154E+02  0.00000000000E+00 0.  1.
</event>
<event>
 7    1  0.1830715E-013  0.7246156E+02  0.7816164E-02  0.1226708E+00
        -11   -1    0    0    0    0  0.00000000000E+00  0.00000000000E+00  0.45593999997E+02  0.45594000000E+02  0.51100000000E-03 0. -1.
         11   -1    0    0    0    0 -0.00000000000E+00 -0.00000000000E+00 -0.45593999997E+02  0.45594000000E+02  0.51100000000E-03 0.  1.
    9900012    2    1    2    0    0 -0.18457874982E+01 -0.34632795284E+00  0.18632034081E+02  0.72461559641E+02  0.69999986122E+02 0.  0.
        -12    1    1    2    0    0  0.18457874982E+01  0.34632795284E+00 -0.18632034081E+02  0.18726440359E+02  0.00000000000E+00 0.  1.
         11    1    3    3    0    0 -0.21772114317E+02  0.67641714380E+01  0.65948721783E+01  0.23733337658E+02  0.51100000000E-03 0. -1.
        -11    1    3    3    0    0  0.87002712878E+01 -0.72836425810E+01 -0.15373476631E+02  0.19107327226E+02  0.51100000000E-03 0.  1.
         12    1    3    3    0    0  0.11226055531E+02  0.17314319018E+00  0.27410638534E+02  0.29620894757E+02  0.00000000000E+00 0. -1.
</event>
<event>
 7    1  0.1830715E-013  0.7246156E+02  0.7816164E-02  0.1226708E+00
        -11   -1    0    0    0    0  0.00000000000E+00  0.00000000000E+00  0.45593999997E+02  0.45594000000E+02  0.51100000000E-03 0.  1.
         11   -1    0    0    0    0 -0.00000000000E+00 -0.00000000000E+00 -0.45593999997E+02  0.45594000000E+02  0.51100000000E-03 0. -1.
    9900012    2    1    2    0    0  0.52555137146E+01  0.17470887142E+02 -0.42222496076E+01  0.72461555765E+02  0.69999981073E+02 0.  0.
        -12    1    1    2    0    0 -0.52555137146E+01 -0.17470887142E+02  0.42222496076E+01  0.18726444235E+02  0.00000000000E+00 0.  1.
         11    1    3    3    0    0 -0.21738952398E+02 -0.17375073381E+01 -0.16843093918E+02  0.27555231738E+02  0.51100000000E-03 0. -1.
        -11    1    3    3    0    0  0.49811875586E+01 -0.10948569168E+01  0.14028214736E+02  0.14926545150E+02  0.51100000000E-03 0.  1.
         12    1    3    3    0    0  0.22013278554E+02  0.20303251397E+02 -0.14073704255E+01  0.29979778877E+02  0.00000000000E+00 0. -1.
</event>
<event>
 7    1  0.1830715E-013  0.7246160E+02  0.7816164E-02  0.1226708E+00
        -11   -1    0    0    0    0  0.00000000000E+00  0.00000000000E+00  0.45593999997E+02  0.45594000000E+02  0.51100000000E-03 0.  1.
         11   -1    0    0    0    0 -0.00000000000E+00 -0.00000000000E+00 -0.45593999997E+02  0.45594000000E+02  0.51100000000E-03 0. -1.
    9900012    2    1    2    0    0 -0.77696941580E+01 -0.59869857308E+01 -0.15951986629E+02  0.72461600911E+02  0.70000039883E+02 0.  0.
        -12    1    1    2    0    0  0.77696941580E+01  0.59869857308E+01  0.15951986629E+02  0.18726399089E+02  0.00000000000E+00 0.  1.
         11    1    3    3    0    0 -0.21414856574E+02  0.17623461040E+02 -0.24600449912E+01  0.27843029339E+02  0.51100000000E-03 0. -1.
        -11    1    3    3    0    0  0.73472386418E+01 -0.84783068486E+01  0.10629929529E+02  0.15455064048E+02  0.51100000000E-03 0.  1.
         12    1    3    3    0    0  0.62979237746E+01 -0.15132139922E+02 -0.24121871167E+02  0.29163507524E+02  0.00000000000E+00 0. -1.
</event>
<event>
 7    1  0.1830715E-013  0.7246156E+02  0.7816164E-02  0.1226708E+00
        -11   -1    0    0    0    0  0.00000000000E+00  0.00000000000E+00  0.45593999997E+02  0.45594000000E+02  0.51100000000E-03 0.  1.
         11   -1    0    0    0    0 -0.00000000000E+00 -0.00000000000E+00 -0.45593999997E+02  0.45594000000E+02  0.51100000000E-03 0. -1.
    9900012    2    1    2    0    0 -0.15695511302E+02  0.55130393281E+00 -0.10199333349E+02  0.72461563825E+02  0.69999991572E+02 0.  0.
        -12    1    1    2    0    0  0.15695511302E+02 -0.55130393281E+00  0.10199333349E+02  0.18726436175E+02  0.00000000000E+00 0.  1.
         11    1    3    3    0    0 -0.14478570222E+02 -0.23471342347E+02 -0.10166382996E+02  0.29391975958E+02  0.51100000000E-03 0. -1.
        -11    1    3    3    0    0 -0.53315948717E+01  0.12608782078E+02  0.17206932595E+02  0.21988310962E+02  0.51100000000E-03 0.  1.
        -12    1    3    3    0    0  0.41146537919E+01  0.11413864202E+02 -0.17239882948E+02  0.21081276905E+02  0.00000000000E+00 0.  1.
</event>
<event>
 7    1  0.1830715E-013  0.7246161E+02  0.7816164E-02  0.1226708E+00
        -11   -1    0    0    0    0  0.00000000000E+00  0.00000000000E+00  0.45593999997E+02  0.45594000000E+02  0.51100000000E-03 0. -1.
         11   -1    0    0    0    0 -0.00000000000E+00 -0.00000000000E+00 -0.45593999997E+02  0.45594000000E+02  0.51100000000E-03 0.  1.
    9900012    2    1    2    0    0 -0.16292112751E+02 -0.13008031043E+01 -0.91407210972E+01  0.72461606626E+02  0.70000047329E+02 0.  0.
        -12    1    1    2    0    0  0.16292112751E+02  0.13008031043E+01  0.91407210972E+01  0.18726393374E+02  0.00000000000E+00 0.  1.
         11    1    3    3    0    0 -0.19368440067E+02  0.47766289569E+01  0.25570625777E+02  0.32431613554E+02  0.51100000000E-03 0. -1.
        -11    1    3    3    0    0 -0.47975279149E+01 -0.96211702433E+01 -0.14494428340E+02  0.18046374819E+02  0.51100000000E-03 0.  1.
         12    1    3    3    0    0  0.78738552313E+01  0.35437381821E+01 -0.20216918534E+02  0.21983618253E+02  0.00000000000E+00 0. -1.
</event>
<event>
 7    1  0.1830715E-013  0.7246158E+02  0.7816164E-02  0.1226708E+00
        -11   -1    0    0    0    0  0.00000000000E+00  0.00000000000E+00  0.45593999997E+02  0.45594000000E+02  0.51100000000E-03 0.  1.
         11   -1    0    0    0    0 -0.00000000000E+00 -0.00000000000E+00 -0.45593999997E+02  0.45594000000E+02  0.51100000000E-03 0. -1.
    9900012    2    1    2    0    0  0.56085914503E+01  0.17741471022E+02 -0.21125366692E+01  0.72461577404E+02  0.70000009262E+02 0.  0.
        -12    1    1    2    0    0 -0.56085914503E+01 -0.17741471022E+02  0.21125366692E+01  0.18726422596E+02  0.00000000000E+00 0.  1.
         11    1    3    3    0    0 -0.96625811052E+01  0.22978426047E+02 -0.18485473999E+02  0.31033631538E+02  0.51100000000E-03 0. -1.
        -11    1    3    3    0    0  0.11402553604E+02  0.60238429408E+01  0.24029920650E+02  0.27271633599E+02  0.51100000000E-03 0.  1.
         12    1    3    3    0    0  0.38686189512E+01 -0.11260797966E+02 -0.76569833207E+01  0.14156312267E+02  0.00000000000E+00 0. -1.
</event>
<event>
 7    1  0.1830715E-013  0.7246159E+02  0.7816164E-02  0.1226708E+00
        -11   -1    0    0    0    0  0.00000000000E+00  0.00000000000E+00  0.45593999997E+02  0.45594000000E+02  0.51100000000E-03 0.  1.
         11   -1    0    0    0    0 -0.00000000000E+00 -0.00000000000E+00 -0.45593999997E+02  0.45594000000E+02  0.51100000000E-03 0. -1.
    9900012    2    1    2    0    0  0.43148293712E+01 -0.11837922592E+02 -0.13853670402E+02  0.72461592245E+02  0.70000028595E+02 0.  0.
        -12    1    1    2    0    0 -0.43148293712E+01  0.11837922592E+02  0.13853670402E+02  0.18726407755E+02  0.00000000000E+00 0.  1.
         11    1    3    3    0    0  0.44901216548E+01 -0.93937433351E-01  0.22107641432E+02  0.22559207137E+02  0.51100000000E-03 0.  1.
        -11    1    3    3    0    0 -0.87710941839E+01 -0.12464548670E+02 -0.38082727144E+02  0.41019399968E+02  0.51100000000E-03 0. -1.
         12    1    3    3    0    0  0.85958019003E+01  0.72056351107E+00  0.21214153106E+01  0.88829851403E+01  0.00000000000E+00 0. -1.
</event>
<event>
 7    1  0.1830715E-013  0.7246187E+02  0.7816164E-02  0.1226707E+00
        -11   -1    0    0    0    0  0.00000000000E+00  0.00000000000E+00  0.45593999997E+02  0.45594000000E+02  0.51100000000E-03 0. -1.
         11   -1    0    0    0    0 -0.00000000000E+00 -0.00000000000E+00 -0.45593999997E+02  0.45594000000E+02  0.51100000000E-03 0.  1.
    9900012    2    1    2    0    0  0.12486425300E+02  0.71591241794E+01  0.11979312468E+02  0.72461873786E+02  0.70000395353E+02 0.  0.
        -12    1    1    2    0    0 -0.12486425300E+02 -0.71591241794E+01 -0.11979312468E+02  0.18726126214E+02  0.00000000000E+00 0.  1.
         11    1    3    3    0    0  0.24843934608E+02 -0.85176776418E+01 -0.34651654709E+01  0.26491117213E+02  0.51100000000E-03 0.  1.
        -11    1    3    3    0    0 -0.21500360211E+02  0.21147263323E+02  0.17855380857E+02  0.35046923703E+02  0.51100000000E-03 0. -1.
         12    1    3    3    0    0  0.91428509027E+01 -0.54704615018E+01 -0.24109029181E+01  0.10923832869E+02  0.00000000000E+00 0. -1.
</event>
<event>
 7    1  0.1830715E-013  0.7246156E+02  0.7816164E-02  0.1226708E+00
        -11   -1    0    0    0    0  0.00000000000E+00  0.00000000000E+00  0.45593999997E+02  0.45594000000E+02  0.51100000000E-03 0.  1.
         11   -1    0    0    0    0 -0.00000000000E+00 -0.00000000000E+00 -0.45593999997E+02  0.45594000000E+02  0.51100000000E-03 0. -1.
    9900012    2    1    2    0    0  0.31527716916E+01  0.16153085299E+02 -0.89340653954E+01  0.72461557238E+02  0.69999982992E+02 0.  0.
        -12    1    1    2    0    0 -0.31527716916E+01 -0.16153085299E+02  0.89340653954E+01  0.18726442762E+02  0.00000000000E+00 0.  1.
         11    1    3    3    0    0  0.17923363248E+02  0.11526111864E+02  0.10034759460E+02  0.23554078256E+02  0.51100000000E-03 0. -1.
        -11    1    3    3    0    0 -0.11159041875E+02 -0.18308376169E+02 -0.12441922940E+02  0.24789560307E+02  0.51100000000E-03 0.  1.
         12    1    3    3    0    0 -0.36115496814E+01  0.22935349605E+02 -0.65269019150E+01  0.24117918675E+02  0.00000000000E+00 0. -1.
</event>
<event>
 7    1  0.1830715E-013  0.7246128E+02  0.7816164E-02  0.1226709E+00
        -11   -1    0    0    0    0  0.00000000000E+00  0.00000000000E+00  0.45593999997E+02  0.45594000000E+02  0.51100000000E-03 0. -1.
         11   -1    0    0    0    0 -0.00000000000E+00 -0.00000000000E+00 -0.45593999997E+02  0.45594000000E+02  0.51100000000E-03 0.  1.
    9900012    2    1    2    0    0 -0.18345888943E+02  0.27063985429E+01  0.26064591109E+01  0.72461284771E+02  0.69999628051E+02 0.  0.
        -12    1    1    2    0    0  0.18345888943E+02 -0.27063985429E+01 -0.26064591109E+01  0.18726715229E+02  0.00000000000E+00 0.  1.
         11    1    3    3    0    0 -0.15512036150E+02 -0.35828012320E+00  0.10351398666E+02  0.18652160324E+02  0.51100000000E-03 0. -1.
        -11    1    3    3    0    0 -0.35312407456E+01 -0.47684125660E+00 -0.30531358240E+02  0.30738589346E+02  0.51100000000E-03 0.  1.
        -12    1    3    3    0    0  0.69738795252E+00  0.35415199227E+01  0.22786418685E+02  0.23070535100E+02  0.00000000000E+00 0.  1.
</event>
<event>
 7    1  0.1830715E-013  0.7246155E+02  0.7816164E-02  0.1226708E+00
        -11   -1    0    0    0    0  0.00000000000E+00  0.00000000000E+00  0.45593999997E+02  0.45594000000E+02  0.51100000000E-03 0. -1.
         11   -1    0    0    0    0 -0.00000000000E+00 -0.00000000000E+00 -0.45593999997E+02  0.45594000000E+02  0.51100000000E-03 0.  1.
    9900012    2    1    2    0    0  0.23242211886E+01 -0.13867696057E+02  0.12367894635E+02  0.72461553040E+02  0.69999977523E+02 0.  0.
        -12    1    1    2    0    0 -0.23242211886E+01  0.13867696057E+02 -0.12367894635E+02  0.18726446960E+02  0.00000000000E+00 0.  1.
         11    1    3    3    0    0  0.24207475991E+02 -0.21619153486E+02 -0.33840957308E+01  0.32631913758E+02  0.51100000000E-03 0.  1.
        -11    1    3    3    0    0 -0.26682662360E+02 -0.35712994105E+00  0.14364216482E+02  0.30305490061E+02  0.51100000000E-03 0. -1.
        -12    1    3    3    0    0  0.47994075570E+01  0.81085873701E+01  0.13877738836E+01  0.95241492213E+01  0.00000000000E+00 0.  1.
</event>
<event>
 7    1  0.1830715E-013  0.7246157E+02  0.7816164E-02  0.1226708E+00
        -11   -1    0    0    0    0  0.00000000000E+00  0.00000000000E+00  0.45593999997E+02  0.45594000000E+02  0.51100000000E-03 0.  1.
         11   -1    0    0    0    0 -0.00000000000E+00 -0.00000000000E+00 -0.45593999997E+02  0.45594000000E+02  0.51100000000E-03 0. -1.
    9900012    2    1    2    0    0 -0.10833837599E+02 -0.15187656307E+01 -0.15198704687E+02  0.72461566534E+02  0.69999995102E+02 0.  0.
        -12    1    1    2    0    0  0.10833837599E+02  0.15187656307E+01  0.15198704687E+02  0.18726433466E+02  0.00000000000E+00 0.  1.
         11    1    3    3    0    0 -0.10789024634E+02 -0.49300541270E+01 -0.16659106110E+02  0.20450777562E+02  0.51100000000E-03 0. -1.
        -11    1    3    3    0    0 -0.86963201305E+01  0.16923546126E+02  0.19923998390E+02  0.27549920315E+02  0.51100000000E-03 0.  1.
        -12    1    3    3    0    0  0.86515071654E+01 -0.13512257629E+02 -0.18463596968E+02  0.24460868657E+02  0.00000000000E+00 0.  1.
</event>
<event>
 7    1  0.1830715E-013  0.7246151E+02  0.7816164E-02  0.1226708E+00
        -11   -1    0    0    0    0  0.00000000000E+00  0.00000000000E+00  0.45593999997E+02  0.45594000000E+02  0.51100000000E-03 0.  1.
         11   -1    0    0    0    0 -0.00000000000E+00 -0.00000000000E+00 -0.45593999997E+02  0.45594000000E+02  0.51100000000E-03 0. -1.
    9900012    2    1    2    0    0  0.96991721189E+01  0.12955615735E+02 -0.94212199130E+01  0.72461513316E+02  0.69999925776E+02 0.  0.
        -12    1    1    2    0    0 -0.96991721189E+01 -0.12955615735E+02  0.94212199130E+01  0.18726486684E+02  0.00000000000E+00 0.  1.
         11    1    3    3    0    0  0.43911283059E+01  0.32921635942E+01 -0.39266115280E+02  0.39647801432E+02  0.51100000000E-03 0. -1.
        -11    1    3    3    0    0  0.44271887305E+00  0.85676798148E+01  0.20463242587E+02  0.22188858349E+02  0.51100000000E-03 0.  1.
         12    1    3    3    0    0  0.48653249399E+01  0.10957723259E+01  0.93816527801E+01  0.10624853535E+02  0.00000000000E+00 0. -1.
</event>
<event>
 7    1  0.1830715E-013  0.7246146E+02  0.7816164E-02  0.1226708E+00
        -11   -1    0    0    0    0  0.00000000000E+00  0.00000000000E+00  0.45593999997E+02  0.45594000000E+02  0.51100000000E-03 0.  1.
         11   -1    0    0    0    0 -0.00000000000E+00 -0.00000000000E+00 -0.45593999997E+02  0.45594000000E+02  0.51100000000E-03 0. -1.
    9900012    2    1    2    0    0  0.15763961366E+02 -0.57193800498E+01  0.83348481907E+01  0.72461455192E+02  0.69999850057E+02 0.  0.
        -12    1    1    2    0    0 -0.15763961366E+02  0.57193800498E+01 -0.83348481907E+01  0.18726544808E+02  0.00000000000E+00 0.  1.
         11    1    3    3    0    0 -0.11398441917E+02  0.14246431997E+01 -0.51640607721E+01  0.12594507148E+02  0.51100000000E-03 0. -1.
        -11    1    3    3    0    0  0.31993012644E+02 -0.23525179313E+02  0.30112727560E+01  0.39825302053E+02  0.51100000000E-03 0.  1.
        -12    1    3    3    0    0 -0.48306093615E+01  0.16381156064E+02  0.10487636207E+02  0.20041645990E+02  0.00000000000E+00 0.  1.
</event>
<event>
 7    1  0.1830715E-013  0.7246186E+02  0.7816164E-02  0.1226707E+00
        -11   -1    0    0    0    0  0.00000000000E+00  0.00000000000E+00  0.45593999997E+02  0.45594000000E+02  0.51100000000E-03 0. -1.
         11   -1    0    0    0    0 -0.00000000000E+00 -0.00000000000E+00 -0.45593999997E+02  0.45594000000E+02  0.51100000000E-03 0.  1.
    9900012    2    1    2    0    0  0.37576339103E+01  0.15393126423E+02 -0.99799892494E+01  0.72461859471E+02  0.70000376706E+02 0.  0.
        -12    1    1    2    0    0 -0.37576339103E+01 -0.15393126423E+02  0.99799892494E+01  0.18726140529E+02  0.00000000000E+00 0.  1.
         11    1    3    3    0    0  0.49969041761E+01  0.26995588090E+02  0.10310680231E+02  0.29326454861E+02  0.51100000000E-03 0. -1.
        -11    1    3    3    0    0  0.17260215469E+02 -0.87307991618E+01 -0.10489965744E+02  0.22004119469E+02  0.51100000000E-03 0.  1.
        -12    1    3    3    0    0 -0.18499485735E+02 -0.28716625050E+01 -0.98007037364E+01  0.21131285141E+02  0.00000000000E+00 0.  1.
</event>
<event>
 7    1  0.1830715E-013  0.7246154E+02  0.7816164E-02  0.1226708E+00
        -11   -1    0    0    0    0  0.00000000000E+00  0.00000000000E+00  0.45593999997E+02  0.45594000000E+02  0.51100000000E-03 0.  1.
         11   -1    0    0    0    0 -0.00000000000E+00 -0.00000000000E+00 -0.45593999997E+02  0.45594000000E+02  0.51100000000E-03 0. -1.
    9900012    2    1    2    0    0  0.74789042857E+01  0.16551310833E+02  0.45607291193E+01  0.72461544123E+02  0.69999965907E+02 0.  0.
        -12    1    1    2    0    0 -0.74789042857E+01 -0.16551310833E+02 -0.45607291193E+01  0.18726455877E+02  0.00000000000E+00 0.  1.
         11    1    3    3    0    0  0.11422801811E+02  0.27659364442E+02  0.14770705536E+02  0.33372062940E+02  0.51100000000E-03 0. -1.
        -11    1    3    3    0    0 -0.14066611629E+02  0.68166871890E+01 -0.98980040643E+01  0.18501547818E+02  0.51100000000E-03 0.  1.
         12    1    3    3    0    0  0.10122714104E+02 -0.17924740798E+02 -0.31197235257E+00  0.20587933365E+02  0.00000000000E+00 0. -1.
</event>
<event>
 7    1  0.1830715E-013  0.7246152E+02  0.7816164E-02  0.1226708E+00
        -11   -1    0    0    0    0  0.00000000000E+00  0.00000000000E+00  0.45593999997E+02  0.45594000000E+02  0.51100000000E-03 0.  1.
         11   -1    0    0    0    0 -0.00000000000E+00 -0.00000000000E+00 -0.45593999997E+02  0.45594000000E+02  0.51100000000E-03 0. -1.
    9900012    2    1    2    0    0 -0.16583755259E+02 -0.75230350127E+01  0.43662205241E+01  0.72461524732E+02  0.69999940646E+02 0.  0.
        -12    1    1    2    0    0  0.16583755259E+02  0.75230350127E+01 -0.43662205241E+01  0.18726475268E+02  0.00000000000E+00 0.  1.
         11    1    3    3    0    0 -0.13709988938E+02  0.37724911824E+01  0.27872041865E+02  0.31289714035E+02  0.51100000000E-03 0.  1.
        -11    1    3    3    0    0  0.11124866223E-01 -0.21397008305E+02 -0.21768520940E+02  0.30523770939E+02  0.51100000000E-03 0. -1.
        -12    1    3    3    0    0 -0.28848911875E+01  0.10101482110E+02 -0.17373004016E+01  0.10648039757E+02  0.00000000000E+00 0.  1.
</event>
<event>
 7    1  0.1830715E-013  0.7246150E+02  0.7816164E-02  0.1226708E+00
        -11   -1    0    0    0    0  0.00000000000E+00  0.00000000000E+00  0.45593999997E+02  0.45594000000E+02  0.51100000000E-03 0.  1.
         11   -1    0    0    0    0 -0.00000000000E+00 -0.00000000000E+00 -0.45593999997E+02  0.45594000000E+02  0.51100000000E-03 0. -1.
    9900012    2    1    2    0    0 -0.17172599740E+02  0.71946274068E+01  0.20051984747E+01  0.72461503630E+02  0.69999913158E+02 0.  0.
        -12    1    1    2    0    0  0.17172599740E+02 -0.71946274068E+01 -0.20051984747E+01  0.18726496370E+02  0.00000000000E+00 0.  1.
         11    1    3    3    0    0 -0.31110165627E+01  0.95083683530E+01 -0.27813597471E+02  0.29558140965E+02  0.51100000000E-03 0. -1.
        -11    1    3    3    0    0 -0.19923045058E+02 -0.89460179792E+01  0.23112145187E+02  0.31798273813E+02  0.51100000000E-03 0.  1.
        -12    1    3    3    0    0  0.58614618807E+01  0.66322770330E+01  0.67066507580E+01  0.11105088852E+02  0.00000000000E+00 0.  1.
</event>
<event>
 7    1  0.1830715E-013  0.7246165E+02  0.7816164E-02  0.1226708E+00
        -11   -1    0    0    0    0  0.00000000000E+00  0.00000000000E+00  0.45593999997E+02  0.45594000000E+02  0.51100000000E-03 0.  1.
         11   -1    0    0    0    0 -0.00000000000E+00 -0.00000000000E+00 -0.45593999997E+02  0.45594000000E+02  0.51100000000E-03 0. -1.
    9900012    2    1    2    0    0 -0.12275471430E+01 -0.85354486846E+01 -0.16622735460E+02  0.72461652508E+02  0.70000107098E+02 0.  0.
        -12    1    1    2    0    0  0.12275471430E+01  0.85354486846E+01  0.16622735460E+02  0.18726347492E+02  0.00000000000E+00 0.  1.
         11    1    3    3    0    0  0.21003007517E+02  0.89697098309E+01 -0.24159955481E+02  0.33245833849E+02  0.51100000000E-03 0. -1.
        -11    1    3    3    0    0 -0.12587520510E+02  0.43309973315E+01 -0.20939929623E+01  0.13475459817E+02  0.51100000000E-03 0.  1.
         12    1    3    3    0    0 -0.96430341499E+01 -0.21836155847E+02  0.96312129835E+01  0.25740358842E+02  0.00000000000E+00 0. -1.
</event>
<event>
 7    1  0.1830715E-013  0.7246157E+02  0.7816164E-02  0.1226708E+00
        -11   -1    0    0    0    0  0.00000000000E+00  0.00000000000E+00  0.45593999997E+02  0.45594000000E+02  0.51100000000E-03 0.  1.
         11   -1    0    0    0    0 -0.00000000000E+00 -0.00000000000E+00 -0.45593999997E+02  0.45594000000E+02  0.51100000000E-03 0. -1.
    9900012    2    1    2    0    0  0.11880345935E+02  0.93118469811E+00  0.14445399204E+02  0.72461567274E+02  0.69999996065E+02 0.  0.
        -12    1    1    2    0    0 -0.11880345935E+02 -0.93118469811E+00 -0.14445399204E+02  0.18726432726E+02  0.00000000000E+00 0.  1.
         11    1    3    3    0    0 -0.13456683052E+01 -0.57835573988E+01 -0.33504258410E+00  0.59474879712E+01  0.51100000000E-03 0. -1.
        -11    1    3    3    0    0  0.12510310205E+02  0.10637035435E+02  0.38817819907E+02  0.42148280237E+02  0.51100000000E-03 0.  1.
        -12    1    3    3    0    0  0.71570403487E+00 -0.39222933382E+01 -0.24037378119E+02  0.24365799066E+02  0.00000000000E+00 0.  1.
</event>
<event>
 7    1  0.1830715E-013  0.7246159E+02  0.7816164E-02  0.1226708E+00
        -11   -1    0    0    0    0  0.00000000000E+00  0.00000000000E+00  0.45593999997E+02  0.45594000000E+02  0.51100000000E-03 0.  1.
         11   -1    0    0    0    0 -0.00000000000E+00 -0.00000000000E+00 -0.45593999997E+02  0.45594000000E+02  0.51100000000E-03 0. -1.
    9900012    2    1    2    0    0 -0.14082515362E+02  0.48564343781E+01 -0.11347957201E+02  0.72461592805E+02  0.70000029325E+02 0.  0.
        -12    1    1    2    0    0  0.14082515362E+02 -0.48564343781E+01  0.11347957201E+02  0.18726407195E+02  0.00000000000E+00 0.  1.
         11    1    3    3    0    0 -0.25236940959E+02 -0.18609142671E+01 -0.18032939119E+02  0.31073350067E+02  0.51100000000E-03 0. -1.
        -11    1    3    3    0    0  0.12065599706E+01  0.90139868550E+01  0.21529637460E+02  0.23371628857E+02  0.51100000000E-03 0.  1.
        -12    1    3    3    0    0  0.99478656263E+01 -0.22966382098E+01 -0.14844655542E+02  0.18016613881E+02  0.00000000000E+00 0.  1.
</event>
<event>
 7    1  0.1830715E-013  0.7246160E+02  0.7816164E-02  0.1226708E+00
        -11   -1    0    0    0    0  0.00000000000E+00  0.00000000000E+00  0.45593999997E+02  0.45594000000E+02  0.51100000000E-03 0. -1.
         11   -1    0    0    0    0 -0.00000000000E+00 -0.00000000000E+00 -0.45593999997E+02  0.45594000000E+02  0.51100000000E-03 0.  1.
    9900012    2    1    2    0    0 -0.13817637325E+01  0.15429119285E+02  0.10521938567E+02  0.72461596605E+02  0.70000034274E+02 0.  0.
        -12    1    1    2    0    0  0.13817637325E+01 -0.15429119285E+02 -0.10521938567E+02  0.18726403395E+02  0.00000000000E+00 0.  1.
         11    1    3    3    0    0 -0.25078083757E+02  0.12649975827E+02 -0.36274160699E+01  0.28321199144E+02  0.51100000000E-03 0. -1.
        -11    1    3    3    0    0  0.24719341462E+02  0.14981910485E+02  0.13432816284E+02  0.31873877042E+02  0.51100000000E-03 0.  1.
        -12    1    3    3    0    0 -0.10230214373E+01 -0.12202767027E+02  0.71653835347E+00  0.12266520419E+02  0.00000000000E+00 0.  1.
</event>
<event>
 7    1  0.1830715E-013  0.7246127E+02  0.7816164E-02  0.1226709E+00
        -11   -1    0    0    0    0  0.00000000000E+00  0.00000000000E+00  0.45593999997E+02  0.45594000000E+02  0.51100000000E-03 0. -1.
         11   -1    0    0    0    0 -0.00000000000E+00 -0.00000000000E+00 -0.45593999997E+02  0.45594000000E+02  0.51100000000E-03 0.  1.
    9900012    2    1    2    0    0  0.79743049041E+01  0.14417353020E+02  0.89017328790E+01  0.72461268971E+02  0.69999607469E+02 0.  0.
        -12    1    1    2    0    0 -0.79743049041E+01 -0.14417353020E+02 -0.89017328790E+01  0.18726731029E+02  0.00000000000E+00 0.  1.
         11    1    3    3    0    0  0.18832651300E+02 -0.54895078370E+01  0.47117451221E+01  0.20174339980E+02  0.51100000000E-03 0. -1.
        -11    1    3    3    0    0  0.10057026184E+02  0.18396562268E+02 -0.13428775890E+02  0.24897977852E+02  0.51100000000E-03 0.  1.
        -12    1    3    3    0    0 -0.20915372580E+02  0.15102985890E+01  0.17618763647E+02  0.27388951138E+02  0.00000000000E+00 0.  1.
</event>
<event>
 7    1  0.1830715E-013  0.7246158E+02  0.7816164E-02  0.1226708E+00
        -11   -1    0    0    0    0  0.00000000000E+00  0.00000000000E+00  0.45593999997E+02  0.45594000000E+02  0.51100000000E-03 0. -1.
         11   -1    0    0    0    0 -0.00000000000E+00 -0.00000000000E+00 -0.45593999997E+02  0.45594000000E+02  0.51100000000E-03 0.  1.
    9900012    2    1    2    0    0 -0.65531636877E+01 -0.14564337903E+02  0.97782830108E+01  0.72461582523E+02  0.70000015930E+02 0.  0.
        -12    1    1    2    0    0  0.65531636877E+01  0.14564337903E+02 -0.97782830108E+01  0.18726417477E+02  0.00000000000E+00 0.  1.
         11    1    3    3    0    0 -0.11200854108E+02  0.10758262560E+01  0.14482468855E+02  0.18340077406E+02  0.51100000000E-03 0. -1.
        -11    1    3    3    0    0 -0.10493045943E+02  0.13974322467E+01 -0.22722121280E+02  0.25066942888E+02  0.51100000000E-03 0.  1.
        -12    1    3    3    0    0  0.15140736363E+02 -0.17037596406E+02  0.18017935436E+02  0.29054562229E+02  0.00000000000E+00 0.  1.
</event>
<event>
 7    1  0.1830715E-013  0.7246158E+02  0.7816164E-02  0.1226708E+00
        -11   -1    0    0    0    0  0.00000000000E+00  0.00000000000E+00  0.45593999997E+02  0.45594000000E+02  0.51100000000E-03 0.  1.
         11   -1    0    0    0    0 -0.00000000000E+00 -0.00000000000E+00 -0.45593999997E+02  0.45594000000E+02  0.51100000000E-03 0. -1.
    9900012    2    1    2    0    0 -0.97371914756E+01  0.10176856786E+02  0.12340888902E+02  0.72461578805E+02  0.70000011087E+02 0.  0.
        -12    1    1    2    0    0  0.97371914756E+01 -0.10176856786E+02 -0.12340888902E+02  0.18726421195E+02  0.00000000000E+00 0.  1.
         11    1    3    3    0    0  0.38601073329E+01  0.31681893149E+02 -0.21474539326E+01  0.31988346953E+02  0.51100000000E-03 0. -1.
        -11    1    3    3    0    0  0.12126528966E+00 -0.22972609806E+02  0.44224409708E+01  0.23394732121E+02  0.51100000000E-03 0.  1.
        -12    1    3    3    0    0 -0.13718564098E+02  0.14675734431E+01  0.10065901864E+02  0.17078499731E+02  0.00000000000E+00 0.  1.
</event>
<event>
 7    1  0.1830715E-013  0.7246157E+02  0.7816164E-02  0.1226708E+00
        -11   -1    0    0    0    0  0.00000000000E+00  0.00000000000E+00  0.45593999997E+02  0.45594000000E+02  0.51100000000E-03 0. -1.
         11   -1    0    0    0    0 -0.00000000000E+00 -0.00000000000E+00 -0.45593999997E+02  0.45594000000E+02  0.51100000000E-03 0.  1.
    9900012    2    1    2    0    0  0.13329213856E+02  0.56345222770E+01  0.11885432449E+02  0.72461567136E+02  0.69999995886E+02 0.  0.
        -12    1    1    2    0    0 -0.13329213856E+02 -0.56345222770E+01 -0.11885432449E+02  0.18726432864E+02  0.00000000000E+00 0.  1.
         11    1    3    3    0    0 -0.69351032186E+00 -0.12123453620E+02 -0.62738574668E+01  0.13668224903E+02  0.51100000000E-03 0. -1.
        -11    1    3    3    0    0  0.29920100393E+02 -0.75172825634E+00  0.16877349511E+02  0.34360186695E+02  0.51100000000E-03 0.  1.
        -12    1    3    3    0    0 -0.15897376215E+02  0.18509704153E+02  0.12819404040E+01  0.24433155538E+02  0.00000000000E+00 0.  1.
</event>
<event>
 7    1  0.1830715E-013  0.7246161E+02  0.7816164E-02  0.1226708E+00
        -11   -1    0    0    0    0  0.00000000000E+00  0.00000000000E+00  0.45593999997E+02  0.45594000000E+02  0.51100000000E-03 0.  1.
         11   -1    0    0    0    0 -0.00000000000E+00 -0.00000000000E+00 -0.45593999997E+02  0.45594000000E+02  0.51100000000E-03 0. -1.
    9900012    2    1    2    0    0 -0.11857864826E+02 -0.11830895921E+01 -0.14445384593E+02  0.72461606988E+02  0.70000047800E+02 0.  0.
        -12    1    1    2    0    0  0.11857864826E+02  0.11830895921E+01  0.14445384593E+02  0.18726393012E+02  0.00000000000E+00 0.  1.
         11    1    3    3    0    0 -0.20296186470E+02 -0.13680994961E+02  0.72073344007E+01  0.25515690815E+02  0.51100000000E-03 0. -1.
        -11    1    3    3    0    0  0.30122605213E+01  0.26013014009E+02 -0.91118460977E+01  0.27726816458E+02  0.51100000000E-03 0.  1.
         12    1    3    3    0    0  0.54260611226E+01 -0.13515108641E+02 -0.12540872896E+02  0.19219099715E+02  0.00000000000E+00 0. -1.
</event>
<event>
 7    1  0.1830715E-013  0.7246166E+02  0.7816164E-02  0.1226708E+00
        -11   -1    0    0    0    0  0.00000000000E+00  0.00000000000E+00  0.45593999997E+02  0.45594000000E+02  0.51100000000E-03 0.  1.
         11   -1    0    0    0    0 -0.00000000000E+00 -0.00000000000E+00 -0.45593999997E+02  0.45594000000E+02  0.51100000000E-03 0. -1.
    9900012    2    1    2    0    0 -0.22854050378E+01 -0.69896347691E+01 -0.17222009064E+02  0.72461663824E+02  0.70000121839E+02 0.  0.
        -12    1    1    2    0    0  0.22854050378E+01  0.69896347691E+01  0.17222009064E+02  0.18726336176E+02  0.00000000000E+00 0.  1.
         11    1    3    3    0    0  0.83458017418E+01 -0.23667270439E+02 -0.25864520385E+02  0.36038389417E+02  0.51100000000E-03 0. -1.
        -11    1    3    3    0    0 -0.14969095660E+02  0.17855282675E+02 -0.34208773139E+01  0.23549678259E+02  0.51100000000E-03 0.  1.
        -12    1    3    3    0    0  0.43378888803E+01 -0.11776470049E+01  0.12063388635E+02  0.12873596147E+02  0.00000000000E+00 0.  1.
</event>
<event>
 7    1  0.1830715E-013  0.7246156E+02  0.7816164E-02  0.1226708E+00
        -11   -1    0    0    0    0  0.00000000000E+00  0.00000000000E+00  0.45593999997E+02  0.45594000000E+02  0.51100000000E-03 0.  1.
         11   -1    0    0    0    0 -0.00000000000E+00 -0.00000000000E+00 -0.45593999997E+02  0.45594000000E+02  0.51100000000E-03 0. -1.
    9900012    2    1    2    0    0  0.68986520439E+01  0.38891964998E+01 -0.16969447828E+02  0.72461563900E+02  0.69999991670E+02 0.  0.
        -12    1    1    2    0    0 -0.68986520439E+01 -0.38891964998E+01  0.16969447828E+02  0.18726436100E+02  0.00000000000E+00 0.  1.
         11    1    3    3    0    0  0.71552491435E+00  0.14203325766E+02 -0.34497780780E+02  0.37314116869E+02  0.51100000000E-03 0. -1.
        -11    1    3    3    0    0  0.17066066565E+02 -0.78641768082E+01  0.14049121537E+02  0.23462176393E+02  0.51100000000E-03 0.  1.
        -12    1    3    3    0    0 -0.10882939435E+02 -0.24499524581E+01  0.34792114152E+01  0.11685270638E+02  0.00000000000E+00 0.  1.
</event>
<event>
 7    1  0.1830715E-013  0.7246156E+02  0.7816164E-02  0.1226708E+00
        -11   -1    0    0    0    0  0.00000000000E+00  0.00000000000E+00  0.45593999997E+02  0.45594000000E+02  0.51100000000E-03 0.  1.
         11   -1    0    0    0    0 -0.00000000000E+00 -0.00000000000E+00 -0.45593999997E+02  0.45594000000E+02  0.51100000000E-03 0. -1.
    9900012    2    1    2    0    0 -0.88229126500E+00 -0.17437550066E+02 -0.67699912732E+01  0.72461564887E+02  0.69999992956E+02 0.  0.
        -12    1    1    2    0    0  0.88229126500E+00  0.17437550066E+02  0.67699912732E+01  0.18726435113E+02  0.00000000000E+00 0.  1.
         11    1    3    3    0    0  0.89077794127E+01 -0.73390487447E+01 -0.15477913792E+02  0.19307407546E+02  0.51100000000E-03 0. -1.
        -11    1    3    3    0    0 -0.53808289516E+01  0.20642926122E+02  0.46564152592E+01  0.21834970172E+02  0.51100000000E-03 0.  1.
        -12    1    3    3    0    0 -0.44092417262E+01 -0.30741427444E+02  0.40515072592E+01  0.31319187169E+02  0.00000000000E+00 0.  1.
</event>
<event>
 7    1  0.1830715E-013  0.7246158E+02  0.7816164E-02  0.1226708E+00
        -11   -1    0    0    0    0  0.00000000000E+00  0.00000000000E+00  0.45593999997E+02  0.45594000000E+02  0.51100000000E-03 0.  1.
         11   -1    0    0    0    0 -0.00000000000E+00 -0.00000000000E+00 -0.45593999997E+02  0.45594000000E+02  0.51100000000E-03 0. -1.
    9900012    2    1    2    0    0 -0.74648562615E+01  0.16226951977E+02 -0.56250157145E+01  0.72461578792E+02  0.70000011070E+02 0.  0.
        -12    1    1    2    0    0  0.74648562615E+01 -0.16226951977E+02  0.56250157145E+01  0.18726421208E+02  0.00000000000E+00 0.  1.
         11    1    3    3    0    0 -0.40965564351E+01  0.12511117330E+02 -0.33551057579E+02  0.36041410855E+02  0.51100000000E-03 0. -1.
        -11    1    3    3    0    0 -0.13136771638E+02  0.12816478803E+01  0.17591979365E+02  0.21993070013E+02  0.51100000000E-03 0.  1.
        -12    1    3    3    0    0  0.97684718119E+01  0.24341867669E+01  0.10334062500E+02  0.14427097924E+02  0.00000000000E+00 0.  1.
</event>
<event>
 7    1  0.1830715E-013  0.7246157E+02  0.7816164E-02  0.1226708E+00
        -11   -1    0    0    0    0  0.00000000000E+00  0.00000000000E+00  0.45593999997E+02  0.45594000000E+02  0.51100000000E-03 0.  1.
         11   -1    0    0    0    0 -0.00000000000E+00 -0.00000000000E+00 -0.45593999997E+02  0.45594000000E+02  0.51100000000E-03 0. -1.
    9900012    2    1    2    0    0 -0.16922197439E+02  0.65622257811E+01 -0.46103920634E+01  0.72461567122E+02  0.69999995867E+02 0.  0.
        -12    1    1    2    0    0  0.16922197439E+02 -0.65622257811E+01  0.46103920634E+01  0.18726432878E+02  0.00000000000E+00 0.  1.
         11    1    3    3    0    0  0.11468857588E+02  0.21973313562E+00 -0.15761943372E+02  0.19494148767E+02  0.51100000000E-03 0. -1.
        -11    1    3    3    0    0 -0.10090289073E+02 -0.13626639937E+01  0.26163393068E+02  0.28074791608E+02  0.51100000000E-03 0.  1.
         12    1    3    3    0    0 -0.18300765955E+02  0.77051566393E+01 -0.15011841759E+02  0.24892626747E+02  0.00000000000E+00 0. -1.
</event>
<event>
 7    1  0.1830715E-013  0.7246157E+02  0.7816164E-02  0.1226708E+00
        -11   -1    0    0    0    0  0.00000000000E+00  0.00000000000E+00  0.45593999997E+02  0.45594000000E+02  0.51100000000E-03 0.  1.
         11   -1    0    0    0    0 -0.00000000000E+00 -0.00000000000E+00 -0.45593999997E+02  0.45594000000E+02  0.51100000000E-03 0. -1.
    9900012    2    1    2    0    0 -0.90488430318E+00  0.17954623681E+02 -0.52432549378E+01  0.72461573500E+02  0.70000004176E+02 0.  0.
        -12    1    1    2    0    0  0.90488430318E+00 -0.17954623681E+02  0.52432549378E+01  0.18726426500E+02  0.00000000000E+00 0.  1.
         11    1    3    3    0    0  0.71997569182E+01 -0.17605769340E+02 -0.24778016271E+01  0.19181739100E+02  0.51100000000E-03 0.  1.
        -11    1    3    3    0    0 -0.13263722951E+02  0.28381059416E+02 -0.17657666014E+02  0.35961146386E+02  0.51100000000E-03 0. -1.
         12    1    3    3    0    0  0.51590817294E+01  0.71793336051E+01  0.14892212703E+02  0.17318688013E+02  0.00000000000E+00 0. -1.
</event>
<event>
 7    1  0.1830715E-013  0.7246164E+02  0.7816164E-02  0.1226708E+00
        -11   -1    0    0    0    0  0.00000000000E+00  0.00000000000E+00  0.45593999997E+02  0.45594000000E+02  0.51100000000E-03 0.  1.
         11   -1    0    0    0    0 -0.00000000000E+00 -0.00000000000E+00 -0.45593999997E+02  0.45594000000E+02  0.51100000000E-03 0. -1.
    9900012    2    1    2    0    0 -0.12971208633E+02  0.11339081247E+02  0.73382175358E+01  0.72461642812E+02  0.70000094468E+02 0.  0.
        -12    1    1    2    0    0  0.12971208633E+02 -0.11339081247E+02 -0.73382175358E+01  0.18726357188E+02  0.00000000000E+00 0.  1.
         11    1    3    3    0    0 -0.28554504040E+02  0.12891690629E+02  0.66964043963E+01  0.32037434672E+02  0.51100000000E-03 0. -1.
        -11    1    3    3    0    0  0.15025468684E+02 -0.69766219034E+01  0.16665355166E+02  0.23498340908E+02  0.51100000000E-03 0.  1.
         12    1    3    3    0    0  0.55782672362E+00  0.54240125217E+01 -0.16023542027E+02  0.16925867233E+02  0.00000000000E+00 0. -1.
</event>
<event>
 7    1  0.1830715E-013  0.7246157E+02  0.7816164E-02  0.1226708E+00
        -11   -1    0    0    0    0  0.00000000000E+00  0.00000000000E+00  0.45593999997E+02  0.45594000000E+02  0.51100000000E-03 0.  1.
         11   -1    0    0    0    0 -0.00000000000E+00 -0.00000000000E+00 -0.45593999997E+02  0.45594000000E+02  0.51100000000E-03 0. -1.
    9900012    2    1    2    0    0 -0.28034718279E+01 -0.17585590421E+02 -0.57936692248E+01  0.72461573544E+02  0.70000004233E+02 0.  0.
        -12    1    1    2    0    0  0.28034718279E+01  0.17585590421E+02  0.57936692248E+01  0.18726426456E+02  0.00000000000E+00 0.  1.
         11    1    3    3    0    0  0.70081140277E+01 -0.10610911122E+02  0.20262408093E+02  0.23922171286E+02  0.51100000000E-03 0. -1.
        -11    1    3    3    0    0 -0.11793446222E+02  0.81792084783E+01 -0.29559961843E+02  0.32859947802E+02  0.51100000000E-03 0.  1.
        -12    1    3    3    0    0  0.19818603662E+01 -0.15153887777E+02  0.35038845250E+01  0.15679454456E+02  0.00000000000E+00 0.  1.
</event>
<event>
 7    1  0.1830715E-013  0.7246162E+02  0.7816164E-02  0.1226708E+00
        -11   -1    0    0    0    0  0.00000000000E+00  0.00000000000E+00  0.45593999997E+02  0.45594000000E+02  0.51100000000E-03 0.  1.
         11   -1    0    0    0    0 -0.00000000000E+00 -0.00000000000E+00 -0.45593999997E+02  0.45594000000E+02  0.51100000000E-03 0. -1.
    9900012    2    1    2    0    0  0.81136327615E+01 -0.75041902099E+01 -0.15117325552E+02  0.72461616496E+02  0.70000060186E+02 0.  0.
        -12    1    1    2    0    0 -0.81136327615E+01  0.75041902099E+01  0.15117325552E+02  0.18726383504E+02  0.00000000000E+00 0.  1.
         11    1    3    3    0    0 -0.13670421290E+02  0.23272049092E+02 -0.20757990201E+02  0.34049417685E+02  0.51100000000E-03 0. -1.
        -11    1    3    3    0    0  0.20003056941E+02 -0.25517575811E+02  0.52591668275E+01  0.32847036369E+02  0.51100000000E-03 0.  1.
         12    1    3    3    0    0  0.17809971107E+01 -0.52586634910E+01  0.38149782210E+00  0.55651624422E+01  0.00000000000E+00 0. -1.
</event>
<event>
 7    1  0.1830715E-013  0.7246166E+02  0.7816164E-02  0.1226708E+00
        -11   -1    0    0    0    0  0.00000000000E+00  0.00000000000E+00  0.45593999997E+02  0.45594000000E+02  0.51100000000E-03 0.  1.
         11   -1    0    0    0    0 -0.00000000000E+00 -0.00000000000E+00 -0.45593999997E+02  0.45594000000E+02  0.51100000000E-03 0. -1.
    9900012    2    1    2    0    0 -0.98672275540E+01  0.15880546372E+02  0.10592050466E+01  0.72461658979E+02  0.70000115529E+02 0.  0.
        -12    1    1    2    0    0  0.98672275540E+01 -0.15880546372E+02 -0.10592050466E+01  0.18726341021E+02  0.00000000000E+00 0.  1.
         11    1    3    3    0    0  0.14996198392E+00 -0.10517930102E+02 -0.24948034786E+02  0.27074965968E+02  0.51100000000E-03 0. -1.
        -11    1    3    3    0    0 -0.17046559182E+01  0.26973536062E+02  0.13127787902E+02  0.30046901920E+02  0.51100000000E-03 0.  1.
         12    1    3    3    0    0 -0.83125336197E+01 -0.57505958773E+00  0.12879451930E+02  0.15339791092E+02  0.00000000000E+00 0. -1.
</event>
<event>
 7    1  0.1966561E-013  0.7246156E+02  0.7816164E-02  0.1226708E+00
        -11   -1    0    0    0    0  0.00000000000E+00  0.00000000000E+00  0.45593999997E+02  0.45594000000E+02  0.51100000000E-03 0. -1.
         11   -1    0    0    0    0 -0.00000000000E+00 -0.00000000000E+00 -0.45593999997E+02  0.45594000000E+02  0.51100000000E-03 0.  1.
    9900012    2    1    2    0    0 -0.90535497719E+01  0.61350782581E+01  0.15201106866E+02  0.72461558837E+02  0.69999985074E+02 0.  0.
        -12    1    1    2    0    0  0.90535497719E+01 -0.61350782581E+01 -0.15201106866E+02  0.18726441163E+02  0.00000000000E+00 0.  1.
         11    1    3    3    0    0 -0.12047087184E+02  0.75574204267E+01  0.28021910151E+02  0.31424104790E+02  0.51100000000E-03 0. -1.
        -11    1    3    3    0    0  0.90816670279E+01 -0.17708615880E+02 -0.12777688974E+02  0.23650392981E+02  0.51100000000E-03 0.  1.
         12    1    3    3    0    0 -0.60881296161E+01  0.16286273711E+02 -0.43114310860E-01  0.17387061065E+02  0.00000000000E+00 0. -1.
</event>
<event>
 7    1  0.1830715E-013  0.7246155E+02  0.7816164E-02  0.1226708E+00
        -11   -1    0    0    0    0  0.00000000000E+00  0.00000000000E+00  0.45593999997E+02  0.45594000000E+02  0.51100000000E-03 0. -1.
         11   -1    0    0    0    0 -0.00000000000E+00 -0.00000000000E+00 -0.45593999997E+02  0.45594000000E+02  0.51100000000E-03 0.  1.
    9900012    2    1    2    0    0 -0.98337431884E+01 -0.53085024739E+01  0.15026553422E+02  0.72461547817E+02  0.69999970720E+02 0.  0.
        -12    1    1    2    0    0  0.98337431884E+01  0.53085024739E+01 -0.15026553422E+02  0.18726452183E+02  0.00000000000E+00 0.  1.
         11    1    3    3    0    0 -0.34687744130E+02 -0.11179693455E+02  0.19408263271E+02  0.41290505229E+02  0.51100000000E-03 0. -1.
        -11    1    3    3    0    0  0.28560144264E+01  0.76758562678E+01 -0.39552602360E+01  0.90950355494E+01  0.51100000000E-03 0.  1.
         12    1    3    3    0    0  0.21997986515E+02 -0.18046652869E+01 -0.42644961341E+00  0.22076007039E+02  0.00000000000E+00 0. -1.
</event>
<event>
 7    1  0.1830715E-013  0.7246155E+02  0.7816164E-02  0.1226708E+00
        -11   -1    0    0    0    0  0.00000000000E+00  0.00000000000E+00  0.45593999997E+02  0.45594000000E+02  0.51100000000E-03 0.  1.
         11   -1    0    0    0    0 -0.00000000000E+00 -0.00000000000E+00 -0.45593999997E+02  0.45594000000E+02  0.51100000000E-03 0. -1.
    9900012    2    1    2    0    0 -0.22016126882E+01  0.66965536662E+01 -0.17349038332E+02  0.72461546506E+02  0.69999969011E+02 0.  0.
        -12    1    1    2    0    0  0.22016126882E+01 -0.66965536662E+01  0.17349038332E+02  0.18726453494E+02  0.00000000000E+00 0.  1.
         11    1    3    3    0    0  0.12240578150E+02  0.10612826559E+01 -0.29642272599E+02  0.32087729733E+02  0.51100000000E-03 0. -1.
        -11    1    3    3    0    0  0.25989283930E+01 -0.60816053124E+01  0.17786360092E+02  0.18976168147E+02  0.51100000000E-03 0.  1.
        -12    1    3    3    0    0 -0.17041119231E+02  0.11716876323E+02 -0.54931258245E+01  0.21397648626E+02  0.00000000000E+00 0.  1.
</event>
<event>
 7    1  0.1830715E-013  0.7246157E+02  0.7816164E-02  0.1226708E+00
        -11   -1    0    0    0    0  0.00000000000E+00  0.00000000000E+00  0.45593999997E+02  0.45594000000E+02  0.51100000000E-03 0.  1.
         11   -1    0    0    0    0 -0.00000000000E+00 -0.00000000000E+00 -0.45593999997E+02  0.45594000000E+02  0.51100000000E-03 0. -1.
    9900012    2    1    2    0    0 -0.17308092714E+02  0.23595047778E+01 -0.67484590019E+01  0.72461573883E+02  0.70000004675E+02 0.  0.
        -12    1    1    2    0    0  0.17308092714E+02 -0.23595047778E+01  0.67484590019E+01  0.18726426117E+02  0.00000000000E+00 0.  1.
         11    1    3    3    0    0  0.26065160358E+01  0.12397908938E+02 -0.10308196690E+02  0.16332819448E+02  0.51100000000E-03 0. -1.
        -11    1    3    3    0    0 -0.40936307306E+01  0.31064903723E+01  0.25524414038E+02  0.26036585937E+02  0.51100000000E-03 0.  1.
        -12    1    3    3    0    0 -0.15820978020E+02 -0.13144894532E+02 -0.21964676350E+02  0.30092168498E+02  0.00000000000E+00 0.  1.
</event>
<event>
 7    1  0.1830715E-013  0.7246171E+02  0.7816164E-02  0.1226708E+00
        -11   -1    0    0    0    0  0.00000000000E+00  0.00000000000E+00  0.45593999997E+02  0.45594000000E+02  0.51100000000E-03 0.  1.
         11   -1    0    0    0    0 -0.00000000000E+00 -0.00000000000E+00 -0.45593999997E+02  0.45594000000E+02  0.51100000000E-03 0. -1.
    9900012    2    1    2    0    0  0.29187220046E+01 -0.10394180796E+02 -0.15300844208E+02  0.72461714569E+02  0.70000187944E+02 0.  0.
        -12    1    1    2    0    0 -0.29187220046E+01  0.10394180796E+02  0.15300844208E+02  0.18726285431E+02  0.00000000000E+00 0.  1.
         11    1    3    3    0    0  0.11093738819E+02  0.15970872644E+01 -0.26859030089E+02  0.29103766531E+02  0.51100000000E-03 0. -1.
        -11    1    3    3    0    0  0.45389937866E+01 -0.17913638474E+02  0.19804831925E+02  0.27087492978E+02  0.51100000000E-03 0.  1.
         12    1    3    3    0    0 -0.12714010601E+02  0.59223704140E+01 -0.82466460443E+01  0.16270455060E+02  0.00000000000E+00 0. -1.
</event>
<event>
 7    1  0.1830715E-013  0.7246160E+02  0.7816164E-02  0.1226708E+00
        -11   -1    0    0    0    0  0.00000000000E+00  0.00000000000E+00  0.45593999997E+02  0.45594000000E+02  0.51100000000E-03 0. -1.
         11   -1    0    0    0    0 -0.00000000000E+00 -0.00000000000E+00 -0.45593999997E+02  0.45594000000E+02  0.51100000000E-03 0.  1.
    9900012    2    1    2    0    0  0.12842724430E+02 -0.13616325564E+02  0.58159791800E+00  0.72461597549E+02  0.70000035504E+02 0.  0.
        -12    1    1    2    0    0 -0.12842724430E+02  0.13616325564E+02 -0.58159791800E+00  0.18726402451E+02  0.00000000000E+00 0.  1.
         11    1    3    3    0    0  0.26253367445E+02 -0.32570993591E+02 -0.41636507878E+01  0.42040990877E+02  0.51100000000E-03 0. -1.
        -11    1    3    3    0    0 -0.52430323480E+01  0.72000602018E+01  0.11538875403E+02  0.14576553123E+02  0.51100000000E-03 0.  1.
         12    1    3    3    0    0 -0.81676106676E+01  0.11754607826E+02 -0.67936266975E+01  0.15844053549E+02  0.00000000000E+00 0. -1.
</event>
<event>
 7    1  0.1830715E-013  0.7246158E+02  0.7816164E-02  0.1226708E+00
        -11   -1    0    0    0    0  0.00000000000E+00  0.00000000000E+00  0.45593999997E+02  0.45594000000E+02  0.51100000000E-03 0. -1.
         11   -1    0    0    0    0 -0.00000000000E+00 -0.00000000000E+00 -0.45593999997E+02  0.45594000000E+02  0.51100000000E-03 0.  1.
    9900012    2    1    2    0    0  0.40196539020E+00 -0.86688537923E+01  0.16594225769E+02  0.72461576660E+02  0.70000008292E+02 0.  0.
        -12    1    1    2    0    0 -0.40196539020E+00  0.86688537923E+01 -0.16594225769E+02  0.18726423340E+02  0.00000000000E+00 0.  1.
         11    1    3    3    0    0 -0.14384858031E+02 -0.14519231303E+02  0.22892684099E+02  0.30688877525E+02  0.51100000000E-03 0. -1.
        -11    1    3    3    0    0  0.19103104040E+02 -0.58236636029E+01  0.91221651643E+01  0.21955808782E+02  0.51100000000E-03 0.  1.
         12    1    3    3    0    0 -0.43162806192E+01  0.11674041113E+02 -0.15420623495E+02  0.19816890353E+02  0.00000000000E+00 0. -1.
</event>
<event>
 7    1  0.1830715E-013  0.7246157E+02  0.7816164E-02  0.1226708E+00
        -11   -1    0    0    0    0  0.00000000000E+00  0.00000000000E+00  0.45593999997E+02  0.45594000000E+02  0.51100000000E-03 0.  1.
         11   -1    0    0    0    0 -0.00000000000E+00 -0.00000000000E+00 -0.45593999997E+02  0.45594000000E+02  0.51100000000E-03 0. -1.
    9900012    2    1    2    0    0 -0.30322299711E+01 -0.14572816529E+02 -0.11363003887E+02  0.72461567944E+02  0.69999996939E+02 0.  0.
        -12    1    1    2    0    0  0.30322299711E+01  0.14572816529E+02  0.11363003887E+02  0.18726432056E+02  0.00000000000E+00 0.  1.
         11    1    3    3    0    0  0.12487952209E+02  0.15944720813E+02 -0.19017275717E+02  0.27782005834E+02  0.51100000000E-03 0.  1.
        -11    1    3    3    0    0 -0.19113930321E+02 -0.12221940815E+02  0.11809439511E+02  0.25576962905E+02  0.51100000000E-03 0. -1.
        -12    1    3    3    0    0  0.35937481406E+01 -0.18295596527E+02 -0.41551676808E+01  0.19102599206E+02  0.00000000000E+00 0.  1.
</event>
<event>
 7    1  0.1830715E-013  0.7246162E+02  0.7816164E-02  0.1226708E+00
        -11   -1    0    0    0    0  0.00000000000E+00  0.00000000000E+00  0.45593999997E+02  0.45594000000E+02  0.51100000000E-03 0.  1.
         11   -1    0    0    0    0 -0.00000000000E+00 -0.00000000000E+00 -0.45593999997E+02  0.45594000000E+02  0.51100000000E-03 0. -1.
    9900012    2    1    2    0    0  0.14167197447E+02  0.56005954641E+01 -0.10890412501E+02  0.72461621880E+02  0.70000067200E+02 0.  0.
        -12    1    1    2    0    0 -0.14167197447E+02 -0.56005954641E+01  0.10890412501E+02  0.18726378120E+02  0.00000000000E+00 0.  1.
         11    1    3    3    0    0  0.23855831026E+02  0.27994527095E+02 -0.18333589667E+02  0.41096407769E+02  0.51100000000E-03 0. -1.
        -11    1    3    3    0    0 -0.12163081710E+02 -0.91790441981E+01  0.92100267589E+01  0.17805055524E+02  0.51100000000E-03 0.  1.
        -12    1    3    3    0    0  0.24744481307E+01 -0.13214887433E+02 -0.17668495924E+01  0.13560158587E+02  0.00000000000E+00 0.  1.
</event>
<event>
 7    1  0.1830715E-013  0.7246157E+02  0.7816164E-02  0.1226708E+00
        -11   -1    0    0    0    0  0.00000000000E+00  0.00000000000E+00  0.45593999997E+02  0.45594000000E+02  0.51100000000E-03 0. -1.
         11   -1    0    0    0    0 -0.00000000000E+00 -0.00000000000E+00 -0.45593999997E+02  0.45594000000E+02  0.51100000000E-03 0.  1.
    9900012    2    1    2    0    0  0.76570047685E+01 -0.16973104507E+02 -0.19907566153E+01  0.72461571870E+02  0.70000002052E+02 0.  0.
        -12    1    1    2    0    0 -0.76570047685E+01  0.16973104507E+02  0.19907566153E+01  0.18726428130E+02  0.00000000000E+00 0.  1.
         11    1    3    3    0    0 -0.42004651411E+01  0.92781789259E+00  0.26686572179E+02  0.27031054149E+02  0.51100000000E-03 0. -1.
        -11    1    3    3    0    0  0.17540026337E+02 -0.31574468951E+01 -0.83408476634E+01  0.19677188183E+02  0.51100000000E-03 0.  1.
         12    1    3    3    0    0 -0.56825564270E+01 -0.14743475504E+02 -0.20336481131E+02  0.25753329538E+02  0.00000000000E+00 0. -1.
</event>
<event>
 7    1  0.1830715E-013  0.7246162E+02  0.7816164E-02  0.1226708E+00
        -11   -1    0    0    0    0  0.00000000000E+00  0.00000000000E+00  0.45593999997E+02  0.45594000000E+02  0.51100000000E-03 0.  1.
         11   -1    0    0    0    0 -0.00000000000E+00 -0.00000000000E+00 -0.45593999997E+02  0.45594000000E+02  0.51100000000E-03 0. -1.
    9900012    2    1    2    0    0  0.83148661199E+01  0.13748362539E+02 -0.96188747321E+01  0.72461622288E+02  0.70000067731E+02 0.  0.
        -12    1    1    2    0    0 -0.83148661199E+01 -0.13748362539E+02  0.96188747321E+01  0.18726377712E+02  0.00000000000E+00 0.  1.
         11    1    3    3    0    0  0.16688184646E+02  0.61344269741E+01 -0.24251161246E+02  0.30070675468E+02  0.51100000000E-03 0. -1.
        -11    1    3    3    0    0  0.82408317103E+01  0.12155061889E+02  0.19575951377E+02  0.24471916749E+02  0.51100000000E-03 0.  1.
        -12    1    3    3    0    0 -0.16614150237E+02 -0.45411263234E+01 -0.49436648635E+01  0.17919030070E+02  0.00000000000E+00 0.  1.
</event>
<event>
 7    1  0.1830715E-013  0.7246176E+02  0.7816164E-02  0.1226708E+00
        -11   -1    0    0    0    0  0.00000000000E+00  0.00000000000E+00  0.45593999997E+02  0.45594000000E+02  0.51100000000E-03 0. -1.
         11   -1    0    0    0    0 -0.00000000000E+00 -0.00000000000E+00 -0.45593999997E+02  0.45594000000E+02  0.51100000000E-03 0.  1.
    9900012    2    1    2    0    0 -0.11133272271E+02 -0.53524641134E+01  0.14073861700E+02  0.72461756204E+02  0.70000242182E+02 0.  0.
        -12    1    1    2    0    0  0.11133272271E+02  0.53524641134E+01 -0.14073861700E+02  0.18726243796E+02  0.00000000000E+00 0.  1.
         11    1    3    3    0    0 -0.17761650005E+02  0.19016457151E+01 -0.20073492001E+02  0.26870756386E+02  0.51100000000E-03 0.  1.
        -11    1    3    3    0    0  0.66074920992E+01  0.10437408036E+02  0.16400058269E+02  0.20531934878E+02  0.51100000000E-03 0. -1.
         12    1    3    3    0    0  0.20885635464E-01 -0.17691517864E+02  0.17747295432E+02  0.25059064941E+02  0.00000000000E+00 0. -1.
</event>
<event>
 7    1  0.1830715E-013  0.7246175E+02  0.7816164E-02  0.1226708E+00
        -11   -1    0    0    0    0  0.00000000000E+00  0.00000000000E+00  0.45593999997E+02  0.45594000000E+02  0.51100000000E-03 0.  1.
         11   -1    0    0    0    0 -0.00000000000E+00 -0.00000000000E+00 -0.45593999997E+02  0.45594000000E+02  0.51100000000E-03 0. -1.
    9900012    2    1    2    0    0 -0.42975129701E+01  0.10521391495E+02 -0.14883019873E+02  0.72461746310E+02  0.70000229293E+02 0.  0.
        -12    1    1    2    0    0  0.42975129701E+01 -0.10521391495E+02  0.14883019873E+02  0.18726253690E+02  0.00000000000E+00 0.  1.
         11    1    3    3    0    0 -0.15719356826E+02  0.14107611010E+02 -0.14685914705E+02  0.25725453513E+02  0.51100000000E-03 0. -1.
        -11    1    3    3    0    0 -0.10505670305E+02 -0.12337854026E+02  0.11998286082E+02  0.20163100448E+02  0.51100000000E-03 0.  1.
        -12    1    3    3    0    0  0.21927514161E+02  0.87516345101E+01 -0.12195391250E+02  0.26573192349E+02  0.00000000000E+00 0.  1.
</event>
<event>
 7    1  0.1830715E-013  0.7246160E+02  0.7816164E-02  0.1226708E+00
        -11   -1    0    0    0    0  0.00000000000E+00  0.00000000000E+00  0.45593999997E+02  0.45594000000E+02  0.51100000000E-03 0. -1.
         11   -1    0    0    0    0 -0.00000000000E+00 -0.00000000000E+00 -0.45593999997E+02  0.45594000000E+02  0.51100000000E-03 0.  1.
    9900012    2    1    2    0    0 -0.88071104733E+01 -0.59596617547E+01  0.15414128507E+02  0.72461598296E+02  0.70000036478E+02 0.  0.
        -12    1    1    2    0    0  0.88071104733E+01  0.59596617547E+01 -0.15414128507E+02  0.18726401704E+02  0.00000000000E+00 0.  1.
         11    1    3    3    0    0  0.20380411781E+02 -0.42527986598E+01  0.49927912631E+01  0.21409704474E+02  0.51100000000E-03 0.  1.
        -11    1    3    3    0    0 -0.18903694950E+02  0.16728582281E+02  0.15121196691E+02  0.29425256796E+02  0.51100000000E-03 0. -1.
         12    1    3    3    0    0 -0.10283827304E+02 -0.18435445376E+02 -0.46998594465E+01  0.21626637026E+02  0.00000000000E+00 0. -1.
</event>
<event>
 7    1  0.1830715E-013  0.7246159E+02  0.7816164E-02  0.1226708E+00
        -11   -1    0    0    0    0  0.00000000000E+00  0.00000000000E+00  0.45593999997E+02  0.45594000000E+02  0.51100000000E-03 0.  1.
         11   -1    0    0    0    0 -0.00000000000E+00 -0.00000000000E+00 -0.45593999997E+02  0.45594000000E+02  0.51100000000E-03 0. -1.
    9900012    2    1    2    0    0 -0.79711122400E+01 -0.15627433469E+02 -0.65515705885E+01  0.72461591258E+02  0.70000027309E+02 0.  0.
        -12    1    1    2    0    0  0.79711122400E+01  0.15627433469E+02  0.65515705885E+01  0.18726408742E+02  0.00000000000E+00 0.  1.
         11    1    3    3    0    0 -0.38289019729E+00 -0.27452718470E+02 -0.25351303239E+02  0.37369599041E+02  0.51100000000E-03 0. -1.
        -11    1    3    3    0    0 -0.46128871405E+01  0.10978372719E+02  0.25261702549E+02  0.27927710455E+02  0.51100000000E-03 0.  1.
        -12    1    3    3    0    0 -0.29753349023E+01  0.84691228128E+00 -0.64619698991E+01  0.71642817623E+01  0.00000000000E+00 0.  1.
</event>
<event>
 7    1  0.1830715E-013  0.7246155E+02  0.7816164E-02  0.1226708E+00
        -11   -1    0    0    0    0  0.00000000000E+00  0.00000000000E+00  0.45593999997E+02  0.45594000000E+02  0.51100000000E-03 0. -1.
         11   -1    0    0    0    0 -0.00000000000E+00 -0.00000000000E+00 -0.45593999997E+02  0.45594000000E+02  0.51100000000E-03 0.  1.
    9900012    2    1    2    0    0 -0.88973248858E+01  0.13227999437E+02  0.98253537885E+01  0.72461549821E+02  0.69999973330E+02 0.  0.
        -12    1    1    2    0    0  0.88973248858E+01 -0.13227999437E+02 -0.98253537885E+01  0.18726450179E+02  0.00000000000E+00 0.  1.
         11    1    3    3    0    0 -0.90598956959E+01  0.32351107794E+02  0.17350409587E+02  0.37811540548E+02  0.51100000000E-03 0. -1.
        -11    1    3    3    0    0  0.24756711239E+01 -0.81413091263E+01 -0.17612264216E+02  0.19560207384E+02  0.51100000000E-03 0.  1.
         12    1    3    3    0    0 -0.23131003139E+01 -0.10981799230E+02  0.10087208418E+02  0.15089801890E+02  0.00000000000E+00 0. -1.
</event>
<event>
 7    1  0.1830715E-013  0.7246159E+02  0.7816164E-02  0.1226708E+00
        -11   -1    0    0    0    0  0.00000000000E+00  0.00000000000E+00  0.45593999997E+02  0.45594000000E+02  0.51100000000E-03 0.  1.
         11   -1    0    0    0    0 -0.00000000000E+00 -0.00000000000E+00 -0.45593999997E+02  0.45594000000E+02  0.51100000000E-03 0. -1.
    9900012    2    1    2    0    0  0.34671899531E+01  0.55025536398E+00 -0.18394411437E+02  0.72461586589E+02  0.70000021227E+02 0.  0.
        -12    1    1    2    0    0 -0.34671899531E+01 -0.55025536398E+00  0.18394411437E+02  0.18726413411E+02  0.00000000000E+00 0.  1.
         11    1    3    3    0    0  0.22208583462E+02  0.14034547796E+02 -0.14639749486E+02  0.30075105594E+02  0.51100000000E-03 0. -1.
        -11    1    3    3    0    0 -0.20644857338E+02  0.27612155134E+01  0.79276110668E+01  0.22286351498E+02  0.51100000000E-03 0.  1.
         12    1    3    3    0    0  0.19034638292E+01 -0.16245507945E+02 -0.11682273017E+02  0.20100129497E+02  0.00000000000E+00 0. -1.
</event>
<event>
 7    1  0.1830715E-013  0.7246158E+02  0.7816164E-02  0.1226708E+00
        -11   -1    0    0    0    0  0.00000000000E+00  0.00000000000E+00  0.45593999997E+02  0.45594000000E+02  0.51100000000E-03 0.  1.
         11   -1    0    0    0    0 -0.00000000000E+00 -0.00000000000E+00 -0.45593999997E+02  0.45594000000E+02  0.51100000000E-03 0. -1.
    9900012    2    1    2    0    0 -0.93459822545E+01 -0.15568640452E+02 -0.45769857215E+01  0.72461581546E+02  0.70000014657E+02 0.  0.
        -12    1    1    2    0    0  0.93459822545E+01  0.15568640452E+02  0.45769857215E+01  0.18726418454E+02  0.00000000000E+00 0.  1.
         11    1    3    3    0    0 -0.35529343087E+02  0.58789790252E+01 -0.35274729919E+01  0.36184799026E+02  0.51100000000E-03 0.  1.
        -11    1    3    3    0    0  0.17947201680E+02 -0.10483424740E+02  0.48587934964E+01  0.21345072427E+02  0.51100000000E-03 0. -1.
         12    1    3    3    0    0  0.82361591530E+01 -0.10964194737E+02 -0.59083062261E+01  0.14931710093E+02  0.00000000000E+00 0. -1.
</event>
<event>
 7    1  0.1830715E-013  0.7246138E+02  0.7816164E-02  0.1226709E+00
        -11   -1    0    0    0    0  0.00000000000E+00  0.00000000000E+00  0.45593999997E+02  0.45594000000E+02  0.51100000000E-03 0. -1.
         11   -1    0    0    0    0 -0.00000000000E+00 -0.00000000000E+00 -0.45593999997E+02  0.45594000000E+02  0.51100000000E-03 0.  1.
    9900012    2    1    2    0    0 -0.65777155071E+01 -0.12631056771E+02  0.12160438428E+02  0.72461382601E+02  0.69999755494E+02 0.  0.
        -12    1    1    2    0    0  0.65777155071E+01  0.12631056771E+02 -0.12160438428E+02  0.18726617399E+02  0.00000000000E+00 0.  1.
         11    1    3    3    0    0 -0.28983742316E+02  0.44396105731E+01 -0.15559289226E+01  0.29363044389E+02  0.51100000000E-03 0.  1.
        -11    1    3    3    0    0  0.17752408521E+02 -0.19543597315E+02  0.21258672250E+02  0.33897364948E+02  0.51100000000E-03 0. -1.
         12    1    3    3    0    0  0.46536182880E+01  0.24729299709E+01 -0.75423048999E+01  0.92009732645E+01  0.00000000000E+00 0. -1.
</event>
<event>
 7    1  0.1830715E-013  0.7246154E+02  0.7816164E-02  0.1226708E+00
        -11   -1    0    0    0    0  0.00000000000E+00  0.00000000000E+00  0.45593999997E+02  0.45594000000E+02  0.51100000000E-03 0.  1.
         11   -1    0    0    0    0 -0.00000000000E+00 -0.00000000000E+00 -0.45593999997E+02  0.45594000000E+02  0.51100000000E-03 0. -1.
    9900012    2    1    2    0    0 -0.42694259838E+01  0.10237742905E+02 -0.15087771275E+02  0.72461542244E+02  0.69999963460E+02 0.  0.
        -12    1    1    2    0    0  0.42694259838E+01 -0.10237742905E+02  0.15087771275E+02  0.18726457756E+02  0.00000000000E+00 0.  1.
         11    1    3    3    0    0 -0.15161355015E+02 -0.43283631462E+00 -0.10443612791E+01  0.15203444475E+02  0.51100000000E-03 0. -1.
        -11    1    3    3    0    0  0.25463887949E+02  0.21534328079E+02  0.14422555475E+01  0.33379888805E+02  0.51100000000E-03 0.  1.
        -12    1    3    3    0    0 -0.14571958918E+02 -0.10863748859E+02 -0.15485665544E+02  0.23878208964E+02  0.00000000000E+00 0.  1.
</event>
<event>
 7    1  0.1830715E-013  0.7246165E+02  0.7816164E-02  0.1226708E+00
        -11   -1    0    0    0    0  0.00000000000E+00  0.00000000000E+00  0.45593999997E+02  0.45594000000E+02  0.51100000000E-03 0.  1.
         11   -1    0    0    0    0 -0.00000000000E+00 -0.00000000000E+00 -0.45593999997E+02  0.45594000000E+02  0.51100000000E-03 0. -1.
    9900012    2    1    2    0    0 -0.69768194099E+01 -0.17308790974E+02  0.15510711381E+01  0.72461652900E+02  0.70000107609E+02 0.  0.
        -12    1    1    2    0    0  0.69768194099E+01  0.17308790974E+02 -0.15510711381E+01  0.18726347100E+02  0.00000000000E+00 0.  1.
         11    1    3    3    0    0 -0.13049711676E+02  0.57051501043E+01  0.16372637604E+02  0.21700391123E+02  0.51100000000E-03 0. -1.
        -11    1    3    3    0    0 -0.23799566290E+01 -0.33248485193E+02 -0.16821570087E+02  0.37337530471E+02  0.51100000000E-03 0.  1.
         12    1    3    3    0    0  0.84528488946E+01  0.10234544115E+02  0.20000036205E+01  0.13423731306E+02  0.00000000000E+00 0. -1.
</event>
<event>
 7    1  0.1830715E-013  0.7246141E+02  0.7816164E-02  0.1226708E+00
        -11   -1    0    0    0    0  0.00000000000E+00  0.00000000000E+00  0.45593999997E+02  0.45594000000E+02  0.51100000000E-03 0.  1.
         11   -1    0    0    0    0 -0.00000000000E+00 -0.00000000000E+00 -0.45593999997E+02  0.45594000000E+02  0.51100000000E-03 0. -1.
    9900012    2    1    2    0    0 -0.40827807675E-02  0.18726143822E+02 -0.12944492286E+00  0.72461408342E+02  0.69999789027E+02 0.  0.
        -12    1    1    2    0    0  0.40827807675E-02 -0.18726143822E+02  0.12944492286E+00  0.18726591658E+02  0.00000000000E+00 0.  1.
         11    1    3    3    0    0  0.13426628703E+02  0.22397915906E+02  0.43315464511E+00  0.26117592126E+02  0.51100000000E-03 0. -1.
        -11    1    3    3    0    0 -0.25188098915E+02 -0.11803384402E+02  0.88937518108E+01  0.29203750304E+02  0.51100000000E-03 0.  1.
        -12    1    3    3    0    0  0.11757387431E+02  0.81316123183E+01 -0.94563513787E+01  0.17140065913E+02  0.00000000000E+00 0.  1.
</event>
<event>
 7    1  0.1830715E-013  0.7246148E+02  0.7816164E-02  0.1226708E+00
        -11   -1    0    0    0    0  0.00000000000E+00  0.00000000000E+00  0.45593999997E+02  0.45594000000E+02  0.51100000000E-03 0.  1.
         11   -1    0    0    0    0 -0.00000000000E+00 -0.00000000000E+00 -0.45593999997E+02  0.45594000000E+02  0.51100000000E-03 0. -1.
    9900012    2    1    2    0    0 -0.15615388857E+01  0.18653906958E+02  0.52534513002E+00  0.72461477739E+02  0.69999879430E+02 0.  0.
        -12    1    1    2    0    0  0.15615388857E+01 -0.18653906958E+02 -0.52534513002E+00  0.18726522261E+02  0.00000000000E+00 0.  1.
         11    1    3    3    0    0 -0.19186287981E+02  0.14793208436E+02  0.20478661740E+02  0.31722677208E+02  0.51100000000E-03 0.  1.
        -11    1    3    3    0    0  0.15429360146E+02  0.16553514458E+02 -0.13110307476E+02  0.26152708422E+02  0.51100000000E-03 0. -1.
         12    1    3    3    0    0  0.21953889497E+01 -0.12692815936E+02 -0.68430091343E+01  0.14586092110E+02  0.00000000000E+00 0. -1.
</event>
<event>
 7    1  0.1830715E-013  0.7246158E+02  0.7816164E-02  0.1226708E+00
        -11   -1    0    0    0    0  0.00000000000E+00  0.00000000000E+00  0.45593999997E+02  0.45594000000E+02  0.51100000000E-03 0.  1.
         11   -1    0    0    0    0 -0.00000000000E+00 -0.00000000000E+00 -0.45593999997E+02  0.45594000000E+02  0.51100000000E-03 0. -1.
    9900012    2    1    2    0    0  0.58091590333E+01 -0.17725177587E+02  0.16584416607E+01  0.72461583421E+02  0.70000017100E+02 0.  0.
        -12    1    1    2    0    0 -0.58091590333E+01  0.17725177587E+02 -0.16584416607E+01  0.18726416579E+02  0.00000000000E+00 0.  1.
         11    1    3    3    0    0 -0.91594783480E-01 -0.95943906817E+01  0.74300887075E+01  0.12135359106E+02  0.51100000000E-03 0.  1.
        -11    1    3    3    0    0  0.12337407439E+02 -0.26934674535E+02 -0.20120941522E+02  0.35812576040E+02  0.51100000000E-03 0. -1.
        -12    1    3    3    0    0 -0.64366536220E+01  0.18803887630E+02  0.14349294475E+02  0.24513648276E+02  0.00000000000E+00 0.  1.
</event>
<event>
 7    1  0.1830715E-013  0.7246157E+02  0.7816164E-02  0.1226708E+00
        -11   -1    0    0    0    0  0.00000000000E+00  0.00000000000E+00  0.45593999997E+02  0.45594000000E+02  0.51100000000E-03 0. -1.
         11   -1    0    0    0    0 -0.00000000000E+00 -0.00000000000E+00 -0.45593999997E+02  0.45594000000E+02  0.51100000000E-03 0.  1.
    9900012    2    1    2    0    0  0.42368852738E+01 -0.69209228980E+01  0.16876870432E+02  0.72461571452E+02  0.70000001508E+02 0.  0.
        -12    1    1    2    0    0 -0.42368852738E+01  0.69209228980E+01 -0.16876870432E+02  0.18726428548E+02  0.00000000000E+00 0.  1.
         11    1    3    3    0    0  0.10095323427E+02 -0.25594749076E+02 -0.23016928058E+01  0.27609862829E+02  0.51100000000E-03 0.  1.
        -11    1    3    3    0    0  0.89274486402E+01  0.15035095627E+02  0.23248333870E+02  0.29090178200E+02  0.51100000000E-03 0. -1.
         12    1    3    3    0    0 -0.14785886793E+02  0.36387305515E+01 -0.40697706322E+01  0.15761530423E+02  0.00000000000E+00 0. -1.
</event>
<event>
 7    1  0.1830715E-013  0.7246156E+02  0.7816164E-02  0.1226708E+00
        -11   -1    0    0    0    0  0.00000000000E+00  0.00000000000E+00  0.45593999997E+02  0.45594000000E+02  0.51100000000E-03 0.  1.
         11   -1    0    0    0    0 -0.00000000000E+00 -0.00000000000E+00 -0.45593999997E+02  0.45594000000E+02  0.51100000000E-03 0. -1.
    9900012    2    1    2    0    0  0.49666758087E+01  0.58872764513E+00 -0.18046192636E+02  0.72461560469E+02  0.69999987201E+02 0.  0.
        -12    1    1    2    0    0 -0.49666758087E+01 -0.58872764513E+00  0.18046192636E+02  0.18726439531E+02  0.00000000000E+00 0.  1.
         11    1    3    3    0    0  0.15964556315E+02  0.70576228750E+01 -0.12170802317E+02  0.21279227624E+02  0.51100000000E-03 0. -1.
        -11    1    3    3    0    0 -0.26291265474E+02  0.10066990831E+02 -0.11993987582E+01  0.28178245194E+02  0.51100000000E-03 0.  1.
        -12    1    3    3    0    0  0.15293384967E+02 -0.16535886061E+02 -0.46759915611E+01  0.23004087651E+02  0.00000000000E+00 0.  1.
</event>
<event>
 7    1  0.1973313E-013  0.7246162E+02  0.7816164E-02  0.1226708E+00
        -11   -1    0    0    0    0  0.00000000000E+00  0.00000000000E+00  0.45593999997E+02  0.45594000000E+02  0.51100000000E-03 0. -1.
         11   -1    0    0    0    0 -0.00000000000E+00 -0.00000000000E+00 -0.45593999997E+02  0.45594000000E+02  0.51100000000E-03 0.  1.
    9900012    2    1    2    0    0 -0.56863583561E+00 -0.54369969276E+01  0.17910696942E+02  0.72461618949E+02  0.70000063382E+02 0.  0.
        -12    1    1    2    0    0  0.56863583561E+00  0.54369969276E+01 -0.17910696942E+02  0.18726381051E+02  0.00000000000E+00 0.  1.
         11    1    3    3    0    0  0.43748708960E+00 -0.72973557830E+01  0.32883738025E+02  0.33686540682E+02  0.51100000000E-03 0. -1.
        -11    1    3    3    0    0 -0.11224012580E+01 -0.16155840537E+02 -0.12770892961E+02  0.20624419394E+02  0.51100000000E-03 0.  1.
         12    1    3    3    0    0  0.11627833279E+00  0.18016199392E+02 -0.22021481211E+01  0.18150658874E+02  0.00000000000E+00 0. -1.
</event>
<event>
 7    1  0.1830715E-013  0.7246154E+02  0.7816164E-02  0.1226708E+00
        -11   -1    0    0    0    0  0.00000000000E+00  0.00000000000E+00  0.45593999997E+02  0.45594000000E+02  0.51100000000E-03 0. -1.
         11   -1    0    0    0    0 -0.00000000000E+00 -0.00000000000E+00 -0.45593999997E+02  0.45594000000E+02  0.51100000000E-03 0.  1.
    9900012    2    1    2    0    0  0.89637859750E+01 -0.15589754707E+02  0.52240222436E+01  0.72461539597E+02  0.69999960011E+02 0.  0.
        -12    1    1    2    0    0 -0.89637859750E+01  0.15589754707E+02 -0.52240222436E+01  0.18726460403E+02  0.00000000000E+00 0.  1.
         11    1    3    3    0    0 -0.21097296925E+02 -0.18407150175E+02 -0.24654004040E+01  0.28106890873E+02  0.51100000000E-03 0. -1.
        -11    1    3    3    0    0  0.20158190092E+01  0.13453264894E+02  0.11210349441E+01  0.13649563443E+02  0.51100000000E-03 0.  1.
         12    1    3    3    0    0  0.28045263890E+02 -0.10635869425E+02  0.65683877034E+01  0.30705085281E+02  0.00000000000E+00 0. -1.
</event>
<event>
 7    1  0.1830715E-013  0.7246157E+02  0.7816164E-02  0.1226708E+00
        -11   -1    0    0    0    0  0.00000000000E+00  0.00000000000E+00  0.45593999997E+02  0.45594000000E+02  0.51100000000E-03 0.  1.
         11   -1    0    0    0    0 -0.00000000000E+00 -0.00000000000E+00 -0.45593999997E+02  0.45594000000E+02  0.51100000000E-03 0. -1.
    9900012    2    1    2    0    0 -0.44479094134E+01 -0.53956642178E+01 -0.17371880134E+02  0.72461566546E+02  0.69999995118E+02 0.  0.
        -12    1    1    2    0    0  0.44479094134E+01  0.53956642178E+01  0.17371880134E+02  0.18726433454E+02  0.00000000000E+00 0.  1.
         11    1    3    3    0    0  0.14556866658E+02 -0.15678946571E+02 -0.98042314451E+00  0.21417118440E+02  0.51100000000E-03 0. -1.
        -11    1    3    3    0    0 -0.95899738417E+01  0.26587654472E+02 -0.15408269785E+02  0.32191392431E+02  0.51100000000E-03 0.  1.
        -12    1    3    3    0    0 -0.94148022296E+01 -0.16304372119E+02 -0.98318720481E+00  0.18853055675E+02  0.00000000000E+00 0.  1.
</event>
<event>
 7    1  0.1830715E-013  0.7246166E+02  0.7816164E-02  0.1226708E+00
        -11   -1    0    0    0    0  0.00000000000E+00  0.00000000000E+00  0.45593999997E+02  0.45594000000E+02  0.51100000000E-03 0.  1.
         11   -1    0    0    0    0 -0.00000000000E+00 -0.00000000000E+00 -0.45593999997E+02  0.45594000000E+02  0.51100000000E-03 0. -1.
    9900012    2    1    2    0    0  0.84480596720E+01  0.56749119915E+01 -0.15719456882E+02  0.72461663920E+02  0.70000121964E+02 0.  0.
        -12    1    1    2    0    0 -0.84480596720E+01 -0.56749119915E+01  0.15719456882E+02  0.18726336080E+02  0.00000000000E+00 0.  1.
         11    1    3    3    0    0  0.16631856602E+02 -0.22384601494E+02  0.73313587952E+01  0.28834664210E+02  0.51100000000E-03 0. -1.
        -11    1    3    3    0    0 -0.24027805073E+01  0.17755184795E+02 -0.21805390196E+00  0.17918356203E+02  0.51100000000E-03 0.  1.
         12    1    3    3    0    0 -0.57810164228E+01  0.10304328690E+02 -0.22832761775E+02  0.25708643506E+02  0.00000000000E+00 0. -1.
</event>
<event>
 7    1  0.1830715E-013  0.7246162E+02  0.7816164E-02  0.1226708E+00
        -11   -1    0    0    0    0  0.00000000000E+00  0.00000000000E+00  0.45593999997E+02  0.45594000000E+02  0.51100000000E-03 0. -1.
         11   -1    0    0    0    0 -0.00000000000E+00 -0.00000000000E+00 -0.45593999997E+02  0.45594000000E+02  0.51100000000E-03 0.  1.
    9900012    2    1    2    0    0  0.32999912985E+01 -0.18319292990E+02  0.20471390698E+01  0.72461622438E+02  0.70000067926E+02 0.  0.
        -12    1    1    2    0    0 -0.32999912985E+01  0.18319292990E+02 -0.20471390698E+01  0.18726377562E+02  0.00000000000E+00 0.  1.
         11    1    3    3    0    0 -0.23143459359E+01  0.33494930347E+01  0.94014695102E+01  0.10245141771E+02  0.51100000000E-03 0. -1.
        -11    1    3    3    0    0 -0.96383332936E+01 -0.37975452809E+02 -0.74838127314E+01  0.39887841982E+02  0.51100000000E-03 0.  1.
        -12    1    3    3    0    0  0.15252670528E+02  0.16306666784E+02  0.12948229106E+00  0.22328638684E+02  0.00000000000E+00 0.  1.
</event>
<event>
 7    1  0.1830715E-013  0.7246167E+02  0.7816164E-02  0.1226708E+00
        -11   -1    0    0    0    0  0.00000000000E+00  0.00000000000E+00  0.45593999997E+02  0.45594000000E+02  0.51100000000E-03 0.  1.
         11   -1    0    0    0    0 -0.00000000000E+00 -0.00000000000E+00 -0.45593999997E+02  0.45594000000E+02  0.51100000000E-03 0. -1.
    9900012    2    1    2    0    0 -0.55475958902E-02 -0.17612454350E+02  0.63621518384E+01  0.72461666803E+02  0.70000125720E+02 0.  0.
        -12    1    1    2    0    0  0.55475958902E-02  0.17612454350E+02 -0.63621518384E+01  0.18726333197E+02  0.00000000000E+00 0.  1.
         11    1    3    3    0    0  0.11645863900E+02 -0.41182563348E+02 -0.30731045058E+01  0.42907734052E+02  0.51100000000E-03 0. -1.
        -11    1    3    3    0    0 -0.96599804566E+01  0.13980075949E+02  0.10045967942E+02  0.19740294276E+02  0.51100000000E-03 0.  1.
         12    1    3    3    0    0 -0.19914310391E+01  0.95900330497E+01 -0.61071159734E+00  0.98136384757E+01  0.00000000000E+00 0. -1.
</event>
<event>
 7    1  0.1830715E-013  0.7246160E+02  0.7816164E-02  0.1226708E+00
        -11   -1    0    0    0    0  0.00000000000E+00  0.00000000000E+00  0.45593999997E+02  0.45594000000E+02  0.51100000000E-03 0. -1.
         11   -1    0    0    0    0 -0.00000000000E+00 -0.00000000000E+00 -0.45593999997E+02  0.45594000000E+02  0.51100000000E-03 0.  1.
    9900012    2    1    2    0    0 -0.70431620704E+01 -0.10138605856E+02  0.14081207684E+02  0.72461604979E+02  0.70000045183E+02 0.  0.
        -12    1    1    2    0    0  0.70431620704E+01  0.10138605856E+02 -0.14081207684E+02  0.18726395021E+02  0.00000000000E+00 0.  1.
         11    1    3    3    0    0  0.15013017864E+02 -0.19160461983E+02 -0.12797044784E+02  0.27500515709E+02  0.51100000000E-03 0. -1.
        -11    1    3    3    0    0 -0.10668227601E+02  0.49298514393E+01 -0.34992604463E+01  0.12262109904E+02  0.51100000000E-03 0.  1.
         12    1    3    3    0    0 -0.11387952334E+02  0.40920046882E+01  0.30377512914E+02  0.32698979366E+02  0.00000000000E+00 0. -1.
</event>
<event>
 7    1  0.1830715E-013  0.7246159E+02  0.7816164E-02  0.1226708E+00
        -11   -1    0    0    0    0  0.00000000000E+00  0.00000000000E+00  0.45593999997E+02  0.45594000000E+02  0.51100000000E-03 0. -1.
         11   -1    0    0    0    0 -0.00000000000E+00 -0.00000000000E+00 -0.45593999997E+02  0.45594000000E+02  0.51100000000E-03 0.  1.
    9900012    2    1    2    0    0  0.12232913375E+02 -0.13994067549E+02  0.22804277716E+01  0.72461589585E+02  0.70000025130E+02 0.  0.
        -12    1    1    2    0    0 -0.12232913375E+02  0.13994067549E+02 -0.22804277716E+01  0.18726410415E+02  0.00000000000E+00 0.  1.
         11    1    3    3    0    0  0.14722557404E+02 -0.14346326522E+02 -0.16966845803E+02  0.26654167366E+02  0.51100000000E-03 0. -1.
        -11    1    3    3    0    0  0.74912395902E+01  0.18910727753E+02  0.74792829026E+01  0.21671962711E+02  0.51100000000E-03 0.  1.
        -12    1    3    3    0    0 -0.99808836196E+01 -0.18558468779E+02  0.11767990672E+02  0.24135459509E+02  0.00000000000E+00 0.  1.
</event>
<event>
 7    1  0.2002167E-013  0.7246151E+02  0.7816164E-02  0.1226708E+00
        -11   -1    0    0    0    0  0.00000000000E+00  0.00000000000E+00  0.45593999997E+02  0.45594000000E+02  0.51100000000E-03 0. -1.
         11   -1    0    0    0    0 -0.00000000000E+00 -0.00000000000E+00 -0.45593999997E+02  0.45594000000E+02  0.51100000000E-03 0.  1.
    9900012    2    1    2    0    0 -0.14157700666E+02 -0.10742762998E+01  0.12210116816E+02  0.72461507793E+02  0.69999918581E+02 0.  0.
        -12    1    1    2    0    0  0.14157700666E+02  0.10742762998E+01 -0.12210116816E+02  0.18726492207E+02  0.00000000000E+00 0.  1.
         11    1    3    3    0    0  0.54077898224E+01  0.23562918141E+02  0.74713410784E+01  0.25303680362E+02  0.51100000000E-03 0. -1.
        -11    1    3    3    0    0 -0.18440085662E+02 -0.84879428648E+01 -0.12235163010E+02  0.23701922864E+02  0.51100000000E-03 0.  1.
         12    1    3    3    0    0 -0.11254048263E+01 -0.16149251576E+02  0.16973938748E+02  0.23455904568E+02  0.00000000000E+00 0. -1.
</event>
<event>
 7    1  0.1830715E-013  0.7246144E+02  0.7816164E-02  0.1226708E+00
        -11   -1    0    0    0    0  0.00000000000E+00  0.00000000000E+00  0.45593999997E+02  0.45594000000E+02  0.51100000000E-03 0. -1.
         11   -1    0    0    0    0 -0.00000000000E+00 -0.00000000000E+00 -0.45593999997E+02  0.45594000000E+02  0.51100000000E-03 0.  1.
    9900012    2    1    2    0    0 -0.18113612961E+02 -0.47485856718E+01 -0.17875033569E+00  0.72461441532E+02  0.69999832263E+02 0.  0.
        -12    1    1    2    0    0  0.18113612961E+02  0.47485856718E+01  0.17875033569E+00  0.18726558468E+02  0.00000000000E+00 0.  1.
         11    1    3    3    0    0 -0.20762790931E+02 -0.13323575019E+02  0.15577180516E+02  0.29176355009E+02  0.51100000000E-03 0. -1.
        -11    1    3    3    0    0  0.22740532081E+01 -0.68161066663E+01 -0.24532744866E+02  0.25563376127E+02  0.51100000000E-03 0.  1.
        -12    1    3    3    0    0  0.37512476248E+00  0.15391096014E+02  0.87768140147E+01  0.17721710396E+02  0.00000000000E+00 0.  1.
</event>
<event>
 7    1  0.1830715E-013  0.7246161E+02  0.7816164E-02  0.1226708E+00
        -11   -1    0    0    0    0  0.00000000000E+00  0.00000000000E+00  0.45593999997E+02  0.45594000000E+02  0.51100000000E-03 0. -1.
         11   -1    0    0    0    0 -0.00000000000E+00 -0.00000000000E+00 -0.45593999997E+02  0.45594000000E+02  0.51100000000E-03 0.  1.
    9900012    2    1    2    0    0 -0.64223307115E+01 -0.11443516991E+02  0.13359541223E+02  0.72461608073E+02  0.70000049214E+02 0.  0.
        -12    1    1    2    0    0  0.64223307115E+01  0.11443516991E+02 -0.13359541223E+02  0.18726391927E+02  0.00000000000E+00 0.  1.
         11    1    3    3    0    0  0.40778680410E+00 -0.37001011456E+02  0.19443285035E+02  0.41800508036E+02  0.51100000000E-03 0. -1.
        -11    1    3    3    0    0 -0.57866826894E+01  0.56444016931E+01 -0.70091697135E+01  0.10699225549E+02  0.51100000000E-03 0.  1.
         12    1    3    3    0    0 -0.10434348262E+01  0.19913092772E+02  0.92542590169E+00  0.19961874488E+02  0.00000000000E+00 0. -1.
</event>
<event>
 7    1  0.1830715E-013  0.7246158E+02  0.7816164E-02  0.1226708E+00
        -11   -1    0    0    0    0  0.00000000000E+00  0.00000000000E+00  0.45593999997E+02  0.45594000000E+02  0.51100000000E-03 0.  1.
         11   -1    0    0    0    0 -0.00000000000E+00 -0.00000000000E+00 -0.45593999997E+02  0.45594000000E+02  0.51100000000E-03 0. -1.
    9900012    2    1    2    0    0  0.50790331337E+01 -0.68501029467E+00 -0.18011464969E+02  0.72461583178E+02  0.70000016783E+02 0.  0.
        -12    1    1    2    0    0 -0.50790331337E+01  0.68501029467E+00  0.18011464969E+02  0.18726416822E+02  0.00000000000E+00 0.  1.
         11    1    3    3    0    0  0.62115221931E+01  0.18713646836E+02  0.30915309451E+01  0.19958485657E+02  0.51100000000E-03 0. -1.
        -11    1    3    3    0    0 -0.20085406157E+02 -0.19438369639E+02 -0.18135543981E+02  0.33319239344E+02  0.51100000000E-03 0.  1.
         12    1    3    3    0    0  0.18952917098E+02  0.39712508552E-01 -0.29674519329E+01  0.19183858177E+02  0.00000000000E+00 0. -1.
</event>
<event>
 7    1  0.1830715E-013  0.7246154E+02  0.7816164E-02  0.1226708E+00
        -11   -1    0    0    0    0  0.00000000000E+00  0.00000000000E+00  0.45593999997E+02  0.45594000000E+02  0.51100000000E-03 0.  1.
         11   -1    0    0    0    0 -0.00000000000E+00 -0.00000000000E+00 -0.45593999997E+02  0.45594000000E+02  0.51100000000E-03 0. -1.
    9900012    2    1    2    0    0  0.11824380970E+02 -0.14160219323E+02 -0.32175322908E+01  0.72461539826E+02  0.69999960310E+02 0.  0.
        -12    1    1    2    0    0 -0.11824380970E+02  0.14160219323E+02  0.32175322908E+01  0.18726460174E+02  0.00000000000E+00 0.  1.
         11    1    3    3    0    0 -0.18046540773E+02 -0.33340056329E+01 -0.53829285097E+01  0.19125092079E+02  0.51100000000E-03 0.  1.
        -11    1    3    3    0    0  0.21386600766E+02  0.58471833243E+01  0.18209637343E+02  0.28690889452E+02  0.51100000000E-03 0. -1.
        -12    1    3    3    0    0  0.84843209765E+01 -0.16673397014E+02 -0.16044241124E+02  0.24645558295E+02  0.00000000000E+00 0.  1.
</event>
<event>
 7    1  0.1830715E-013  0.7246159E+02  0.7816164E-02  0.1226708E+00
        -11   -1    0    0    0    0  0.00000000000E+00  0.00000000000E+00  0.45593999997E+02  0.45594000000E+02  0.51100000000E-03 0. -1.
         11   -1    0    0    0    0 -0.00000000000E+00 -0.00000000000E+00 -0.45593999997E+02  0.45594000000E+02  0.51100000000E-03 0.  1.
    9900012    2    1    2    0    0 -0.17910720089E+02  0.41153535158E+01  0.35983898084E+01  0.72461589829E+02  0.70000025447E+02 0.  0.
        -12    1    1    2    0    0  0.17910720089E+02 -0.41153535158E+01 -0.35983898084E+01  0.18726410171E+02  0.00000000000E+00 0.  1.
         11    1    3    3    0    0 -0.22386058814E+02  0.16778338681E+02  0.39290359347E+01  0.28250408877E+02  0.51100000000E-03 0. -1.
        -11    1    3    3    0    0 -0.52948128521E+01 -0.25728326041E+02  0.55899394813E+01  0.26855711267E+02  0.51100000000E-03 0.  1.
        -12    1    3    3    0    0  0.97701515763E+01  0.13065340876E+02 -0.59205856076E+01  0.17355469684E+02  0.00000000000E+00 0.  1.
</event>
<event>
 7    1  0.1830715E-013  0.7246156E+02  0.7816164E-02  0.1226708E+00
        -11   -1    0    0    0    0  0.00000000000E+00  0.00000000000E+00  0.45593999997E+02  0.45594000000E+02  0.51100000000E-03 0. -1.
         11   -1    0    0    0    0 -0.00000000000E+00 -0.00000000000E+00 -0.45593999997E+02  0.45594000000E+02  0.51100000000E-03 0.  1.
    9900012    2    1    2    0    0  0.10173236548E+02  0.15151236632E+02 -0.41981742458E+01  0.72461564665E+02  0.69999992667E+02 0.  0.
        -12    1    1    2    0    0 -0.10173236548E+02 -0.15151236632E+02  0.41981742458E+01  0.18726435335E+02  0.00000000000E+00 0.  1.
         11    1    3    3    0    0  0.19834720916E+02  0.13901495233E+02 -0.31089886520E+02  0.39411277163E+02  0.51100000000E-03 0.  1.
        -11    1    3    3    0    0 -0.12856105256E+02  0.12408036548E+01  0.26917187465E+02  0.29855552538E+02  0.51100000000E-03 0. -1.
         12    1    3    3    0    0  0.31946208888E+01  0.89377446617E-02 -0.25475190479E-01  0.31947349642E+01  0.00000000000E+00 0. -1.
</event>
<event>
 7    1  0.1830715E-013  0.7246197E+02  0.7816164E-02  0.1226707E+00
        -11   -1    0    0    0    0  0.00000000000E+00  0.00000000000E+00  0.45593999997E+02  0.45594000000E+02  0.51100000000E-03 0.  1.
         11   -1    0    0    0    0 -0.00000000000E+00 -0.00000000000E+00 -0.45593999997E+02  0.45594000000E+02  0.51100000000E-03 0. -1.
    9900012    2    1    2    0    0 -0.76779402687E+01 -0.15322551439E+02 -0.75453965103E+01  0.72461965773E+02  0.70000515182E+02 0.  0.
        -12    1    1    2    0    0  0.76779402687E+01  0.15322551439E+02  0.75453965103E+01  0.18726034227E+02  0.00000000000E+00 0.  1.
         11    1    3    3    0    0 -0.17747371452E+02 -0.22076871395E+02  0.57791379297E+01  0.28909442740E+02  0.51100000000E-03 0. -1.
        -11    1    3    3    0    0  0.20121044881E+02  0.43019869321E+01  0.61713030231E+01  0.21481352842E+02  0.51100000000E-03 0.  1.
        -12    1    3    3    0    0 -0.10051613698E+02  0.24523330240E+01 -0.19495837463E+02  0.22071170190E+02  0.00000000000E+00 0.  1.
</event>
<event>
 7    1  0.1830715E-013  0.7246138E+02  0.7816164E-02  0.1226709E+00
        -11   -1    0    0    0    0  0.00000000000E+00  0.00000000000E+00  0.45593999997E+02  0.45594000000E+02  0.51100000000E-03 0. -1.
         11   -1    0    0    0    0 -0.00000000000E+00 -0.00000000000E+00 -0.45593999997E+02  0.45594000000E+02  0.51100000000E-03 0.  1.
    9900012    2    1    2    0    0  0.18027629168E+02  0.50681184765E+01 -0.71277120053E-01  0.72461379410E+02  0.69999751337E+02 0.  0.
        -12    1    1    2    0    0 -0.18027629168E+02 -0.50681184765E+01  0.71277120053E-01  0.18726620590E+02  0.00000000000E+00 0.  1.
         11    1    3    3    0    0 -0.80089120046E+01  0.27784814611E+02 -0.13483865551E+02  0.31905379247E+02  0.51100000000E-03 0. -1.
        -11    1    3    3    0    0  0.12755527595E+02 -0.21227572894E+02  0.10376909451E+02  0.26851323715E+02  0.51100000000E-03 0.  1.
         12    1    3    3    0    0  0.13281013578E+02 -0.14891232404E+01  0.30356789792E+01  0.13704676448E+02  0.00000000000E+00 0. -1.
</event>
<event>
 7    1  0.1830715E-013  0.7246154E+02  0.7816164E-02  0.1226708E+00
        -11   -1    0    0    0    0  0.00000000000E+00  0.00000000000E+00  0.45593999997E+02  0.45594000000E+02  0.51100000000E-03 0.  1.
         11   -1    0    0    0    0 -0.00000000000E+00 -0.00000000000E+00 -0.45593999997E+02  0.45594000000E+02  0.51100000000E-03 0. -1.
    9900012    2    1    2    0    0 -0.33997500591E+01 -0.18278563840E+02  0.22396559215E+01  0.72461541308E+02  0.69999962239E+02 0.  0.
        -12    1    1    2    0    0  0.33997500591E+01  0.18278563840E+02 -0.22396559215E+01  0.18726458692E+02  0.00000000000E+00 0.  1.
         11    1    3    3    0    0  0.31770787366E+02 -0.10339259011E+02  0.52601046350E+00  0.33414965121E+02  0.51100000000E-03 0. -1.
        -11    1    3    3    0    0 -0.17603275436E+02 -0.11558715109E+02  0.14423330095E+01  0.21108280977E+02  0.51100000000E-03 0.  1.
         12    1    3    3    0    0 -0.17567261990E+02  0.36194102805E+01  0.27131244850E+00  0.17938295210E+02  0.00000000000E+00 0. -1.
</event>
<event>
 7    1  0.1830715E-013  0.7246153E+02  0.7816164E-02  0.1226708E+00
        -11   -1    0    0    0    0  0.00000000000E+00  0.00000000000E+00  0.45593999997E+02  0.45594000000E+02  0.51100000000E-03 0.  1.
         11   -1    0    0    0    0 -0.00000000000E+00 -0.00000000000E+00 -0.45593999997E+02  0.45594000000E+02  0.51100000000E-03 0. -1.
    9900012    2    1    2    0    0 -0.35317884066E+00  0.15522969137E+02 -0.10468681276E+02  0.72461532266E+02  0.69999950461E+02 0.  0.
        -12    1    1    2    0    0  0.35317884066E+00 -0.15522969137E+02  0.10468681276E+02  0.18726467734E+02  0.00000000000E+00 0.  1.
         11    1    3    3    0    0 -0.94049865795E+01  0.19561229476E+02 -0.85028771344E+01  0.23310821328E+02  0.51100000000E-03 0. -1.
        -11    1    3    3    0    0 -0.47980524477E+01 -0.13992029371E+02 -0.19641278067E+02  0.24588167837E+02  0.51100000000E-03 0.  1.
        -12    1    3    3    0    0  0.13849860187E+02  0.99537690321E+01  0.17675473925E+02  0.24562543101E+02  0.00000000000E+00 0.  1.
</event>
<event>
 7    1  0.1830715E-013  0.7246160E+02  0.7816164E-02  0.1226708E+00
        -11   -1    0    0    0    0  0.00000000000E+00  0.00000000000E+00  0.45593999997E+02  0.45594000000E+02  0.51100000000E-03 0.  1.
         11   -1    0    0    0    0 -0.00000000000E+00 -0.00000000000E+00 -0.45593999997E+02  0.45594000000E+02  0.51100000000E-03 0. -1.
    9900012    2    1    2    0    0  0.11871969758E+02 -0.41481348692E+01 -0.13875422963E+02  0.72461600153E+02  0.70000038896E+02 0.  0.
        -12    1    1    2    0    0 -0.11871969758E+02  0.41481348692E+01  0.13875422963E+02  0.18726399847E+02  0.00000000000E+00 0.  1.
         11    1    3    3    0    0 -0.22153968850E+02  0.17072365588E+02 -0.76608632968E+01  0.28999186701E+02  0.51100000000E-03 0. -1.
        -11    1    3    3    0    0  0.29772305743E+02 -0.10711004474E+02 -0.53748050766E+01  0.32093680623E+02  0.51100000000E-03 0.  1.
         12    1    3    3    0    0  0.42536328652E+01 -0.10509495983E+02 -0.83975458989E+00  0.11368732829E+02  0.00000000000E+00 0. -1.
</event>
<event>
 7    1  0.1830715E-013  0.7246151E+02  0.7816164E-02  0.1226708E+00
        -11   -1    0    0    0    0  0.00000000000E+00  0.00000000000E+00  0.45593999997E+02  0.45594000000E+02  0.51100000000E-03 0.  1.
         11   -1    0    0    0    0 -0.00000000000E+00 -0.00000000000E+00 -0.45593999997E+02  0.45594000000E+02  0.51100000000E-03 0. -1.
    9900012    2    1    2    0    0 -0.76664302000E+01  0.17074097855E+02  0.61840015658E+00  0.72461511051E+02  0.69999922825E+02 0.  0.
        -12    1    1    2    0    0  0.76664302000E+01 -0.17074097855E+02 -0.61840015658E+00  0.18726488949E+02  0.00000000000E+00 0.  1.
         11    1    3    3    0    0 -0.20242120070E+02  0.20269564845E+02 -0.21545254338E+02  0.35844060438E+02  0.51100000000E-03 0. -1.
        -11    1    3    3    0    0 -0.70316879478E+01 -0.42734254244E+01  0.11878216895E+02  0.14449873256E+02  0.51100000000E-03 0.  1.
         12    1    3    3    0    0  0.19607377818E+02  0.10779584347E+01  0.10285437599E+02  0.22167577357E+02  0.00000000000E+00 0. -1.
</event>
<event>
 8    1  0.1830715E-013  0.7246159E+02  0.7816164E-02  0.1226708E+00
        -11   -1    0    0    0    0  0.00000000000E+00  0.00000000000E+00  0.45593999997E+02  0.45594000000E+02  0.51100000000E-03 0.  1.
         11   -1    0    0    0    0 -0.00000000000E+00 -0.00000000000E+00 -0.45593999997E+02  0.45594000000E+02  0.51100000000E-03 0. -1.
    9900012    2    1    2    0    0  0.38017703504E+01 -0.13653566972E+02  0.12239495180E+02  0.72461585737E+02  0.70000020117E+02 0.  0.
         24    2    3    3    0    0  0.14843590190E+02 -0.20177003968E+02  0.11843531682E+02  0.59630615277E+02  0.52802437223E+02 0.  0.
        -12    1    1    2    0    0 -0.38017703504E+01  0.13653566972E+02 -0.12239495180E+02  0.18726414263E+02  0.00000000000E+00 0.  1.
         11    1    3    3    0    0 -0.11041819839E+02  0.65234369959E+01  0.39596349800E+00  0.12830970461E+02  0.51100000000E-03 0. -1.
        -11    1    4    4    0    0  0.54174174085E+01 -0.17177658230E+02  0.32257967134E+02  0.36945863064E+02  0.51100000000E-03 0.  1.
         12    1    4    4    0    0  0.94261727813E+01 -0.29993457386E+01 -0.20414435452E+02  0.22684752213E+02  0.00000000000E+00 0. -1.
</event>
<event>
 7    1  0.1830715E-013  0.7246152E+02  0.7816164E-02  0.1226708E+00
        -11   -1    0    0    0    0  0.00000000000E+00  0.00000000000E+00  0.45593999997E+02  0.45594000000E+02  0.51100000000E-03 0. -1.
         11   -1    0    0    0    0 -0.00000000000E+00 -0.00000000000E+00 -0.45593999997E+02  0.45594000000E+02  0.51100000000E-03 0.  1.
    9900012    2    1    2    0    0 -0.26324787101E+01  0.16839346481E+02  0.77580652011E+01  0.72461518491E+02  0.69999932516E+02 0.  0.
        -12    1    1    2    0    0  0.26324787101E+01 -0.16839346481E+02 -0.77580652011E+01  0.18726481509E+02  0.00000000000E+00 0.  1.
         11    1    3    3    0    0  0.10189731792E+01  0.16031427742E+02  0.28462076753E+02  0.32682331544E+02  0.51100000000E-03 0. -1.
        -11    1    3    3    0    0  0.55576215871E+01  0.11163508036E+02 -0.22580027587E+02  0.25794742012E+02  0.51100000000E-03 0.  1.
         12    1    3    3    0    0 -0.92090734763E+01 -0.10355589297E+02  0.18760160347E+01  0.13984444935E+02  0.00000000000E+00 0. -1.
</event>
<event>
 7    1  0.1830715E-013  0.7246157E+02  0.7816164E-02  0.1226708E+00
        -11   -1    0    0    0    0  0.00000000000E+00  0.00000000000E+00  0.45593999997E+02  0.45594000000E+02  0.51100000000E-03 0. -1.
         11   -1    0    0    0    0 -0.00000000000E+00 -0.00000000000E+00 -0.45593999997E+02  0.45594000000E+02  0.51100000000E-03 0.  1.
    9900012    2    1    2    0    0 -0.16339778315E+01 -0.82448228795E+01  0.16734158764E+02  0.72461573288E+02  0.70000003900E+02 0.  0.
        -12    1    1    2    0    0  0.16339778315E+01  0.82448228795E+01 -0.16734158764E+02  0.18726426712E+02  0.00000000000E+00 0.  1.
         11    1    3    3    0    0  0.41448446477E+01 -0.10748087659E+02  0.25665682920E+02  0.28132337363E+02  0.51100000000E-03 0. -1.
        -11    1    3    3    0    0 -0.12218167354E+02  0.20638034691E+02 -0.28788562549E+01  0.24155742651E+02  0.51100000000E-03 0.  1.
         12    1    3    3    0    0  0.64393448750E+01 -0.18134769912E+02 -0.60526679011E+01  0.20173493274E+02  0.00000000000E+00 0. -1.
</event>
<event>
 7    1  0.1830715E-013  0.7246157E+02  0.7816164E-02  0.1226708E+00
        -11   -1    0    0    0    0  0.00000000000E+00  0.00000000000E+00  0.45593999997E+02  0.45594000000E+02  0.51100000000E-03 0. -1.
         11   -1    0    0    0    0 -0.00000000000E+00 -0.00000000000E+00 -0.45593999997E+02  0.45594000000E+02  0.51100000000E-03 0.  1.
    9900012    2    1    2    0    0 -0.16240088695E+02  0.84144912534E+01 -0.40168665899E+01  0.72461565180E+02  0.69999993337E+02 0.  0.
        -12    1    1    2    0    0  0.16240088695E+02 -0.84144912534E+01  0.40168665899E+01  0.18726434820E+02  0.00000000000E+00 0.  1.
         11    1    3    3    0    0  0.94918854521E+01  0.10367074355E+02  0.12234165431E+01  0.14109176745E+02  0.51100000000E-03 0. -1.
        -11    1    3    3    0    0 -0.10477507015E+02  0.58444589066E+01 -0.27652221402E+02  0.30142680734E+02  0.51100000000E-03 0.  1.
        -12    1    3    3    0    0 -0.15254467133E+02 -0.77970420084E+01  0.22411938268E+02  0.28209707700E+02  0.00000000000E+00 0.  1.
</event>
<event>
 7    1  0.1830715E-013  0.7246168E+02  0.7816164E-02  0.1226708E+00
        -11   -1    0    0    0    0  0.00000000000E+00  0.00000000000E+00  0.45593999997E+02  0.45594000000E+02  0.51100000000E-03 0.  1.
         11   -1    0    0    0    0 -0.00000000000E+00 -0.00000000000E+00 -0.45593999997E+02  0.45594000000E+02  0.51100000000E-03 0. -1.
    9900012    2    1    2    0    0 -0.65497681616E+01  0.17126263755E+02 -0.38034863514E+01  0.72461684783E+02  0.70000149143E+02 0.  0.
        -12    1    1    2    0    0  0.65497681616E+01 -0.17126263755E+02  0.38034863514E+01  0.18726315217E+02  0.00000000000E+00 0.  1.
         11    1    3    3    0    0  0.18513110029E+02  0.38436368023E+01 -0.20711042440E+02  0.28043824026E+02  0.51100000000E-03 0. -1.
        -11    1    3    3    0    0 -0.81872217754E+01 -0.14395042240E+01  0.20142636345E+02  0.21790561535E+02  0.51100000000E-03 0.  1.
        -12    1    3    3    0    0 -0.16875656415E+02  0.14722131177E+02 -0.32350802565E+01  0.22627299222E+02  0.00000000000E+00 0.  1.
</event>
<event>
 7    1  0.1830715E-013  0.7246148E+02  0.7816164E-02  0.1226708E+00
        -11   -1    0    0    0    0  0.00000000000E+00  0.00000000000E+00  0.45593999997E+02  0.45594000000E+02  0.51100000000E-03 0. -1.
         11   -1    0    0    0    0 -0.00000000000E+00 -0.00000000000E+00 -0.45593999997E+02  0.45594000000E+02  0.51100000000E-03 0.  1.
    9900012    2    1    2    0    0 -0.11898292954E+02  0.57217870042E+01  0.13280599488E+02  0.72461480181E+02  0.69999882611E+02 0.  0.
        -12    1    1    2    0    0  0.11898292954E+02 -0.57217870042E+01 -0.13280599488E+02  0.18726519819E+02  0.00000000000E+00 0.  1.
         11    1    3    3    0    0  0.78617035296E+01  0.20577591009E+02  0.11449928673E+02  0.24826286493E+02  0.51100000000E-03 0. -1.
        -11    1    3    3    0    0 -0.24793604579E+02 -0.74855001048E+01  0.16323988304E+02  0.30614181913E+02  0.51100000000E-03 0.  1.
        -12    1    3    3    0    0  0.50336080949E+01 -0.73703039003E+01 -0.14493317488E+02  0.17021011775E+02  0.00000000000E+00 0.  1.
</event>
<event>
 7    1  0.1830715E-013  0.7246198E+02  0.7816164E-02  0.1226707E+00
        -11   -1    0    0    0    0  0.00000000000E+00  0.00000000000E+00  0.45593999997E+02  0.45594000000E+02  0.51100000000E-03 0.  1.
         11   -1    0    0    0    0 -0.00000000000E+00 -0.00000000000E+00 -0.45593999997E+02  0.45594000000E+02  0.51100000000E-03 0. -1.
    9900012    2    1    2    0    0  0.16770931098E+02 -0.74175995604E+01 -0.37919422746E+01  0.72461982288E+02  0.70000536697E+02 0.  0.
        -12    1    1    2    0    0 -0.16770931098E+02  0.74175995604E+01  0.37919422746E+01  0.18726017712E+02  0.00000000000E+00 0.  1.
         11    1    3    3    0    0  0.29922099380E+02  0.35523468457E+01 -0.24827786510E+02  0.39043183562E+02  0.51100000000E-03 0. -1.
        -11    1    3    3    0    0 -0.35979044351E+01 -0.11506369795E+02  0.20565847562E+02  0.23838950237E+02  0.51100000000E-03 0.  1.
         12    1    3    3    0    0 -0.95532638477E+01  0.53642338932E+00  0.46999667301E+00  0.95798484888E+01  0.00000000000E+00 0. -1.
</event>
<event>
 7    1  0.1830715E-013  0.7246161E+02  0.7816164E-02  0.1226708E+00
        -11   -1    0    0    0    0  0.00000000000E+00  0.00000000000E+00  0.45593999997E+02  0.45594000000E+02  0.51100000000E-03 0.  1.
         11   -1    0    0    0    0 -0.00000000000E+00 -0.00000000000E+00 -0.45593999997E+02  0.45594000000E+02  0.51100000000E-03 0. -1.
    9900012    2    1    2    0    0  0.10073407745E+02 -0.49182274541E+01 -0.15000506601E+02  0.72461609446E+02  0.70000051002E+02 0.  0.
        -12    1    1    2    0    0 -0.10073407745E+02  0.49182274541E+01  0.15000506601E+02  0.18726390554E+02  0.00000000000E+00 0.  1.
         11    1    3    3    0    0 -0.13207526598E+02  0.12068649316E+02  0.14289903999E+02  0.22897432426E+02  0.51100000000E-03 0.  1.
        -11    1    3    3    0    0  0.26728750313E+02 -0.87117323604E+01 -0.13006321416E+02  0.30975551182E+02  0.51100000000E-03 0. -1.
         12    1    3    3    0    0 -0.34478159695E+01 -0.82751444094E+01 -0.16284089185E+02  0.18588625838E+02  0.00000000000E+00 0. -1.
</event>
<event>
 7    1  0.1830715E-013  0.7246156E+02  0.7816164E-02  0.1226708E+00
        -11   -1    0    0    0    0  0.00000000000E+00  0.00000000000E+00  0.45593999997E+02  0.45594000000E+02  0.51100000000E-03 0.  1.
         11   -1    0    0    0    0 -0.00000000000E+00 -0.00000000000E+00 -0.45593999997E+02  0.45594000000E+02  0.51100000000E-03 0. -1.
    9900012    2    1    2    0    0 -0.14536505938E+02  0.10939669922E+02  0.44376877858E+01  0.72461562651E+02  0.69999990043E+02 0.  0.
        -12    1    1    2    0    0  0.14536505938E+02 -0.10939669922E+02 -0.44376877858E+01  0.18726437349E+02  0.00000000000E+00 0.  1.
         11    1    3    3    0    0  0.12418588951E+02  0.23784925792E+02  0.11905743244E+02  0.29354569813E+02  0.51100000000E-03 0. -1.
        -11    1    3    3    0    0 -0.25811294584E+02  0.21624097765E+01 -0.10148669696E+02  0.27818958302E+02  0.51100000000E-03 0.  1.
         12    1    3    3    0    0 -0.11438003052E+01 -0.15007665646E+02  0.26806142379E+01  0.15288034536E+02  0.00000000000E+00 0. -1.
</event>
<event>
 7    1  0.1830715E-013  0.7246158E+02  0.7816164E-02  0.1226708E+00
        -11   -1    0    0    0    0  0.00000000000E+00  0.00000000000E+00  0.45593999997E+02  0.45594000000E+02  0.51100000000E-03 0.  1.
         11   -1    0    0    0    0 -0.00000000000E+00 -0.00000000000E+00 -0.45593999997E+02  0.45594000000E+02  0.51100000000E-03 0. -1.
    9900012    2    1    2    0    0 -0.11373269521E+02 -0.79780617657E+01 -0.12556987993E+02  0.72461583456E+02  0.70000017145E+02 0.  0.
        -12    1    1    2    0    0  0.11373269521E+02  0.79780617657E+01  0.12556987993E+02  0.18726416544E+02  0.00000000000E+00 0.  1.
         11    1    3    3    0    0 -0.30793700702E+02  0.48983950171E+01  0.68276402636E+01  0.31919632650E+02  0.51100000000E-03 0.  1.
        -11    1    3    3    0    0  0.19839864445E+02 -0.18354800813E+02 -0.84730065360E+01  0.28325090893E+02  0.51100000000E-03 0. -1.
         12    1    3    3    0    0 -0.41943326441E+00  0.54783440297E+01 -0.10911621720E+02  0.12216859913E+02  0.00000000000E+00 0. -1.
</event>
<event>
 7    1  0.1830715E-013  0.7246157E+02  0.7816164E-02  0.1226708E+00
        -11   -1    0    0    0    0  0.00000000000E+00  0.00000000000E+00  0.45593999997E+02  0.45594000000E+02  0.51100000000E-03 0.  1.
         11   -1    0    0    0    0 -0.00000000000E+00 -0.00000000000E+00 -0.45593999997E+02  0.45594000000E+02  0.51100000000E-03 0. -1.
    9900012    2    1    2    0    0  0.11260865642E+02  0.14601938229E+02 -0.32642528911E+01  0.72461573699E+02  0.70000004435E+02 0.  0.
        -12    1    1    2    0    0 -0.11260865642E+02 -0.14601938229E+02  0.32642528911E+01  0.18726426301E+02  0.00000000000E+00 0.  1.
         11    1    3    3    0    0 -0.13501943915E+02 -0.51281927256E+01  0.83547202069E+01  0.16685388821E+02  0.51100000000E-03 0. -1.
        -11    1    3    3    0    0  0.33071163437E+02  0.99245794178E+00 -0.20333506126E+01  0.33148474155E+02  0.51100000000E-03 0.  1.
        -12    1    3    3    0    0 -0.83083538795E+01  0.18737673013E+02 -0.95856224854E+01  0.22627710723E+02  0.00000000000E+00 0.  1.
</event>
<event>
 7    1  0.1830715E-013  0.7246153E+02  0.7816164E-02  0.1226708E+00
        -11   -1    0    0    0    0  0.00000000000E+00  0.00000000000E+00  0.45593999997E+02  0.45594000000E+02  0.51100000000E-03 0. -1.
         11   -1    0    0    0    0 -0.00000000000E+00 -0.00000000000E+00 -0.45593999997E+02  0.45594000000E+02  0.51100000000E-03 0.  1.
    9900012    2    1    2    0    0  0.34021938466E+01 -0.13714946569E+02  0.12288450945E+02  0.72461529190E+02  0.69999946454E+02 0.  0.
        -12    1    1    2    0    0 -0.34021938466E+01  0.13714946569E+02 -0.12288450945E+02  0.18726470810E+02  0.00000000000E+00 0.  1.
         11    1    3    3    0    0  0.47286272684E+01 -0.51184987928E+01  0.22367343485E+02  0.23427697296E+02  0.51100000000E-03 0. -1.
        -11    1    3    3    0    0 -0.10046463121E+02 -0.10099077504E+02 -0.26666975038E+02  0.30233265546E+02  0.51100000000E-03 0.  1.
        -12    1    3    3    0    0  0.87200296991E+01  0.15026297276E+01  0.16588082498E+02  0.18800566348E+02  0.00000000000E+00 0.  1.
</event>
<event>
 7    1  0.1830715E-013  0.7246158E+02  0.7816164E-02  0.1226708E+00
        -11   -1    0    0    0    0  0.00000000000E+00  0.00000000000E+00  0.45593999997E+02  0.45594000000E+02  0.51100000000E-03 0.  1.
         11   -1    0    0    0    0 -0.00000000000E+00 -0.00000000000E+00 -0.45593999997E+02  0.45594000000E+02  0.51100000000E-03 0. -1.
    9900012    2    1    2    0    0 -0.44726520283E+01  0.16033674310E+02  0.85787769307E+01  0.72461581718E+02  0.70000014881E+02 0.  0.
        -12    1    1    2    0    0  0.44726520283E+01 -0.16033674310E+02 -0.85787769307E+01  0.18726418282E+02  0.00000000000E+00 0.  1.
         11    1    3    3    0    0 -0.46065019609E+01  0.57488140649E+01 -0.14259320971E+02  0.16049827360E+02  0.51100000000E-03 0. -1.
        -11    1    3    3    0    0  0.14033698003E+02  0.67730938254E+01  0.34548660620E+02  0.37900256338E+02  0.51100000000E-03 0.  1.
        -12    1    3    3    0    0 -0.13899848071E+02  0.35117664200E+01 -0.11710562718E+02  0.18511498020E+02  0.00000000000E+00 0.  1.
</event>
<event>
 7    1  0.1830715E-013  0.7246156E+02  0.7816164E-02  0.1226708E+00
        -11   -1    0    0    0    0  0.00000000000E+00  0.00000000000E+00  0.45593999997E+02  0.45594000000E+02  0.51100000000E-03 0.  1.
         11   -1    0    0    0    0 -0.00000000000E+00 -0.00000000000E+00 -0.45593999997E+02  0.45594000000E+02  0.51100000000E-03 0. -1.
    9900012    2    1    2    0    0 -0.13162696326E+02 -0.11263604057E+02 -0.71101599726E+01  0.72461555443E+02  0.69999980654E+02 0.  0.
        -12    1    1    2    0    0  0.13162696326E+02  0.11263604057E+02  0.71101599726E+01  0.18726444557E+02  0.00000000000E+00 0.  1.
         11    1    3    3    0    0 -0.18430243954E+02 -0.35972716759E+02 -0.54809348829E+01  0.40789102597E+02  0.51100000000E-03 0. -1.
        -11    1    3    3    0    0 -0.42546571056E+01  0.73642704341E+01 -0.71706011871E+01  0.11124392467E+02  0.51100000000E-03 0.  1.
         12    1    3    3    0    0  0.95222047345E+01  0.17344842268E+02  0.55413760974E+01  0.20548060379E+02  0.00000000000E+00 0. -1.
</event>
<event>
 7    1  0.1830715E-013  0.7246148E+02  0.7816164E-02  0.1226708E+00
        -11   -1    0    0    0    0  0.00000000000E+00  0.00000000000E+00  0.45593999997E+02  0.45594000000E+02  0.51100000000E-03 0. -1.
         11   -1    0    0    0    0 -0.00000000000E+00 -0.00000000000E+00 -0.45593999997E+02  0.45594000000E+02  0.51100000000E-03 0.  1.
    9900012    2    1    2    0    0  0.17598958844E+02 -0.22300245412E+01 -0.59988401454E+01  0.72461482840E+02  0.69999886075E+02 0.  0.
        -12    1    1    2    0    0 -0.17598958844E+02  0.22300245412E+01  0.59988401454E+01  0.18726517160E+02  0.00000000000E+00 0.  1.
         11    1    3    3    0    0 -0.10601145762E+02 -0.18536517192E+02 -0.14283202608E+02  0.25690399726E+02  0.51100000000E-03 0. -1.
        -11    1    3    3    0    0  0.10536511441E+02  0.19104597944E+02  0.16239343395E+02  0.27197794214E+02  0.51100000000E-03 0.  1.
        -12    1    3    3    0    0  0.17663593165E+02 -0.27981052926E+01 -0.79549809321E+01  0.19573288900E+02  0.00000000000E+00 0.  1.
</event>
<event>
 7    1  0.1830715E-013  0.7246155E+02  0.7816164E-02  0.1226708E+00
        -11   -1    0    0    0    0  0.00000000000E+00  0.00000000000E+00  0.45593999997E+02  0.45594000000E+02  0.51100000000E-03 0.  1.
         11   -1    0    0    0    0 -0.00000000000E+00 -0.00000000000E+00 -0.45593999997E+02  0.45594000000E+02  0.51100000000E-03 0. -1.
    9900012    2    1    2    0    0 -0.84544962490E+01 -0.49437046088E+01 -0.15961246623E+02  0.72461545028E+02  0.69999967085E+02 0.  0.
        -12    1    1    2    0    0  0.84544962490E+01  0.49437046088E+01  0.15961246623E+02  0.18726454972E+02  0.00000000000E+00 0.  1.
         11    1    3    3    0    0 -0.12601480948E+02 -0.28673093424E+02 -0.12774357524E+02  0.33824958521E+02  0.51100000000E-03 0.  1.
        -11    1    3    3    0    0  0.11206451709E+02 -0.92394495305E-01  0.52791776916E+01  0.12388010898E+02  0.51100000000E-03 0. -1.
         12    1    3    3    0    0 -0.70594670105E+01  0.23821783310E+02 -0.84660667906E+01  0.26248575608E+02  0.00000000000E+00 0. -1.
</event>
<event>
 7    1  0.1830715E-013  0.7246162E+02  0.7816164E-02  0.1226708E+00
        -11   -1    0    0    0    0  0.00000000000E+00  0.00000000000E+00  0.45593999997E+02  0.45594000000E+02  0.51100000000E-03 0. -1.
         11   -1    0    0    0    0 -0.00000000000E+00 -0.00000000000E+00 -0.45593999997E+02  0.45594000000E+02  0.51100000000E-03 0.  1.
    9900012    2    1    2    0    0  0.26464502401E+01  0.15620607900E+02  0.99834900457E+01  0.72461623855E+02  0.70000069773E+02 0.  0.
        -12    1    1    2    0    0 -0.26464502401E+01 -0.15620607900E+02 -0.99834900457E+01  0.18726376145E+02  0.00000000000E+00 0.  1.
         11    1    3    3    0    0  0.95367204462E-01  0.91088825883E+01  0.15988557698E+02  0.18401489462E+02  0.51100000000E-03 0. -1.
        -11    1    3    3    0    0  0.11883088738E+02 -0.18444797684E+02 -0.14258103282E+02  0.26166999618E+02  0.51100000000E-03 0.  1.
        -12    1    3    3    0    0 -0.93320057022E+01  0.24956522995E+02  0.82530356298E+01  0.27893134775E+02  0.00000000000E+00 0.  1.
</event>
<event>
 7    1  0.1830715E-013  0.7246174E+02  0.7816164E-02  0.1226708E+00
        -11   -1    0    0    0    0  0.00000000000E+00  0.00000000000E+00  0.45593999997E+02  0.45594000000E+02  0.51100000000E-03 0. -1.
         11   -1    0    0    0    0 -0.00000000000E+00 -0.00000000000E+00 -0.45593999997E+02  0.45594000000E+02  0.51100000000E-03 0.  1.
    9900012    2    1    2    0    0  0.68320596360E+00  0.73575999971E+01  0.17206734344E+02  0.72461741567E+02  0.70000223114E+02 0.  0.
        -12    1    1    2    0    0 -0.68320596360E+00 -0.73575999971E+01 -0.17206734344E+02  0.18726258433E+02  0.00000000000E+00 0.  1.
         11    1    3    3    0    0  0.33757165517E+02 -0.25837572829E+01  0.12678676289E+02  0.36152051922E+02  0.51100000000E-03 0. -1.
        -11    1    3    3    0    0 -0.24381932083E+01 -0.19915160999E+01  0.34896154750E+00  0.31674432781E+01  0.51100000000E-03 0.  1.
         12    1    3    3    0    0 -0.30635766345E+02  0.11932873380E+02  0.41790965070E+01  0.33142246367E+02  0.00000000000E+00 0. -1.
</event>
<event>
 7    1  0.1830715E-013  0.7246152E+02  0.7816164E-02  0.1226708E+00
        -11   -1    0    0    0    0  0.00000000000E+00  0.00000000000E+00  0.45593999997E+02  0.45594000000E+02  0.51100000000E-03 0.  1.
         11   -1    0    0    0    0 -0.00000000000E+00 -0.00000000000E+00 -0.45593999997E+02  0.45594000000E+02  0.51100000000E-03 0. -1.
    9900012    2    1    2    0    0  0.32945946265E+01  0.15817786654E+02 -0.94670043679E+01  0.72461524088E+02  0.69999939807E+02 0.  0.
        -12    1    1    2    0    0 -0.32945946265E+01 -0.15817786654E+02  0.94670043679E+01  0.18726475912E+02  0.00000000000E+00 0.  1.
         11    1    3    3    0    0 -0.78719755681E+01  0.79839287053E+01  0.24669109100E+02  0.27097528687E+02  0.51100000000E-03 0.  1.
        -11    1    3    3    0    0  0.51480279490E+01  0.39654044541E+01 -0.37067067203E+02  0.37632354372E+02  0.51100000000E-03 0. -1.
        -12    1    3    3    0    0  0.60185422456E+01  0.38684534947E+01  0.29309537355E+01  0.77316410290E+01  0.00000000000E+00 0.  1.
</event>
<event>
 7    1  0.1830715E-013  0.7246170E+02  0.7816164E-02  0.1226708E+00
        -11   -1    0    0    0    0  0.00000000000E+00  0.00000000000E+00  0.45593999997E+02  0.45594000000E+02  0.51100000000E-03 0. -1.
         11   -1    0    0    0    0 -0.00000000000E+00 -0.00000000000E+00 -0.45593999997E+02  0.45594000000E+02  0.51100000000E-03 0.  1.
    9900012    2    1    2    0    0 -0.18257088129E+02 -0.18178074836E+01 -0.37481296222E+01  0.72461703872E+02  0.70000174010E+02 0.  0.
        -12    1    1    2    0    0  0.18257088129E+02  0.18178074836E+01  0.37481296222E+01  0.18726296128E+02  0.00000000000E+00 0.  1.
         11    1    3    3    0    0 -0.18329882596E+02  0.16339038689E+02 -0.11027219695E+02  0.26917435905E+02  0.51100000000E-03 0. -1.
        -11    1    3    3    0    0  0.35310780778E+01 -0.89682826073E+01 -0.16895906848E+02  0.19451742179E+02  0.51100000000E-03 0.  1.
         12    1    3    3    0    0 -0.34582836109E+01 -0.91885635649E+01  0.24174996921E+02  0.26092525789E+02  0.00000000000E+00 0. -1.
</event>
<event>
 7    1  0.1830715E-013  0.7246156E+02  0.7816164E-02  0.1226708E+00
        -11   -1    0    0    0    0  0.00000000000E+00  0.00000000000E+00  0.45593999997E+02  0.45594000000E+02  0.51100000000E-03 0.  1.
         11   -1    0    0    0    0 -0.00000000000E+00 -0.00000000000E+00 -0.45593999997E+02  0.45594000000E+02  0.51100000000E-03 0. -1.
    9900012    2    1    2    0    0  0.15354319968E+02  0.73770860067E+01 -0.77783792077E+01  0.72461555523E+02  0.69999980758E+02 0.  0.
        -12    1    1    2    0    0 -0.15354319968E+02 -0.73770860067E+01  0.77783792077E+01  0.18726444477E+02  0.00000000000E+00 0.  1.
         11    1    3    3    0    0  0.27372259173E+02  0.37439667913E+01 -0.44909753269E+01  0.27989760971E+02  0.51100000000E-03 0. -1.
        -11    1    3    3    0    0 -0.13584051139E+02  0.57293598470E+01 -0.21501658115E+02  0.26070544903E+02  0.51100000000E-03 0.  1.
        -12    1    3    3    0    0  0.15661119339E+01 -0.20962406316E+01  0.18214254234E+02  0.18401249650E+02  0.00000000000E+00 0.  1.
</event>
<event>
 7    1  0.1830715E-013  0.7246117E+02  0.7816164E-02  0.1226709E+00
        -11   -1    0    0    0    0  0.00000000000E+00  0.00000000000E+00  0.45593999997E+02  0.45594000000E+02  0.51100000000E-03 0. -1.
         11   -1    0    0    0    0 -0.00000000000E+00 -0.00000000000E+00 -0.45593999997E+02  0.45594000000E+02  0.51100000000E-03 0.  1.
    9900012    2    1    2    0    0 -0.18159729367E+02 -0.24708144536E+01 -0.38488090653E+01  0.72461173628E+02  0.69999483267E+02 0.  0.
        -12    1    1    2    0    0  0.18159729367E+02  0.24708144536E+01  0.38488090653E+01  0.18726826372E+02  0.00000000000E+00 0.  1.
         11    1    3    3    0    0 -0.22629620402E+01  0.14775065969E+02  0.20860733918E+02  0.25663082267E+02  0.51100000000E-03 0. -1.
        -11    1    3    3    0    0 -0.13553444977E+02 -0.19363493206E+02 -0.31457616971E+02  0.39347457423E+02  0.51100000000E-03 0.  1.
        -12    1    3    3    0    0 -0.23433223496E+01  0.21176127836E+01  0.67480739882E+01  0.74506339385E+01  0.00000000000E+00 0.  1.
</event>
<event>
 7    1  0.1830715E-013  0.7246160E+02  0.7816164E-02  0.1226708E+00
        -11   -1    0    0    0    0  0.00000000000E+00  0.00000000000E+00  0.45593999997E+02  0.45594000000E+02  0.51100000000E-03 0.  1.
         11   -1    0    0    0    0 -0.00000000000E+00 -0.00000000000E+00 -0.45593999997E+02  0.45594000000E+02  0.51100000000E-03 0. -1.
    9900012    2    1    2    0    0  0.14693180817E+02 -0.60145528983E+01 -0.99304490640E+01  0.72461595441E+02  0.70000032758E+02 0.  0.
        -12    1    1    2    0    0 -0.14693180817E+02  0.60145528983E+01  0.99304490640E+01  0.18726404559E+02  0.00000000000E+00 0.  1.
         11    1    3    3    0    0 -0.35572568649E+01 -0.27334667229E+02  0.15470952548E+01  0.27608542390E+02  0.51100000000E-03 0. -1.
        -11    1    3    3    0    0  0.91345928071E+01  0.13179732480E+02  0.10876401154E+02  0.19376331860E+02  0.51100000000E-03 0.  1.
         12    1    3    3    0    0  0.91158448752E+01  0.81403818500E+01 -0.22353945473E+02  0.25476721192E+02  0.00000000000E+00 0. -1.
</event>
<event>
 7    1  0.1830715E-013  0.7246159E+02  0.7816164E-02  0.1226708E+00
        -11   -1    0    0    0    0  0.00000000000E+00  0.00000000000E+00  0.45593999997E+02  0.45594000000E+02  0.51100000000E-03 0.  1.
         11   -1    0    0    0    0 -0.00000000000E+00 -0.00000000000E+00 -0.45593999997E+02  0.45594000000E+02  0.51100000000E-03 0. -1.
    9900012    2    1    2    0    0 -0.14990002889E+02 -0.26977882557E+01 -0.10894962975E+02  0.72461589070E+02  0.70000024459E+02 0.  0.
        -12    1    1    2    0    0  0.14990002889E+02  0.26977882557E+01  0.10894962975E+02  0.18726410930E+02  0.00000000000E+00 0.  1.
         11    1    3    3    0    0 -0.16975004625E+02 -0.31538150800E+02  0.33128410768E+00  0.35817809639E+02  0.51100000000E-03 0. -1.
        -11    1    3    3    0    0 -0.22495334938E+01  0.91530259868E+01  0.51024954250E+01  0.10717917031E+02  0.51100000000E-03 0.  1.
         12    1    3    3    0    0  0.42345352299E+01  0.19687336557E+02 -0.16328742508E+02  0.25925862401E+02  0.00000000000E+00 0. -1.
</event>
<event>
 7    1  0.1830715E-013  0.7246164E+02  0.7816164E-02  0.1226708E+00
        -11   -1    0    0    0    0  0.00000000000E+00  0.00000000000E+00  0.45593999997E+02  0.45594000000E+02  0.51100000000E-03 0.  1.
         11   -1    0    0    0    0 -0.00000000000E+00 -0.00000000000E+00 -0.45593999997E+02  0.45594000000E+02  0.51100000000E-03 0. -1.
    9900012    2    1    2    0    0 -0.11919698948E+02 -0.27802406693E+01 -0.14172770222E+02  0.72461644857E+02  0.70000097131E+02 0.  0.
        -12    1    1    2    0    0  0.11919698948E+02  0.27802406693E+01  0.14172770222E+02  0.18726355143E+02  0.00000000000E+00 0.  1.
         11    1    3    3    0    0 -0.14430529384E+02  0.15984542551E+02  0.21459800043E+02  0.30401789372E+02  0.51100000000E-03 0. -1.
        -11    1    3    3    0    0 -0.32225976376E+01 -0.10009790188E+02 -0.10616337811E+02  0.14942813120E+02  0.51100000000E-03 0.  1.
         12    1    3    3    0    0  0.57334280735E+01 -0.87549930315E+01 -0.25016232454E+02  0.27117042365E+02  0.00000000000E+00 0. -1.
</event>
<event>
 7    1  0.1830715E-013  0.7246155E+02  0.7816164E-02  0.1226708E+00
        -11   -1    0    0    0    0  0.00000000000E+00  0.00000000000E+00  0.45593999997E+02  0.45594000000E+02  0.51100000000E-03 0.  1.
         11   -1    0    0    0    0 -0.00000000000E+00 -0.00000000000E+00 -0.45593999997E+02  0.45594000000E+02  0.51100000000E-03 0. -1.
    9900012    2    1    2    0    0 -0.13332904718E+02  0.13146511890E+02  0.28803185695E+00  0.72461545839E+02  0.69999968143E+02 0.  0.
        -12    1    1    2    0    0  0.13332904718E+02 -0.13146511890E+02 -0.28803185695E+00  0.18726454161E+02  0.00000000000E+00 0.  1.
         11    1    3    3    0    0 -0.15512310533E+02  0.28747350995E+02 -0.23246773415E+02  0.40093072241E+02  0.51100000000E-03 0. -1.
        -11    1    3    3    0    0 -0.42796090965E+01 -0.49997751923E+01  0.17232649123E+02  0.18446598658E+02  0.51100000000E-03 0.  1.
         12    1    3    3    0    0  0.64590149116E+01 -0.10601063913E+02  0.63021561485E+01  0.13921874940E+02  0.00000000000E+00 0. -1.
</event>
<event>
 7    1  0.1830715E-013  0.7246132E+02  0.7816164E-02  0.1226709E+00
        -11   -1    0    0    0    0  0.00000000000E+00  0.00000000000E+00  0.45593999997E+02  0.45594000000E+02  0.51100000000E-03 0. -1.
         11   -1    0    0    0    0 -0.00000000000E+00 -0.00000000000E+00 -0.45593999997E+02  0.45594000000E+02  0.51100000000E-03 0.  1.
    9900012    2    1    2    0    0 -0.36454306460E+01  0.39692538961E+01  0.17934451751E+02  0.72461315811E+02  0.69999668488E+02 0.  0.
        -12    1    1    2    0    0  0.36454306460E+01 -0.39692538961E+01 -0.17934451751E+02  0.18726684189E+02  0.00000000000E+00 0.  1.
         11    1    3    3    0    0 -0.22857939362E+02  0.12227742081E+02  0.36274399167E+02  0.44585144426E+02  0.51100000000E-03 0. -1.
        -11    1    3    3    0    0  0.50739358073E+01 -0.27072764763E+01 -0.41721661871E+01  0.71050081949E+01  0.51100000000E-03 0.  1.
         12    1    3    3    0    0  0.14138572909E+02 -0.55512117083E+01 -0.14167781229E+02  0.20771163190E+02  0.00000000000E+00 0. -1.
</event>
<event>
 7    1  0.1830715E-013  0.7246162E+02  0.7816164E-02  0.1226708E+00
        -11   -1    0    0    0    0  0.00000000000E+00  0.00000000000E+00  0.45593999997E+02  0.45594000000E+02  0.51100000000E-03 0. -1.
         11   -1    0    0    0    0 -0.00000000000E+00 -0.00000000000E+00 -0.45593999997E+02  0.45594000000E+02  0.51100000000E-03 0.  1.
    9900012    2    1    2    0    0  0.10520309042E+02 -0.11322834515E+02  0.10573259531E+02  0.72461620187E+02  0.70000064994E+02 0.  0.
        -12    1    1    2    0    0 -0.10520309042E+02  0.11322834515E+02 -0.10573259531E+02  0.18726379813E+02  0.00000000000E+00 0.  1.
         11    1    3    3    0    0  0.18638878880E+02 -0.48477572522E+01 -0.91370496030E+01  0.21316524857E+02  0.51100000000E-03 0. -1.
        -11    1    3    3    0    0 -0.11966785854E+02  0.17714832277E+02  0.15220853420E+02  0.26242972876E+02  0.51100000000E-03 0.  1.
         12    1    3    3    0    0  0.38482160165E+01 -0.24189909540E+02  0.44894557135E+01  0.24902122453E+02  0.00000000000E+00 0. -1.
</event>
<event>
 7    1  0.1830715E-013  0.7246160E+02  0.7816164E-02  0.1226708E+00
        -11   -1    0    0    0    0  0.00000000000E+00  0.00000000000E+00  0.45593999997E+02  0.45594000000E+02  0.51100000000E-03 0.  1.
         11   -1    0    0    0    0 -0.00000000000E+00 -0.00000000000E+00 -0.45593999997E+02  0.45594000000E+02  0.51100000000E-03 0. -1.
    9900012    2    1    2    0    0 -0.17140837452E+02  0.50846592049E+01 -0.55691900836E+01  0.72461602964E+02  0.70000042558E+02 0.  0.
        -12    1    1    2    0    0  0.17140837452E+02 -0.50846592049E+01  0.55691900836E+01  0.18726397036E+02  0.00000000000E+00 0.  1.
         11    1    3    3    0    0 -0.28905764583E+02  0.67606575753E+01 -0.31001321600E+01  0.29847286923E+02  0.51100000000E-03 0. -1.
        -11    1    3    3    0    0  0.12547233273E+02  0.15880709331E+02 -0.11047635106E+02  0.23058192327E+02  0.51100000000E-03 0.  1.
        -12    1    3    3    0    0 -0.78230614154E+00 -0.17556707702E+02  0.85785771825E+01  0.19556123714E+02  0.00000000000E+00 0.  1.
</event>
<event>
 7    1  0.1830715E-013  0.7246177E+02  0.7816164E-02  0.1226707E+00
        -11   -1    0    0    0    0  0.00000000000E+00  0.00000000000E+00  0.45593999997E+02  0.45594000000E+02  0.51100000000E-03 0. -1.
         11   -1    0    0    0    0 -0.00000000000E+00 -0.00000000000E+00 -0.45593999997E+02  0.45594000000E+02  0.51100000000E-03 0.  1.
    9900012    2    1    2    0    0  0.14433883113E+02 -0.11669909894E+02 -0.24794818803E+01  0.72461772162E+02  0.70000262969E+02 0.  0.
        -12    1    1    2    0    0 -0.14433883113E+02  0.11669909894E+02  0.24794818803E+01  0.18726227838E+02  0.00000000000E+00 0.  1.
         11    1    3    3    0    0 -0.59613999860E+01 -0.22572104815E+02 -0.29304419561E+01  0.23529251919E+02  0.51100000000E-03 0. -1.
        -11    1    3    3    0    0 -0.86597677192E+01  0.13844734929E+02  0.88115726727E+01  0.18555648074E+02  0.51100000000E-03 0.  1.
        -12    1    3    3    0    0  0.29055050818E+02 -0.29425400087E+01 -0.83606125970E+01  0.30376872169E+02  0.00000000000E+00 0.  1.
</event>
<event>
 7    1  0.1830715E-013  0.7246155E+02  0.7816164E-02  0.1226708E+00
        -11   -1    0    0    0    0  0.00000000000E+00  0.00000000000E+00  0.45593999997E+02  0.45594000000E+02  0.51100000000E-03 0.  1.
         11   -1    0    0    0    0 -0.00000000000E+00 -0.00000000000E+00 -0.45593999997E+02  0.45594000000E+02  0.51100000000E-03 0. -1.
    9900012    2    1    2    0    0 -0.11629135738E+02 -0.14087718809E+01 -0.14610212628E+02  0.72461554815E+02  0.69999979836E+02 0.  0.
        -12    1    1    2    0    0  0.11629135738E+02  0.14087718809E+01  0.14610212628E+02  0.18726445185E+02  0.00000000000E+00 0.  1.
         11    1    3    3    0    0  0.24105252166E+02  0.13466645989E+02  0.80644032261E+00  0.27623614579E+02  0.51100000000E-03 0. -1.
        -11    1    3    3    0    0 -0.79349475112E+01 -0.18632591460E+01  0.34041794222E+01  0.88330948399E+01  0.51100000000E-03 0.  1.
         12    1    3    3    0    0 -0.27799440393E+02 -0.13012158723E+02 -0.18820832373E+02  0.36004845396E+02  0.00000000000E+00 0. -1.
</event>
<event>
 7    1  0.1830715E-013  0.7246155E+02  0.7816164E-02  0.1226708E+00
        -11   -1    0    0    0    0  0.00000000000E+00  0.00000000000E+00  0.45593999997E+02  0.45594000000E+02  0.51100000000E-03 0. -1.
         11   -1    0    0    0    0 -0.00000000000E+00 -0.00000000000E+00 -0.45593999997E+02  0.45594000000E+02  0.51100000000E-03 0.  1.
    9900012    2    1    2    0    0  0.11934135520E+02 -0.64958850038E+01 -0.12886412856E+02  0.72461554825E+02  0.69999979849E+02 0.  0.
        -12    1    1    2    0    0 -0.11934135520E+02  0.64958850038E+01  0.12886412856E+02  0.18726445175E+02  0.00000000000E+00 0.  1.
         11    1    3    3    0    0 -0.14548253499E+02  0.16266870411E+02 -0.46913499835E+01  0.22321996276E+02  0.51100000000E-03 0.  1.
        -11    1    3    3    0    0  0.45550481220E+01 -0.26735292437E+02 -0.57309316007E+01  0.27719449893E+02  0.51100000000E-03 0. -1.
        -12    1    3    3    0    0  0.21927340897E+02  0.39725370230E+01 -0.24641312714E+01  0.22420108656E+02  0.00000000000E+00 0.  1.
</event>
<event>
 7    1  0.1830715E-013  0.7246163E+02  0.7816164E-02  0.1226708E+00
        -11   -1    0    0    0    0  0.00000000000E+00  0.00000000000E+00  0.45593999997E+02  0.45594000000E+02  0.51100000000E-03 0. -1.
         11   -1    0    0    0    0 -0.00000000000E+00 -0.00000000000E+00 -0.45593999997E+02  0.45594000000E+02  0.51100000000E-03 0.  1.
    9900012    2    1    2    0    0  0.14467655645E+02  0.96052852635E+00 -0.11850792893E+02  0.72461629099E+02  0.70000076604E+02 0.  0.
        -12    1    1    2    0    0 -0.14467655645E+02 -0.96052852635E+00  0.11850792893E+02  0.18726370901E+02  0.00000000000E+00 0.  1.
         11    1    3    3    0    0  0.19930238129E+02  0.11195394150E+02 -0.35443569477E+01  0.23132524905E+02  0.51100000000E-03 0. -1.
        -11    1    3    3    0    0 -0.19164431442E+02 -0.16688383103E+01  0.12532416107E+02  0.22959135600E+02  0.51100000000E-03 0.  1.
        -12    1    3    3    0    0  0.13701848958E+02 -0.85660273133E+01 -0.20838852052E+02  0.26369968594E+02  0.00000000000E+00 0.  1.
</event>
<event>
 7    1  0.1830715E-013  0.7246159E+02  0.7816164E-02  0.1226708E+00
        -11   -1    0    0    0    0  0.00000000000E+00  0.00000000000E+00  0.45593999997E+02  0.45594000000E+02  0.51100000000E-03 0.  1.
         11   -1    0    0    0    0 -0.00000000000E+00 -0.00000000000E+00 -0.45593999997E+02  0.45594000000E+02  0.51100000000E-03 0. -1.
    9900012    2    1    2    0    0 -0.21787129833E+01 -0.18491838896E+02  0.19958604207E+01  0.72461592046E+02  0.70000028336E+02 0.  0.
        -12    1    1    2    0    0  0.21787129833E+01  0.18491838896E+02 -0.19958604207E+01  0.18726407954E+02  0.00000000000E+00 0.  1.
         11    1    3    3    0    0 -0.21306056401E+01 -0.75249803892E+01  0.67409169998E+01  0.10324958717E+02  0.51100000000E-03 0. -1.
        -11    1    3    3    0    0  0.71982516669E+01 -0.10120465128E+02 -0.31787440906E+02  0.34127408942E+02  0.51100000000E-03 0.  1.
        -12    1    3    3    0    0 -0.72463590101E+01 -0.84639337888E+00  0.27042384327E+02  0.28009224387E+02  0.00000000000E+00 0.  1.
</event>
<event>
 7    1  0.1830715E-013  0.7246173E+02  0.7816164E-02  0.1226708E+00
        -11   -1    0    0    0    0  0.00000000000E+00  0.00000000000E+00  0.45593999997E+02  0.45594000000E+02  0.51100000000E-03 0. -1.
         11   -1    0    0    0    0 -0.00000000000E+00 -0.00000000000E+00 -0.45593999997E+02  0.45594000000E+02  0.51100000000E-03 0.  1.
    9900012    2    1    2    0    0 -0.14773676783E+02  0.10607877657E+02  0.44592332846E+01  0.72461725529E+02  0.70000202222E+02 0.  0.
        -12    1    1    2    0    0  0.14773676783E+02 -0.10607877657E+02 -0.44592332846E+01  0.18726274471E+02  0.00000000000E+00 0.  1.
         11    1    3    3    0    0 -0.33642057125E+02  0.12006536292E+01 -0.55432164063E+01  0.34116811474E+02  0.51100000000E-03 0. -1.
        -11    1    3    3    0    0  0.23899746343E+02 -0.22902538323E+01  0.87329687417E+01  0.25548148292E+02  0.51100000000E-03 0.  1.
        -12    1    3    3    0    0 -0.50313660000E+01  0.11697477860E+02  0.12694809492E+01  0.12796765763E+02  0.00000000000E+00 0.  1.
</event>
<event>
 7    1  0.1830715E-013  0.7246160E+02  0.7816164E-02  0.1226708E+00
        -11   -1    0    0    0    0  0.00000000000E+00  0.00000000000E+00  0.45593999997E+02  0.45594000000E+02  0.51100000000E-03 0. -1.
         11   -1    0    0    0    0 -0.00000000000E+00 -0.00000000000E+00 -0.45593999997E+02  0.45594000000E+02  0.51100000000E-03 0.  1.
    9900012    2    1    2    0    0 -0.28427410040E+01 -0.18202203086E+02  0.33580702992E+01  0.72461601260E+02  0.70000040339E+02 0.  0.
        -12    1    1    2    0    0  0.28427410040E+01  0.18202203086E+02 -0.33580702992E+01  0.18726398740E+02  0.00000000000E+00 0.  1.
         11    1    3    3    0    0  0.97700643973E+01  0.61997467206E+01  0.13550803262E+02  0.17818958641E+02  0.51100000000E-03 0. -1.
        -11    1    3    3    0    0 -0.29752049471E+02 -0.13307072795E+02 -0.10441954421E+02  0.34224217251E+02  0.51100000000E-03 0.  1.
        -12    1    3    3    0    0  0.17139244069E+02 -0.11094877012E+02  0.24922145783E+00  0.20418425368E+02  0.00000000000E+00 0.  1.
</event>
<event>
 7    1  0.1830715E-013  0.7246160E+02  0.7816164E-02  0.1226708E+00
        -11   -1    0    0    0    0  0.00000000000E+00  0.00000000000E+00  0.45593999997E+02  0.45594000000E+02  0.51100000000E-03 0. -1.
         11   -1    0    0    0    0 -0.00000000000E+00 -0.00000000000E+00 -0.45593999997E+02  0.45594000000E+02  0.51100000000E-03 0.  1.
    9900012    2    1    2    0    0  0.39642001230E+01  0.17030559842E+02  0.67024640634E+01  0.72461604840E+02  0.70000045003E+02 0.  0.
        -12    1    1    2    0    0 -0.39642001230E+01 -0.17030559842E+02 -0.67024640634E+01  0.18726395160E+02  0.00000000000E+00 0.  1.
         11    1    3    3    0    0 -0.17527542132E+02  0.89540508736E+01  0.63232073893E+01  0.20672994757E+02  0.51100000000E-03 0. -1.
        -11    1    3    3    0    0  0.20583125767E+02  0.44233006039E+01 -0.21203457889E+02  0.29880048214E+02  0.51100000000E-03 0.  1.
        -12    1    3    3    0    0  0.90861648877E+00  0.36532083647E+01  0.21582714563E+02  0.21908561870E+02  0.00000000000E+00 0.  1.
</event>
<event>
 7    1  0.1830715E-013  0.7246160E+02  0.7816164E-02  0.1226708E+00
        -11   -1    0    0    0    0  0.00000000000E+00  0.00000000000E+00  0.45593999997E+02  0.45594000000E+02  0.51100000000E-03 0.  1.
         11   -1    0    0    0    0 -0.00000000000E+00 -0.00000000000E+00 -0.45593999997E+02  0.45594000000E+02  0.51100000000E-03 0. -1.
    9900012    2    1    2    0    0  0.16676875422E+02  0.67498554752E+00 -0.84914174532E+01  0.72461602864E+02  0.70000042428E+02 0.  0.
        -12    1    1    2    0    0 -0.16676875422E+02 -0.67498554752E+00  0.84914174532E+01  0.18726397136E+02  0.00000000000E+00 0.  1.
         11    1    3    3    0    0  0.48674337763E+01  0.21359407262E+02  0.36690761427E+01  0.22212120794E+02  0.51100000000E-03 0. -1.
        -11    1    3    3    0    0  0.23548636268E+02 -0.64798322315E+01 -0.18631097996E+02  0.30718794062E+02  0.51100000000E-03 0.  1.
        -12    1    3    3    0    0 -0.11739194622E+02 -0.14204589483E+02  0.64706044000E+01  0.19530688008E+02  0.00000000000E+00 0.  1.
</event>
<event>
 7    1  0.1830715E-013  0.7246167E+02  0.7816164E-02  0.1226708E+00
        -11   -1    0    0    0    0  0.00000000000E+00  0.00000000000E+00  0.45593999997E+02  0.45594000000E+02  0.51100000000E-03 0. -1.
         11   -1    0    0    0    0 -0.00000000000E+00 -0.00000000000E+00 -0.45593999997E+02  0.45594000000E+02  0.51100000000E-03 0.  1.
    9900012    2    1    2    0    0 -0.33710382837E+01  0.91848894596E+01  0.15967136701E+02  0.72461666992E+02  0.70000125967E+02 0.  0.
        -12    1    1    2    0    0  0.33710382837E+01 -0.91848894596E+01 -0.15967136701E+02  0.18726333008E+02  0.00000000000E+00 0.  1.
         11    1    3    3    0    0  0.19670559851E+02  0.18613610655E+02 -0.96505241482E+01  0.28749435526E+02  0.51100000000E-03 0. -1.
        -11    1    3    3    0    0 -0.40407451474E+00 -0.12401798218E+02  0.69635622651E+01  0.14228811438E+02  0.51100000000E-03 0.  1.
         12    1    3    3    0    0 -0.22637523620E+02  0.29730770223E+01  0.18654098584E+02  0.29483420029E+02  0.00000000000E+00 0. -1.
</event>
<event>
 7    1  0.1830715E-013  0.7246190E+02  0.7816164E-02  0.1226707E+00
        -11   -1    0    0    0    0  0.00000000000E+00  0.00000000000E+00  0.45593999997E+02  0.45594000000E+02  0.51100000000E-03 0.  1.
         11   -1    0    0    0    0 -0.00000000000E+00 -0.00000000000E+00 -0.45593999997E+02  0.45594000000E+02  0.51100000000E-03 0. -1.
    9900012    2    1    2    0    0  0.26636434257E+01  0.80018060655E+01 -0.16719538156E+02  0.72461899157E+02  0.70000428404E+02 0.  0.
        -12    1    1    2    0    0 -0.26636434257E+01 -0.80018060655E+01  0.16719538156E+02  0.18726100843E+02  0.00000000000E+00 0.  1.
         11    1    3    3    0    0 -0.39393631530E+01 -0.10340943369E+02 -0.86647123017E+01  0.14054569767E+02  0.51100000000E-03 0. -1.
        -11    1    3    3    0    0  0.21035139318E+02  0.26956881844E+02 -0.18240982721E+02  0.38754148368E+02  0.51100000000E-03 0.  1.
        -12    1    3    3    0    0 -0.14432132739E+02 -0.86141324095E+01  0.10186156867E+02  0.19653181022E+02  0.00000000000E+00 0.  1.
</event>
<event>
 7    1  0.1830715E-013  0.7246161E+02  0.7816164E-02  0.1226708E+00
        -11   -1    0    0    0    0  0.00000000000E+00  0.00000000000E+00  0.45593999997E+02  0.45594000000E+02  0.51100000000E-03 0.  1.
         11   -1    0    0    0    0 -0.00000000000E+00 -0.00000000000E+00 -0.45593999997E+02  0.45594000000E+02  0.51100000000E-03 0. -1.
    9900012    2    1    2    0    0  0.38658007202E+01  0.17137590760E+02 -0.64835318889E+01  0.72461611720E+02  0.70000053965E+02 0.  0.
        -12    1    1    2    0    0 -0.38658007202E+01 -0.17137590760E+02  0.64835318889E+01  0.18726388280E+02  0.00000000000E+00 0.  1.
         11    1    3    3    0    0  0.22373252175E+02  0.14185790501E+02 -0.25414824630E+01  0.26613120794E+02  0.51100000000E-03 0. -1.
        -11    1    3    3    0    0 -0.21799691105E+02 -0.15612562773E+02 -0.18212564673E+01  0.26875558115E+02  0.51100000000E-03 0.  1.
        -12    1    3    3    0    0  0.32922396500E+01  0.18564363032E+02 -0.21207929586E+01  0.18972932811E+02  0.00000000000E+00 0.  1.
</event>
<event>
 7    1  0.1830715E-013  0.7246156E+02  0.7816164E-02  0.1226708E+00
        -11   -1    0    0    0    0  0.00000000000E+00  0.00000000000E+00  0.45593999997E+02  0.45594000000E+02  0.51100000000E-03 0.  1.
         11   -1    0    0    0    0 -0.00000000000E+00 -0.00000000000E+00 -0.45593999997E+02  0.45594000000E+02  0.51100000000E-03 0. -1.
    9900012    2    1    2    0    0 -0.37864402578E+01  0.47207286017E+01 -0.17721652552E+02  0.72461564741E+02  0.69999992765E+02 0.  0.
        -12    1    1    2    0    0  0.37864402578E+01 -0.47207286017E+01  0.17721652552E+02  0.18726435259E+02  0.00000000000E+00 0.  1.
         11    1    3    3    0    0  0.21328173990E+02 -0.16566294941E+02  0.16407747933E+00  0.27006666871E+02  0.51100000000E-03 0. -1.
        -11    1    3    3    0    0 -0.15738248136E+02  0.19074148889E+02  0.46035299268E+00  0.24733126276E+02  0.51100000000E-03 0.  1.
         12    1    3    3    0    0 -0.93763661112E+01  0.22128746540E+01 -0.18346083024E+02  0.20721771594E+02  0.00000000000E+00 0. -1.
</event>
<event>
 7    1  0.1830715E-013  0.7246158E+02  0.7816164E-02  0.1226708E+00
        -11   -1    0    0    0    0  0.00000000000E+00  0.00000000000E+00  0.45593999997E+02  0.45594000000E+02  0.51100000000E-03 0.  1.
         11   -1    0    0    0    0 -0.00000000000E+00 -0.00000000000E+00 -0.45593999997E+02  0.45594000000E+02  0.51100000000E-03 0. -1.
    9900012    2    1    2    0    0 -0.14711698069E+02 -0.16630859717E+01 -0.11466425445E+02  0.72461579426E+02  0.70000011896E+02 0.  0.
        -12    1    1    2    0    0  0.14711698069E+02  0.16630859717E+01  0.11466425445E+02  0.18726420574E+02  0.00000000000E+00 0.  1.
         11    1    3    3    0    0 -0.25279020668E+02 -0.71326892876E+01 -0.22142259442E+02  0.34353803223E+02  0.51100000000E-03 0. -1.
        -11    1    3    3    0    0  0.14867518520E+02 -0.10739042891E+02  0.21213982581E+00  0.18341623503E+02  0.51100000000E-03 0.  1.
        -12    1    3    3    0    0 -0.43001959205E+01  0.16208646207E+02  0.10463694172E+02  0.19766152700E+02  0.00000000000E+00 0.  1.
</event>
<event>
 7    1  0.1830715E-013  0.7246155E+02  0.7816164E-02  0.1226708E+00
        -11   -1    0    0    0    0  0.00000000000E+00  0.00000000000E+00  0.45593999997E+02  0.45594000000E+02  0.51100000000E-03 0.  1.
         11   -1    0    0    0    0 -0.00000000000E+00 -0.00000000000E+00 -0.45593999997E+02  0.45594000000E+02  0.51100000000E-03 0. -1.
    9900012    2    1    2    0    0 -0.50776974333E+01  0.64446335626E+01 -0.16833407996E+02  0.72461549783E+02  0.69999973280E+02 0.  0.
        -12    1    1    2    0    0  0.50776974333E+01 -0.64446335626E+01  0.16833407996E+02  0.18726450217E+02  0.00000000000E+00 0.  1.
         11    1    3    3    0    0 -0.29250435303E+02 -0.13319257384E+02  0.34312256157E+00  0.32142002365E+02  0.51100000000E-03 0. -1.
        -11    1    3    3    0    0  0.10737130335E+02  0.15267636900E+02 -0.82432090002E+00  0.18683313666E+02  0.51100000000E-03 0.  1.
         12    1    3    3    0    0  0.13435607535E+02  0.44962540463E+01 -0.16352209657E+02  0.21636233752E+02  0.00000000000E+00 0. -1.
</event>
<event>
 7    1  0.1830715E-013  0.7246162E+02  0.7816164E-02  0.1226708E+00
        -11   -1    0    0    0    0  0.00000000000E+00  0.00000000000E+00  0.45593999997E+02  0.45594000000E+02  0.51100000000E-03 0.  1.
         11   -1    0    0    0    0 -0.00000000000E+00 -0.00000000000E+00 -0.45593999997E+02  0.45594000000E+02  0.51100000000E-03 0. -1.
    9900012    2    1    2    0    0  0.61231389331E+01 -0.16485948808E+02  0.64341164920E+01  0.72461623054E+02  0.70000068729E+02 0.  0.
        -12    1    1    2    0    0 -0.61231389331E+01  0.16485948808E+02 -0.64341164920E+01  0.18726376946E+02  0.00000000000E+00 0.  1.
         11    1    3    3    0    0  0.63413416298E+01  0.20516213427E+02 -0.10113853495E+02  0.23736420535E+02  0.51100000000E-03 0. -1.
        -11    1    3    3    0    0  0.10409906152E+01 -0.46797459515E+01  0.15647809615E+02  0.16365745618E+02  0.51100000000E-03 0.  1.
         12    1    3    3    0    0 -0.12591933120E+01 -0.32322416284E+02  0.90016037147E+00  0.32359456901E+02  0.00000000000E+00 0. -1.
</event>
<event>
 7    1  0.1830715E-013  0.7246156E+02  0.7816164E-02  0.1226708E+00
        -11   -1    0    0    0    0  0.00000000000E+00  0.00000000000E+00  0.45593999997E+02  0.45594000000E+02  0.51100000000E-03 0.  1.
         11   -1    0    0    0    0 -0.00000000000E+00 -0.00000000000E+00 -0.45593999997E+02  0.45594000000E+02  0.51100000000E-03 0. -1.
    9900012    2    1    2    0    0  0.67759289161E+01  0.41026753400E+01 -0.16968628499E+02  0.72461561183E+02  0.69999988131E+02 0.  0.
        -12    1    1    2    0    0 -0.67759289161E+01 -0.41026753400E+01  0.16968628499E+02  0.18726438817E+02  0.00000000000E+00 0.  1.
         11    1    3    3    0    0  0.42014037976E+01 -0.15765317372E+02 -0.40475644532E+01  0.16810110172E+02  0.51100000000E-03 0. -1.
        -11    1    3    3    0    0  0.40057087318E+00  0.24946687418E+02 -0.29231126623E+02  0.38431190901E+02  0.51100000000E-03 0.  1.
        -12    1    3    3    0    0  0.21739542453E+01 -0.50786947061E+01  0.16310062577E+02  0.17220260110E+02  0.00000000000E+00 0.  1.
</event>
<event>
 7    1  0.1830715E-013  0.7246160E+02  0.7816164E-02  0.1226708E+00
        -11   -1    0    0    0    0  0.00000000000E+00  0.00000000000E+00  0.45593999997E+02  0.45594000000E+02  0.51100000000E-03 0.  1.
         11   -1    0    0    0    0 -0.00000000000E+00 -0.00000000000E+00 -0.45593999997E+02  0.45594000000E+02  0.51100000000E-03 0. -1.
    9900012    2    1    2    0    0  0.17638832137E+02  0.52148347775E+01  0.35149759205E+01  0.72461602678E+02  0.70000042186E+02 0.  0.
        -12    1    1    2    0    0 -0.17638832137E+02 -0.52148347775E+01 -0.35149759205E+01  0.18726397322E+02  0.00000000000E+00 0.  1.
         11    1    3    3    0    0  0.29546383920E+02  0.11444847926E+01 -0.13042046171E+02  0.32317079335E+02  0.51100000000E-03 0. -1.
        -11    1    3    3    0    0 -0.17415375990E+02  0.12774095227E+02  0.11717796942E+01  0.21629745668E+02  0.51100000000E-03 0.  1.
         12    1    3    3    0    0  0.55078242079E+01 -0.87037452419E+01  0.15385242397E+02  0.18514777675E+02  0.00000000000E+00 0. -1.
</event>
<event>
 7    1  0.1830715E-013  0.7246131E+02  0.7816164E-02  0.1226709E+00
        -11   -1    0    0    0    0  0.00000000000E+00  0.00000000000E+00  0.45593999997E+02  0.45594000000E+02  0.51100000000E-03 0.  1.
         11   -1    0    0    0    0 -0.00000000000E+00 -0.00000000000E+00 -0.45593999997E+02  0.45594000000E+02  0.51100000000E-03 0. -1.
    9900012    2    1    2    0    0  0.84096161387E+01  0.78288164094E+01 -0.14787726535E+02  0.72461311397E+02  0.69999662737E+02 0.  0.
        -12    1    1    2    0    0 -0.84096161387E+01 -0.78288164094E+01  0.14787726535E+02  0.18726688603E+02  0.00000000000E+00 0.  1.
         11    1    3    3    0    0  0.72220125227E+01 -0.19262792840E+01 -0.35436170667E+02  0.36215883374E+02  0.51100000000E-03 0. -1.
        -11    1    3    3    0    0  0.14342072684E+02  0.54649125588E+01  0.14465026357E+02  0.21090218252E+02  0.51100000000E-03 0.  1.
        -12    1    3    3    0    0 -0.13154469068E+02  0.42901831347E+01  0.61834177753E+01  0.15155209770E+02  0.00000000000E+00 0.  1.
</event>
<event>
 7    1  0.1830715E-013  0.7246152E+02  0.7816164E-02  0.1226708E+00
        -11   -1    0    0    0    0  0.00000000000E+00  0.00000000000E+00  0.45593999997E+02  0.45594000000E+02  0.51100000000E-03 0.  1.
         11   -1    0    0    0    0 -0.00000000000E+00 -0.00000000000E+00 -0.45593999997E+02  0.45594000000E+02  0.51100000000E-03 0. -1.
    9900012    2    1    2    0    0  0.13583713313E+02 -0.28331855895E+01 -0.12575243720E+02  0.72461522419E+02  0.69999937634E+02 0.  0.
        -12    1    1    2    0    0 -0.13583713313E+02  0.28331855895E+01  0.12575243720E+02  0.18726477581E+02  0.00000000000E+00 0.  1.
         11    1    3    3    0    0  0.10262444006E+02  0.12761219293E+02  0.46093127214E+01  0.17012120351E+02  0.51100000000E-03 0. -1.
        -11    1    3    3    0    0  0.23529642697E+02 -0.17632236018E+02 -0.19078578926E+02  0.35050420918E+02  0.51100000000E-03 0.  1.
        -12    1    3    3    0    0 -0.20208373390E+02  0.20378311360E+01  0.18940224844E+01  0.20398981150E+02  0.00000000000E+00 0.  1.
</event>
<event>
 7    1  0.1830715E-013  0.7246159E+02  0.7816164E-02  0.1226708E+00
        -11   -1    0    0    0    0  0.00000000000E+00  0.00000000000E+00  0.45593999997E+02  0.45594000000E+02  0.51100000000E-03 0.  1.
         11   -1    0    0    0    0 -0.00000000000E+00 -0.00000000000E+00 -0.45593999997E+02  0.45594000000E+02  0.51100000000E-03 0. -1.
    9900012    2    1    2    0    0  0.18725964529E+02  0.30139303525E-01 -0.12514041226E+00  0.72461593082E+02  0.70000029686E+02 0.  0.
        -12    1    1    2    0    0 -0.18725964529E+02 -0.30139303525E-01  0.12514041226E+00  0.18726406918E+02  0.00000000000E+00 0.  1.
         11    1    3    3    0    0 -0.33966035539E+01 -0.12589813626E+02  0.17616842149E+02  0.21917879697E+02  0.51100000000E-03 0. -1.
        -11    1    3    3    0    0  0.10915363903E+02  0.19885310451E+02  0.58563161365E+01  0.23427914542E+02  0.51100000000E-03 0.  1.
         12    1    3    3    0    0  0.11207204180E+02 -0.72653575208E+01 -0.23598298698E+02  0.27115798843E+02  0.00000000000E+00 0. -1.
</event>
<event>
 7    1  0.1830715E-013  0.7246158E+02  0.7816164E-02  0.1226708E+00
        -11   -1    0    0    0    0  0.00000000000E+00  0.00000000000E+00  0.45593999997E+02  0.45594000000E+02  0.51100000000E-03 0.  1.
         11   -1    0    0    0    0 -0.00000000000E+00 -0.00000000000E+00 -0.45593999997E+02  0.45594000000E+02  0.51100000000E-03 0. -1.
    9900012    2    1    2    0    0 -0.15748100284E+02 -0.98477845609E+01  0.23868995003E+01  0.72461579826E+02  0.70000012416E+02 0.  0.
        -12    1    1    2    0    0  0.15748100284E+02  0.98477845609E+01 -0.23868995003E+01  0.18726420174E+02  0.00000000000E+00 0.  1.
         11    1    3    3    0    0 -0.39070528129E+02 -0.16637049743E+02 -0.72954978529E+01  0.43087374967E+02  0.51100000000E-03 0. -1.
        -11    1    3    3    0    0  0.61152406803E+01  0.50597803619E+01 -0.23833651198E+01  0.82872175936E+01  0.51100000000E-03 0.  1.
         12    1    3    3    0    0  0.17207187164E+02  0.17294848202E+01  0.12065762473E+02  0.21086987264E+02  0.00000000000E+00 0. -1.
</event>
<event>
 7    1  0.1830715E-013  0.7246154E+02  0.7816164E-02  0.1226708E+00
        -11   -1    0    0    0    0  0.00000000000E+00  0.00000000000E+00  0.45593999997E+02  0.45594000000E+02  0.51100000000E-03 0.  1.
         11   -1    0    0    0    0 -0.00000000000E+00 -0.00000000000E+00 -0.45593999997E+02  0.45594000000E+02  0.51100000000E-03 0. -1.
    9900012    2    1    2    0    0  0.61341940502E+01  0.14506002696E+02 -0.10130532522E+02  0.72461544381E+02  0.69999966243E+02 0.  0.
        -12    1    1    2    0    0 -0.61341940502E+01 -0.14506002696E+02  0.10130532522E+02  0.18726455619E+02  0.00000000000E+00 0.  1.
         11    1    3    3    0    0 -0.65462588012E+01  0.39488764479E+01 -0.27987826696E+02  0.29013196531E+02  0.51100000000E-03 0. -1.
        -11    1    3    3    0    0  0.22127686443E+02  0.15110565930E+02  0.19074338147E+02  0.32890638274E+02  0.51100000000E-03 0.  1.
        -12    1    3    3    0    0 -0.94472335916E+01 -0.45534396820E+01 -0.12170439732E+01  0.10557709577E+02  0.00000000000E+00 0.  1.
</event>
<event>
 7    1  0.1830715E-013  0.7246158E+02  0.7816164E-02  0.1226708E+00
        -11   -1    0    0    0    0  0.00000000000E+00  0.00000000000E+00  0.45593999997E+02  0.45594000000E+02  0.51100000000E-03 0.  1.
         11   -1    0    0    0    0 -0.00000000000E+00 -0.00000000000E+00 -0.45593999997E+02  0.45594000000E+02  0.51100000000E-03 0. -1.
    9900012    2    1    2    0    0  0.92375007692E+00 -0.14002886904E+01 -0.18651133307E+02  0.72461577590E+02  0.70000009504E+02 0.  0.
        -12    1    1    2    0    0 -0.92375007692E+00  0.14002886904E+01  0.18651133307E+02  0.18726422410E+02  0.00000000000E+00 0.  1.
         11    1    3    3    0    0  0.10972736068E+02 -0.12123357332E+02 -0.11906737271E+02  0.20227385459E+02  0.51100000000E-03 0. -1.
        -11    1    3    3    0    0 -0.11427167131E+02  0.71744383121E+01  0.20600342680E+02  0.24625735167E+02  0.51100000000E-03 0.  1.
        -12    1    3    3    0    0  0.13781811405E+01  0.35486303290E+01 -0.27344738717E+02  0.27608456964E+02  0.00000000000E+00 0.  1.
</event>
<event>
 7    1  0.1830715E-013  0.7246175E+02  0.7816164E-02  0.1226708E+00
        -11   -1    0    0    0    0  0.00000000000E+00  0.00000000000E+00  0.45593999997E+02  0.45594000000E+02  0.51100000000E-03 0.  1.
         11   -1    0    0    0    0 -0.00000000000E+00 -0.00000000000E+00 -0.45593999997E+02  0.45594000000E+02  0.51100000000E-03 0. -1.
    9900012    2    1    2    0    0  0.17159899318E+02 -0.59084502892E+01 -0.46152312439E+01  0.72461754011E+02  0.70000239324E+02 0.  0.
        -12    1    1    2    0    0 -0.17159899318E+02  0.59084502892E+01  0.46152312439E+01  0.18726245989E+02  0.00000000000E+00 0.  1.
         11    1    3    3    0    0 -0.10365307610E+02  0.51178687154E+01 -0.28330735297E+02  0.30598410821E+02  0.51100000000E-03 0. -1.
        -11    1    3    3    0    0  0.43154228536E+01  0.47005917514E+01  0.55457459555E+01  0.84542140783E+01  0.51100000000E-03 0.  1.
         12    1    3    3    0    0  0.23209784074E+02 -0.15726910756E+02  0.18169758097E+02  0.33409129112E+02  0.00000000000E+00 0. -1.
</event>
<event>
 7    1  0.1830715E-013  0.7246150E+02  0.7816164E-02  0.1226708E+00
        -11   -1    0    0    0    0  0.00000000000E+00  0.00000000000E+00  0.45593999997E+02  0.45594000000E+02  0.51100000000E-03 0.  1.
         11   -1    0    0    0    0 -0.00000000000E+00 -0.00000000000E+00 -0.45593999997E+02  0.45594000000E+02  0.51100000000E-03 0. -1.
    9900012    2    1    2    0    0  0.13850158524E+02  0.12510770921E+01 -0.12541517604E+02  0.72461501426E+02  0.69999910286E+02 0.  0.
        -12    1    1    2    0    0 -0.13850158524E+02 -0.12510770921E+01  0.12541517604E+02  0.18726498574E+02  0.00000000000E+00 0.  1.
         11    1    3    3    0    0  0.28528494352E+02 -0.15448947795E+01 -0.18780429107E+02  0.34190147814E+02  0.51100000000E-03 0. -1.
        -11    1    3    3    0    0 -0.19718475613E+02  0.13820416383E+02  0.92265773613E+01  0.25786661660E+02  0.51100000000E-03 0.  1.
        -12    1    3    3    0    0  0.50401397858E+01 -0.11024444511E+02 -0.29876658582E+01  0.12484691951E+02  0.00000000000E+00 0.  1.
</event>
<event>
 7    1  0.1830715E-013  0.7246157E+02  0.7816164E-02  0.1226708E+00
        -11   -1    0    0    0    0  0.00000000000E+00  0.00000000000E+00  0.45593999997E+02  0.45594000000E+02  0.51100000000E-03 0.  1.
         11   -1    0    0    0    0 -0.00000000000E+00 -0.00000000000E+00 -0.45593999997E+02  0.45594000000E+02  0.51100000000E-03 0. -1.
    9900012    2    1    2    0    0 -0.12654058896E+02 -0.46087179563E+01 -0.13012053367E+02  0.72461574271E+02  0.70000005181E+02 0.  0.
        -12    1    1    2    0    0  0.12654058896E+02  0.46087179563E+01  0.13012053367E+02  0.18726425729E+02  0.00000000000E+00 0.  1.
         11    1    3    3    0    0  0.47238479875E+01 -0.62269641907E+01 -0.13759265233E+02  0.15824259947E+02  0.51100000000E-03 0. -1.
        -11    1    3    3    0    0 -0.35262838714E+02  0.90662724829E+00  0.97562846362E+01  0.36598836830E+02  0.51100000000E-03 0.  1.
        -12    1    3    3    0    0  0.17884931830E+02  0.71161898605E+00 -0.90090727700E+01  0.20038477495E+02  0.00000000000E+00 0.  1.
</event>
<event>
 7    1  0.1830715E-013  0.7246152E+02  0.7816164E-02  0.1226708E+00
        -11   -1    0    0    0    0  0.00000000000E+00  0.00000000000E+00  0.45593999997E+02  0.45594000000E+02  0.51100000000E-03 0. -1.
         11   -1    0    0    0    0 -0.00000000000E+00 -0.00000000000E+00 -0.45593999997E+02  0.45594000000E+02  0.51100000000E-03 0.  1.
    9900012    2    1    2    0    0 -0.14630266016E+02  0.11655849764E+02  0.88186982832E+00  0.72461515765E+02  0.69999928965E+02 0.  0.
        -12    1    1    2    0    0  0.14630266016E+02 -0.11655849764E+02 -0.88186982832E+00  0.18726484235E+02  0.00000000000E+00 0.  1.
         11    1    3    3    0    0  0.16199515128E+02 -0.31694608002E+01  0.12242595536E+02  0.20551178016E+02  0.51100000000E-03 0. -1.
        -11    1    3    3    0    0 -0.48688752515E+01  0.11159719779E+02 -0.20752475269E+02  0.24060559466E+02  0.51100000000E-03 0.  1.
         12    1    3    3    0    0 -0.25960905893E+02  0.36655907845E+01  0.93917495616E+01  0.27849778283E+02  0.00000000000E+00 0. -1.
</event>
<event>
 7    1  0.1830715E-013  0.7246161E+02  0.7816164E-02  0.1226708E+00
        -11   -1    0    0    0    0  0.00000000000E+00  0.00000000000E+00  0.45593999997E+02  0.45594000000E+02  0.51100000000E-03 0.  1.
         11   -1    0    0    0    0 -0.00000000000E+00 -0.00000000000E+00 -0.45593999997E+02  0.45594000000E+02  0.51100000000E-03 0. -1.
    9900012    2    1    2    0    0 -0.18670013067E+02  0.23565190618E+00 -0.14327640717E+01  0.72461608659E+02  0.70000049978E+02 0.  0.
        -12    1    1    2    0    0  0.18670013067E+02 -0.23565190618E+00  0.14327640717E+01  0.18726391341E+02  0.00000000000E+00 0.  1.
         11    1    3    3    0    0 -0.61315466502E+01 -0.84938578052E+01 -0.20698144217E+02  0.23198160682E+02  0.51100000000E-03 0. -1.
        -11    1    3    3    0    0  0.10495960438E+02  0.15568191222E+02  0.51131751808E+00  0.18782843483E+02  0.51100000000E-03 0.  1.
         12    1    3    3    0    0 -0.23034426855E+02 -0.68386815102E+01  0.18754062627E+02  0.30480604495E+02  0.00000000000E+00 0. -1.
</event>
<event>
 7    1  0.1830715E-013  0.7246157E+02  0.7816164E-02  0.1226708E+00
        -11   -1    0    0    0    0  0.00000000000E+00  0.00000000000E+00  0.45593999997E+02  0.45594000000E+02  0.51100000000E-03 0.  1.
         11   -1    0    0    0    0 -0.00000000000E+00 -0.00000000000E+00 -0.45593999997E+02  0.45594000000E+02  0.51100000000E-03 0. -1.
    9900012    2    1    2    0    0  0.94385827630E+00 -0.66973539684E+00 -0.18690637376E+02  0.72461565757E+02  0.69999994089E+02 0.  0.
        -12    1    1    2    0    0 -0.94385827630E+00  0.66973539684E+00  0.18690637376E+02  0.18726434243E+02  0.00000000000E+00 0.  1.
         11    1    3    3    0    0 -0.21648847644E+02 -0.14589473075E+02  0.48414341315E+01  0.26551173489E+02  0.51100000000E-03 0. -1.
        -11    1    3    3    0    0  0.13759889613E+02  0.19619179197E+02 -0.25740987678E+02  0.35168810066E+02  0.51100000000E-03 0.  1.
         12    1    3    3    0    0  0.88328163076E+01 -0.56994415183E+01  0.22089161708E+01  0.10741582202E+02  0.00000000000E+00 0. -1.
</event>
<event>
 7    1  0.1830715E-013  0.7246177E+02  0.7816164E-02  0.1226707E+00
        -11   -1    0    0    0    0  0.00000000000E+00  0.00000000000E+00  0.45593999997E+02  0.45594000000E+02  0.51100000000E-03 0. -1.
         11   -1    0    0    0    0 -0.00000000000E+00 -0.00000000000E+00 -0.45593999997E+02  0.45594000000E+02  0.51100000000E-03 0.  1.
    9900012    2    1    2    0    0 -0.10913573997E+02 -0.13543547868E+01  0.15156886008E+02  0.72461773264E+02  0.70000264405E+02 0.  0.
        -12    1    1    2    0    0  0.10913573997E+02  0.13543547868E+01 -0.15156886008E+02  0.18726226736E+02  0.00000000000E+00 0.  1.
         11    1    3    3    0    0  0.18565409486E+02 -0.46141961673E+01  0.29773304329E+02  0.35389474234E+02  0.51100000000E-03 0.  1.
        -11    1    3    3    0    0 -0.72254521305E+01  0.21021676816E+01 -0.12628059625E+02  0.14700141415E+02  0.51100000000E-03 0. -1.
         12    1    3    3    0    0 -0.22253531353E+02  0.11576736989E+01 -0.19883586951E+01  0.22372157616E+02  0.00000000000E+00 0. -1.
</event>
<event>
 7    1  0.1830715E-013  0.7246152E+02  0.7816164E-02  0.1226708E+00
        -11   -1    0    0    0    0  0.00000000000E+00  0.00000000000E+00  0.45593999997E+02  0.45594000000E+02  0.51100000000E-03 0. -1.
         11   -1    0    0    0    0 -0.00000000000E+00 -0.00000000000E+00 -0.45593999997E+02  0.45594000000E+02  0.51100000000E-03 0.  1.
    9900012    2    1    2    0    0  0.10425740688E+02  0.37365138167E+01  0.15100446970E+02  0.72461518668E+02  0.69999932747E+02 0.  0.
        -12    1    1    2    0    0 -0.10425740688E+02 -0.37365138167E+01 -0.15100446970E+02  0.18726481332E+02  0.00000000000E+00 0.  1.
         11    1    3    3    0    0 -0.19406453941E+02 -0.22435308924E+01 -0.89355787148E+01  0.21482282296E+02  0.51100000000E-03 0.  1.
        -11    1    3    3    0    0  0.24473372066E+02  0.18835448789E+02  0.18444681674E+02  0.35971187826E+02  0.51100000000E-03 0. -1.
        -12    1    3    3    0    0  0.53588225623E+01 -0.12855404079E+02  0.55913440108E+01  0.15008048546E+02  0.00000000000E+00 0.  1.
</event>
<event>
 8    1  0.1830715E-013  0.7246159E+02  0.7816164E-02  0.1226708E+00
        -11   -1    0    0    0    0  0.00000000000E+00  0.00000000000E+00  0.45593999997E+02  0.45594000000E+02  0.51100000000E-03 0.  1.
         11   -1    0    0    0    0 -0.00000000000E+00 -0.00000000000E+00 -0.45593999997E+02  0.45594000000E+02  0.51100000000E-03 0. -1.
    9900012    2    1    2    0    0 -0.42325531319E+01  0.15254362561E+02 -0.10003420994E+02  0.72461587777E+02  0.70000022774E+02 0.  0.
         24    2    3    3    0    0 -0.14398755968E+02 -0.22167467014E+01 -0.37949330691E+01  0.51315981578E+02  0.49058030015E+02 0.  0.
        -12    1    1    2    0    0  0.42325531319E+01 -0.15254362561E+02  0.10003420994E+02  0.18726412223E+02  0.00000000000E+00 0.  1.
         11    1    3    3    0    0  0.10166202836E+02  0.17471109263E+02 -0.62084879245E+01  0.21145606199E+02  0.51100000000E-03 0. -1.
        -11    1    4    4    0    0 -0.43057949830E+01 -0.19019869646E+02  0.14657649190E+02  0.24395532210E+02  0.51100000000E-03 0.  1.
         12    1    4    4    0    0 -0.10092960985E+02  0.16803122945E+02 -0.18452582259E+02  0.26920449367E+02  0.00000000000E+00 0. -1.
</event>
<event>
 7    1  0.1830715E-013  0.7246158E+02  0.7816164E-02  0.1226708E+00
        -11   -1    0    0    0    0  0.00000000000E+00  0.00000000000E+00  0.45593999997E+02  0.45594000000E+02  0.51100000000E-03 0.  1.
         11   -1    0    0    0    0 -0.00000000000E+00 -0.00000000000E+00 -0.45593999997E+02  0.45594000000E+02  0.51100000000E-03 0. -1.
    9900012    2    1    2    0    0 -0.10877105352E+02 -0.60183636006E+01 -0.14005237057E+02  0.72461580527E+02  0.70000013330E+02 0.  0.
        -12    1    1    2    0    0  0.10877105352E+02  0.60183636006E+01  0.14005237057E+02  0.18726419473E+02  0.00000000000E+00 0.  1.
         11    1    3    3    0    0  0.72379810237E+00  0.15336872481E+02  0.10019918306E+01  0.15386602259E+02  0.51100000000E-03 0. -1.
        -11    1    3    3    0    0  0.13450994062E+02 -0.21557215379E+02  0.38751432618E+01  0.25703297682E+02  0.51100000000E-03 0.  1.
        -12    1    3    3    0    0 -0.25051897516E+02  0.20197929746E+00 -0.18882372149E+02  0.31371680586E+02  0.00000000000E+00 0.  1.
</event>
<event>
 7    1  0.1830715E-013  0.7246153E+02  0.7816164E-02  0.1226708E+00
        -11   -1    0    0    0    0  0.00000000000E+00  0.00000000000E+00  0.45593999997E+02  0.45594000000E+02  0.51100000000E-03 0.  1.
         11   -1    0    0    0    0 -0.00000000000E+00 -0.00000000000E+00 -0.45593999997E+02  0.45594000000E+02  0.51100000000E-03 0. -1.
    9900012    2    1    2    0    0  0.82388812297E+01 -0.77874269029E+01 -0.14904950866E+02  0.72461528309E+02  0.69999945306E+02 0.  0.
        -12    1    1    2    0    0 -0.82388812297E+01  0.77874269029E+01  0.14904950866E+02  0.18726471691E+02  0.00000000000E+00 0.  1.
         11    1    3    3    0    0 -0.20742683270E+02  0.19865226176E+02  0.57190948157E-01  0.28720887718E+02  0.51100000000E-03 0.  1.
        -11    1    3    3    0    0  0.23824308295E+02 -0.20372940200E+02 -0.78081793016E+01  0.32305139256E+02  0.51100000000E-03 0. -1.
        -12    1    3    3    0    0  0.51572562047E+01 -0.72797128786E+01 -0.71539625121E+01  0.11435501335E+02  0.00000000000E+00 0.  1.
</event>
<event>
 7    1  0.1830715E-013  0.7246159E+02  0.7816164E-02  0.1226708E+00
        -11   -1    0    0    0    0  0.00000000000E+00  0.00000000000E+00  0.45593999997E+02  0.45594000000E+02  0.51100000000E-03 0. -1.
         11   -1    0    0    0    0 -0.00000000000E+00 -0.00000000000E+00 -0.45593999997E+02  0.45594000000E+02  0.51100000000E-03 0.  1.
    9900012    2    1    2    0    0  0.11106634681E+02  0.14688430802E+02  0.34016332693E+01  0.72461589713E+02  0.70000025296E+02 0.  0.
        -12    1    1    2    0    0 -0.11106634681E+02 -0.14688430802E+02 -0.34016332693E+01  0.18726410287E+02  0.00000000000E+00 0.  1.
         11    1    3    3    0    0 -0.61889321166E+01  0.55155440888E+01  0.32047632385E+02  0.33102490074E+02  0.51100000000E-03 0. -1.
        -11    1    3    3    0    0  0.11841553563E+02  0.14858348162E+02 -0.21840757636E+02  0.28948429927E+02  0.51100000000E-03 0.  1.
         12    1    3    3    0    0  0.54540132340E+01 -0.56854614489E+01 -0.68052414799E+01  0.10410669712E+02  0.00000000000E+00 0. -1.
</event>
<event>
 7    1  0.1830715E-013  0.7246154E+02  0.7816164E-02  0.1226708E+00
        -11   -1    0    0    0    0  0.00000000000E+00  0.00000000000E+00  0.45593999997E+02  0.45594000000E+02  0.51100000000E-03 0. -1.
         11   -1    0    0    0    0 -0.00000000000E+00 -0.00000000000E+00 -0.45593999997E+02  0.45594000000E+02  0.51100000000E-03 0.  1.
    9900012    2    1    2    0    0  0.75479956696E+01 -0.11771409720E+02  0.12455598738E+02  0.72461541035E+02  0.69999961884E+02 0.  0.
        -12    1    1    2    0    0 -0.75479956696E+01  0.11771409720E+02 -0.12455598738E+02  0.18726458965E+02  0.00000000000E+00 0.  1.
         11    1    3    3    0    0 -0.91729426620E+01  0.47551053750E+01 -0.49616666819E+01  0.11461764294E+02  0.51100000000E-03 0.  1.
        -11    1    3    3    0    0  0.21039067431E+02 -0.13903153308E+02 -0.14227307319E+02  0.28954383159E+02  0.51100000000E-03 0. -1.
        -12    1    3    3    0    0 -0.43181290998E+01 -0.26233617873E+01  0.31644572739E+02  0.32045393582E+02  0.00000000000E+00 0.  1.
</event>
<event>
 7    1  0.1830715E-013  0.7246160E+02  0.7816164E-02  0.1226708E+00
        -11   -1    0    0    0    0  0.00000000000E+00  0.00000000000E+00  0.45593999997E+02  0.45594000000E+02  0.51100000000E-03 0.  1.
         11   -1    0    0    0    0 -0.00000000000E+00 -0.00000000000E+00 -0.45593999997E+02  0.45594000000E+02  0.51100000000E-03 0. -1.
    9900012    2    1    2    0    0 -0.62417497157E+01 -0.16821077253E+02 -0.53637564909E+01  0.72461602504E+02  0.70000041960E+02 0.  0.
        -12    1    1    2    0    0  0.62417497157E+01  0.16821077253E+02  0.53637564909E+01  0.18726397496E+02  0.00000000000E+00 0.  1.
         11    1    3    3    0    0  0.14792516888E+00 -0.30593573913E+01 -0.23122190411E+02  0.23324177138E+02  0.51100000000E-03 0. -1.
        -11    1    3    3    0    0  0.17420729360E+02 -0.11834314582E+02  0.13091338141E+02  0.24797498818E+02  0.51100000000E-03 0.  1.
        -12    1    3    3    0    0 -0.23810404244E+02 -0.19274052799E+01  0.46670957788E+01  0.24339926549E+02  0.00000000000E+00 0.  1.
</event>
<event>
 7    1  0.1830715E-013  0.7246160E+02  0.7816164E-02  0.1226708E+00
        -11   -1    0    0    0    0  0.00000000000E+00  0.00000000000E+00  0.45593999997E+02  0.45594000000E+02  0.51100000000E-03 0. -1.
         11   -1    0    0    0    0 -0.00000000000E+00 -0.00000000000E+00 -0.45593999997E+02  0.45594000000E+02  0.51100000000E-03 0.  1.
    9900012    2    1    2    0    0 -0.10247064757E+02 -0.12179031952E+02  0.98664620414E+01  0.72461595417E+02  0.70000032726E+02 0.  0.
        -12    1    1    2    0    0  0.10247064757E+02  0.12179031952E+02 -0.98664620414E+01  0.18726404583E+02  0.00000000000E+00 0.  1.
         11    1    3    3    0    0  0.15339694863E+02  0.18480674872E+00  0.85033846375E+01  0.17539895740E+02  0.51100000000E-03 0. -1.
        -11    1    3    3    0    0  0.61427374838E+00 -0.14231550476E+02 -0.17513410300E+02  0.22575072575E+02  0.51100000000E-03 0.  1.
        -12    1    3    3    0    0 -0.26201033368E+02  0.18677117753E+01  0.18876487704E+02  0.32346627102E+02  0.00000000000E+00 0.  1.
</event>
<event>
 7    1  0.1830715E-013  0.7246236E+02  0.7816164E-02  0.1226706E+00
        -11   -1    0    0    0    0  0.00000000000E+00  0.00000000000E+00  0.45593999997E+02  0.45594000000E+02  0.51100000000E-03 0.  1.
         11   -1    0    0    0    0 -0.00000000000E+00 -0.00000000000E+00 -0.45593999997E+02  0.45594000000E+02  0.51100000000E-03 0. -1.
    9900012    2    1    2    0    0 -0.30967059209E+01 -0.26863586949E+01 -0.18271389078E+02  0.72462355299E+02  0.70001022607E+02 0.  0.
        -12    1    1    2    0    0  0.30967059209E+01  0.26863586949E+01  0.18271389078E+02  0.18725644701E+02  0.00000000000E+00 0.  1.
         11    1    3    3    0    0 -0.22299708218E+02 -0.15442971899E+02 -0.18252568772E+02  0.32694321138E+02  0.51100000000E-03 0. -1.
        -11    1    3    3    0    0  0.22672100204E+02  0.74896333608E+01 -0.11626716639E+02  0.26557471182E+02  0.51100000000E-03 0.  1.
         12    1    3    3    0    0 -0.34690979072E+01  0.52669798433E+01  0.11607896332E+02  0.13210562979E+02  0.00000000000E+00 0. -1.
</event>
<event>
 7    1  0.1830715E-013  0.7246155E+02  0.7816164E-02  0.1226708E+00
        -11   -1    0    0    0    0  0.00000000000E+00  0.00000000000E+00  0.45593999997E+02  0.45594000000E+02  0.51100000000E-03 0.  1.
         11   -1    0    0    0    0 -0.00000000000E+00 -0.00000000000E+00 -0.45593999997E+02  0.45594000000E+02  0.51100000000E-03 0. -1.
    9900012    2    1    2    0    0 -0.12484543535E+02  0.79852877810E+01  0.11447757879E+02  0.72461553229E+02  0.69999977769E+02 0.  0.
        -12    1    1    2    0    0  0.12484543535E+02 -0.79852877810E+01 -0.11447757879E+02  0.18726446771E+02  0.00000000000E+00 0.  1.
         11    1    3    3    0    0 -0.66988032516E+00  0.67972968647E+01 -0.25399129759E+02  0.26301478610E+02  0.51100000000E-03 0. -1.
        -11    1    3    3    0    0 -0.12433677105E+02 -0.10021994104E+02  0.16771419977E+02  0.23158523711E+02  0.51100000000E-03 0.  1.
        -12    1    3    3    0    0  0.61901389576E+00  0.11209985020E+02  0.20075467661E+02  0.23001550908E+02  0.00000000000E+00 0.  1.
</event>
<event>
 7    1  0.1830715E-013  0.7246158E+02  0.7816164E-02  0.1226708E+00
        -11   -1    0    0    0    0  0.00000000000E+00  0.00000000000E+00  0.45593999997E+02  0.45594000000E+02  0.51100000000E-03 0.  1.
         11   -1    0    0    0    0 -0.00000000000E+00 -0.00000000000E+00 -0.45593999997E+02  0.45594000000E+02  0.51100000000E-03 0. -1.
    9900012    2    1    2    0    0  0.15732730449E+02  0.63796968772E+01 -0.79031282854E+01  0.72461580793E+02  0.70000013676E+02 0.  0.
        -12    1    1    2    0    0 -0.15732730449E+02 -0.63796968772E+01  0.79031282854E+01  0.18726419207E+02  0.00000000000E+00 0.  1.
         11    1    3    3    0    0  0.15736520400E+01  0.24654658838E+02 -0.30422259738E+02  0.39189826116E+02  0.51100000000E-03 0. -1.
        -11    1    3    3    0    0  0.14569345349E+01 -0.75402310025E+01  0.52887363259E+01  0.93246165603E+01  0.51100000000E-03 0.  1.
         12    1    3    3    0    0  0.12702143874E+02 -0.10734730958E+02  0.17230395127E+02  0.23947138117E+02  0.00000000000E+00 0. -1.
</event>
<event>
 7    1  0.1830715E-013  0.7246145E+02  0.7816164E-02  0.1226708E+00
        -11   -1    0    0    0    0  0.00000000000E+00  0.00000000000E+00  0.45593999997E+02  0.45594000000E+02  0.51100000000E-03 0. -1.
         11   -1    0    0    0    0 -0.00000000000E+00 -0.00000000000E+00 -0.45593999997E+02  0.45594000000E+02  0.51100000000E-03 0.  1.
    9900012    2    1    2    0    0 -0.53387123037E+01 -0.14526122113E+02  0.10543882245E+02  0.72461453989E+02  0.69999848490E+02 0.  0.
        -12    1    1    2    0    0  0.53387123037E+01  0.14526122113E+02 -0.10543882245E+02  0.18726546011E+02  0.00000000000E+00 0.  1.
         11    1    3    3    0    0  0.18168055932E+01 -0.33153848775E+01  0.78782952267E+01  0.87384263680E+01  0.51100000000E-03 0. -1.
        -11    1    3    3    0    0  0.25172629506E+02 -0.59499253215E+01 -0.11160187346E+02  0.28171131845E+02  0.51100000000E-03 0.  1.
        -12    1    3    3    0    0 -0.32328147403E+02 -0.52608119140E+01  0.13825774365E+02  0.35551895776E+02  0.00000000000E+00 0.  1.
</event>
<event>
 7    1  0.1830715E-013  0.7246168E+02  0.7816164E-02  0.1226708E+00
        -11   -1    0    0    0    0  0.00000000000E+00  0.00000000000E+00  0.45593999997E+02  0.45594000000E+02  0.51100000000E-03 0.  1.
         11   -1    0    0    0    0 -0.00000000000E+00 -0.00000000000E+00 -0.45593999997E+02  0.45594000000E+02  0.51100000000E-03 0. -1.
    9900012    2    1    2    0    0 -0.17884938711E+02  0.19668698519E+01  0.51899396925E+01  0.72461679387E+02  0.70000142113E+02 0.  0.
        -12    1    1    2    0    0  0.17884938711E+02 -0.19668698519E+01 -0.51899396925E+01  0.18726320613E+02  0.00000000000E+00 0.  1.
         11    1    3    3    0    0  0.24087061248E+01 -0.67827342934E+01  0.24122507551E+02  0.25173452694E+02  0.51100000000E-03 0. -1.
        -11    1    3    3    0    0 -0.22625236580E+01 -0.51535851859E+01 -0.23415346182E+02  0.24082294132E+02  0.51100000000E-03 0.  1.
        -12    1    3    3    0    0 -0.18031121178E+02  0.13903189331E+02  0.44827783235E+01  0.23205932561E+02  0.00000000000E+00 0.  1.
</event>
<event>
 7    1  0.1830715E-013  0.7246168E+02  0.7816164E-02  0.1226708E+00
        -11   -1    0    0    0    0  0.00000000000E+00  0.00000000000E+00  0.45593999997E+02  0.45594000000E+02  0.51100000000E-03 0.  1.
         11   -1    0    0    0    0 -0.00000000000E+00 -0.00000000000E+00 -0.45593999997E+02  0.45594000000E+02  0.51100000000E-03 0. -1.
    9900012    2    1    2    0    0  0.16899049829E+02 -0.53105342257E+01 -0.60741623271E+01  0.72461678769E+02  0.70000141308E+02 0.  0.
        -12    1    1    2    0    0 -0.16899049829E+02  0.53105342257E+01  0.60741623271E+01  0.18726321231E+02  0.00000000000E+00 0.  1.
         11    1    3    3    0    0  0.13429714983E+02 -0.21613234307E+02 -0.13761332284E+02  0.28928591536E+02  0.51100000000E-03 0. -1.
        -11    1    3    3    0    0  0.14788047415E+02  0.19530315632E+02 -0.62588014242E+01  0.25284227703E+02  0.51100000000E-03 0.  1.
        -12    1    3    3    0    0 -0.11318712570E+02 -0.32276155502E+01  0.13945971381E+02  0.18248859530E+02  0.00000000000E+00 0.  1.
</event>
<event>
 7    1  0.1830715E-013  0.7246157E+02  0.7816164E-02  0.1226708E+00
        -11   -1    0    0    0    0  0.00000000000E+00  0.00000000000E+00  0.45593999997E+02  0.45594000000E+02  0.51100000000E-03 0. -1.
         11   -1    0    0    0    0 -0.00000000000E+00 -0.00000000000E+00 -0.45593999997E+02  0.45594000000E+02  0.51100000000E-03 0.  1.
    9900012    2    1    2    0    0 -0.12140575524E+02  0.97171649616E+01  0.10433711716E+02  0.72461569237E+02  0.69999998623E+02 0.  0.
        -12    1    1    2    0    0  0.12140575524E+02 -0.97171649616E+01 -0.10433711716E+02  0.18726430763E+02  0.00000000000E+00 0.  1.
         11    1    3    3    0    0  0.10358678540E+02  0.30458421405E+02  0.20941585834E+02  0.38387076902E+02  0.51100000000E-03 0. -1.
        -11    1    3    3    0    0 -0.13557788804E+02 -0.11356883682E+02 -0.49061580179E+00  0.17692742815E+02  0.51100000000E-03 0.  1.
         12    1    3    3    0    0 -0.89414652606E+01 -0.93843727618E+01 -0.10017258317E+02  0.16381749520E+02  0.00000000000E+00 0. -1.
</event>
<event>
 7    1  0.1830715E-013  0.7246169E+02  0.7816164E-02  0.1226708E+00
        -11   -1    0    0    0    0  0.00000000000E+00  0.00000000000E+00  0.45593999997E+02  0.45594000000E+02  0.51100000000E-03 0. -1.
         11   -1    0    0    0    0 -0.00000000000E+00 -0.00000000000E+00 -0.45593999997E+02  0.45594000000E+02  0.51100000000E-03 0.  1.
    9900012    2    1    2    0    0  0.12132362767E+02  0.99271716224E+01 -0.10243627026E+02  0.72461685430E+02  0.70000149985E+02 0.  0.
        -12    1    1    2    0    0 -0.12132362767E+02 -0.99271716224E+01  0.10243627026E+02  0.18726314570E+02  0.00000000000E+00 0.  1.
         11    1    3    3    0    0 -0.10027516747E+02 -0.17669057868E+02  0.14887109756E+01  0.20370639624E+02  0.51100000000E-03 0. -1.
        -11    1    3    3    0    0  0.75951000154E+01  0.33935757805E+02 -0.95058339170E+01  0.36051103739E+02  0.51100000000E-03 0.  1.
         12    1    3    3    0    0  0.14564779498E+02 -0.63395283146E+01 -0.22265040848E+01  0.16039942067E+02  0.00000000000E+00 0. -1.
</event>
<event>
 7    1  0.1830715E-013  0.7246174E+02  0.7816164E-02  0.1226708E+00
        -11   -1    0    0    0    0  0.00000000000E+00  0.00000000000E+00  0.45593999997E+02  0.45594000000E+02  0.51100000000E-03 0. -1.
         11   -1    0    0    0    0 -0.00000000000E+00 -0.00000000000E+00 -0.45593999997E+02  0.45594000000E+02  0.51100000000E-03 0.  1.
    9900012    2    1    2    0    0  0.15737344638E+02  0.88298988975E+01  0.50041728372E+01  0.72461738318E+02  0.70000218882E+02 0.  0.
        -12    1    1    2    0    0 -0.15737344638E+02 -0.88298988975E+01 -0.50041728372E+01  0.18726261682E+02  0.00000000000E+00 0.  1.
         11    1    3    3    0    0  0.54739498092E+01 -0.87027014764E-01 -0.10369958930E+02  0.11726369800E+02  0.51100000000E-03 0.  1.
        -11    1    3    3    0    0 -0.10757077842E+02  0.27889110054E+02  0.12032869417E+02  0.32222773468E+02  0.51100000000E-03 0. -1.
        -12    1    3    3    0    0  0.21020472671E+02 -0.18972184142E+02  0.33412623504E+01  0.28512595050E+02  0.00000000000E+00 0.  1.
</event>
<event>
 7    1  0.1830715E-013  0.7246152E+02  0.7816164E-02  0.1226708E+00
        -11   -1    0    0    0    0  0.00000000000E+00  0.00000000000E+00  0.45593999997E+02  0.45594000000E+02  0.51100000000E-03 0.  1.
         11   -1    0    0    0    0 -0.00000000000E+00 -0.00000000000E+00 -0.45593999997E+02  0.45594000000E+02  0.51100000000E-03 0. -1.
    9900012    2    1    2    0    0  0.11248210307E+02 -0.14244819302E+02  0.46091131429E+01  0.72461520459E+02  0.69999935080E+02 0.  0.
        -12    1    1    2    0    0 -0.11248210307E+02  0.14244819302E+02 -0.46091131429E+01  0.18726479541E+02  0.00000000000E+00 0.  1.
         11    1    3    3    0    0  0.89011595093E+01  0.26214413761E+01 -0.14130325646E+02  0.16904694573E+02  0.51100000000E-03 0. -1.
        -11    1    3    3    0    0  0.24030123700E+02 -0.18817219971E+02  0.10421192417E+02  0.32251137409E+02  0.51100000000E-03 0.  1.
        -12    1    3    3    0    0 -0.21683072903E+02  0.19509592933E+01  0.83182463718E+01  0.23305688477E+02  0.00000000000E+00 0.  1.
</event>
<event>
 7    1  0.1830715E-013  0.7246158E+02  0.7816164E-02  0.1226708E+00
        -11   -1    0    0    0    0  0.00000000000E+00  0.00000000000E+00  0.45593999997E+02  0.45594000000E+02  0.51100000000E-03 0.  1.
         11   -1    0    0    0    0 -0.00000000000E+00 -0.00000000000E+00 -0.45593999997E+02  0.45594000000E+02  0.51100000000E-03 0. -1.
    9900012    2    1    2    0    0 -0.71425181859E+01  0.81579903965E+01 -0.15267955106E+02  0.72461579454E+02  0.70000011932E+02 0.  0.
        -12    1    1    2    0    0  0.71425181859E+01 -0.81579903965E+01  0.15267955106E+02  0.18726420546E+02  0.00000000000E+00 0.  1.
         11    1    3    3    0    0 -0.30138828841E+02 -0.14435307440E+02 -0.19869882542E+02  0.38878520256E+02  0.51100000000E-03 0. -1.
        -11    1    3    3    0    0  0.15711243077E+02  0.17443301874E+02 -0.14709786454E+00  0.23476234309E+02  0.51100000000E-03 0.  1.
         12    1    3    3    0    0  0.72850675782E+01  0.51499959626E+01  0.47490253001E+01  0.10106824889E+02  0.00000000000E+00 0. -1.
</event>
<event>
 7    1  0.1830715E-013  0.7246155E+02  0.7816164E-02  0.1226708E+00
        -11   -1    0    0    0    0  0.00000000000E+00  0.00000000000E+00  0.45593999997E+02  0.45594000000E+02  0.51100000000E-03 0.  1.
         11   -1    0    0    0    0 -0.00000000000E+00 -0.00000000000E+00 -0.45593999997E+02  0.45594000000E+02  0.51100000000E-03 0. -1.
    9900012    2    1    2    0    0  0.65992527566E+00 -0.17526029984E+02 -0.65637465860E+01  0.72461548184E+02  0.69999971198E+02 0.  0.
        -12    1    1    2    0    0 -0.65992527566E+00  0.17526029984E+02  0.65637465860E+01  0.18726451816E+02  0.00000000000E+00 0.  1.
         11    1    3    3    0    0 -0.12987909705E+02 -0.12319756147E+02  0.25260626465E+02  0.30960643399E+02  0.51100000000E-03 0.  1.
        -11    1    3    3    0    0  0.10539760778E+02  0.12741207052E+01 -0.32587572827E+02  0.34273310955E+02  0.51100000000E-03 0. -1.
        -12    1    3    3    0    0  0.31080742027E+01 -0.64803945424E+01  0.76319977571E+00  0.72275938301E+01  0.00000000000E+00 0.  1.
</event>
<event>
 7    1  0.1830715E-013  0.7246164E+02  0.7816164E-02  0.1226708E+00
        -11   -1    0    0    0    0  0.00000000000E+00  0.00000000000E+00  0.45593999997E+02  0.45594000000E+02  0.51100000000E-03 0. -1.
         11   -1    0    0    0    0 -0.00000000000E+00 -0.00000000000E+00 -0.45593999997E+02  0.45594000000E+02  0.51100000000E-03 0.  1.
    9900012    2    1    2    0    0  0.11000743797E+02 -0.10906981076E+02  0.10521301412E+02  0.72461644677E+02  0.70000096897E+02 0.  0.
        -12    1    1    2    0    0 -0.11000743797E+02  0.10906981076E+02 -0.10521301412E+02  0.18726355323E+02  0.00000000000E+00 0.  1.
         11    1    3    3    0    0 -0.84026675829E+01 -0.16994833300E+02  0.16920608655E+02  0.25411339573E+02  0.51100000000E-03 0. -1.
        -11    1    3    3    0    0  0.12525428102E+02  0.49715071406E+00 -0.24150120185E+02  0.27209590463E+02  0.51100000000E-03 0.  1.
        -12    1    3    3    0    0  0.68779832780E+01  0.55907015099E+01  0.17750812942E+02  0.19840714640E+02  0.00000000000E+00 0.  1.
</event>
<event>
 7    1  0.1830715E-013  0.7246158E+02  0.7816164E-02  0.1226708E+00
        -11   -1    0    0    0    0  0.00000000000E+00  0.00000000000E+00  0.45593999997E+02  0.45594000000E+02  0.51100000000E-03 0.  1.
         11   -1    0    0    0    0 -0.00000000000E+00 -0.00000000000E+00 -0.45593999997E+02  0.45594000000E+02  0.51100000000E-03 0. -1.
    9900012    2    1    2    0    0  0.10240739618E+02  0.25821986465E+01 -0.15464097249E+02  0.72461580121E+02  0.70000012801E+02 0.  0.
        -12    1    1    2    0    0 -0.10240739618E+02 -0.25821986465E+01  0.15464097249E+02  0.18726419879E+02  0.00000000000E+00 0.  1.
         11    1    3    3    0    0 -0.11247973145E+02  0.25931535560E+01 -0.16775789947E+02  0.20363410172E+02  0.51100000000E-03 0. -1.
        -11    1    3    3    0    0  0.13579906957E+02  0.13105691099E+02  0.20289994858E+02  0.27710231031E+02  0.51100000000E-03 0.  1.
        -12    1    3    3    0    0  0.79088058052E+01 -0.13116646009E+02 -0.18978302160E+02  0.24387938918E+02  0.00000000000E+00 0.  1.
</event>
<event>
 7    1  0.1830715E-013  0.7246175E+02  0.7816164E-02  0.1226708E+00
        -11   -1    0    0    0    0  0.00000000000E+00  0.00000000000E+00  0.45593999997E+02  0.45594000000E+02  0.51100000000E-03 0. -1.
         11   -1    0    0    0    0 -0.00000000000E+00 -0.00000000000E+00 -0.45593999997E+02  0.45594000000E+02  0.51100000000E-03 0.  1.
    9900012    2    1    2    0    0  0.18562520739E+02  0.38917466880E-01  0.24705536361E+01  0.72461753018E+02  0.70000238031E+02 0.  0.
        -12    1    1    2    0    0 -0.18562520739E+02 -0.38917466880E-01 -0.24705536361E+01  0.18726246982E+02  0.00000000000E+00 0.  1.
         11    1    3    3    0    0 -0.40020073669E+01  0.13261491526E+02  0.25951242169E+02  0.29416835160E+02  0.51100000000E-03 0. -1.
        -11    1    3    3    0    0  0.21256913402E+02 -0.72160585750E-01 -0.20428113781E+02  0.29481679182E+02  0.51100000000E-03 0.  1.
         12    1    3    3    0    0  0.13076147045E+01 -0.13150413474E+02 -0.30525747520E+01  0.13563238675E+02  0.00000000000E+00 0. -1.
</event>
<event>
 7    1  0.1830715E-013  0.7246157E+02  0.7816164E-02  0.1226708E+00
        -11   -1    0    0    0    0  0.00000000000E+00  0.00000000000E+00  0.45593999997E+02  0.45594000000E+02  0.51100000000E-03 0. -1.
         11   -1    0    0    0    0 -0.00000000000E+00 -0.00000000000E+00 -0.45593999997E+02  0.45594000000E+02  0.51100000000E-03 0.  1.
    9900012    2    1    2    0    0 -0.72849363825E+01 -0.83106675429E+00  0.17231316340E+02  0.72461568603E+02  0.69999997797E+02 0.  0.
        -12    1    1    2    0    0  0.72849363825E+01  0.83106675429E+00 -0.17231316340E+02  0.18726431397E+02  0.00000000000E+00 0.  1.
         11    1    3    3    0    0  0.48628700766E+01 -0.16929793920E+02  0.14487753111E+02  0.22807025629E+02  0.51100000000E-03 0. -1.
        -11    1    3    3    0    0 -0.26321824029E+02  0.13549942790E+02  0.12629990845E+02  0.32186270968E+02  0.51100000000E-03 0.  1.
         12    1    3    3    0    0  0.14174017570E+02  0.25487843754E+01 -0.98864276162E+01  0.17468272006E+02  0.00000000000E+00 0. -1.
</event>
<event>
 7    1  0.1830715E-013  0.7246157E+02  0.7816164E-02  0.1226708E+00
        -11   -1    0    0    0    0  0.00000000000E+00  0.00000000000E+00  0.45593999997E+02  0.45594000000E+02  0.51100000000E-03 0. -1.
         11   -1    0    0    0    0 -0.00000000000E+00 -0.00000000000E+00 -0.45593999997E+02  0.45594000000E+02  0.51100000000E-03 0.  1.
    9900012    2    1    2    0    0 -0.15039440335E+02 -0.94941582818E+01  0.58613447314E+01  0.72461570305E+02  0.70000000013E+02 0.  0.
        -12    1    1    2    0    0  0.15039440335E+02  0.94941582818E+01 -0.58613447314E+01  0.18726429695E+02  0.00000000000E+00 0.  1.
         11    1    3    3    0    0  0.28322033824E+01  0.92219077109E+01  0.22443549050E+02  0.24429037068E+02  0.51100000000E-03 0. -1.
        -11    1    3    3    0    0 -0.13501865020E+02 -0.51116989000E+01 -0.26817038654E+02  0.30456253661E+02  0.51100000000E-03 0.  1.
         12    1    3    3    0    0 -0.43697786977E+01 -0.13604367093E+02  0.10234834335E+02  0.17576279576E+02  0.00000000000E+00 0. -1.
</event>
<event>
 7    1  0.1830715E-013  0.7246158E+02  0.7816164E-02  0.1226708E+00
        -11   -1    0    0    0    0  0.00000000000E+00  0.00000000000E+00  0.45593999997E+02  0.45594000000E+02  0.51100000000E-03 0.  1.
         11   -1    0    0    0    0 -0.00000000000E+00 -0.00000000000E+00 -0.45593999997E+02  0.45594000000E+02  0.51100000000E-03 0. -1.
    9900012    2    1    2    0    0 -0.35313883496E+01  0.14817647249E+02  0.10892455117E+02  0.72461576099E+02  0.70000007561E+02 0.  0.
        -12    1    1    2    0    0  0.35313883496E+01 -0.14817647249E+02 -0.10892455117E+02  0.18726423901E+02  0.00000000000E+00 0.  1.
         11    1    3    3    0    0  0.76013392535E+01 -0.33747672853E+01 -0.10166834651E+02  0.13135217538E+02  0.51100000000E-03 0. -1.
        -11    1    3    3    0    0 -0.65804956817E+01  0.35672091140E+02  0.19534258956E+02  0.41199372361E+02  0.51100000000E-03 0.  1.
        -12    1    3    3    0    0 -0.45522319214E+01 -0.17479676606E+02  0.15250308120E+01  0.18126986200E+02  0.00000000000E+00 0.  1.
</event>
<event>
 7    1  0.1830715E-013  0.7246154E+02  0.7816164E-02  0.1226708E+00
        -11   -1    0    0    0    0  0.00000000000E+00  0.00000000000E+00  0.45593999997E+02  0.45594000000E+02  0.51100000000E-03 0.  1.
         11   -1    0    0    0    0 -0.00000000000E+00 -0.00000000000E+00 -0.45593999997E+02  0.45594000000E+02  0.51100000000E-03 0. -1.
    9900012    2    1    2    0    0 -0.13513030672E+02 -0.18598952536E+01 -0.12830394635E+02  0.72461541851E+02  0.69999962948E+02 0.  0.
        -12    1    1    2    0    0  0.13513030672E+02  0.18598952536E+01  0.12830394635E+02  0.18726458149E+02  0.00000000000E+00 0.  1.
         11    1    3    3    0    0  0.66691165494E+01 -0.24491800719E+02  0.16165136366E+02  0.30093804213E+02  0.51100000000E-03 0. -1.
        -11    1    3    3    0    0 -0.13593240626E+02  0.10856763258E+02 -0.16119861149E+02  0.23716985957E+02  0.51100000000E-03 0.  1.
         12    1    3    3    0    0 -0.65889065958E+01  0.11775142208E+02 -0.12875669853E+02  0.18650751682E+02  0.00000000000E+00 0. -1.
</event>
<event>
 7    1  0.1830715E-013  0.7246165E+02  0.7816164E-02  0.1226708E+00
        -11   -1    0    0    0    0  0.00000000000E+00  0.00000000000E+00  0.45593999997E+02  0.45594000000E+02  0.51100000000E-03 0.  1.
         11   -1    0    0    0    0 -0.00000000000E+00 -0.00000000000E+00 -0.45593999997E+02  0.45594000000E+02  0.51100000000E-03 0. -1.
    9900012    2    1    2    0    0  0.93028993324E+01  0.94161696595E+01 -0.13246429448E+02  0.72461652781E+02  0.70000107454E+02 0.  0.
        -12    1    1    2    0    0 -0.93028993324E+01 -0.94161696595E+01  0.13246429448E+02  0.18726347219E+02  0.00000000000E+00 0.  1.
         11    1    3    3    0    0  0.76681996340E+01  0.37231431620E+02 -0.13588068546E+02  0.40368507443E+02  0.51100000000E-03 0. -1.
        -11    1    3    3    0    0  0.73506238331E+00 -0.10692978495E+02  0.79402204617E+01  0.13338935754E+02  0.51100000000E-03 0.  1.
         12    1    3    3    0    0  0.89963731511E+00 -0.17122283466E+02 -0.75985813636E+01  0.18754209584E+02  0.00000000000E+00 0. -1.
</event>
<event>
 7    1  0.1830715E-013  0.7246143E+02  0.7816164E-02  0.1226708E+00
        -11   -1    0    0    0    0  0.00000000000E+00  0.00000000000E+00  0.45593999997E+02  0.45594000000E+02  0.51100000000E-03 0. -1.
         11   -1    0    0    0    0 -0.00000000000E+00 -0.00000000000E+00 -0.45593999997E+02  0.45594000000E+02  0.51100000000E-03 0.  1.
    9900012    2    1    2    0    0  0.11247229537E+02 -0.26710107813E+01  0.14732612340E+02  0.72461432316E+02  0.69999820257E+02 0.  0.
        -12    1    1    2    0    0 -0.11247229537E+02  0.26710107813E+01 -0.14732612340E+02  0.18726567684E+02  0.00000000000E+00 0.  1.
         11    1    3    3    0    0  0.41980394147E+00 -0.20245092289E+02  0.14993533865E+02  0.25196151594E+02  0.51100000000E-03 0. -1.
        -11    1    3    3    0    0  0.23963670453E+02 -0.93208391879E+00 -0.38496735013E+01  0.24288809529E+02  0.51100000000E-03 0.  1.
        -12    1    3    3    0    0 -0.13136244857E+02  0.18506165427E+02  0.35887519765E+01  0.22976471193E+02  0.00000000000E+00 0.  1.
</event>
<event>
 7    1  0.1830715E-013  0.7246161E+02  0.7816164E-02  0.1226708E+00
        -11   -1    0    0    0    0  0.00000000000E+00  0.00000000000E+00  0.45593999997E+02  0.45594000000E+02  0.51100000000E-03 0.  1.
         11   -1    0    0    0    0 -0.00000000000E+00 -0.00000000000E+00 -0.45593999997E+02  0.45594000000E+02  0.51100000000E-03 0. -1.
    9900012    2    1    2    0    0  0.14221320357E+02 -0.11637635186E+02 -0.36051618619E+01  0.72461609599E+02  0.70000051201E+02 0.  0.
        -12    1    1    2    0    0 -0.14221320357E+02  0.11637635186E+02  0.36051618619E+01  0.18726390401E+02  0.00000000000E+00 0.  1.
         11    1    3    3    0    0  0.38961269318E+02 -0.86814638419E+01 -0.89292874043E+01  0.40903306652E+02  0.51100000000E-03 0. -1.
        -11    1    3    3    0    0 -0.64391608142E+01  0.74203171299E+01 -0.12791822650E+00  0.98254904017E+01  0.51100000000E-03 0.  1.
         12    1    3    3    0    0 -0.18300788146E+02 -0.10376488474E+02  0.54520437689E+01  0.21732812544E+02  0.00000000000E+00 0. -1.
</event>
<event>
 7    1  0.1830715E-013  0.7246163E+02  0.7816164E-02  0.1226708E+00
        -11   -1    0    0    0    0  0.00000000000E+00  0.00000000000E+00  0.45593999997E+02  0.45594000000E+02  0.51100000000E-03 0. -1.
         11   -1    0    0    0    0 -0.00000000000E+00 -0.00000000000E+00 -0.45593999997E+02  0.45594000000E+02  0.51100000000E-03 0.  1.
    9900012    2    1    2    0    0  0.15927729336E+02 -0.42740729534E+01 -0.88722516554E+01  0.72461625262E+02  0.70000071605E+02 0.  0.
        -12    1    1    2    0    0 -0.15927729336E+02  0.42740729534E+01  0.88722516554E+01  0.18726374738E+02  0.00000000000E+00 0.  1.
         11    1    3    3    0    0  0.16746939473E+02  0.15215755502E+02 -0.18300430656E+02  0.29101287938E+02  0.51100000000E-03 0. -1.
        -11    1    3    3    0    0  0.11844320004E+02 -0.12777934518E+02  0.19266546253E+02  0.25976207030E+02  0.51100000000E-03 0.  1.
        -12    1    3    3    0    0 -0.12663530141E+02 -0.67118939372E+01 -0.98383672524E+01  0.17384130293E+02  0.00000000000E+00 0.  1.
</event>
<event>
 7    1  0.1830715E-013  0.7246159E+02  0.7816164E-02  0.1226708E+00
        -11   -1    0    0    0    0  0.00000000000E+00  0.00000000000E+00  0.45593999997E+02  0.45594000000E+02  0.51100000000E-03 0.  1.
         11   -1    0    0    0    0 -0.00000000000E+00 -0.00000000000E+00 -0.45593999997E+02  0.45594000000E+02  0.51100000000E-03 0. -1.
    9900012    2    1    2    0    0  0.17124759256E+01 -0.76422650475E+01 -0.17010046245E+02  0.72461589183E+02  0.70000024606E+02 0.  0.
        -12    1    1    2    0    0 -0.17124759256E+01  0.76422650475E+01  0.17010046245E+02  0.18726410817E+02  0.00000000000E+00 0.  1.
         11    1    3    3    0    0 -0.72262862805E-01 -0.14023478582E+02 -0.27314763368E-01  0.14023691377E+02  0.51100000000E-03 0. -1.
        -11    1    3    3    0    0 -0.70855541772E+00  0.27963086304E+02  0.39730677221E+01  0.28252814264E+02  0.51100000000E-03 0.  1.
        -12    1    3    3    0    0  0.24932942061E+01 -0.21581872769E+02 -0.20955799203E+02  0.30185083543E+02  0.00000000000E+00 0.  1.
</event>
<event>
 7    1  0.1830715E-013  0.7246156E+02  0.7816164E-02  0.1226708E+00
        -11   -1    0    0    0    0  0.00000000000E+00  0.00000000000E+00  0.45593999997E+02  0.45594000000E+02  0.51100000000E-03 0.  1.
         11   -1    0    0    0    0 -0.00000000000E+00 -0.00000000000E+00 -0.45593999997E+02  0.45594000000E+02  0.51100000000E-03 0. -1.
    9900012    2    1    2    0    0  0.21702262549E+01  0.18580307150E+02  0.86135008249E+00  0.72461558273E+02  0.69999984340E+02 0.  0.
        -12    1    1    2    0    0 -0.21702262549E+01 -0.18580307150E+02 -0.86135008249E+00  0.18726441727E+02  0.00000000000E+00 0.  1.
         11    1    3    3    0    0 -0.97456490638E+00 -0.12622770245E+02 -0.22240705624E+02  0.25591660601E+02  0.51100000000E-03 0. -1.
        -11    1    3    3    0    0 -0.10254429352E+02  0.14940428636E+02  0.17207476759E+02  0.24989337442E+02  0.51100000000E-03 0.  1.
        -12    1    3    3    0    0  0.13399220513E+02  0.16262648759E+02  0.58945789475E+01  0.21880560230E+02  0.00000000000E+00 0.  1.
</event>
<event>
 7    1  0.1830715E-013  0.7246164E+02  0.7816164E-02  0.1226708E+00
        -11   -1    0    0    0    0  0.00000000000E+00  0.00000000000E+00  0.45593999997E+02  0.45594000000E+02  0.51100000000E-03 0.  1.
         11   -1    0    0    0    0 -0.00000000000E+00 -0.00000000000E+00 -0.45593999997E+02  0.45594000000E+02  0.51100000000E-03 0. -1.
    9900012    2    1    2    0    0  0.15071749906E+01 -0.24063471600E+01 -0.18509849787E+02  0.72461638307E+02  0.70000088599E+02 0.  0.
        -12    1    1    2    0    0 -0.15071749906E+01  0.24063471600E+01  0.18509849787E+02  0.18726361693E+02  0.00000000000E+00 0.  1.
         11    1    3    3    0    0  0.21931804234E+02  0.14133996427E+02 -0.21854224834E+02  0.34034997214E+02  0.51100000000E-03 0.  1.
        -11    1    3    3    0    0 -0.50805662061E+01 -0.21327834001E+02 -0.37712547520E+00  0.21927856257E+02  0.51100000000E-03 0. -1.
        -12    1    3    3    0    0 -0.15344063038E+02  0.47874904137E+01  0.37215005223E+01  0.16498784837E+02  0.00000000000E+00 0.  1.
</event>
<event>
 7    1  0.1830715E-013  0.7246195E+02  0.7816164E-02  0.1226707E+00
        -11   -1    0    0    0    0  0.00000000000E+00  0.00000000000E+00  0.45593999997E+02  0.45594000000E+02  0.51100000000E-03 0. -1.
         11   -1    0    0    0    0 -0.00000000000E+00 -0.00000000000E+00 -0.45593999997E+02  0.45594000000E+02  0.51100000000E-03 0.  1.
    9900012    2    1    2    0    0  0.37971896434E+01  0.47858252679E+01  0.17701469662E+02  0.72461953944E+02  0.70000499773E+02 0.  0.
        -12    1    1    2    0    0 -0.37971896434E+01 -0.47858252679E+01 -0.17701469662E+02  0.18726046056E+02  0.00000000000E+00 0.  1.
         11    1    3    3    0    0  0.50537017796E+01 -0.90537476497E+01 -0.21266688419E+01  0.10584562759E+02  0.51100000000E-03 0. -1.
        -11    1    3    3    0    0 -0.16474451314E+02  0.23019430603E+02  0.30124845180E+02  0.41337731297E+02  0.51100000000E-03 0.  1.
        -12    1    3    3    0    0  0.15217939177E+02 -0.91798576858E+01 -0.10296706676E+02  0.20539659888E+02  0.00000000000E+00 0.  1.
</event>
<event>
 7    1  0.1830715E-013  0.7246159E+02  0.7816164E-02  0.1226708E+00
        -11   -1    0    0    0    0  0.00000000000E+00  0.00000000000E+00  0.45593999997E+02  0.45594000000E+02  0.51100000000E-03 0.  1.
         11   -1    0    0    0    0 -0.00000000000E+00 -0.00000000000E+00 -0.45593999997E+02  0.45594000000E+02  0.51100000000E-03 0. -1.
    9900012    2    1    2    0    0 -0.44864252313E+01  0.16110353576E+02  0.84265573120E+01  0.72461591592E+02  0.70000027745E+02 0.  0.
        -12    1    1    2    0    0  0.44864252313E+01 -0.16110353576E+02 -0.84265573120E+01  0.18726408408E+02  0.00000000000E+00 0.  1.
         11    1    3    3    0    0 -0.23529701919E+02  0.83401475549E+01 -0.41092540407E+01  0.25300017839E+02  0.51100000000E-03 0. -1.
        -11    1    3    3    0    0  0.16075255342E+02 -0.10355285856E+02  0.19693203836E+02  0.27449372616E+02  0.51100000000E-03 0.  1.
         12    1    3    3    0    0  0.29680213462E+01  0.18125491877E+02 -0.71573924830E+01  0.19712201137E+02  0.00000000000E+00 0. -1.
</event>
<event>
 7    1  0.1830715E-013  0.7246151E+02  0.7816164E-02  0.1226708E+00
        -11   -1    0    0    0    0  0.00000000000E+00  0.00000000000E+00  0.45593999997E+02  0.45594000000E+02  0.51100000000E-03 0.  1.
         11   -1    0    0    0    0 -0.00000000000E+00 -0.00000000000E+00 -0.45593999997E+02  0.45594000000E+02  0.51100000000E-03 0. -1.
    9900012    2    1    2    0    0 -0.10129546073E+02  0.12440749024E+02 -0.96592676452E+01  0.72461510971E+02  0.69999922720E+02 0.  0.
        -12    1    1    2    0    0  0.10129546073E+02 -0.12440749024E+02  0.96592676452E+01  0.18726489029E+02  0.00000000000E+00 0.  1.
         11    1    3    3    0    0  0.83706445783E+01  0.51855534830E+01 -0.57381924185E+01  0.11396688470E+02  0.51100000000E-03 0.  1.
        -11    1    3    3    0    0 -0.19983173928E+02 -0.20152065353E+02 -0.14226883411E+02  0.31746451614E+02  0.51100000000E-03 0. -1.
        -12    1    3    3    0    0  0.14829832764E+01  0.27407260894E+02  0.10305808185E+02  0.29318370887E+02  0.00000000000E+00 0.  1.
</event>
<event>
 7    1  0.1830715E-013  0.7246153E+02  0.7816164E-02  0.1226708E+00
        -11   -1    0    0    0    0  0.00000000000E+00  0.00000000000E+00  0.45593999997E+02  0.45594000000E+02  0.51100000000E-03 0.  1.
         11   -1    0    0    0    0 -0.00000000000E+00 -0.00000000000E+00 -0.45593999997E+02  0.45594000000E+02  0.51100000000E-03 0. -1.
    9900012    2    1    2    0    0 -0.13795082639E+02  0.50513557509E+01 -0.11612925312E+02  0.72461533856E+02  0.69999952532E+02 0.  0.
        -12    1    1    2    0    0  0.13795082639E+02 -0.50513557509E+01  0.11612925312E+02  0.18726466144E+02  0.00000000000E+00 0.  1.
         11    1    3    3    0    0  0.38438209477E+01 -0.61217294778E+01 -0.29408222541E+02  0.30283561293E+02  0.51100000000E-03 0. -1.
        -11    1    3    3    0    0 -0.14135753721E+02 -0.75014140116E+00  0.24321741786E+02  0.28141239652E+02  0.51100000000E-03 0.  1.
        -12    1    3    3    0    0 -0.35031498661E+01  0.11923226630E+02 -0.65264445567E+01  0.14036732911E+02  0.00000000000E+00 0.  1.
</event>
<event>
 7    1  0.1830715E-013  0.7246089E+02  0.7816164E-02  0.1226710E+00
        -11   -1    0    0    0    0  0.00000000000E+00  0.00000000000E+00  0.45593999997E+02  0.45594000000E+02  0.51100000000E-03 0.  1.
         11   -1    0    0    0    0 -0.00000000000E+00 -0.00000000000E+00 -0.45593999997E+02  0.45594000000E+02  0.51100000000E-03 0. -1.
    9900012    2    1    2    0    0 -0.11755388344E+02  0.14150666249E+02 -0.35034339547E+01  0.72460892378E+02  0.69999116883E+02 0.  0.
        -12    1    1    2    0    0  0.11755388344E+02 -0.14150666249E+02  0.35034339547E+01  0.18727107622E+02  0.00000000000E+00 0.  1.
         11    1    3    3    0    0  0.13161141099E+02  0.16360538603E+02  0.17191429073E+02  0.27137208630E+02  0.51100000000E-03 0.  1.
        -11    1    3    3    0    0  0.24224030340E+00 -0.42325403751E+01 -0.19607221201E+02  0.20060314103E+02  0.51100000000E-03 0. -1.
        -12    1    3    3    0    0 -0.25158769747E+02  0.20226680212E+01 -0.10876418257E+01  0.25263369645E+02  0.00000000000E+00 0.  1.
</event>
<event>
 7    1  0.1830715E-013  0.7246153E+02  0.7816164E-02  0.1226708E+00
        -11   -1    0    0    0    0  0.00000000000E+00  0.00000000000E+00  0.45593999997E+02  0.45594000000E+02  0.51100000000E-03 0. -1.
         11   -1    0    0    0    0 -0.00000000000E+00 -0.00000000000E+00 -0.45593999997E+02  0.45594000000E+02  0.51100000000E-03 0.  1.
    9900012    2    1    2    0    0 -0.14150990481E+00 -0.87074321288E+01 -0.16578337980E+02  0.72461529710E+02  0.69999947132E+02 0.  0.
        -12    1    1    2    0    0  0.14150990481E+00  0.87074321288E+01  0.16578337980E+02  0.18726470290E+02  0.00000000000E+00 0.  1.
         11    1    3    3    0    0  0.20484913662E+02  0.16505984011E+02 -0.12646768563E+02  0.29189380796E+02  0.51100000000E-03 0. -1.
        -11    1    3    3    0    0 -0.12888704726E+02 -0.62770569511E+01  0.10896426377E+02  0.18007005901E+02  0.51100000000E-03 0.  1.
         12    1    3    3    0    0 -0.77377188414E+01 -0.18936359189E+02 -0.14827995794E+02  0.25265143013E+02  0.00000000000E+00 0. -1.
</event>
<event>
 7    1  0.1830715E-013  0.7246154E+02  0.7816164E-02  0.1226708E+00
        -11   -1    0    0    0    0  0.00000000000E+00  0.00000000000E+00  0.45593999997E+02  0.45594000000E+02  0.51100000000E-03 0.  1.
         11   -1    0    0    0    0 -0.00000000000E+00 -0.00000000000E+00 -0.45593999997E+02  0.45594000000E+02  0.51100000000E-03 0. -1.
    9900012    2    1    2    0    0 -0.87266792247E+01 -0.46417069745E+01 -0.15905347232E+02  0.72461536252E+02  0.69999955653E+02 0.  0.
        -12    1    1    2    0    0  0.87266792247E+01  0.46417069745E+01  0.15905347232E+02  0.18726463748E+02  0.00000000000E+00 0.  1.
         11    1    3    3    0    0 -0.98669826257E+01 -0.16419341817E+02 -0.35596913360E+02  0.40423908431E+02  0.51100000000E-03 0. -1.
        -11    1    3    3    0    0  0.78205199130E+01 -0.35137971427E+01  0.62385652689E+01  0.10603159857E+02  0.51100000000E-03 0.  1.
         12    1    3    3    0    0 -0.66802165120E+01  0.15291431985E+02  0.13453000858E+02  0.21434467964E+02  0.00000000000E+00 0. -1.
</event>
<event>
 7    1  0.1830715E-013  0.7246142E+02  0.7816164E-02  0.1226708E+00
        -11   -1    0    0    0    0  0.00000000000E+00  0.00000000000E+00  0.45593999997E+02  0.45594000000E+02  0.51100000000E-03 0.  1.
         11   -1    0    0    0    0 -0.00000000000E+00 -0.00000000000E+00 -0.45593999997E+02  0.45594000000E+02  0.51100000000E-03 0. -1.
    9900012    2    1    2    0    0 -0.17003872572E+01  0.17768634749E+02 -0.56629458190E+01  0.72461423884E+02  0.69999809274E+02 0.  0.
        -12    1    1    2    0    0  0.17003872572E+01 -0.17768634749E+02  0.56629458190E+01  0.18726576116E+02  0.00000000000E+00 0.  1.
         11    1    3    3    0    0 -0.70302195441E+01 -0.20004776529E+02 -0.10170456523E+02  0.23517084363E+02  0.51100000000E-03 0. -1.
        -11    1    3    3    0    0 -0.99941556264E+01  0.25807848476E+02 -0.35430291131E+01  0.27901276767E+02  0.51100000000E-03 0.  1.
         12    1    3    3    0    0  0.15323987913E+02  0.11965562802E+02  0.80505398169E+01  0.21043062754E+02  0.00000000000E+00 0. -1.
</event>
<event>
 7    1  0.1830715E-013  0.7246159E+02  0.7816164E-02  0.1226708E+00
        -11   -1    0    0    0    0  0.00000000000E+00  0.00000000000E+00  0.45593999997E+02  0.45594000000E+02  0.51100000000E-03 0.  1.
         11   -1    0    0    0    0 -0.00000000000E+00 -0.00000000000E+00 -0.45593999997E+02  0.45594000000E+02  0.51100000000E-03 0. -1.
    9900012    2    1    2    0    0 -0.87495253814E+01  0.11750465781E+01 -0.16514953429E+02  0.72461585084E+02  0.70000019266E+02 0.  0.
        -12    1    1    2    0    0  0.87495253814E+01 -0.11750465781E+01  0.16514953429E+02  0.18726414916E+02  0.00000000000E+00 0.  1.
         11    1    3    3    0    0 -0.20401199638E+01 -0.13338884234E+02 -0.34442738853E+02  0.36991758298E+02  0.51100000000E-03 0. -1.
        -11    1    3    3    0    0 -0.88254633854E+01  0.21066672567E+02  0.99013170139E+01  0.24894368357E+02  0.51100000000E-03 0.  1.
        -12    1    3    3    0    0  0.21160579678E+01 -0.65527417553E+01  0.80264684100E+01  0.10575458428E+02  0.00000000000E+00 0.  1.
</event>
<event>
 7    1  0.1830715E-013  0.7246224E+02  0.7816164E-02  0.1226706E+00
        -11   -1    0    0    0    0  0.00000000000E+00  0.00000000000E+00  0.45593999997E+02  0.45594000000E+02  0.51100000000E-03 0.  1.
         11   -1    0    0    0    0 -0.00000000000E+00 -0.00000000000E+00 -0.45593999997E+02  0.45594000000E+02  0.51100000000E-03 0. -1.
    9900012    2    1    2    0    0 -0.15715406502E+02 -0.64451531769E+01 -0.78829057392E+01  0.72462236895E+02  0.70000868365E+02 0.  0.
        -12    1    1    2    0    0  0.15715406502E+02  0.64451531769E+01  0.78829057392E+01  0.18725763105E+02  0.00000000000E+00 0.  1.
         11    1    3    3    0    0 -0.17487026641E+02 -0.19763462983E+02 -0.15428206608E+02  0.30568286331E+02  0.51100000000E-03 0. -1.
        -11    1    3    3    0    0  0.17699458720E+02  0.17343384642E+02  0.45197197625E+01  0.25189118619E+02  0.51100000000E-03 0.  1.
         12    1    3    3    0    0 -0.15927838580E+02 -0.40250748360E+01  0.30255811064E+01  0.16704831944E+02  0.00000000000E+00 0. -1.
</event>
<event>
 7    1  0.1830715E-013  0.7246163E+02  0.7816164E-02  0.1226708E+00
        -11   -1    0    0    0    0  0.00000000000E+00  0.00000000000E+00  0.45593999997E+02  0.45594000000E+02  0.51100000000E-03 0. -1.
         11   -1    0    0    0    0 -0.00000000000E+00 -0.00000000000E+00 -0.45593999997E+02  0.45594000000E+02  0.51100000000E-03 0.  1.
    9900012    2    1    2    0    0  0.91967758087E+01  0.15083438979E+02 -0.62117632523E+01  0.72461633043E+02  0.70000081741E+02 0.  0.
        -12    1    1    2    0    0 -0.91967758087E+01 -0.15083438979E+02  0.62117632523E+01  0.18726366957E+02  0.00000000000E+00 0.  1.
         11    1    3    3    0    0 -0.52389893794E+01  0.11903745942E+02 -0.27841969151E+02  0.30729813270E+02  0.51100000000E-03 0. -1.
        -11    1    3    3    0    0  0.23199996063E+02  0.14970135109E+01  0.64562634373E+01  0.24128079174E+02  0.51100000000E-03 0.  1.
         12    1    3    3    0    0 -0.87642308753E+01  0.16826795266E+01  0.15173942461E+02  0.17603740598E+02  0.00000000000E+00 0. -1.
</event>
<event>
 7    1  0.1830715E-013  0.7246157E+02  0.7816164E-02  0.1226708E+00
        -11   -1    0    0    0    0  0.00000000000E+00  0.00000000000E+00  0.45593999997E+02  0.45594000000E+02  0.51100000000E-03 0. -1.
         11   -1    0    0    0    0 -0.00000000000E+00 -0.00000000000E+00 -0.45593999997E+02  0.45594000000E+02  0.51100000000E-03 0.  1.
    9900012    2    1    2    0    0  0.74079114504E+01  0.86846600370E+01 -0.14845158709E+02  0.72461569237E+02  0.69999998623E+02 0.  0.
        -12    1    1    2    0    0 -0.74079114504E+01 -0.86846600370E+01  0.14845158709E+02  0.18726430763E+02  0.00000000000E+00 0.  1.
         11    1    3    3    0    0 -0.18978371262E+02  0.21010366833E+02 -0.46760170859E+00  0.28316651317E+02  0.51100000000E-03 0. -1.
        -11    1    3    3    0    0  0.19534199670E+02 -0.22285404062E+02 -0.96905477109E+01  0.31179013874E+02  0.51100000000E-03 0.  1.
         12    1    3    3    0    0  0.68520830422E+01  0.99596972661E+01 -0.46870092896E+01  0.12965904046E+02  0.00000000000E+00 0. -1.
</event>
<event>
 7    1  0.1830715E-013  0.7246159E+02  0.7816164E-02  0.1226708E+00
        -11   -1    0    0    0    0  0.00000000000E+00  0.00000000000E+00  0.45593999997E+02  0.45594000000E+02  0.51100000000E-03 0.  1.
         11   -1    0    0    0    0 -0.00000000000E+00 -0.00000000000E+00 -0.45593999997E+02  0.45594000000E+02  0.51100000000E-03 0. -1.
    9900012    2    1    2    0    0 -0.87277023271E+01  0.16556005057E+01 -0.16485290678E+02  0.72461585242E+02  0.70000019472E+02 0.  0.
        -12    1    1    2    0    0  0.87277023271E+01 -0.16556005057E+01  0.16485290678E+02  0.18726414758E+02  0.00000000000E+00 0.  1.
         11    1    3    3    0    0 -0.11151608250E+02  0.71386421314E+01 -0.33605979580E+02  0.36120360489E+02  0.51100000000E-03 0. -1.
        -11    1    3    3    0    0  0.79355188810E+01  0.10688982076E+02  0.13332274536E+02  0.18840815861E+02  0.51100000000E-03 0.  1.
         12    1    3    3    0    0 -0.55116129578E+01 -0.16172023702E+02  0.37884143652E+01  0.17500408893E+02  0.00000000000E+00 0. -1.
</event>
<event>
 7    1  0.1830715E-013  0.7246156E+02  0.7816164E-02  0.1226708E+00
        -11   -1    0    0    0    0  0.00000000000E+00  0.00000000000E+00  0.45593999997E+02  0.45594000000E+02  0.51100000000E-03 0. -1.
         11   -1    0    0    0    0 -0.00000000000E+00 -0.00000000000E+00 -0.45593999997E+02  0.45594000000E+02  0.51100000000E-03 0.  1.
    9900012    2    1    2    0    0  0.13613581899E+02 -0.30177059041E+01 -0.12499735092E+02  0.72461560445E+02  0.69999987170E+02 0.  0.
        -12    1    1    2    0    0 -0.13613581899E+02  0.30177059041E+01  0.12499735092E+02  0.18726439555E+02  0.00000000000E+00 0.  1.
         11    1    3    3    0    0  0.10431136110E+02 -0.27444990486E+02 -0.84640820312E+01  0.30556125216E+02  0.51100000000E-03 0. -1.
        -11    1    3    3    0    0 -0.14322935634E+02  0.17627253325E+02 -0.43380240886E+01  0.23123256652E+02  0.51100000000E-03 0.  1.
        -12    1    3    3    0    0  0.17505381423E+02  0.68000312565E+01  0.30237102837E+00  0.18782178577E+02  0.00000000000E+00 0.  1.
</event>
<event>
 7    1  0.1830715E-013  0.7246160E+02  0.7816164E-02  0.1226708E+00
        -11   -1    0    0    0    0  0.00000000000E+00  0.00000000000E+00  0.45593999997E+02  0.45594000000E+02  0.51100000000E-03 0.  1.
         11   -1    0    0    0    0 -0.00000000000E+00 -0.00000000000E+00 -0.45593999997E+02  0.45594000000E+02  0.51100000000E-03 0. -1.
    9900012    2    1    2    0    0  0.93135153599E+01 -0.78095211375E+01 -0.14245973119E+02  0.72461603153E+02  0.70000042805E+02 0.  0.
        -12    1    1    2    0    0 -0.93135153599E+01  0.78095211375E+01  0.14245973119E+02  0.18726396847E+02  0.00000000000E+00 0.  1.
         11    1    3    3    0    0  0.12936300994E+02 -0.27753789689E+02 -0.27348229622E+02  0.41055406334E+02  0.51100000000E-03 0. -1.
        -11    1    3    3    0    0  0.53158902945E+01  0.15273500388E+02  0.18215232994E+01  0.16274410930E+02  0.51100000000E-03 0.  1.
         12    1    3    3    0    0 -0.89386759289E+01  0.46707681629E+01  0.11280733203E+02  0.15131785889E+02  0.00000000000E+00 0. -1.
</event>
<event>
 7    1  0.1830715E-013  0.7246160E+02  0.7816164E-02  0.1226708E+00
        -11   -1    0    0    0    0  0.00000000000E+00  0.00000000000E+00  0.45593999997E+02  0.45594000000E+02  0.51100000000E-03 0.  1.
         11   -1    0    0    0    0 -0.00000000000E+00 -0.00000000000E+00 -0.45593999997E+02  0.45594000000E+02  0.51100000000E-03 0. -1.
    9900012    2    1    2    0    0 -0.18682290909E+02  0.11355662856E+01 -0.60051167715E+00  0.72461598352E+02  0.70000036550E+02 0.  0.
        -12    1    1    2    0    0  0.18682290909E+02 -0.11355662856E+01  0.60051167715E+00  0.18726401648E+02  0.00000000000E+00 0.  1.
         11    1    3    3    0    0 -0.17092236224E+02 -0.26372417555E+02 -0.91354433148E+01  0.32727744677E+02  0.51100000000E-03 0. -1.
        -11    1    3    3    0    0  0.87315945305E+01  0.14797257525E+02  0.14321705667E+02  0.22367628993E+02  0.51100000000E-03 0.  1.
         12    1    3    3    0    0 -0.10321649216E+02  0.12710726316E+02 -0.57867740293E+01  0.17366224681E+02  0.00000000000E+00 0. -1.
</event>
<event>
 7    1  0.1830715E-013  0.7246153E+02  0.7816164E-02  0.1226708E+00
        -11   -1    0    0    0    0  0.00000000000E+00  0.00000000000E+00  0.45593999997E+02  0.45594000000E+02  0.51100000000E-03 0.  1.
         11   -1    0    0    0    0 -0.00000000000E+00 -0.00000000000E+00 -0.45593999997E+02  0.45594000000E+02  0.51100000000E-03 0. -1.
    9900012    2    1    2    0    0 -0.17383836442E+02 -0.42252529625E+01 -0.55344466696E+01  0.72461531247E+02  0.69999949133E+02 0.  0.
        -12    1    1    2    0    0  0.17383836442E+02  0.42252529625E+01  0.55344466696E+01  0.18726468753E+02  0.00000000000E+00 0.  1.
         11    1    3    3    0    0 -0.26456533131E+02 -0.25553537368E+01 -0.22201973020E+02  0.34632435437E+02  0.51100000000E-03 0. -1.
        -11    1    3    3    0    0 -0.10892566730E+01 -0.15446043347E+02  0.13234657449E+02  0.20369656188E+02  0.51100000000E-03 0.  1.
        -12    1    3    3    0    0  0.10161953362E+02  0.13776144121E+02  0.34328689014E+01  0.17459439621E+02  0.00000000000E+00 0.  1.
</event>
<event>
 7    1  0.1830715E-013  0.7246158E+02  0.7816164E-02  0.1226708E+00
        -11   -1    0    0    0    0  0.00000000000E+00  0.00000000000E+00  0.45593999997E+02  0.45594000000E+02  0.51100000000E-03 0.  1.
         11   -1    0    0    0    0 -0.00000000000E+00 -0.00000000000E+00 -0.45593999997E+02  0.45594000000E+02  0.51100000000E-03 0. -1.
    9900012    2    1    2    0    0 -0.86533244460E+01  0.11760579571E+02 -0.11725501909E+02  0.72461584143E+02  0.70000018041E+02 0.  0.
        -12    1    1    2    0    0  0.86533244460E+01 -0.11760579571E+02  0.11725501909E+02  0.18726415857E+02  0.00000000000E+00 0.  1.
         11    1    3    3    0    0 -0.22765586182E+02  0.14408177161E+02  0.16261672797E+02  0.31469183112E+02  0.51100000000E-03 0. -1.
        -11    1    3    3    0    0  0.52674045201E+01 -0.10194032589E+02 -0.26984184465E+02  0.29322518008E+02  0.51100000000E-03 0.  1.
        -12    1    3    3    0    0  0.88448572154E+01  0.75464349995E+01 -0.10029902411E+01  0.11669883024E+02  0.00000000000E+00 0.  1.
</event>
<event>
 7    1  0.1830715E-013  0.7246158E+02  0.7816164E-02  0.1226708E+00
        -11   -1    0    0    0    0  0.00000000000E+00  0.00000000000E+00  0.45593999997E+02  0.45594000000E+02  0.51100000000E-03 0. -1.
         11   -1    0    0    0    0 -0.00000000000E+00 -0.00000000000E+00 -0.45593999997E+02  0.45594000000E+02  0.51100000000E-03 0.  1.
    9900012    2    1    2    0    0  0.16764983862E+02  0.52894391848E+01  0.64525814377E+01  0.72461583952E+02  0.70000017792E+02 0.  0.
        -12    1    1    2    0    0 -0.16764983862E+02 -0.52894391848E+01 -0.64525814377E+01  0.18726416048E+02  0.00000000000E+00 0.  1.
         11    1    3    3    0    0  0.28314857677E+02  0.34342875938E+01  0.15263485696E+02  0.32349644393E+02  0.51100000000E-03 0. -1.
        -11    1    3    3    0    0 -0.54214031127E+00 -0.13859758766E+02 -0.14533500252E+02  0.20090033823E+02  0.51100000000E-03 0.  1.
        -12    1    3    3    0    0 -0.11007733503E+02  0.15714910357E+02  0.57225959933E+01  0.20021905736E+02  0.00000000000E+00 0.  1.
</event>
<event>
 7    1  0.1830715E-013  0.7246159E+02  0.7816164E-02  0.1226708E+00
        -11   -1    0    0    0    0  0.00000000000E+00  0.00000000000E+00  0.45593999997E+02  0.45594000000E+02  0.51100000000E-03 0.  1.
         11   -1    0    0    0    0 -0.00000000000E+00 -0.00000000000E+00 -0.45593999997E+02  0.45594000000E+02  0.51100000000E-03 0. -1.
    9900012    2    1    2    0    0  0.16728839119E+02  0.66213826663E+01  0.51943894617E+01  0.72461589544E+02  0.70000025076E+02 0.  0.
        -12    1    1    2    0    0 -0.16728839119E+02 -0.66213826663E+01 -0.51943894617E+01  0.18726410456E+02  0.00000000000E+00 0.  1.
         11    1    3    3    0    0  0.30569438045E+02  0.48528077252E+01  0.10771659639E+02  0.32772990966E+02  0.51100000000E-03 0. -1.
        -11    1    3    3    0    0 -0.12729549917E+02 -0.16583077207E+02 -0.32506091828E+01  0.21156709363E+02  0.51100000000E-03 0.  1.
        -12    1    3    3    0    0 -0.11110490092E+01  0.18351652148E+02 -0.23266609943E+01  0.18531889215E+02  0.00000000000E+00 0.  1.
</event>
<event>
 7    1  0.1830715E-013  0.7246140E+02  0.7816164E-02  0.1226708E+00
        -11   -1    0    0    0    0  0.00000000000E+00  0.00000000000E+00  0.45593999997E+02  0.45594000000E+02  0.51100000000E-03 0.  1.
         11   -1    0    0    0    0 -0.00000000000E+00 -0.00000000000E+00 -0.45593999997E+02  0.45594000000E+02  0.51100000000E-03 0. -1.
    9900012    2    1    2    0    0  0.13301847557E+02 -0.12794008416E+02 -0.31716920761E+01  0.72461403128E+02  0.69999782235E+02 0.  0.
        -12    1    1    2    0    0 -0.13301847557E+02  0.12794008416E+02  0.31716920761E+01  0.18726596872E+02  0.00000000000E+00 0.  1.
         11    1    3    3    0    0  0.13421657057E+02  0.38334872355E+01  0.35127183703E+01  0.14393599034E+02  0.51100000000E-03 0. -1.
        -11    1    3    3    0    0 -0.18955560518E+02 -0.10102220973E+02 -0.23609144292E+02  0.31918017445E+02  0.51100000000E-03 0.  1.
        -12    1    3    3    0    0  0.18835751019E+02 -0.65252746777E+01  0.16924733846E+02  0.26149786649E+02  0.00000000000E+00 0.  1.
</event>
<event>
 7    1  0.1830715E-013  0.7246155E+02  0.7816164E-02  0.1226708E+00
        -11   -1    0    0    0    0  0.00000000000E+00  0.00000000000E+00  0.45593999997E+02  0.45594000000E+02  0.51100000000E-03 0.  1.
         11   -1    0    0    0    0 -0.00000000000E+00 -0.00000000000E+00 -0.45593999997E+02  0.45594000000E+02  0.51100000000E-03 0. -1.
    9900012    2    1    2    0    0 -0.64784690395E+01  0.12909055688E+02  0.11919131770E+02  0.72461548601E+02  0.69999971740E+02 0.  0.
        -12    1    1    2    0    0  0.64784690395E+01 -0.12909055688E+02 -0.11919131770E+02  0.18726451399E+02  0.00000000000E+00 0.  1.
         11    1    3    3    0    0 -0.23828371853E+02  0.55871801953E+01  0.74774160434E+01  0.25591397747E+02  0.51100000000E-03 0. -1.
        -11    1    3    3    0    0  0.47109413655E+01  0.23770268007E+02 -0.38391941672E+01  0.24534832825E+02  0.51100000000E-03 0.  1.
         12    1    3    3    0    0  0.12638961448E+02 -0.16448392514E+02  0.82809098941E+01  0.22335318029E+02  0.00000000000E+00 0. -1.
</event>
<event>
 7    1  0.1830715E-013  0.7246145E+02  0.7816164E-02  0.1226708E+00
        -11   -1    0    0    0    0  0.00000000000E+00  0.00000000000E+00  0.45593999997E+02  0.45594000000E+02  0.51100000000E-03 0.  1.
         11   -1    0    0    0    0 -0.00000000000E+00 -0.00000000000E+00 -0.45593999997E+02  0.45594000000E+02  0.51100000000E-03 0. -1.
    9900012    2    1    2    0    0  0.47844657754E+01  0.12311160056E+02 -0.13275092341E+02  0.72461445289E+02  0.69999837157E+02 0.  0.
        -12    1    1    2    0    0 -0.47844657754E+01 -0.12311160056E+02  0.13275092341E+02  0.18726554711E+02  0.00000000000E+00 0.  1.
         11    1    3    3    0    0  0.32253808055E+01  0.37724208675E+01  0.21376575003E+02  0.21945209037E+02  0.51100000000E-03 0. -1.
        -11    1    3    3    0    0  0.15396322529E+02  0.12585689806E+02 -0.10756010676E+02  0.22608363524E+02  0.51100000000E-03 0.  1.
         12    1    3    3    0    0 -0.13837237559E+02 -0.40469506176E+01 -0.23895656668E+02  0.27907872728E+02  0.00000000000E+00 0. -1.
</event>
<event>
 7    1  0.1830715E-013  0.7246144E+02  0.7816164E-02  0.1226708E+00
        -11   -1    0    0    0    0  0.00000000000E+00  0.00000000000E+00  0.45593999997E+02  0.45594000000E+02  0.51100000000E-03 0.  1.
         11   -1    0    0    0    0 -0.00000000000E+00 -0.00000000000E+00 -0.45593999997E+02  0.45594000000E+02  0.51100000000E-03 0. -1.
    9900012    2    1    2    0    0  0.11128425054E+02  0.13327410993E+02 -0.70158579773E+01  0.72461441557E+02  0.69999832296E+02 0.  0.
        -12    1    1    2    0    0 -0.11128425054E+02 -0.13327410993E+02  0.70158579773E+01  0.18726558443E+02  0.00000000000E+00 0.  1.
         11    1    3    3    0    0  0.10320576661E+02 -0.59789108356E+01 -0.20201167227E+02  0.23459514807E+02  0.51100000000E-03 0. -1.
        -11    1    3    3    0    0  0.29812128621E+01  0.32128901946E+02  0.28550095974E+01  0.32392978413E+02  0.51100000000E-03 0.  1.
        -12    1    3    3    0    0 -0.21733644688E+01 -0.12822580118E+02  0.10330299652E+02  0.16608948338E+02  0.00000000000E+00 0.  1.
</event>
<event>
 7    1  0.1830715E-013  0.7246157E+02  0.7816164E-02  0.1226708E+00
        -11   -1    0    0    0    0  0.00000000000E+00  0.00000000000E+00  0.45593999997E+02  0.45594000000E+02  0.51100000000E-03 0.  1.
         11   -1    0    0    0    0 -0.00000000000E+00 -0.00000000000E+00 -0.45593999997E+02  0.45594000000E+02  0.51100000000E-03 0. -1.
    9900012    2    1    2    0    0 -0.33378052410E+01 -0.70677487873E+01 -0.17017207441E+02  0.72461565052E+02  0.69999993171E+02 0.  0.
        -12    1    1    2    0    0  0.33378052410E+01  0.70677487873E+01  0.17017207441E+02  0.18726434948E+02  0.00000000000E+00 0.  1.
         11    1    3    3    0    0 -0.22106648614E+02 -0.20402316035E+02  0.48111601733E+01  0.30464826851E+02  0.51100000000E-03 0. -1.
        -11    1    3    3    0    0  0.17814489000E+02  0.92051636488E+01 -0.29927991614E+00  0.20054441524E+02  0.51100000000E-03 0.  1.
         12    1    3    3    0    0  0.95435437347E+00  0.41294035993E+01 -0.21529087698E+02  0.21942296677E+02  0.00000000000E+00 0. -1.
</event>
<event>
 7    1  0.1830715E-013  0.7246132E+02  0.7816164E-02  0.1226709E+00
        -11   -1    0    0    0    0  0.00000000000E+00  0.00000000000E+00  0.45593999997E+02  0.45594000000E+02  0.51100000000E-03 0.  1.
         11   -1    0    0    0    0 -0.00000000000E+00 -0.00000000000E+00 -0.45593999997E+02  0.45594000000E+02  0.51100000000E-03 0. -1.
    9900012    2    1    2    0    0 -0.10945229871E+02 -0.15179033577E+02  0.69805410435E+00  0.72461323926E+02  0.69999679058E+02 0.  0.
        -12    1    1    2    0    0  0.10945229871E+02  0.15179033577E+02 -0.69805410435E+00  0.18726676074E+02  0.00000000000E+00 0.  1.
         11    1    3    3    0    0  0.20692358887E+01  0.73498857232E+01 -0.27853425689E+02  0.28881064388E+02  0.51100000000E-03 0. -1.
        -11    1    3    3    0    0 -0.18055160185E+02 -0.14480701086E+02  0.17544651604E+02  0.29042973564E+02  0.51100000000E-03 0.  1.
         12    1    3    3    0    0  0.50406944255E+01 -0.80482182137E+01  0.11006828189E+02  0.14537285974E+02  0.00000000000E+00 0. -1.
</event>
<event>
 7    1  0.1830715E-013  0.7246149E+02  0.7816164E-02  0.1226708E+00
        -11   -1    0    0    0    0  0.00000000000E+00  0.00000000000E+00  0.45593999997E+02  0.45594000000E+02  0.51100000000E-03 0.  1.
         11   -1    0    0    0    0 -0.00000000000E+00 -0.00000000000E+00 -0.45593999997E+02  0.45594000000E+02  0.51100000000E-03 0. -1.
    9900012    2    1    2    0    0  0.14730659930E+01 -0.62410402151E+01 -0.17594361693E+02  0.72461492857E+02  0.69999899123E+02 0.  0.
        -12    1    1    2    0    0 -0.14730659930E+01  0.62410402151E+01  0.17594361693E+02  0.18726507143E+02  0.00000000000E+00 0.  1.
         11    1    3    3    0    0  0.45870595348E+01 -0.21427804653E+02 -0.15278815600E+02  0.26713931455E+02  0.51100000000E-03 0. -1.
        -11    1    3    3    0    0 -0.33461838955E+01  0.30339599646E+02 -0.20141573261E+01  0.30589950692E+02  0.51100000000E-03 0.  1.
        -12    1    3    3    0    0  0.23219035373E+00 -0.15152835209E+02 -0.30138876682E+00  0.15157610709E+02  0.00000000000E+00 0.  1.
</event>
<event>
 7    1  0.1830715E-013  0.7246160E+02  0.7816164E-02  0.1226708E+00
        -11   -1    0    0    0    0  0.00000000000E+00  0.00000000000E+00  0.45593999997E+02  0.45594000000E+02  0.51100000000E-03 0.  1.
         11   -1    0    0    0    0 -0.00000000000E+00 -0.00000000000E+00 -0.45593999997E+02  0.45594000000E+02  0.51100000000E-03 0. -1.
    9900012    2    1    2    0    0  0.22797299210E+00  0.18551287044E+02  0.25447590481E+01  0.72461600952E+02  0.70000039937E+02 0.  0.
        -12    1    1    2    0    0 -0.22797299210E+00 -0.18551287044E+02 -0.25447590481E+01  0.18726399048E+02  0.00000000000E+00 0.  1.
         11    1    3    3    0    0  0.18366953964E+01 -0.22267095773E+02 -0.26399422179E+01  0.22498139908E+02  0.51100000000E-03 0. -1.
        -11    1    3    3    0    0 -0.15132295750E+01  0.37036670933E+02  0.14582524678E+02  0.39832836753E+02  0.51100000000E-03 0.  1.
        -12    1    3    3    0    0 -0.95492829330E-01  0.37817118844E+01 -0.93978234117E+01  0.10130624291E+02  0.00000000000E+00 0.  1.
</event>
<event>
 7    1  0.1830715E-013  0.7246175E+02  0.7816164E-02  0.1226708E+00
        -11   -1    0    0    0    0  0.00000000000E+00  0.00000000000E+00  0.45593999997E+02  0.45594000000E+02  0.51100000000E-03 0. -1.
         11   -1    0    0    0    0 -0.00000000000E+00 -0.00000000000E+00 -0.45593999997E+02  0.45594000000E+02  0.51100000000E-03 0.  1.
    9900012    2    1    2    0    0  0.11980427636E+02  0.49626739239E+01  0.13509758433E+02  0.72461752332E+02  0.70000237138E+02 0.  0.
        -12    1    1    2    0    0 -0.11980427636E+02 -0.49626739239E+01 -0.13509758433E+02  0.18726247668E+02  0.00000000000E+00 0.  1.
         11    1    3    3    0    0 -0.88153342048E+01  0.73523351051E+01  0.32014165824E+02  0.34009906826E+02  0.51100000000E-03 0. -1.
        -11    1    3    3    0    0  0.85293098304E+01 -0.13034126122E+02 -0.27359711857E+01  0.15815280856E+02  0.51100000000E-03 0.  1.
         12    1    3    3    0    0  0.12266452010E+02  0.10644464941E+02 -0.15768436206E+02  0.22636564650E+02  0.00000000000E+00 0. -1.
</event>
<event>
 7    1  0.1830715E-013  0.7246144E+02  0.7816164E-02  0.1226708E+00
        -11   -1    0    0    0    0  0.00000000000E+00  0.00000000000E+00  0.45593999997E+02  0.45594000000E+02  0.51100000000E-03 0.  1.
         11   -1    0    0    0    0 -0.00000000000E+00 -0.00000000000E+00 -0.45593999997E+02  0.45594000000E+02  0.51100000000E-03 0. -1.
    9900012    2    1    2    0    0  0.11663121102E+02 -0.14199037139E+02  0.36115171013E+01  0.72461438509E+02  0.69999828325E+02 0.  0.
        -12    1    1    2    0    0 -0.11663121102E+02  0.14199037139E+02 -0.36115171013E+01  0.18726561491E+02  0.00000000000E+00 0.  1.
         11    1    3    3    0    0  0.17615165703E+02 -0.13739227128E+02 -0.17950464006E+02  0.28657975908E+02  0.51100000000E-03 0. -1.
        -11    1    3    3    0    0 -0.16990511803E+02 -0.11267135788E+02  0.46742725054E+01  0.20915895006E+02  0.51100000000E-03 0.  1.
        -12    1    3    3    0    0  0.11038467202E+02  0.10807325777E+02  0.16887708602E+02  0.22887567595E+02  0.00000000000E+00 0.  1.
</event>
<event>
 7    1  0.1830715E-013  0.7246154E+02  0.7816164E-02  0.1226708E+00
        -11   -1    0    0    0    0  0.00000000000E+00  0.00000000000E+00  0.45593999997E+02  0.45594000000E+02  0.51100000000E-03 0. -1.
         11   -1    0    0    0    0 -0.00000000000E+00 -0.00000000000E+00 -0.45593999997E+02  0.45594000000E+02  0.51100000000E-03 0.  1.
    9900012    2    1    2    0    0  0.18402882289E+02  0.21705808056E+01  0.27023706769E+01  0.72461539980E+02  0.69999960510E+02 0.  0.
        -12    1    1    2    0    0 -0.18402882289E+02 -0.21705808056E+01 -0.27023706769E+01  0.18726460020E+02  0.00000000000E+00 0.  1.
         11    1    3    3    0    0  0.28136194009E+02 -0.14573847616E+01 -0.19260192704E+02  0.34128058938E+02  0.51100000000E-03 0. -1.
        -11    1    3    3    0    0 -0.17666655961E+02 -0.53843580844E+01  0.17732158811E+02  0.25603349413E+02  0.51100000000E-03 0.  1.
         12    1    3    3    0    0  0.79333442416E+01  0.90123236515E+01  0.42304045701E+01  0.12730131629E+02  0.00000000000E+00 0. -1.
</event>
<event>
 7    1  0.1830715E-013  0.7246157E+02  0.7816164E-02  0.1226708E+00
        -11   -1    0    0    0    0  0.00000000000E+00  0.00000000000E+00  0.45593999997E+02  0.45594000000E+02  0.51100000000E-03 0. -1.
         11   -1    0    0    0    0 -0.00000000000E+00 -0.00000000000E+00 -0.45593999997E+02  0.45594000000E+02  0.51100000000E-03 0.  1.
    9900012    2    1    2    0    0  0.82110807363E+01 -0.14100225521E+02  0.91891668652E+01  0.72461574973E+02  0.70000006095E+02 0.  0.
        -12    1    1    2    0    0 -0.82110807363E+01  0.14100225521E+02 -0.91891668652E+01  0.18726425027E+02  0.00000000000E+00 0.  1.
         11    1    3    3    0    0  0.11830145525E+02 -0.79768925752E+00  0.67416060188E+01  0.13639571227E+02  0.51100000000E-03 0. -1.
        -11    1    3    3    0    0 -0.12756453699E+02  0.15709072345E+02  0.15731059598E+02  0.25631392886E+02  0.51100000000E-03 0.  1.
        -12    1    3    3    0    0  0.91373889109E+01 -0.29011608609E+02 -0.13283498752E+02  0.33190610860E+02  0.00000000000E+00 0.  1.
</event>
<event>
 7    1  0.1830715E-013  0.7246151E+02  0.7816164E-02  0.1226708E+00
        -11   -1    0    0    0    0  0.00000000000E+00  0.00000000000E+00  0.45593999997E+02  0.45594000000E+02  0.51100000000E-03 0. -1.
         11   -1    0    0    0    0 -0.00000000000E+00 -0.00000000000E+00 -0.45593999997E+02  0.45594000000E+02  0.51100000000E-03 0.  1.
    9900012    2    1    2    0    0  0.45001345255E+00  0.28979062438E+01  0.18495434360E+02  0.72461509008E+02  0.69999920163E+02 0.  0.
        -12    1    1    2    0    0 -0.45001345255E+00 -0.28979062438E+01 -0.18495434360E+02  0.18726490992E+02  0.00000000000E+00 0.  1.
         11    1    3    3    0    0  0.69478813926E+01  0.15468177118E+02  0.16849384862E+02  0.23904797211E+02  0.51100000000E-03 0. -1.
        -11    1    3    3    0    0 -0.12957588712E+02 -0.14530644020E+02  0.20655229595E+02  0.28384454033E+02  0.51100000000E-03 0.  1.
         12    1    3    3    0    0  0.64597207723E+01  0.19603731458E+01 -0.19009180097E+02  0.20172257764E+02  0.00000000000E+00 0. -1.
</event>
<event>
 7    1  0.1830715E-013  0.7246194E+02  0.7816164E-02  0.1226707E+00
        -11   -1    0    0    0    0  0.00000000000E+00  0.00000000000E+00  0.45593999997E+02  0.45594000000E+02  0.51100000000E-03 0. -1.
         11   -1    0    0    0    0 -0.00000000000E+00 -0.00000000000E+00 -0.45593999997E+02  0.45594000000E+02  0.51100000000E-03 0.  1.
    9900012    2    1    2    0    0  0.13885611071E+02  0.83585025178E+01  0.93803298787E+01  0.72461939342E+02  0.70000480751E+02 0.  0.
        -12    1    1    2    0    0 -0.13885611071E+02 -0.83585025178E+01 -0.93803298787E+01  0.18726060658E+02  0.00000000000E+00 0.  1.
         11    1    3    3    0    0  0.31355032390E+02  0.92877387008E+01  0.29669021978E+02  0.44154852641E+02  0.51100000000E-03 0. -1.
        -11    1    3    3    0    0 -0.94184636444E+01  0.22013286578E+01 -0.15917730528E+02  0.18625988584E+02  0.51100000000E-03 0.  1.
         12    1    3    3    0    0 -0.80509576742E+01 -0.31305648408E+01 -0.43709615713E+01  0.96810981171E+01  0.00000000000E+00 0. -1.
</event>
<event>
 7    1  0.1830715E-013  0.7246161E+02  0.7816164E-02  0.1226708E+00
        -11   -1    0    0    0    0  0.00000000000E+00  0.00000000000E+00  0.45593999997E+02  0.45594000000E+02  0.51100000000E-03 0.  1.
         11   -1    0    0    0    0 -0.00000000000E+00 -0.00000000000E+00 -0.45593999997E+02  0.45594000000E+02  0.51100000000E-03 0. -1.
    9900012    2    1    2    0    0  0.13528679722E+02  0.85926695120E+01 -0.96860044836E+01  0.72461606134E+02  0.70000046688E+02 0.  0.
        -12    1    1    2    0    0 -0.13528679722E+02 -0.85926695120E+01  0.96860044836E+01  0.18726393866E+02  0.00000000000E+00 0.  1.
         11    1    3    3    0    0  0.16667566849E+02 -0.22320555177E+02 -0.22723212884E+02  0.35949400164E+02  0.51100000000E-03 0. -1.
        -11    1    3    3    0    0  0.53827205670E+01  0.13627058524E+02  0.37781790135E+01  0.15130929966E+02  0.51100000000E-03 0.  1.
         12    1    3    3    0    0 -0.85216076934E+01  0.17286166166E+02  0.92590293870E+01  0.21381276004E+02  0.00000000000E+00 0. -1.
</event>
<event>
 7    1  0.1830715E-013  0.7246160E+02  0.7816164E-02  0.1226708E+00
        -11   -1    0    0    0    0  0.00000000000E+00  0.00000000000E+00  0.45593999997E+02  0.45594000000E+02  0.51100000000E-03 0. -1.
         11   -1    0    0    0    0 -0.00000000000E+00 -0.00000000000E+00 -0.45593999997E+02  0.45594000000E+02  0.51100000000E-03 0.  1.
    9900012    2    1    2    0    0 -0.31439733526E+01  0.16300418670E+02  0.86654448270E+01  0.72461597481E+02  0.70000035416E+02 0.  0.
        -12    1    1    2    0    0  0.31439733526E+01 -0.16300418670E+02 -0.86654448270E+01  0.18726402519E+02  0.00000000000E+00 0.  1.
         11    1    3    3    0    0  0.24438315793E+02  0.12255079760E+02  0.21682062295E+02  0.34893123740E+02  0.51100000000E-03 0. -1.
        -11    1    3    3    0    0 -0.15120866703E+02 -0.52623223529E+01  0.17697401642E+01  0.16107905727E+02  0.51100000000E-03 0.  1.
         12    1    3    3    0    0 -0.12461422442E+02  0.93076612631E+01 -0.14786357632E+02  0.21460568014E+02  0.00000000000E+00 0. -1.
</event>
<event>
 7    1  0.1830715E-013  0.7246148E+02  0.7816164E-02  0.1226708E+00
        -11   -1    0    0    0    0  0.00000000000E+00  0.00000000000E+00  0.45593999997E+02  0.45594000000E+02  0.51100000000E-03 0.  1.
         11   -1    0    0    0    0 -0.00000000000E+00 -0.00000000000E+00 -0.45593999997E+02  0.45594000000E+02  0.51100000000E-03 0. -1.
    9900012    2    1    2    0    0  0.10050560219E+01 -0.18622018682E+02 -0.17008379616E+01  0.72461479576E+02  0.69999881823E+02 0.  0.
        -12    1    1    2    0    0 -0.10050560219E+01  0.18622018682E+02  0.17008379616E+01  0.18726520424E+02  0.00000000000E+00 0.  1.
         11    1    3    3    0    0 -0.18627158339E+02 -0.19426745699E+02 -0.18921840549E+02  0.32899932010E+02  0.51100000000E-03 0. -1.
        -11    1    3    3    0    0  0.25812881743E+02  0.64687014151E+01  0.97772842706E+01  0.28350383593E+02  0.51100000000E-03 0.  1.
         12    1    3    3    0    0 -0.61806673826E+01 -0.56639743978E+01  0.74437183165E+01  0.11211163974E+02  0.00000000000E+00 0. -1.
</event>
<event>
 8    1  0.1830715E-013  0.7246168E+02  0.7816164E-02  0.1226708E+00
        -11   -1    0    0    0    0  0.00000000000E+00  0.00000000000E+00  0.45593999997E+02  0.45594000000E+02  0.51100000000E-03 0.  1.
         11   -1    0    0    0    0 -0.00000000000E+00 -0.00000000000E+00 -0.45593999997E+02  0.45594000000E+02  0.51100000000E-03 0. -1.
    9900012    2    1    2    0    0  0.49587119301E+00 -0.15598657215E+02  0.10349439741E+02  0.72461684343E+02  0.70000148569E+02 0.  0.
         24    2    3    3    0    0  0.66451035795E+00  0.20380223769E+01 -0.19618611861E+01  0.50952406416E+02  0.50869477204E+02 0.  0.
        -12    1    1    2    0    0 -0.49587119301E+00  0.15598657215E+02 -0.10349439741E+02  0.18726315657E+02  0.00000000000E+00 0.  1.
         11    1    3    3    0    0 -0.16863916494E+00 -0.17636679592E+02  0.12311300927E+02  0.21509277927E+02  0.51100000000E-03 0. -1.
        -11    1    4    4    0    0  0.18488146260E+02  0.15296666985E+02 -0.11701381856E+02  0.26696852073E+02  0.51100000000E-03 0.  1.
         12    1    4    4    0    0 -0.17823635902E+02 -0.13258644608E+02  0.97395206694E+01  0.24255554343E+02  0.00000000000E+00 0. -1.
</event>
<event>
 7    1  0.1830715E-013  0.7246156E+02  0.7816164E-02  0.1226708E+00
        -11   -1    0    0    0    0  0.00000000000E+00  0.00000000000E+00  0.45593999997E+02  0.45594000000E+02  0.51100000000E-03 0.  1.
         11   -1    0    0    0    0 -0.00000000000E+00 -0.00000000000E+00 -0.45593999997E+02  0.45594000000E+02  0.51100000000E-03 0. -1.
    9900012    2    1    2    0    0 -0.10312548197E+02  0.14096568312E+02 -0.67540892919E+01  0.72461558516E+02  0.69999984656E+02 0.  0.
        -12    1    1    2    0    0  0.10312548197E+02 -0.14096568312E+02  0.67540892919E+01  0.18726441484E+02  0.00000000000E+00 0.  1.
         11    1    3    3    0    0 -0.24012764281E+02 -0.10605189479E+02 -0.26928351746E+02  0.37606103498E+02  0.51100000000E-03 0.  1.
        -11    1    3    3    0    0  0.12348390933E+02  0.21919781182E+02  0.19076908213E+02  0.31573533108E+02  0.51100000000E-03 0. -1.
        -12    1    3    3    0    0  0.13518251506E+01  0.27819766087E+01  0.10973542413E+01  0.32819219095E+01  0.00000000000E+00 0.  1.
</event>
<event>
 7    1  0.1830715E-013  0.7246157E+02  0.7816164E-02  0.1226708E+00
        -11   -1    0    0    0    0  0.00000000000E+00  0.00000000000E+00  0.45593999997E+02  0.45594000000E+02  0.51100000000E-03 0.  1.
         11   -1    0    0    0    0 -0.00000000000E+00 -0.00000000000E+00 -0.45593999997E+02  0.45594000000E+02  0.51100000000E-03 0. -1.
    9900012    2    1    2    0    0 -0.16279162535E+02  0.85861823505E+01 -0.34562336180E+01  0.72461569186E+02  0.69999998556E+02 0.  0.
        -12    1    1    2    0    0  0.16279162535E+02 -0.85861823505E+01  0.34562336180E+01  0.18726430814E+02  0.00000000000E+00 0.  1.
         11    1    3    3    0    0 -0.20942819127E+02  0.30993987773E+02  0.16113266616E+02  0.40729182564E+02  0.51100000000E-03 0.  1.
        -11    1    3    3    0    0  0.11376598781E+01 -0.12819301478E+02 -0.16770749673E+02  0.21139697378E+02  0.51100000000E-03 0. -1.
        -12    1    3    3    0    0  0.35259967139E+01 -0.95885039441E+01 -0.27987505616E+01  0.10592689244E+02  0.00000000000E+00 0.  1.
</event>
<event>
 7    1  0.1830715E-013  0.7246160E+02  0.7816164E-02  0.1226708E+00
        -11   -1    0    0    0    0  0.00000000000E+00  0.00000000000E+00  0.45593999997E+02  0.45594000000E+02  0.51100000000E-03 0.  1.
         11   -1    0    0    0    0 -0.00000000000E+00 -0.00000000000E+00 -0.45593999997E+02  0.45594000000E+02  0.51100000000E-03 0. -1.
    9900012    2    1    2    0    0 -0.10838516178E+02 -0.58410740528E+01 -0.14109804344E+02  0.72461597312E+02  0.70000035195E+02 0.  0.
        -12    1    1    2    0    0  0.10838516178E+02  0.58410740528E+01  0.14109804344E+02  0.18726402688E+02  0.00000000000E+00 0.  1.
         11    1    3    3    0    0  0.10653772020E+02 -0.91021652268E+01 -0.24963167072E+02  0.28627119670E+02  0.51100000000E-03 0. -1.
        -11    1    3    3    0    0 -0.12684752900E+02 -0.16142586094E+02  0.15669165781E+01  0.20589834136E+02  0.51100000000E-03 0.  1.
         12    1    3    3    0    0 -0.88075352982E+01  0.19403677268E+02  0.92864461504E+01  0.23244643505E+02  0.00000000000E+00 0. -1.
</event>
<event>
 7    1  0.1830715E-013  0.7246160E+02  0.7816164E-02  0.1226708E+00
        -11   -1    0    0    0    0  0.00000000000E+00  0.00000000000E+00  0.45593999997E+02  0.45594000000E+02  0.51100000000E-03 0.  1.
         11   -1    0    0    0    0 -0.00000000000E+00 -0.00000000000E+00 -0.45593999997E+02  0.45594000000E+02  0.51100000000E-03 0. -1.
    9900012    2    1    2    0    0  0.16325321183E+02 -0.74197555723E+01 -0.53952844767E+01  0.72461602080E+02  0.70000041406E+02 0.  0.
        -12    1    1    2    0    0 -0.16325321183E+02  0.74197555723E+01  0.53952844767E+01  0.18726397920E+02  0.00000000000E+00 0.  1.
         11    1    3    3    0    0  0.55635121807E+00 -0.21168561623E+02 -0.29105445003E+02  0.35993672457E+02  0.51100000000E-03 0. -1.
        -11    1    3    3    0    0  0.55214665279E+01  0.15876640150E+02  0.11402290652E+02  0.20311733738E+02  0.51100000000E-03 0.  1.
         12    1    3    3    0    0  0.10247503437E+02 -0.21278340990E+01  0.12307869873E+02  0.16156195885E+02  0.00000000000E+00 0. -1.
</event>
<event>
 7    1  0.1830715E-013  0.7246155E+02  0.7816164E-02  0.1226708E+00
        -11   -1    0    0    0    0  0.00000000000E+00  0.00000000000E+00  0.45593999997E+02  0.45594000000E+02  0.51100000000E-03 0.  1.
         11   -1    0    0    0    0 -0.00000000000E+00 -0.00000000000E+00 -0.45593999997E+02  0.45594000000E+02  0.51100000000E-03 0. -1.
    9900012    2    1    2    0    0  0.58715132681E+01  0.65845962706E+01 -0.16518116562E+02  0.72461554773E+02  0.69999979780E+02 0.  0.
        -12    1    1    2    0    0 -0.58715132681E+01 -0.65845962706E+01  0.16518116562E+02  0.18726445227E+02  0.00000000000E+00 0.  1.
         11    1    3    3    0    0  0.11673187357E+02  0.84962885301E+01 -0.39999478069E+02  0.42525386158E+02  0.51100000000E-03 0. -1.
        -11    1    3    3    0    0 -0.65628945054E+01 -0.29615887619E+01  0.83016520767E+00  0.72478801602E+01  0.51100000000E-03 0.  1.
         12    1    3    3    0    0  0.76122041643E+00  0.10498965024E+01  0.22651196300E+02  0.22688288454E+02  0.00000000000E+00 0. -1.
</event>
<event>
 7    1  0.1830715E-013  0.7246158E+02  0.7816164E-02  0.1226708E+00
        -11   -1    0    0    0    0  0.00000000000E+00  0.00000000000E+00  0.45593999997E+02  0.45594000000E+02  0.51100000000E-03 0.  1.
         11   -1    0    0    0    0 -0.00000000000E+00 -0.00000000000E+00 -0.45593999997E+02  0.45594000000E+02  0.51100000000E-03 0. -1.
    9900012    2    1    2    0    0 -0.14549187231E+02 -0.85187669545E+01 -0.81504987942E+01  0.72461578289E+02  0.70000010414E+02 0.  0.
        -12    1    1    2    0    0  0.14549187231E+02  0.85187669545E+01  0.81504987942E+01  0.18726421711E+02  0.00000000000E+00 0.  1.
         11    1    3    3    0    0 -0.10604729838E+02 -0.19775305166E+02 -0.34659581374E+02  0.41289339673E+02  0.51100000000E-03 0. -1.
        -11    1    3    3    0    0  0.33626498617E+01  0.21923347409E+01  0.11476232786E+02  0.12158028825E+02  0.51100000000E-03 0.  1.
         12    1    3    3    0    0 -0.73071072553E+01  0.90642034710E+01  0.15032849794E+02  0.19014209790E+02  0.00000000000E+00 0. -1.
</event>
<event>
 7    1  0.1830715E-013  0.7246115E+02  0.7816164E-02  0.1226709E+00
        -11   -1    0    0    0    0  0.00000000000E+00  0.00000000000E+00  0.45593999997E+02  0.45594000000E+02  0.51100000000E-03 0. -1.
         11   -1    0    0    0    0 -0.00000000000E+00 -0.00000000000E+00 -0.45593999997E+02  0.45594000000E+02  0.51100000000E-03 0.  1.
    9900012    2    1    2    0    0 -0.44875216601E+01  0.63291290480E+00  0.18170211566E+02  0.72461147148E+02  0.69999448771E+02 0.  0.
        -12    1    1    2    0    0  0.44875216601E+01 -0.63291290480E+00 -0.18170211566E+02  0.18726852852E+02  0.00000000000E+00 0.  1.
         11    1    3    3    0    0 -0.32650655090E+01 -0.29839577252E+02  0.22971764739E+02  0.37798981453E+02  0.51100000000E-03 0. -1.
        -11    1    3    3    0    0 -0.23204013750E+00  0.21059063337E+02  0.43402303141E+01  0.21502920515E+02  0.51100000000E-03 0.  1.
         12    1    3    3    0    0 -0.99041601355E+00  0.94134268204E+01 -0.91417834867E+01  0.13159245180E+02  0.00000000000E+00 0. -1.
</event>
<event>
 8    1  0.1830715E-013  0.7246156E+02  0.7816164E-02  0.1226708E+00
        -11   -1    0    0    0    0  0.00000000000E+00  0.00000000000E+00  0.45593999997E+02  0.45594000000E+02  0.51100000000E-03 0. -1.
         11   -1    0    0    0    0 -0.00000000000E+00 -0.00000000000E+00 -0.45593999997E+02  0.45594000000E+02  0.51100000000E-03 0.  1.
    9900012    2    1    2    0    0  0.18448358646E+02 -0.27423562682E+01 -0.16784262357E+01  0.72461559621E+02  0.69999986096E+02 0.  0.
        -24    2    3    3    0    0  0.73570398886E+01  0.34748234196E+01  0.12557131404E+02  0.53374344617E+02  0.51234155409E+02 0.  0.
        -12    1    1    2    0    0 -0.18448358646E+02  0.27423562682E+01  0.16784262357E+01  0.18726440379E+02  0.00000000000E+00 0.  1.
         11    1    4    4    0    0  0.98416531547E+01  0.12869806126E+01  0.32076087985E+02  0.33576626939E+02  0.51100000000E-03 0. -1.
        -11    1    3    3    0    0  0.11091318757E+02 -0.62171796878E+01 -0.14235557639E+02  0.19087215004E+02  0.51100000000E-03 0.  1.
        -12    1    4    4    0    0 -0.24846132661E+01  0.21878428069E+01 -0.19518956582E+02  0.19797717678E+02  0.00000000000E+00 0.  1.
</event>
<event>
 7    1  0.1830715E-013  0.7246105E+02  0.7816164E-02  0.1226709E+00
        -11   -1    0    0    0    0  0.00000000000E+00  0.00000000000E+00  0.45593999997E+02  0.45594000000E+02  0.51100000000E-03 0. -1.
         11   -1    0    0    0    0 -0.00000000000E+00 -0.00000000000E+00 -0.45593999997E+02  0.45594000000E+02  0.51100000000E-03 0.  1.
    9900012    2    1    2    0    0  0.12946231978E+01  0.16511564235E+02  0.87401801667E+01  0.72461052784E+02  0.69999325843E+02 0.  0.
        -12    1    1    2    0    0 -0.12946231978E+01 -0.16511564235E+02 -0.87401801667E+01  0.18726947216E+02  0.00000000000E+00 0.  1.
         11    1    3    3    0    0 -0.19536010884E+02  0.20914167002E+02  0.37760439981E+01  0.28867223822E+02  0.51100000000E-03 0. -1.
        -11    1    3    3    0    0  0.24524515659E+02  0.10219803571E+02 -0.26472367256E+01  0.26700264341E+02  0.51100000000E-03 0.  1.
        -12    1    3    3    0    0 -0.36938815776E+01 -0.14622406339E+02  0.76113728942E+01  0.16893564620E+02  0.00000000000E+00 0.  1.
</event>
<event>
 7    1  0.1830715E-013  0.7246156E+02  0.7816164E-02  0.1226708E+00
        -11   -1    0    0    0    0  0.00000000000E+00  0.00000000000E+00  0.45593999997E+02  0.45594000000E+02  0.51100000000E-03 0.  1.
         11   -1    0    0    0    0 -0.00000000000E+00 -0.00000000000E+00 -0.45593999997E+02  0.45594000000E+02  0.51100000000E-03 0. -1.
    9900012    2    1    2    0    0 -0.18169498774E+02 -0.38907600016E+01 -0.23261248822E+01  0.72461559974E+02  0.69999986555E+02 0.  0.
        -12    1    1    2    0    0  0.18169498774E+02  0.38907600016E+01  0.23261248822E+01  0.18726440026E+02  0.00000000000E+00 0.  1.
         11    1    3    3    0    0  0.16562806478E+02  0.11262131019E+02 -0.18153709018E+02  0.27031820229E+02  0.51100000000E-03 0.  1.
        -11    1    3    3    0    0 -0.33121784790E+02 -0.64641745138E+01  0.12568364731E+02  0.36011136778E+02  0.51100000000E-03 0. -1.
        -12    1    3    3    0    0 -0.16105204628E+01 -0.86887165071E+01  0.32592194051E+01  0.94186029661E+01  0.00000000000E+00 0.  1.
</event>
<event>
 7    1  0.1830715E-013  0.7246196E+02  0.7816164E-02  0.1226707E+00
        -11   -1    0    0    0    0  0.00000000000E+00  0.00000000000E+00  0.45593999997E+02  0.45594000000E+02  0.51100000000E-03 0. -1.
         11   -1    0    0    0    0 -0.00000000000E+00 -0.00000000000E+00 -0.45593999997E+02  0.45594000000E+02  0.51100000000E-03 0.  1.
    9900012    2    1    2    0    0  0.12453513710E+02 -0.13070369645E+02  0.49739487250E+01  0.72461955776E+02  0.70000502159E+02 0.  0.
        -12    1    1    2    0    0 -0.12453513710E+02  0.13070369645E+02 -0.49739487250E+01  0.18726044224E+02  0.00000000000E+00 0.  1.
         11    1    3    3    0    0  0.89255036202E+01  0.74942564191E+01  0.53737703736E+01  0.12833779741E+02  0.51100000000E-03 0. -1.
        -11    1    3    3    0    0 -0.68876876016E+01 -0.29785152193E+02 -0.19305286174E+02  0.36156460089E+02  0.51100000000E-03 0.  1.
        -12    1    3    3    0    0  0.10415697691E+02  0.92205261291E+01  0.18905464526E+02  0.23471715945E+02  0.00000000000E+00 0.  1.
</event>
<event>
 7    1  0.1830715E-013  0.7246170E+02  0.7816164E-02  0.1226708E+00
        -11   -1    0    0    0    0  0.00000000000E+00  0.00000000000E+00  0.45593999997E+02  0.45594000000E+02  0.51100000000E-03 0. -1.
         11   -1    0    0    0    0 -0.00000000000E+00 -0.00000000000E+00 -0.45593999997E+02  0.45594000000E+02  0.51100000000E-03 0.  1.
    9900012    2    1    2    0    0  0.14759643928E+02  0.31316472066E+01  0.11091437411E+02  0.72461700661E+02  0.70000169826E+02 0.  0.
        -12    1    1    2    0    0 -0.14759643928E+02 -0.31316472066E+01 -0.11091437411E+02  0.18726299339E+02  0.00000000000E+00 0.  1.
         11    1    3    3    0    0 -0.86704025274E+01  0.18538499983E+02  0.26183770306E+02  0.33233141430E+02  0.51100000000E-03 0. -1.
        -11    1    3    3    0    0  0.51238838479E+01 -0.14942747352E+02 -0.48529044610E+00  0.15804283951E+02  0.51100000000E-03 0.  1.
         12    1    3    3    0    0  0.18306162608E+02 -0.46410542394E+00 -0.14607042449E+02  0.23424275280E+02  0.00000000000E+00 0. -1.
</event>
<event>
 7    1  0.1830715E-013  0.7246156E+02  0.7816164E-02  0.1226708E+00
        -11   -1    0    0    0    0  0.00000000000E+00  0.00000000000E+00  0.45593999997E+02  0.45594000000E+02  0.51100000000E-03 0.  1.
         11   -1    0    0    0    0 -0.00000000000E+00 -0.00000000000E+00 -0.45593999997E+02  0.45594000000E+02  0.51100000000E-03 0. -1.
    9900012    2    1    2    0    0  0.40888566551E+01 -0.99130518171E+01 -0.15352274379E+02  0.72461556833E+02  0.69999982464E+02 0.  0.
        -12    1    1    2    0    0 -0.40888566551E+01  0.99130518171E+01  0.15352274379E+02  0.18726443167E+02  0.00000000000E+00 0.  1.
         11    1    3    3    0    0  0.11078417715E+02 -0.16982927324E+02 -0.19731147839E+02  0.28292567131E+02  0.51100000000E-03 0. -1.
        -11    1    3    3    0    0  0.63722664151E+01  0.42362352763E+00  0.20930399918E+02  0.21883027148E+02  0.51100000000E-03 0.  1.
         12    1    3    3    0    0 -0.13361827475E+02  0.66462519790E+01 -0.16551526459E+02  0.22285962554E+02  0.00000000000E+00 0. -1.
</event>
<event>
 7    1  0.1830715E-013  0.7246165E+02  0.7816164E-02  0.1226708E+00
        -11   -1    0    0    0    0  0.00000000000E+00  0.00000000000E+00  0.45593999997E+02  0.45594000000E+02  0.51100000000E-03 0. -1.
         11   -1    0    0    0    0 -0.00000000000E+00 -0.00000000000E+00 -0.45593999997E+02  0.45594000000E+02  0.51100000000E-03 0.  1.
    9900012    2    1    2    0    0  0.16665122209E+02 -0.22320606306E+01  0.82442592548E+01  0.72461649486E+02  0.70000103162E+02 0.  0.
        -12    1    1    2    0    0 -0.16665122209E+02  0.22320606306E+01 -0.82442592548E+01  0.18726350514E+02  0.00000000000E+00 0.  1.
         11    1    3    3    0    0 -0.64862040390E+01 -0.22763209891E+02  0.88036923321E+01  0.25253506021E+02  0.51100000000E-03 0. -1.
        -11    1    3    3    0    0  0.28143284027E+01  0.23261514088E+02 -0.88916066792E+01  0.25061507369E+02  0.51100000000E-03 0.  1.
         12    1    3    3    0    0  0.20336997845E+02 -0.27303648272E+01  0.83321736019E+01  0.22146636096E+02  0.00000000000E+00 0. -1.
</event>
<event>
 7    1  0.1830715E-013  0.7246157E+02  0.7816164E-02  0.1226708E+00
        -11   -1    0    0    0    0  0.00000000000E+00  0.00000000000E+00  0.45593999997E+02  0.45594000000E+02  0.51100000000E-03 0.  1.
         11   -1    0    0    0    0 -0.00000000000E+00 -0.00000000000E+00 -0.45593999997E+02  0.45594000000E+02  0.51100000000E-03 0. -1.
    9900012    2    1    2    0    0 -0.80999889658E+01  0.15976197276E+02  0.54617208887E+01  0.72461572265E+02  0.70000002567E+02 0.  0.
        -12    1    1    2    0    0  0.80999889658E+01 -0.15976197276E+02 -0.54617208887E+01  0.18726427735E+02  0.00000000000E+00 0.  1.
         11    1    3    3    0    0 -0.56195293777E+01 -0.14688704147E+02 -0.10780159469E+02  0.19066960387E+02  0.51100000000E-03 0. -1.
        -11    1    3    3    0    0  0.85988399430E+00  0.31652615901E+02 -0.48354603304E+01  0.32031377909E+02  0.51100000000E-03 0.  1.
        -12    1    3    3    0    0 -0.33403435824E+01 -0.98771447782E+00  0.21077340688E+02  0.21363233969E+02  0.00000000000E+00 0.  1.
</event>
<event>
 7    1  0.1830715E-013  0.7246151E+02  0.7816164E-02  0.1226708E+00
        -11   -1    0    0    0    0  0.00000000000E+00  0.00000000000E+00  0.45593999997E+02  0.45594000000E+02  0.51100000000E-03 0. -1.
         11   -1    0    0    0    0 -0.00000000000E+00 -0.00000000000E+00 -0.45593999997E+02  0.45594000000E+02  0.51100000000E-03 0.  1.
    9900012    2    1    2    0    0  0.69518245010E+00  0.12440046154E+02  0.13980106999E+02  0.72461510242E+02  0.69999921770E+02 0.  0.
        -12    1    1    2    0    0 -0.69518245010E+00 -0.12440046154E+02 -0.13980106999E+02  0.18726489758E+02  0.00000000000E+00 0.  1.
         11    1    3    3    0    0  0.29741802652E+02 -0.17742700841E+00  0.11355533866E+02  0.31836370003E+02  0.51100000000E-03 0. -1.
        -11    1    3    3    0    0 -0.14883215353E+02  0.33967734172E+01 -0.11082831420E+02  0.18864711008E+02  0.51100000000E-03 0.  1.
         12    1    3    3    0    0 -0.14163404849E+02  0.92206997456E+01  0.13707404553E+02  0.21760429231E+02  0.00000000000E+00 0. -1.
</event>
<event>
 7    1  0.1830715E-013  0.7246152E+02  0.7816164E-02  0.1226708E+00
        -11   -1    0    0    0    0  0.00000000000E+00  0.00000000000E+00  0.45593999997E+02  0.45594000000E+02  0.51100000000E-03 0. -1.
         11   -1    0    0    0    0 -0.00000000000E+00 -0.00000000000E+00 -0.45593999997E+02  0.45594000000E+02  0.51100000000E-03 0.  1.
    9900012    2    1    2    0    0  0.12615375647E+02  0.13683738124E+02  0.20709436963E+01  0.72461516092E+02  0.69999929391E+02 0.  0.
        -12    1    1    2    0    0 -0.12615375647E+02 -0.13683738124E+02 -0.20709436963E+01  0.18726483908E+02  0.00000000000E+00 0.  1.
         11    1    3    3    0    0 -0.88904470238E+01  0.16275470807E+02  0.10360302846E+02  0.21243042945E+02  0.51100000000E-03 0. -1.
        -11    1    3    3    0    0  0.46125263889E+01 -0.13574620067E+02 -0.22417030102E+02  0.26609564981E+02  0.51100000000E-03 0.  1.
        -12    1    3    3    0    0  0.16893296282E+02  0.10982887383E+02  0.14127670952E+02  0.24608908165E+02  0.00000000000E+00 0.  1.
</event>
<event>
 7    1  0.1830715E-013  0.7246165E+02  0.7816164E-02  0.1226708E+00
        -11   -1    0    0    0    0  0.00000000000E+00  0.00000000000E+00  0.45593999997E+02  0.45594000000E+02  0.51100000000E-03 0.  1.
         11   -1    0    0    0    0 -0.00000000000E+00 -0.00000000000E+00 -0.45593999997E+02  0.45594000000E+02  0.51100000000E-03 0. -1.
    9900012    2    1    2    0    0  0.14745280756E+02 -0.70384831624E+01  0.91494651506E+01  0.72461647917E+02  0.70000101117E+02 0.  0.
        -12    1    1    2    0    0 -0.14745280756E+02  0.70384831624E+01 -0.91494651506E+01  0.18726352083E+02  0.00000000000E+00 0.  1.
         11    1    3    3    0    0  0.13430932280E+02 -0.22732136821E+02 -0.18871500274E+01  0.26470763530E+02  0.51100000000E-03 0. -1.
        -11    1    3    3    0    0  0.19982130821E+02  0.16262444697E+02  0.85747407059E+01  0.27152879003E+02  0.51100000000E-03 0.  1.
         12    1    3    3    0    0 -0.18667782345E+02 -0.56879103879E+00  0.24618744721E+01  0.18838005384E+02  0.00000000000E+00 0. -1.
</event>
<event>
 7    1  0.1986097E-013  0.7246156E+02  0.7816164E-02  0.1226708E+00
        -11   -1    0    0    0    0  0.00000000000E+00  0.00000000000E+00  0.45593999997E+02  0.45594000000E+02  0.51100000000E-03 0.  1.
         11   -1    0    0    0    0 -0.00000000000E+00 -0.00000000000E+00 -0.45593999997E+02  0.45594000000E+02  0.51100000000E-03 0. -1.
    9900012    2    1    2    0    0 -0.37652571449E+01  0.12987808470E+02  0.12954500991E+02  0.72461563442E+02  0.69999991074E+02 0.  0.
        -12    1    1    2    0    0  0.37652571449E+01 -0.12987808470E+02 -0.12954500991E+02  0.18726436558E+02  0.00000000000E+00 0.  1.
         11    1    3    3    0    0  0.16545344497E+02  0.13523003460E+02  0.82286231362E+00  0.21384507236E+02  0.51100000000E-03 0. -1.
        -11    1    3    3    0    0 -0.33010154202E+02  0.72130077271E+01  0.12931372518E+02  0.36178973954E+02  0.51100000000E-03 0.  1.
         12    1    3    3    0    0  0.12699552560E+02 -0.77482027173E+01 -0.79973384065E+00  0.14898082252E+02  0.00000000000E+00 0. -1.
</event>
<event>
 7    1  0.1830715E-013  0.7246142E+02  0.7816164E-02  0.1226708E+00
        -11   -1    0    0    0    0  0.00000000000E+00  0.00000000000E+00  0.45593999997E+02  0.45594000000E+02  0.51100000000E-03 0.  1.
         11   -1    0    0    0    0 -0.00000000000E+00 -0.00000000000E+00 -0.45593999997E+02  0.45594000000E+02  0.51100000000E-03 0. -1.
    9900012    2    1    2    0    0  0.17081062167E+02 -0.11574577432E+01 -0.75883155348E+01  0.72461416600E+02  0.69999799784E+02 0.  0.
        -12    1    1    2    0    0 -0.17081062167E+02  0.11574577432E+01  0.75883155348E+01  0.18726583400E+02  0.00000000000E+00 0.  1.
         11    1    3    3    0    0  0.11190710847E+01  0.57750420249E+01 -0.22544926907E+02  0.23299724461E+02  0.51100000000E-03 0. -1.
        -11    1    3    3    0    0 -0.13790705379E+02  0.16115829972E+01  0.11472417260E+02  0.18011027529E+02  0.51100000000E-03 0.  1.
        -12    1    3    3    0    0  0.29752696461E+02 -0.85440827653E+01  0.34841941122E+01  0.31150664610E+02  0.00000000000E+00 0.  1.
</event>
<event>
 7    1  0.1830715E-013  0.7246153E+02  0.7816164E-02  0.1226708E+00
        -11   -1    0    0    0    0  0.00000000000E+00  0.00000000000E+00  0.45593999997E+02  0.45594000000E+02  0.51100000000E-03 0. -1.
         11   -1    0    0    0    0 -0.00000000000E+00 -0.00000000000E+00 -0.45593999997E+02  0.45594000000E+02  0.51100000000E-03 0.  1.
    9900012    2    1    2    0    0 -0.89438915716E+01 -0.14757173181E+02  0.72741451576E+01  0.72461533582E+02  0.69999952175E+02 0.  0.
        -12    1    1    2    0    0  0.89438915716E+01  0.14757173181E+02 -0.72741451576E+01  0.18726466418E+02  0.00000000000E+00 0.  1.
         11    1    3    3    0    0  0.19761252095E+02 -0.25315148315E+02  0.13436203920E+02  0.34812287983E+02  0.51100000000E-03 0. -1.
        -11    1    3    3    0    0 -0.72359874796E+01  0.66350336557E+01 -0.11560682085E+02  0.15166824221E+02  0.51100000000E-03 0.  1.
         12    1    3    3    0    0 -0.21469156187E+02  0.39229414777E+01  0.53986233225E+01  0.22482421378E+02  0.00000000000E+00 0. -1.
</event>
<event>
 7    1  0.1830715E-013  0.7246156E+02  0.7816164E-02  0.1226708E+00
        -11   -1    0    0    0    0  0.00000000000E+00  0.00000000000E+00  0.45593999997E+02  0.45594000000E+02  0.51100000000E-03 0.  1.
         11   -1    0    0    0    0 -0.00000000000E+00 -0.00000000000E+00 -0.45593999997E+02  0.45594000000E+02  0.51100000000E-03 0. -1.
    9900012    2    1    2    0    0 -0.70044654814E+01  0.12694234724E+02 -0.11852140816E+02  0.72461564840E+02  0.69999992894E+02 0.  0.
        -12    1    1    2    0    0  0.70044654814E+01 -0.12694234724E+02  0.11852140816E+02  0.18726435160E+02  0.00000000000E+00 0.  1.
         11    1    3    3    0    0 -0.22229771719E+02 -0.29748328936E+01 -0.57393992027E+01  0.23150660571E+02  0.51100000000E-03 0. -1.
        -11    1    3    3    0    0  0.13000975899E+02  0.25328652513E+02  0.10183394317E+02  0.30236857187E+02  0.51100000000E-03 0.  1.
        -12    1    3    3    0    0  0.22243303389E+01 -0.96595848960E+01 -0.16296135930E+02  0.19074047082E+02  0.00000000000E+00 0.  1.
</event>
<event>
 7    1  0.1830715E-013  0.7246155E+02  0.7816164E-02  0.1226708E+00
        -11   -1    0    0    0    0  0.00000000000E+00  0.00000000000E+00  0.45593999997E+02  0.45594000000E+02  0.51100000000E-03 0. -1.
         11   -1    0    0    0    0 -0.00000000000E+00 -0.00000000000E+00 -0.45593999997E+02  0.45594000000E+02  0.51100000000E-03 0.  1.
    9900012    2    1    2    0    0 -0.18623383827E+02  0.19483618203E+01  0.23121695521E+00  0.72461548114E+02  0.69999971106E+02 0.  0.
        -12    1    1    2    0    0  0.18623383827E+02 -0.19483618203E+01 -0.23121695521E+00  0.18726451886E+02  0.00000000000E+00 0.  1.
         11    1    3    3    0    0 -0.19731667759E+02 -0.57897815044E+01 -0.30471852476E+01  0.20788112483E+02  0.51100000000E-03 0. -1.
        -11    1    3    3    0    0 -0.96301509021E+01  0.27263769416E+02  0.49164978215E+01  0.29329590524E+02  0.51100000000E-03 0.  1.
        -12    1    3    3    0    0  0.10738434834E+02 -0.19525626092E+02 -0.16380956187E+01  0.22343845108E+02  0.00000000000E+00 0.  1.
</event>
<event>
 7    1  0.1830715E-013  0.7246160E+02  0.7816164E-02  0.1226708E+00
        -11   -1    0    0    0    0  0.00000000000E+00  0.00000000000E+00  0.45593999997E+02  0.45594000000E+02  0.51100000000E-03 0. -1.
         11   -1    0    0    0    0 -0.00000000000E+00 -0.00000000000E+00 -0.45593999997E+02  0.45594000000E+02  0.51100000000E-03 0.  1.
    9900012    2    1    2    0    0  0.87833602427E+01  0.53642130693E+00  0.16530062277E+02  0.72461598214E+02  0.70000036370E+02 0.  0.
        -12    1    1    2    0    0 -0.87833602427E+01 -0.53642130693E+00 -0.16530062277E+02  0.18726401786E+02  0.00000000000E+00 0.  1.
         11    1    3    3    0    0  0.15693352549E+02 -0.81789775687E+00 -0.19083395616E+02  0.24720968012E+02  0.51100000000E-03 0.  1.
        -11    1    3    3    0    0 -0.11181636357E+01 -0.64072507626E+01  0.37341138438E+02  0.37903347773E+02  0.51100000000E-03 0. -1.
         12    1    3    3    0    0 -0.57918286705E+01  0.77615698264E+01 -0.17276805452E+01  0.98372824288E+01  0.00000000000E+00 0. -1.
</event>
<event>
 7    1  0.1830715E-013  0.7246161E+02  0.7816164E-02  0.1226708E+00
        -11   -1    0    0    0    0  0.00000000000E+00  0.00000000000E+00  0.45593999997E+02  0.45594000000E+02  0.51100000000E-03 0.  1.
         11   -1    0    0    0    0 -0.00000000000E+00 -0.00000000000E+00 -0.45593999997E+02  0.45594000000E+02  0.51100000000E-03 0. -1.
    9900012    2    1    2    0    0  0.12293275990E+02 -0.55474445244E+01 -0.12991499075E+02  0.72461606233E+02  0.70000046817E+02 0.  0.
        -12    1    1    2    0    0 -0.12293275990E+02  0.55474445244E+01  0.12991499075E+02  0.18726393767E+02  0.00000000000E+00 0.  1.
         11    1    3    3    0    0  0.34955253802E+02 -0.19662764786E+02  0.17305871367E+00  0.40106408926E+02  0.51100000000E-03 0. -1.
        -11    1    3    3    0    0 -0.13034541555E+02  0.10584580847E+01 -0.80004860558E+01  0.15330602873E+02  0.51100000000E-03 0.  1.
         12    1    3    3    0    0 -0.96274362566E+01  0.13056862176E+02 -0.51640717327E+01  0.17024594434E+02  0.00000000000E+00 0. -1.
</event>
<event>
 7    1  0.1830715E-013  0.7246158E+02  0.7816164E-02  0.1226708E+00
        -11   -1    0    0    0    0  0.00000000000E+00  0.00000000000E+00  0.45593999997E+02  0.45594000000E+02  0.51100000000E-03 0. -1.
         11   -1    0    0    0    0 -0.00000000000E+00 -0.00000000000E+00 -0.45593999997E+02  0.45594000000E+02  0.51100000000E-03 0.  1.
    9900012    2    1    2    0    0 -0.14359405566E+01  0.13786015774E+02  0.12592161276E+02  0.72461583316E+02  0.70000016963E+02 0.  0.
        -12    1    1    2    0    0  0.14359405566E+01 -0.13786015774E+02 -0.12592161276E+02  0.18726416684E+02  0.00000000000E+00 0.  1.
         11    1    3    3    0    0 -0.27487765751E+02  0.24340000104E+02  0.14396320484E+02  0.39436872528E+02  0.51100000000E-03 0. -1.
        -11    1    3    3    0    0  0.16085242285E+02  0.19021402969E+01 -0.45798571584E+01  0.16832357200E+02  0.51100000000E-03 0.  1.
         12    1    3    3    0    0  0.99665829100E+01 -0.12456124626E+02  0.27756979509E+01  0.16192353588E+02  0.00000000000E+00 0. -1.
</event>
<event>
 7    1  0.1830715E-013  0.7246167E+02  0.7816164E-02  0.1226708E+00
        -11   -1    0    0    0    0  0.00000000000E+00  0.00000000000E+00  0.45593999997E+02  0.45594000000E+02  0.51100000000E-03 0.  1.
         11   -1    0    0    0    0 -0.00000000000E+00 -0.00000000000E+00 -0.45593999997E+02  0.45594000000E+02  0.51100000000E-03 0. -1.
    9900012    2    1    2    0    0  0.91894450100E+01 -0.20482615832E+01 -0.16187471907E+02  0.72461667689E+02  0.70000126874E+02 0.  0.
        -12    1    1    2    0    0 -0.91894450100E+01  0.20482615832E+01  0.16187471907E+02  0.18726332311E+02  0.00000000000E+00 0.  1.
         11    1    3    3    0    0  0.30635854826E+02 -0.28668137723E+01 -0.15256472794E+02  0.34344347199E+02  0.51100000000E-03 0. -1.
        -11    1    3    3    0    0 -0.11159368442E+02 -0.27382636245E+01 -0.15895069437E+02  0.19613332821E+02  0.51100000000E-03 0.  1.
         12    1    3    3    0    0 -0.10287041374E+02  0.35568158135E+01  0.14964070324E+02  0.18503987668E+02  0.00000000000E+00 0. -1.
</event>
<event>
 7    1  0.1830715E-013  0.7246150E+02  0.7816164E-02  0.1226708E+00
        -11   -1    0    0    0    0  0.00000000000E+00  0.00000000000E+00  0.45593999997E+02  0.45594000000E+02  0.51100000000E-03 0.  1.
         11   -1    0    0    0    0 -0.00000000000E+00 -0.00000000000E+00 -0.45593999997E+02  0.45594000000E+02  0.51100000000E-03 0. -1.
    9900012    2    1    2    0    0 -0.14364059882E+02  0.11785591373E+02 -0.23357204987E+01  0.72461495506E+02  0.69999902575E+02 0.  0.
        -12    1    1    2    0    0  0.14364059882E+02 -0.11785591373E+02  0.23357204987E+01  0.18726504494E+02  0.00000000000E+00 0.  1.
         11    1    3    3    0    0 -0.27815338057E+01  0.65837756410E+01  0.28295720541E+02  0.29184427923E+02  0.51100000000E-03 0.  1.
        -11    1    3    3    0    0 -0.10882998690E+02 -0.86477450308E+01 -0.24383351888E+02  0.28067258580E+02  0.51100000000E-03 0. -1.
         12    1    3    3    0    0 -0.69952738606E+00  0.13849560763E+02 -0.62480891512E+01  0.15209809003E+02  0.00000000000E+00 0. -1.
</event>
<event>
 7    1  0.1830715E-013  0.7246155E+02  0.7816164E-02  0.1226708E+00
        -11   -1    0    0    0    0  0.00000000000E+00  0.00000000000E+00  0.45593999997E+02  0.45594000000E+02  0.51100000000E-03 0. -1.
         11   -1    0    0    0    0 -0.00000000000E+00 -0.00000000000E+00 -0.45593999997E+02  0.45594000000E+02  0.51100000000E-03 0.  1.
    9900012    2    1    2    0    0  0.15522114105E+02 -0.10154357017E+02  0.25754551459E+01  0.72461549138E+02  0.69999972439E+02 0.  0.
        -12    1    1    2    0    0 -0.15522114105E+02  0.10154357017E+02 -0.25754551459E+01  0.18726450862E+02  0.00000000000E+00 0.  1.
         11    1    3    3    0    0 -0.24464168038E+02 -0.31318385756E+01  0.43455991708E+01  0.25043725024E+02  0.51100000000E-03 0. -1.
        -11    1    3    3    0    0  0.37438128612E+01  0.47568287075E+01  0.60021813151E+01  0.85246545321E+01  0.51100000000E-03 0.  1.
         12    1    3    3    0    0  0.36242469282E+02 -0.11779347148E+02 -0.77723253399E+01  0.38893169581E+02  0.00000000000E+00 0. -1.
</event>
<event>
 7    1  0.1830715E-013  0.7246161E+02  0.7816164E-02  0.1226708E+00
        -11   -1    0    0    0    0  0.00000000000E+00  0.00000000000E+00  0.45593999997E+02  0.45594000000E+02  0.51100000000E-03 0.  1.
         11   -1    0    0    0    0 -0.00000000000E+00 -0.00000000000E+00 -0.45593999997E+02  0.45594000000E+02  0.51100000000E-03 0. -1.
    9900012    2    1    2    0    0  0.21532105188E+01 -0.17957064161E+02 -0.48564789040E+01  0.72461605361E+02  0.70000045681E+02 0.  0.
        -12    1    1    2    0    0 -0.21532105188E+01  0.17957064161E+02  0.48564789040E+01  0.18726394639E+02  0.00000000000E+00 0.  1.
         11    1    3    3    0    0  0.18326541858E+02  0.14653080246E+02 -0.91883612693E+01  0.25199223802E+02  0.51100000000E-03 0. -1.
        -11    1    3    3    0    0  0.48201272528E+01 -0.23035288661E+02  0.54661760149E+01  0.24160654605E+02  0.51100000000E-03 0.  1.
        -12    1    3    3    0    0 -0.20993458592E+02 -0.95748557461E+01 -0.11342936496E+01  0.23101726954E+02  0.00000000000E+00 0.  1.
</event>
<event>
 7    1  0.1830715E-013  0.7246159E+02  0.7816164E-02  0.1226708E+00
        -11   -1    0    0    0    0  0.00000000000E+00  0.00000000000E+00  0.45593999997E+02  0.45594000000E+02  0.51100000000E-03 0. -1.
         11   -1    0    0    0    0 -0.00000000000E+00 -0.00000000000E+00 -0.45593999997E+02  0.45594000000E+02  0.51100000000E-03 0.  1.
    9900012    2    1    2    0    0 -0.16403404747E+02  0.21091060746E+01  0.87839857833E+01  0.72461590255E+02  0.70000026002E+02 0.  0.
        -12    1    1    2    0    0  0.16403404747E+02 -0.21091060746E+01 -0.87839857833E+01  0.18726409745E+02  0.00000000000E+00 0.  1.
         11    1    3    3    0    0 -0.11577190575E+02  0.12441438247E+02 -0.70567177382E+01  0.18401575823E+02  0.51100000000E-03 0. -1.
        -11    1    3    3    0    0  0.15185777878E+02 -0.21092948927E+02  0.17412010347E+02  0.31284156514E+02  0.51100000000E-03 0.  1.
        -12    1    3    3    0    0 -0.20011992050E+02  0.10760616755E+02 -0.15713068256E+01  0.22775857918E+02  0.00000000000E+00 0.  1.
</event>
<event>
 7    1  0.1830715E-013  0.7246153E+02  0.7816164E-02  0.1226708E+00
        -11   -1    0    0    0    0  0.00000000000E+00  0.00000000000E+00  0.45593999997E+02  0.45594000000E+02  0.51100000000E-03 0. -1.
         11   -1    0    0    0    0 -0.00000000000E+00 -0.00000000000E+00 -0.45593999997E+02  0.45594000000E+02  0.51100000000E-03 0.  1.
    9900012    2    1    2    0    0  0.17175809888E+02  0.55753596650E+01  0.49585792308E+01  0.72461532403E+02  0.69999950639E+02 0.  0.
        -12    1    1    2    0    0 -0.17175809888E+02 -0.55753596650E+01 -0.49585792308E+01  0.18726467597E+02  0.00000000000E+00 0.  1.
         11    1    3    3    0    0 -0.13056494446E+02 -0.15474177548E+02 -0.15683561353E+02  0.25610472760E+02  0.51100000000E-03 0. -1.
        -11    1    3    3    0    0  0.96347391380E+01  0.16875157121E+02  0.35316169574E+01  0.19750226447E+02  0.51100000000E-03 0.  1.
         12    1    3    3    0    0  0.20597565196E+02  0.41743800927E+01  0.17110523626E+02  0.27100833196E+02  0.00000000000E+00 0. -1.
</event>
<event>
 7    1  0.1830715E-013  0.7246176E+02  0.7816164E-02  0.1226708E+00
        -11   -1    0    0    0    0  0.00000000000E+00  0.00000000000E+00  0.45593999997E+02  0.45594000000E+02  0.51100000000E-03 0. -1.
         11   -1    0    0    0    0 -0.00000000000E+00 -0.00000000000E+00 -0.45593999997E+02  0.45594000000E+02  0.51100000000E-03 0.  1.
    9900012    2    1    2    0    0  0.36601654619E+01 -0.17107670322E+02 -0.66785418402E+01  0.72461758621E+02  0.70000245331E+02 0.  0.
        -12    1    1    2    0    0 -0.36601654619E+01  0.17107670322E+02  0.66785418402E+01  0.18726241379E+02  0.00000000000E+00 0.  1.
         11    1    3    3    0    0 -0.28799924362E+02  0.67589188522E+01 -0.38722866441E+01  0.29834765483E+02  0.51100000000E-03 0. -1.
        -11    1    3    3    0    0  0.15230723167E+02 -0.47849261695E+01  0.30643141364E+01  0.16256090183E+02  0.51100000000E-03 0.  1.
         12    1    3    3    0    0  0.17229366656E+02 -0.19081663005E+02 -0.58705693325E+01  0.26370902956E+02  0.00000000000E+00 0. -1.
</event>
<event>
 7    1  0.1830715E-013  0.7246159E+02  0.7816164E-02  0.1226708E+00
        -11   -1    0    0    0    0  0.00000000000E+00  0.00000000000E+00  0.45593999997E+02  0.45594000000E+02  0.51100000000E-03 0.  1.
         11   -1    0    0    0    0 -0.00000000000E+00 -0.00000000000E+00 -0.45593999997E+02  0.45594000000E+02  0.51100000000E-03 0. -1.
    9900012    2    1    2    0    0  0.14874122164E+02 -0.65339365569E+01 -0.93137883293E+01  0.72461588435E+02  0.70000023631E+02 0.  0.
        -12    1    1    2    0    0 -0.14874122164E+02  0.65339365569E+01  0.93137883293E+01  0.18726411565E+02  0.00000000000E+00 0.  1.
         11    1    3    3    0    0  0.26219428971E+02  0.14191027340E+02 -0.17767341070E+02  0.34706225975E+02  0.51100000000E-03 0. -1.
        -11    1    3    3    0    0 -0.35353625606E+01  0.62938577756E+01  0.62425927025E+01  0.95436574773E+01  0.51100000000E-03 0.  1.
         12    1    3    3    0    0 -0.78099442464E+01 -0.27018821672E+02  0.22109600378E+01  0.28211704982E+02  0.00000000000E+00 0. -1.
</event>
<event>
 7    1  0.1830715E-013  0.7246157E+02  0.7816164E-02  0.1226708E+00
        -11   -1    0    0    0    0  0.00000000000E+00  0.00000000000E+00  0.45593999997E+02  0.45594000000E+02  0.51100000000E-03 0.  1.
         11   -1    0    0    0    0 -0.00000000000E+00 -0.00000000000E+00 -0.45593999997E+02  0.45594000000E+02  0.51100000000E-03 0. -1.
    9900012    2    1    2    0    0  0.12592806234E+02  0.12132184368E+02  0.67015338207E+01  0.72461568895E+02  0.69999998177E+02 0.  0.
        -12    1    1    2    0    0 -0.12592806234E+02 -0.12132184368E+02 -0.67015338207E+01  0.18726431105E+02  0.00000000000E+00 0.  1.
         11    1    3    3    0    0 -0.11238326009E+01 -0.12091365487E+02  0.71614790115E+01  0.14097904134E+02  0.51100000000E-03 0. -1.
        -11    1    3    3    0    0  0.27799984594E+02  0.28777463905E+02  0.87136202000E+01  0.40950076306E+02  0.51100000000E-03 0.  1.
        -12    1    3    3    0    0 -0.14083345759E+02 -0.45539140494E+01 -0.91735653908E+01  0.17413588456E+02  0.00000000000E+00 0.  1.
</event>
<event>
 7    1  0.1830715E-013  0.7246162E+02  0.7816164E-02  0.1226708E+00
        -11   -1    0    0    0    0  0.00000000000E+00  0.00000000000E+00  0.45593999997E+02  0.45594000000E+02  0.51100000000E-03 0. -1.
         11   -1    0    0    0    0 -0.00000000000E+00 -0.00000000000E+00 -0.45593999997E+02  0.45594000000E+02  0.51100000000E-03 0.  1.
    9900012    2    1    2    0    0  0.21561957247E+01  0.17708651139E+02  0.56949020394E+01  0.72461617157E+02  0.70000061047E+02 0.  0.
        -12    1    1    2    0    0 -0.21561957247E+01 -0.17708651139E+02 -0.56949020394E+01  0.18726382843E+02  0.00000000000E+00 0.  1.
         11    1    3    3    0    0 -0.13494475302E+02  0.15445352314E+02  0.19543456798E+02  0.28330310193E+02  0.51100000000E-03 0. -1.
        -11    1    3    3    0    0 -0.90687248080E+01 -0.45695013068E+01 -0.15390310173E+02  0.18438648522E+02  0.51100000000E-03 0.  1.
         12    1    3    3    0    0  0.24719395834E+02  0.68328001315E+01  0.15417554146E+01  0.25692658442E+02  0.00000000000E+00 0. -1.
</event>
<event>
 7    1  0.1830715E-013  0.7246159E+02  0.7816164E-02  0.1226708E+00
        -11   -1    0    0    0    0  0.00000000000E+00  0.00000000000E+00  0.45593999997E+02  0.45594000000E+02  0.51100000000E-03 0.  1.
         11   -1    0    0    0    0 -0.00000000000E+00 -0.00000000000E+00 -0.45593999997E+02  0.45594000000E+02  0.51100000000E-03 0. -1.
    9900012    2    1    2    0    0 -0.83583571790E+01 -0.11129714627E+01 -0.16720578003E+02  0.72461586330E+02  0.70000020889E+02 0.  0.
        -12    1    1    2    0    0  0.83583571790E+01  0.11129714627E+01  0.16720578003E+02  0.18726413670E+02  0.00000000000E+00 0.  1.
         11    1    3    3    0    0  0.69487893040E+01 -0.12385642118E+01  0.62679580521E+01  0.94396510795E+01  0.51100000000E-03 0. -1.
        -11    1    3    3    0    0 -0.31590101439E+02  0.69708014500E+01 -0.29902949763E+02  0.44053524110E+02  0.51100000000E-03 0.  1.
        -12    1    3    3    0    0  0.16282954956E+02 -0.68452087009E+01  0.69144137078E+01  0.18968411140E+02  0.00000000000E+00 0.  1.
</event>
<event>
 7    1  0.1830715E-013  0.7246130E+02  0.7816164E-02  0.1226709E+00
        -11   -1    0    0    0    0  0.00000000000E+00  0.00000000000E+00  0.45593999997E+02  0.45594000000E+02  0.51100000000E-03 0.  1.
         11   -1    0    0    0    0 -0.00000000000E+00 -0.00000000000E+00 -0.45593999997E+02  0.45594000000E+02  0.51100000000E-03 0. -1.
    9900012    2    1    2    0    0 -0.18645443903E+01 -0.10838131502E+02 -0.15157434518E+02  0.72461296034E+02  0.69999642725E+02 0.  0.
        -12    1    1    2    0    0  0.18645443903E+01  0.10838131502E+02  0.15157434518E+02  0.18726703966E+02  0.00000000000E+00 0.  1.
         11    1    3    3    0    0  0.10343632599E+02  0.42076744334E+01 -0.31189925552E+02  0.33128638905E+02  0.51100000000E-03 0. -1.
        -11    1    3    3    0    0 -0.20812078529E+02 -0.13066307605E+02  0.47872161153E+01  0.25035743359E+02  0.51100000000E-03 0.  1.
         12    1    3    3    0    0  0.86039015402E+01 -0.19794983306E+01  0.11245274919E+02  0.14296913770E+02  0.00000000000E+00 0. -1.
</event>
<event>
 7    1  0.1830715E-013  0.7246157E+02  0.7816164E-02  0.1226708E+00
        -11   -1    0    0    0    0  0.00000000000E+00  0.00000000000E+00  0.45593999997E+02  0.45594000000E+02  0.51100000000E-03 0.  1.
         11   -1    0    0    0    0 -0.00000000000E+00 -0.00000000000E+00 -0.45593999997E+02  0.45594000000E+02  0.51100000000E-03 0. -1.
    9900012    2    1    2    0    0  0.32996118206E+01  0.30117099580E+01 -0.18185743652E+02  0.72461571958E+02  0.70000002168E+02 0.  0.
        -12    1    1    2    0    0 -0.32996118206E+01 -0.30117099580E+01  0.18185743652E+02  0.18726428042E+02  0.00000000000E+00 0.  1.
         11    1    3    3    0    0 -0.56233619338E+01 -0.55814104427E+01 -0.38884926905E+02  0.39683899540E+02  0.51100000000E-03 0. -1.
        -11    1    3    3    0    0  0.14098516151E+02 -0.86654888453E+00  0.14912065971E+02  0.20539931266E+02  0.51100000000E-03 0.  1.
        -12    1    3    3    0    0 -0.51755423962E+01  0.94596692853E+01  0.57871172828E+01  0.12237741153E+02  0.00000000000E+00 0.  1.
</event>
<event>
 7    1  0.1830715E-013  0.7246155E+02  0.7816164E-02  0.1226708E+00
        -11   -1    0    0    0    0  0.00000000000E+00  0.00000000000E+00  0.45593999997E+02  0.45594000000E+02  0.51100000000E-03 0. -1.
         11   -1    0    0    0    0 -0.00000000000E+00 -0.00000000000E+00 -0.45593999997E+02  0.45594000000E+02  0.51100000000E-03 0.  1.
    9900012    2    1    2    0    0 -0.16934134874E+02 -0.79716606903E+01  0.60619517648E+00  0.72461554243E+02  0.69999979090E+02 0.  0.
        -12    1    1    2    0    0  0.16934134874E+02  0.79716606903E+01 -0.60619517648E+00  0.18726445757E+02  0.00000000000E+00 0.  1.
         11    1    3    3    0    0  0.11436159184E+02 -0.12108209987E+02  0.26645961516E+02  0.31422949438E+02  0.51100000000E-03 0. -1.
        -11    1    3    3    0    0 -0.69672667222E+01 -0.26621646953E+01 -0.13223451654E+02  0.15181883953E+02  0.51100000000E-03 0.  1.
         12    1    3    3    0    0 -0.21403027336E+02  0.67987139925E+01 -0.12816314686E+02  0.25856720852E+02  0.00000000000E+00 0. -1.
</event>
<event>
 7    1  0.1830715E-013  0.7246156E+02  0.7816164E-02  0.1226708E+00
        -11   -1    0    0    0    0  0.00000000000E+00  0.00000000000E+00  0.45593999997E+02  0.45594000000E+02  0.51100000000E-03 0.  1.
         11   -1    0    0    0    0 -0.00000000000E+00 -0.00000000000E+00 -0.45593999997E+02  0.45594000000E+02  0.51100000000E-03 0. -1.
    9900012    2    1    2    0    0 -0.25451589958E+01 -0.77612644393E+01 -0.16851245454E+02  0.72461560580E+02  0.69999987345E+02 0.  0.
        -12    1    1    2    0    0  0.25451589958E+01  0.77612644393E+01  0.16851245454E+02  0.18726439420E+02  0.00000000000E+00 0.  1.
         11    1    3    3    0    0  0.40093669872E+01  0.79421155767E+01 -0.55224769103E+01  0.10471388397E+02  0.51100000000E-03 0. -1.
        -11    1    3    3    0    0 -0.22404687232E+02 -0.31346490626E+02 -0.51022823633E+01  0.38866512193E+02  0.51100000000E-03 0.  1.
        -12    1    3    3    0    0  0.15850161249E+02  0.15643110610E+02 -0.62264861806E+01  0.23123659990E+02  0.00000000000E+00 0.  1.
</event>
<event>
 7    1  0.1830715E-013  0.7246154E+02  0.7816164E-02  0.1226708E+00
        -11   -1    0    0    0    0  0.00000000000E+00  0.00000000000E+00  0.45593999997E+02  0.45594000000E+02  0.51100000000E-03 0. -1.
         11   -1    0    0    0    0 -0.00000000000E+00 -0.00000000000E+00 -0.45593999997E+02  0.45594000000E+02  0.51100000000E-03 0.  1.
    9900012    2    1    2    0    0 -0.17170621230E+01 -0.51202987320E+01  0.17930830413E+02  0.72461536352E+02  0.69999955784E+02 0.  0.
        -12    1    1    2    0    0  0.17170621230E+01  0.51202987320E+01 -0.17930830413E+02  0.18726463648E+02  0.00000000000E+00 0.  1.
         11    1    3    3    0    0 -0.30602697458E+01  0.14298109999E+02  0.34022809626E+02  0.37031780616E+02  0.51100000000E-03 0.  1.
        -11    1    3    3    0    0 -0.62292156157E+01 -0.19494753444E+02 -0.18391646168E+02  0.27515471794E+02  0.51100000000E-03 0. -1.
         12    1    3    3    0    0  0.75724232386E+01  0.76344713356E-01  0.22996669549E+01  0.79142839425E+01  0.00000000000E+00 0. -1.
</event>
<event>
 7    1  0.1830715E-013  0.7246161E+02  0.7816164E-02  0.1226708E+00
        -11   -1    0    0    0    0  0.00000000000E+00  0.00000000000E+00  0.45593999997E+02  0.45594000000E+02  0.51100000000E-03 0. -1.
         11   -1    0    0    0    0 -0.00000000000E+00 -0.00000000000E+00 -0.45593999997E+02  0.45594000000E+02  0.51100000000E-03 0.  1.
    9900012    2    1    2    0    0  0.17243557443E+02  0.37034612019E+01  0.62945722734E+01  0.72461613849E+02  0.70000056739E+02 0.  0.
        -12    1    1    2    0    0 -0.17243557443E+02 -0.37034612019E+01 -0.62945722734E+01  0.18726386151E+02  0.00000000000E+00 0.  1.
         11    1    3    3    0    0  0.84861798810E+01  0.23781666586E+02  0.26637781415E+02  0.36703600826E+02  0.51100000000E-03 0. -1.
        -11    1    3    3    0    0  0.17881981507E+01 -0.21115112344E+02 -0.10490572503E+02  0.23645247591E+02  0.51100000000E-03 0.  1.
        -12    1    3    3    0    0  0.69691794110E+01  0.10369069596E+01 -0.98526366384E+01  0.12112765433E+02  0.00000000000E+00 0.  1.
</event>
<event>
 7    1  0.1830715E-013  0.7246157E+02  0.7816164E-02  0.1226708E+00
        -11   -1    0    0    0    0  0.00000000000E+00  0.00000000000E+00  0.45593999997E+02  0.45594000000E+02  0.51100000000E-03 0.  1.
         11   -1    0    0    0    0 -0.00000000000E+00 -0.00000000000E+00 -0.45593999997E+02  0.45594000000E+02  0.51100000000E-03 0. -1.
    9900012    2    1    2    0    0  0.58141866502E+00  0.18264949085E+02  0.40905613723E+01  0.72461572015E+02  0.70000002241E+02 0.  0.
        -12    1    1    2    0    0 -0.58141866502E+00 -0.18264949085E+02 -0.40905613723E+01  0.18726427985E+02  0.00000000000E+00 0.  1.
         11    1    3    3    0    0  0.18825832201E+02  0.30718013898E+02  0.22580922877E+02  0.42519482759E+02  0.51100000000E-03 0. -1.
        -11    1    3    3    0    0 -0.16415497979E+02 -0.87758159057E+01 -0.17842292133E+02  0.25784315146E+02  0.51100000000E-03 0.  1.
         12    1    3    3    0    0 -0.18289155565E+01 -0.36772489071E+01 -0.64806937222E+00  0.41577741099E+01  0.00000000000E+00 0. -1.
</event>
<event>
 7    1  0.1830715E-013  0.7246157E+02  0.7816164E-02  0.1226708E+00
        -11   -1    0    0    0    0  0.00000000000E+00  0.00000000000E+00  0.45593999997E+02  0.45594000000E+02  0.51100000000E-03 0. -1.
         11   -1    0    0    0    0 -0.00000000000E+00 -0.00000000000E+00 -0.45593999997E+02  0.45594000000E+02  0.51100000000E-03 0.  1.
    9900012    2    1    2    0    0  0.62268776093E+01  0.13722950072E+02  0.11116914631E+02  0.72461570700E+02  0.70000000528E+02 0.  0.
        -12    1    1    2    0    0 -0.62268776093E+01 -0.13722950072E+02 -0.11116914631E+02  0.18726429300E+02  0.00000000000E+00 0.  1.
         11    1    3    3    0    0  0.42947187332E+01 -0.20426186533E+02  0.18782023001E+02  0.28079139829E+02  0.51100000000E-03 0. -1.
        -11    1    3    3    0    0  0.10963180529E+02  0.31388181214E+01 -0.24812849743E+01  0.11670487646E+02  0.51100000000E-03 0.  1.
         12    1    3    3    0    0 -0.90310216527E+01  0.31010318484E+02 -0.51838233958E+01  0.32711943225E+02  0.00000000000E+00 0. -1.
</event>
<event>
 7    1  0.1830715E-013  0.7246156E+02  0.7816164E-02  0.1226708E+00
        -11   -1    0    0    0    0  0.00000000000E+00  0.00000000000E+00  0.45593999997E+02  0.45594000000E+02  0.51100000000E-03 0. -1.
         11   -1    0    0    0    0 -0.00000000000E+00 -0.00000000000E+00 -0.45593999997E+02  0.45594000000E+02  0.51100000000E-03 0.  1.
    9900012    2    1    2    0    0  0.63660791294E+01 -0.17574405050E+02 -0.11369946340E+01  0.72461563255E+02  0.69999990830E+02 0.  0.
        -12    1    1    2    0    0 -0.63660791294E+01  0.17574405050E+02  0.11369946340E+01  0.18726436745E+02  0.00000000000E+00 0.  1.
         11    1    3    3    0    0  0.39201632182E+01 -0.29558090826E+02  0.86765610487E+01  0.31053681341E+02  0.51100000000E-03 0. -1.
        -11    1    3    3    0    0 -0.57167773142E+01  0.24091001173E+02 -0.19842222329E+01  0.24839384423E+02  0.51100000000E-03 0.  1.
        -12    1    3    3    0    0  0.81626932254E+01 -0.12107315398E+02 -0.78293334497E+01  0.16568497491E+02  0.00000000000E+00 0.  1.
</event>
<event>
 7    1  0.1830715E-013  0.7246161E+02  0.7816164E-02  0.1226708E+00
        -11   -1    0    0    0    0  0.00000000000E+00  0.00000000000E+00  0.45593999997E+02  0.45594000000E+02  0.51100000000E-03 0.  1.
         11   -1    0    0    0    0 -0.00000000000E+00 -0.00000000000E+00 -0.45593999997E+02  0.45594000000E+02  0.51100000000E-03 0. -1.
    9900012    2    1    2    0    0 -0.17990363032E+02  0.40635598697E+01 -0.32422387815E+01  0.72461607043E+02  0.70000047872E+02 0.  0.
        -12    1    1    2    0    0  0.17990363032E+02 -0.40635598697E+01  0.32422387815E+01  0.18726392957E+02  0.00000000000E+00 0.  1.
         11    1    3    3    0    0 -0.10041349941E+02 -0.13874723759E+02 -0.23313423893E+01  0.17285017374E+02  0.51100000000E-03 0. -1.
        -11    1    3    3    0    0  0.98329728024E+00  0.34008301855E+02  0.76866932126E+01  0.34880033277E+02  0.51100000000E-03 0.  1.
        -12    1    3    3    0    0 -0.89323103720E+01 -0.16070018226E+02 -0.85975896049E+01  0.20296556392E+02  0.00000000000E+00 0.  1.
</event>
<event>
 7    1  0.1830715E-013  0.7246157E+02  0.7816164E-02  0.1226708E+00
        -11   -1    0    0    0    0  0.00000000000E+00  0.00000000000E+00  0.45593999997E+02  0.45594000000E+02  0.51100000000E-03 0.  1.
         11   -1    0    0    0    0 -0.00000000000E+00 -0.00000000000E+00 -0.45593999997E+02  0.45594000000E+02  0.51100000000E-03 0. -1.
    9900012    2    1    2    0    0  0.82142111573E+01 -0.16153122902E+02 -0.47204474993E+01  0.72461567638E+02  0.69999996539E+02 0.  0.
        -12    1    1    2    0    0 -0.82142111573E+01  0.16153122902E+02  0.47204474993E+01  0.18726432362E+02  0.00000000000E+00 0.  1.
         11    1    3    3    0    0  0.95801230362E+01  0.21973472117E+01 -0.19771816409E+02  0.22080122656E+02  0.51100000000E-03 0. -1.
        -11    1    3    3    0    0 -0.39425689235E+01 -0.17438851172E+02  0.30141810254E+02  0.35045486237E+02  0.51100000000E-03 0.  1.
        -12    1    3    3    0    0  0.25766570446E+01 -0.91161894153E+00 -0.15090441345E+02  0.15335958744E+02  0.00000000000E+00 0.  1.
</event>
<event>
 7    1  0.1830715E-013  0.7246154E+02  0.7816164E-02  0.1226708E+00
        -11   -1    0    0    0    0  0.00000000000E+00  0.00000000000E+00  0.45593999997E+02  0.45594000000E+02  0.51100000000E-03 0.  1.
         11   -1    0    0    0    0 -0.00000000000E+00 -0.00000000000E+00 -0.45593999997E+02  0.45594000000E+02  0.51100000000E-03 0. -1.
    9900012    2    1    2    0    0  0.55445518431E+01  0.17830416710E+02  0.14193339745E+01  0.72461539466E+02  0.69999959840E+02 0.  0.
        -12    1    1    2    0    0 -0.55445518431E+01 -0.17830416710E+02 -0.14193339745E+01  0.18726460534E+02  0.00000000000E+00 0.  1.
         11    1    3    3    0    0 -0.39758447686E+01  0.10141702192E+02  0.22926813121E+01  0.11131839598E+02  0.51100000000E-03 0. -1.
        -11    1    3    3    0    0  0.32627881094E+02  0.13187973353E+02 -0.88236444881E+01  0.36281647815E+02  0.51100000000E-03 0.  1.
        -12    1    3    3    0    0 -0.23107484483E+02 -0.54992588350E+01  0.79502971504E+01  0.25048052053E+02  0.00000000000E+00 0.  1.
</event>
<event>
 7    1  0.1830715E-013  0.7246167E+02  0.7816164E-02  0.1226708E+00
        -11   -1    0    0    0    0  0.00000000000E+00  0.00000000000E+00  0.45593999997E+02  0.45594000000E+02  0.51100000000E-03 0.  1.
         11   -1    0    0    0    0 -0.00000000000E+00 -0.00000000000E+00 -0.45593999997E+02  0.45594000000E+02  0.51100000000E-03 0. -1.
    9900012    2    1    2    0    0 -0.17777938973E+02 -0.42518087726E+01 -0.40672235690E+01  0.72461673624E+02  0.70000134606E+02 0.  0.
        -12    1    1    2    0    0  0.17777938973E+02  0.42518087726E+01  0.40672235690E+01  0.18726326376E+02  0.00000000000E+00 0.  1.
         11    1    3    3    0    0 -0.75731230178E+01  0.43989913446E+01 -0.27186413758E+02  0.28562290006E+02  0.51100000000E-03 0. -1.
        -11    1    3    3    0    0  0.57428458288E+01 -0.17775158187E+02  0.14265416602E+02  0.23504013229E+02  0.51100000000E-03 0.  1.
        -12    1    3    3    0    0 -0.15947661784E+02  0.91243580698E+01  0.88537735877E+01  0.20395370389E+02  0.00000000000E+00 0.  1.
</event>
<event>
 7    1  0.1830715E-013  0.7246157E+02  0.7816164E-02  0.1226708E+00
        -11   -1    0    0    0    0  0.00000000000E+00  0.00000000000E+00  0.45593999997E+02  0.45594000000E+02  0.51100000000E-03 0. -1.
         11   -1    0    0    0    0 -0.00000000000E+00 -0.00000000000E+00 -0.45593999997E+02  0.45594000000E+02  0.51100000000E-03 0.  1.
    9900012    2    1    2    0    0 -0.40624809460E+01  0.13123563012E+02  0.12725856089E+02  0.72461572931E+02  0.70000003434E+02 0.  0.
        -12    1    1    2    0    0  0.40624809460E+01 -0.13123563012E+02 -0.12725856089E+02  0.18726427069E+02  0.00000000000E+00 0.  1.
         11    1    3    3    0    0 -0.32855808573E+01  0.25540705050E+02  0.12750530466E+01  0.25782715461E+02  0.51100000000E-03 0. -1.
        -11    1    3    3    0    0  0.11561580387E+02 -0.24980635771E+02  0.86140754936E+01  0.28842756482E+02  0.51100000000E-03 0.  1.
        -12    1    3    3    0    0 -0.12338480476E+02  0.12563493734E+02  0.28367275492E+01  0.17836100988E+02  0.00000000000E+00 0.  1.
</event>
<event>
 7    1  0.1830715E-013  0.7246161E+02  0.7816164E-02  0.1226708E+00
        -11   -1    0    0    0    0  0.00000000000E+00  0.00000000000E+00  0.45593999997E+02  0.45594000000E+02  0.51100000000E-03 0. -1.
         11   -1    0    0    0    0 -0.00000000000E+00 -0.00000000000E+00 -0.45593999997E+02  0.45594000000E+02  0.51100000000E-03 0.  1.
    9900012    2    1    2    0    0  0.16478550506E+02 -0.50518755378E+01 -0.73221433676E+01  0.72461605346E+02  0.70000045661E+02 0.  0.
        -12    1    1    2    0    0 -0.16478550506E+02  0.50518755378E+01  0.73221433676E+01  0.18726394654E+02  0.00000000000E+00 0.  1.
         11    1    3    3    0    0  0.64271989038E+00  0.70878445095E+01  0.41967976295E+01  0.82621873165E+01  0.51100000000E-03 0. -1.
        -11    1    3    3    0    0 -0.11050277184E+02 -0.24201193174E+02  0.92294113909E+01  0.28160049925E+02  0.51100000000E-03 0.  1.
        -12    1    3    3    0    0  0.26886107799E+02  0.12061473127E+02 -0.20748352388E+02  0.36039368105E+02  0.00000000000E+00 0.  1.
</event>
<event>
 7    1  0.1830715E-013  0.7246143E+02  0.7816164E-02  0.1226708E+00
        -11   -1    0    0    0    0  0.00000000000E+00  0.00000000000E+00  0.45593999997E+02  0.45594000000E+02  0.51100000000E-03 0. -1.
         11   -1    0    0    0    0 -0.00000000000E+00 -0.00000000000E+00 -0.45593999997E+02  0.45594000000E+02  0.51100000000E-03 0.  1.
    9900012    2    1    2    0    0  0.67604974208E+01 -0.90421876670E+01 -0.14940515838E+02  0.72461428059E+02  0.69999814711E+02 0.  0.
        -12    1    1    2    0    0 -0.67604974208E+01  0.90421876670E+01  0.14940515838E+02  0.18726571941E+02  0.00000000000E+00 0.  1.
         11    1    3    3    0    0  0.11007335285E+02 -0.47373324464E+01  0.23434942850E+02  0.26321099814E+02  0.51100000000E-03 0. -1.
        -11    1    3    3    0    0  0.75679701171E+01 -0.96298046347E+01 -0.22774438960E+02  0.25858893619E+02  0.51100000000E-03 0.  1.
         12    1    3    3    0    0 -0.11814807981E+02  0.53249494142E+01 -0.15601019728E+02  0.20281434625E+02  0.00000000000E+00 0. -1.
</event>
<event>
 7    1  0.1830715E-013  0.7246149E+02  0.7816164E-02  0.1226708E+00
        -11   -1    0    0    0    0  0.00000000000E+00  0.00000000000E+00  0.45593999997E+02  0.45594000000E+02  0.51100000000E-03 0.  1.
         11   -1    0    0    0    0 -0.00000000000E+00 -0.00000000000E+00 -0.45593999997E+02  0.45594000000E+02  0.51100000000E-03 0. -1.
    9900012    2    1    2    0    0 -0.10226157969E+02 -0.12858868743E+02  0.89865150481E+01  0.72461487648E+02  0.69999892338E+02 0.  0.
        -12    1    1    2    0    0  0.10226157969E+02  0.12858868743E+02 -0.89865150481E+01  0.18726512352E+02  0.00000000000E+00 0.  1.
         11    1    3    3    0    0  0.15510055478E+02 -0.18420010901E+02  0.40643341327E+01  0.24420840172E+02  0.51100000000E-03 0.  1.
        -11    1    3    3    0    0 -0.27156147304E+02  0.18455000894E+02 -0.27858194296E+01  0.32951542977E+02  0.51100000000E-03 0. -1.
         12    1    3    3    0    0  0.14199338573E+01 -0.12893858736E+02  0.77080003450E+01  0.15089104499E+02  0.00000000000E+00 0. -1.
</event>
<event>
 7    1  0.1830715E-013  0.7246158E+02  0.7816164E-02  0.1226708E+00
        -11   -1    0    0    0    0  0.00000000000E+00  0.00000000000E+00  0.45593999997E+02  0.45594000000E+02  0.51100000000E-03 0.  1.
         11   -1    0    0    0    0 -0.00000000000E+00 -0.00000000000E+00 -0.45593999997E+02  0.45594000000E+02  0.51100000000E-03 0. -1.
    9900012    2    1    2    0    0 -0.12449608639E+02 -0.66702166311E+01 -0.12296106366E+02  0.72461580777E+02  0.70000013655E+02 0.  0.
        -12    1    1    2    0    0  0.12449608639E+02  0.66702166311E+01  0.12296106366E+02  0.18726419223E+02  0.00000000000E+00 0.  1.
         11    1    3    3    0    0 -0.14897272422E+02  0.12718003868E+02 -0.11477418929E+02  0.22702587816E+02  0.51100000000E-03 0. -1.
        -11    1    3    3    0    0  0.15200406517E+02 -0.21398606667E+02 -0.15281429526E+02  0.30372270481E+02  0.51100000000E-03 0.  1.
        -12    1    3    3    0    0 -0.12752742734E+02  0.20103861679E+01  0.14462742089E+02  0.19386722480E+02  0.00000000000E+00 0.  1.
</event>
<event>
 7    1  0.1830715E-013  0.7246157E+02  0.7816164E-02  0.1226708E+00
        -11   -1    0    0    0    0  0.00000000000E+00  0.00000000000E+00  0.45593999997E+02  0.45594000000E+02  0.51100000000E-03 0. -1.
         11   -1    0    0    0    0 -0.00000000000E+00 -0.00000000000E+00 -0.45593999997E+02  0.45594000000E+02  0.51100000000E-03 0.  1.
    9900012    2    1    2    0    0  0.47259257268E+01 -0.56180441076E+01  0.17227368356E+02  0.72461574446E+02  0.70000005408E+02 0.  0.
        -12    1    1    2    0    0 -0.47259257268E+01  0.56180441076E+01 -0.17227368356E+02  0.18726425554E+02  0.00000000000E+00 0.  1.
         11    1    3    3    0    0 -0.13235989112E-01  0.19902806368E+02 -0.13263053598E+02  0.23917158433E+02  0.51100000000E-03 0.  1.
        -11    1    3    3    0    0 -0.56749366344E+00 -0.24763215791E+02  0.34052509693E+02  0.42108340291E+02  0.51100000000E-03 0. -1.
         12    1    3    3    0    0  0.53066553794E+01 -0.75763468456E+00 -0.35620877396E+01  0.64360757217E+01  0.00000000000E+00 0. -1.
</event>
<event>
 7    1  0.1830715E-013  0.7246154E+02  0.7816164E-02  0.1226708E+00
        -11   -1    0    0    0    0  0.00000000000E+00  0.00000000000E+00  0.45593999997E+02  0.45594000000E+02  0.51100000000E-03 0. -1.
         11   -1    0    0    0    0 -0.00000000000E+00 -0.00000000000E+00 -0.45593999997E+02  0.45594000000E+02  0.51100000000E-03 0.  1.
    9900012    2    1    2    0    0 -0.21710837081E+01 -0.15397791699E+02  0.10434311365E+02  0.72461536176E+02  0.69999955555E+02 0.  0.
        -12    1    1    2    0    0  0.21710837081E+01  0.15397791699E+02 -0.10434311365E+02  0.18726463824E+02  0.00000000000E+00 0.  1.
         11    1    3    3    0    0 -0.12580025128E+02 -0.12819914228E+02  0.24103141127E+02  0.30059418582E+02  0.51100000000E-03 0. -1.
        -11    1    3    3    0    0  0.22998838355E+02 -0.38003117965E+01 -0.17541452352E+02  0.29173472304E+02  0.51100000000E-03 0.  1.
         12    1    3    3    0    0 -0.12589896935E+02  0.12224343246E+01  0.38726225895E+01  0.13228645291E+02  0.00000000000E+00 0. -1.
</event>
<event>
 7    1  0.1830715E-013  0.7246153E+02  0.7816164E-02  0.1226708E+00
        -11   -1    0    0    0    0  0.00000000000E+00  0.00000000000E+00  0.45593999997E+02  0.45594000000E+02  0.51100000000E-03 0. -1.
         11   -1    0    0    0    0 -0.00000000000E+00 -0.00000000000E+00 -0.45593999997E+02  0.45594000000E+02  0.51100000000E-03 0.  1.
    9900012    2    1    2    0    0  0.99299392655E+01  0.15597111659E+02  0.29676514835E+01  0.72461533669E+02  0.69999952288E+02 0.  0.
        -12    1    1    2    0    0 -0.99299392655E+01 -0.15597111659E+02 -0.29676514835E+01  0.18726466331E+02  0.00000000000E+00 0.  1.
         11    1    3    3    0    0  0.21094684558E+01  0.29892988910E+02 -0.11249684221E+02  0.32009311746E+02  0.51100000000E-03 0. -1.
        -11    1    3    3    0    0 -0.91445374619E+01 -0.35646339654E+01 -0.63678098486E+01  0.11699494999E+02  0.51100000000E-03 0.  1.
         12    1    3    3    0    0  0.16965008272E+02 -0.10731243285E+02  0.20585145553E+02  0.28752726924E+02  0.00000000000E+00 0. -1.
</event>
<event>
 7    1  0.1830715E-013  0.7246156E+02  0.7816164E-02  0.1226708E+00
        -11   -1    0    0    0    0  0.00000000000E+00  0.00000000000E+00  0.45593999997E+02  0.45594000000E+02  0.51100000000E-03 0. -1.
         11   -1    0    0    0    0 -0.00000000000E+00 -0.00000000000E+00 -0.45593999997E+02  0.45594000000E+02  0.51100000000E-03 0.  1.
    9900012    2    1    2    0    0  0.10050009115E+02 -0.12415082085E+02  0.97745912296E+01  0.72461559332E+02  0.69999985719E+02 0.  0.
        -12    1    1    2    0    0 -0.10050009115E+02  0.12415082085E+02 -0.97745912296E+01  0.18726440668E+02  0.00000000000E+00 0.  1.
         11    1    3    3    0    0 -0.12944384071E+02  0.33386777615E+01  0.22202073939E+02  0.25915939798E+02  0.51100000000E-03 0. -1.
        -11    1    3    3    0    0  0.29749297412E+01  0.71856977244E+01 -0.14046684201E+02  0.16055958273E+02  0.51100000000E-03 0.  1.
        -12    1    3    3    0    0  0.20019463445E+02 -0.22939457571E+02  0.16192014918E+01  0.30489661260E+02  0.00000000000E+00 0.  1.
</event>
<event>
 7    1  0.1830715E-013  0.7246161E+02  0.7816164E-02  0.1226708E+00
        -11   -1    0    0    0    0  0.00000000000E+00  0.00000000000E+00  0.45593999997E+02  0.45594000000E+02  0.51100000000E-03 0.  1.
         11   -1    0    0    0    0 -0.00000000000E+00 -0.00000000000E+00 -0.45593999997E+02  0.45594000000E+02  0.51100000000E-03 0. -1.
    9900012    2    1    2    0    0 -0.14561757168E+02  0.10183028718E+02 -0.59109050435E+01  0.72461611022E+02  0.70000053056E+02 0.  0.
        -12    1    1    2    0    0  0.14561757168E+02 -0.10183028718E+02  0.59109050435E+01  0.18726388978E+02  0.00000000000E+00 0.  1.
         11    1    3    3    0    0  0.17457286103E+02 -0.78638414233E+01  0.22478946811E+01  0.19278222707E+02  0.51100000000E-03 0. -1.
        -11    1    3    3    0    0 -0.21405684464E+02  0.24004300016E+02  0.78179520935E+01  0.33098793359E+02  0.51100000000E-03 0.  1.
         12    1    3    3    0    0 -0.10613358807E+02 -0.59574298746E+01 -0.15976751818E+02  0.20084594956E+02  0.00000000000E+00 0. -1.
</event>
<event>
 7    1  0.1830715E-013  0.7246154E+02  0.7816164E-02  0.1226708E+00
        -11   -1    0    0    0    0  0.00000000000E+00  0.00000000000E+00  0.45593999997E+02  0.45594000000E+02  0.51100000000E-03 0.  1.
         11   -1    0    0    0    0 -0.00000000000E+00 -0.00000000000E+00 -0.45593999997E+02  0.45594000000E+02  0.51100000000E-03 0. -1.
    9900012    2    1    2    0    0  0.25462298386E+01  0.17590231207E+02 -0.58975283844E+01  0.72461538472E+02  0.69999958546E+02 0.  0.
        -12    1    1    2    0    0 -0.25462298386E+01 -0.17590231207E+02  0.58975283844E+01  0.18726461528E+02  0.00000000000E+00 0.  1.
         11    1    3    3    0    0 -0.31055360498E+00  0.47261916177E+01 -0.24206832327E+02  0.24665848096E+02  0.51100000000E-03 0. -1.
        -11    1    3    3    0    0 -0.35973317073E+01  0.14412475884E+01  0.29983997747E+02  0.30233393974E+02  0.51100000000E-03 0.  1.
        -12    1    3    3    0    0  0.64541151509E+01  0.11422792001E+02 -0.11674693805E+02  0.17562296402E+02  0.00000000000E+00 0.  1.
</event>
<event>
 7    1  0.1830715E-013  0.7246162E+02  0.7816164E-02  0.1226708E+00
        -11   -1    0    0    0    0  0.00000000000E+00  0.00000000000E+00  0.45593999997E+02  0.45594000000E+02  0.51100000000E-03 0.  1.
         11   -1    0    0    0    0 -0.00000000000E+00 -0.00000000000E+00 -0.45593999997E+02  0.45594000000E+02  0.51100000000E-03 0. -1.
    9900012    2    1    2    0    0  0.17979288017E+02  0.46967178409E+01  0.23159289569E+01  0.72461615325E+02  0.70000058661E+02 0.  0.
        -12    1    1    2    0    0 -0.17979288017E+02 -0.46967178409E+01 -0.23159289569E+01  0.18726384675E+02  0.00000000000E+00 0.  1.
         11    1    3    3    0    0  0.14559315917E+02  0.19256792903E+02 -0.20682632919E+02  0.31789448841E+02  0.51100000000E-03 0. -1.
        -11    1    3    3    0    0  0.15931039965E+02 -0.48952082689E+01  0.16876792124E+02  0.23718920949E+02  0.51100000000E-03 0.  1.
         12    1    3    3    0    0 -0.12511067865E+02 -0.96648667930E+01  0.61217697526E+01  0.16953245535E+02  0.00000000000E+00 0. -1.
</event>
<event>
 7    1  0.1830715E-013  0.7246158E+02  0.7816164E-02  0.1226708E+00
        -11   -1    0    0    0    0  0.00000000000E+00  0.00000000000E+00  0.45593999997E+02  0.45594000000E+02  0.51100000000E-03 0.  1.
         11   -1    0    0    0    0 -0.00000000000E+00 -0.00000000000E+00 -0.45593999997E+02  0.45594000000E+02  0.51100000000E-03 0. -1.
    9900012    2    1    2    0    0 -0.15338464139E+02  0.81307382345E+01 -0.70215034033E+01  0.72461577586E+02  0.70000009499E+02 0.  0.
        -12    1    1    2    0    0  0.15338464139E+02 -0.81307382345E+01  0.70215034033E+01  0.18726422414E+02  0.00000000000E+00 0.  1.
         11    1    3    3    0    0 -0.32317845248E+02  0.34808633787E+01 -0.11590883219E+02  0.34509536441E+02  0.51100000000E-03 0. -1.
        -11    1    3    3    0    0  0.22112769385E+02 -0.59163797204E+01 -0.42255232560E+01  0.23277310109E+02  0.51100000000E-03 0.  1.
        -12    1    3    3    0    0 -0.51333882751E+01  0.10566254576E+02  0.87949030715E+01  0.14674731036E+02  0.00000000000E+00 0.  1.
</event>
<event>
 7    1  0.1830715E-013  0.7246160E+02  0.7816164E-02  0.1226708E+00
        -11   -1    0    0    0    0  0.00000000000E+00  0.00000000000E+00  0.45593999997E+02  0.45594000000E+02  0.51100000000E-03 0.  1.
         11   -1    0    0    0    0 -0.00000000000E+00 -0.00000000000E+00 -0.45593999997E+02  0.45594000000E+02  0.51100000000E-03 0. -1.
    9900012    2    1    2    0    0 -0.15285243220E+02  0.10254445220E+02  0.34475661252E+01  0.72461601006E+02  0.70000040008E+02 0.  0.
        -12    1    1    2    0    0  0.15285243220E+02 -0.10254445220E+02 -0.34475661252E+01  0.18726398994E+02  0.00000000000E+00 0.  1.
         11    1    3    3    0    0 -0.14422098227E+02  0.20508973131E+02 -0.19294952493E+02  0.31637163086E+02  0.51100000000E-03 0. -1.
        -11    1    3    3    0    0  0.63350324986E+01  0.70058847783E+01  0.19740449424E+02  0.21883793136E+02  0.51100000000E-03 0.  1.
         12    1    3    3    0    0 -0.71981774920E+01 -0.17260412689E+02  0.30020691942E+01  0.18940644784E+02  0.00000000000E+00 0. -1.
</event>
<event>
 7    1  0.1830715E-013  0.7246158E+02  0.7816164E-02  0.1226708E+00
        -11   -1    0    0    0    0  0.00000000000E+00  0.00000000000E+00  0.45593999997E+02  0.45594000000E+02  0.51100000000E-03 0.  1.
         11   -1    0    0    0    0 -0.00000000000E+00 -0.00000000000E+00 -0.45593999997E+02  0.45594000000E+02  0.51100000000E-03 0. -1.
    9900012    2    1    2    0    0  0.30572222810E+01  0.18413148183E+02  0.15127127751E+01  0.72461576582E+02  0.70000008191E+02 0.  0.
        -12    1    1    2    0    0 -0.30572222810E+01 -0.18413148183E+02 -0.15127127751E+01  0.18726423418E+02  0.00000000000E+00 0.  1.
         11    1    3    3    0    0 -0.46478418420E+01 -0.14556219855E+02 -0.98973505647E+01  0.18205590315E+02  0.51100000000E-03 0. -1.
        -11    1    3    3    0    0 -0.16139423046E+02  0.11945958665E+02 -0.10626310455E+01  0.20107612729E+02  0.51100000000E-03 0.  1.
         12    1    3    3    0    0  0.23844487169E+02  0.21023409373E+02  0.12472694385E+02  0.34148373537E+02  0.00000000000E+00 0. -1.
</event>
<event>
 7    1  0.1830715E-013  0.7246155E+02  0.7816164E-02  0.1226708E+00
        -11   -1    0    0    0    0  0.00000000000E+00  0.00000000000E+00  0.45593999997E+02  0.45594000000E+02  0.51100000000E-03 0. -1.
         11   -1    0    0    0    0 -0.00000000000E+00 -0.00000000000E+00 -0.45593999997E+02  0.45594000000E+02  0.51100000000E-03 0.  1.
    9900012    2    1    2    0    0  0.16142239596E+01  0.55108452603E+01  0.17824278300E+02  0.72461547282E+02  0.69999970022E+02 0.  0.
        -12    1    1    2    0    0 -0.16142239596E+01 -0.55108452603E+01 -0.17824278300E+02  0.18726452718E+02  0.00000000000E+00 0.  1.
         11    1    3    3    0    0  0.34354759723E+01 -0.86170857660E+01 -0.34683104182E+01  0.99038295458E+01  0.51100000000E-03 0. -1.
        -11    1    3    3    0    0  0.23850091243E+02  0.21381260252E+02  0.96651181912E+01  0.33457430448E+02  0.51100000000E-03 0.  1.
        -12    1    3    3    0    0 -0.25671343256E+02 -0.72533292257E+01  0.11627470527E+02  0.29100287288E+02  0.00000000000E+00 0.  1.
</event>
<event>
 7    1  0.1830715E-013  0.7246168E+02  0.7816164E-02  0.1226708E+00
        -11   -1    0    0    0    0  0.00000000000E+00  0.00000000000E+00  0.45593999997E+02  0.45594000000E+02  0.51100000000E-03 0.  1.
         11   -1    0    0    0    0 -0.00000000000E+00 -0.00000000000E+00 -0.45593999997E+02  0.45594000000E+02  0.51100000000E-03 0. -1.
    9900012    2    1    2    0    0  0.86997971903E+01 -0.16430288405E+02  0.22436957267E+01  0.72461681122E+02  0.70000144373E+02 0.  0.
        -12    1    1    2    0    0 -0.86997971903E+01  0.16430288405E+02 -0.22436957267E+01  0.18726318878E+02  0.00000000000E+00 0.  1.
         11    1    3    3    0    0 -0.74513284657E+01  0.84889912888E+01  0.18034129392E+02  0.21279452347E+02  0.51100000000E-03 0.  1.
        -11    1    3    3    0    0  0.27069972851E+02 -0.17021997896E+02 -0.22141474682E+01  0.32053615893E+02  0.51100000000E-03 0. -1.
         12    1    3    3    0    0 -0.10918847195E+02 -0.78972817978E+01 -0.13576286197E+02  0.19128612882E+02  0.00000000000E+00 0. -1.
</event>
<event>
 7    1  0.1830715E-013  0.7246155E+02  0.7816164E-02  0.1226708E+00
        -11   -1    0    0    0    0  0.00000000000E+00  0.00000000000E+00  0.45593999997E+02  0.45594000000E+02  0.51100000000E-03 0. -1.
         11   -1    0    0    0    0 -0.00000000000E+00 -0.00000000000E+00 -0.45593999997E+02  0.45594000000E+02  0.51100000000E-03 0.  1.
    9900012    2    1    2    0    0  0.40967431447E+01 -0.12506363571E+02  0.13322441181E+02  0.72461551506E+02  0.69999975524E+02 0.  0.
        -12    1    1    2    0    0 -0.40967431447E+01  0.12506363571E+02 -0.13322441181E+02  0.18726448494E+02  0.00000000000E+00 0.  1.
         11    1    3    3    0    0 -0.28959626129E+01 -0.27218066136E+02  0.24901303514E+02  0.37003846295E+02  0.51100000000E-03 0. -1.
        -11    1    3    3    0    0 -0.15502750684E+01  0.20635078650E+02 -0.13740515651E+02  0.24839718080E+02  0.51100000000E-03 0.  1.
         12    1    3    3    0    0  0.85429808261E+01 -0.59233760854E+01  0.21616533182E+01  0.10617987131E+02  0.00000000000E+00 0. -1.
</event>
<event>
 7    1  0.1830715E-013  0.7246161E+02  0.7816164E-02  0.1226708E+00
        -11   -1    0    0    0    0  0.00000000000E+00  0.00000000000E+00  0.45593999997E+02  0.45594000000E+02  0.51100000000E-03 0. -1.
         11   -1    0    0    0    0 -0.00000000000E+00 -0.00000000000E+00 -0.45593999997E+02  0.45594000000E+02  0.51100000000E-03 0.  1.
    9900012    2    1    2    0    0  0.11246305077E+02  0.66171399090E+01  0.13431747948E+02  0.72461607624E+02  0.70000048629E+02 0.  0.
        -12    1    1    2    0    0 -0.11246305077E+02 -0.66171399090E+01 -0.13431747948E+02  0.18726392376E+02  0.00000000000E+00 0.  1.
         11    1    3    3    0    0 -0.83518597955E+01  0.11954783354E+01  0.27216981156E+02  0.28494680100E+02  0.51100000000E-03 0. -1.
        -11    1    3    3    0    0  0.19554302645E+02 -0.12892923097E+02 -0.71882931309E+01  0.24500403595E+02  0.51100000000E-03 0.  1.
         12    1    3    3    0    0  0.43862227811E-01  0.18314584671E+02 -0.65969400763E+01  0.19466523930E+02  0.00000000000E+00 0. -1.
</event>
<event>
 7    1  0.1830715E-013  0.7246156E+02  0.7816164E-02  0.1226708E+00
        -11   -1    0    0    0    0  0.00000000000E+00  0.00000000000E+00  0.45593999997E+02  0.45594000000E+02  0.51100000000E-03 0.  1.
         11   -1    0    0    0    0 -0.00000000000E+00 -0.00000000000E+00 -0.45593999997E+02  0.45594000000E+02  0.51100000000E-03 0. -1.
    9900012    2    1    2    0    0 -0.11262478103E+02  0.34234730867E+01 -0.14564200816E+02  0.72461560766E+02  0.69999987587E+02 0.  0.
        -12    1    1    2    0    0  0.11262478103E+02 -0.34234730867E+01  0.14564200816E+02  0.18726439234E+02  0.00000000000E+00 0.  1.
         11    1    3    3    0    0 -0.16057622068E+02 -0.15911303063E+02 -0.28598922569E+02  0.36454288692E+02  0.51100000000E-03 0. -1.
        -11    1    3    3    0    0 -0.71025208308E+01  0.66631509942E+01  0.15774636597E+02  0.18538676958E+02  0.51100000000E-03 0.  1.
        -12    1    3    3    0    0  0.11897664796E+02  0.12671625155E+02 -0.17399148432E+01  0.17468595116E+02  0.00000000000E+00 0.  1.
</event>
<event>
 7    1  0.1830715E-013  0.7246154E+02  0.7816164E-02  0.1226708E+00
        -11   -1    0    0    0    0  0.00000000000E+00  0.00000000000E+00  0.45593999997E+02  0.45594000000E+02  0.51100000000E-03 0. -1.
         11   -1    0    0    0    0 -0.00000000000E+00 -0.00000000000E+00 -0.45593999997E+02  0.45594000000E+02  0.51100000000E-03 0.  1.
    9900012    2    1    2    0    0 -0.10972410782E+02  0.12286221678E+02  0.89070342499E+01  0.72461540094E+02  0.69999960659E+02 0.  0.
        -12    1    1    2    0    0  0.10972410782E+02 -0.12286221678E+02 -0.89070342499E+01  0.18726459906E+02  0.00000000000E+00 0.  1.
         11    1    3    3    0    0  0.14380691198E+02  0.96284370067E+01 -0.15326344802E+02  0.23117264625E+02  0.51100000000E-03 0. -1.
        -11    1    3    3    0    0 -0.16071267672E+02 -0.46875918539E+01 -0.52734057472E+01  0.17551865155E+02  0.51100000000E-03 0.  1.
         12    1    3    3    0    0 -0.92818343074E+01  0.73453765250E+01  0.29506784799E+02  0.31792410314E+02  0.00000000000E+00 0. -1.
</event>
<event>
 7    1  0.1830715E-013  0.7246157E+02  0.7816164E-02  0.1226708E+00
        -11   -1    0    0    0    0  0.00000000000E+00  0.00000000000E+00  0.45593999997E+02  0.45594000000E+02  0.51100000000E-03 0.  1.
         11   -1    0    0    0    0 -0.00000000000E+00 -0.00000000000E+00 -0.45593999997E+02  0.45594000000E+02  0.51100000000E-03 0. -1.
    9900012    2    1    2    0    0 -0.52256091520E+01  0.87731728972E+01 -0.15697244777E+02  0.72461573558E+02  0.70000004251E+02 0.  0.
        -12    1    1    2    0    0  0.52256091520E+01 -0.87731728972E+01  0.15697244777E+02  0.18726426442E+02  0.00000000000E+00 0.  1.
         11    1    3    3    0    0 -0.27144768989E+02  0.20362416029E+02 -0.96852468887E+01  0.35288390124E+02  0.51100000000E-03 0. -1.
        -11    1    3    3    0    0  0.10457107017E+02 -0.17248614173E+02  0.44485184053E+01  0.20655631056E+02  0.51100000000E-03 0.  1.
         12    1    3    3    0    0  0.11462052820E+02  0.56593710415E+01 -0.10460516294E+02  0.16517552378E+02  0.00000000000E+00 0. -1.
</event>
<event>
 7    1  0.1830715E-013  0.7246157E+02  0.7816164E-02  0.1226708E+00
        -11   -1    0    0    0    0  0.00000000000E+00  0.00000000000E+00  0.45593999997E+02  0.45594000000E+02  0.51100000000E-03 0.  1.
         11   -1    0    0    0    0 -0.00000000000E+00 -0.00000000000E+00 -0.45593999997E+02  0.45594000000E+02  0.51100000000E-03 0. -1.
    9900012    2    1    2    0    0 -0.70752196935E+01 -0.16041262426E+02  0.65801612057E+01  0.72461565331E+02  0.69999993534E+02 0.  0.
        -12    1    1    2    0    0  0.70752196935E+01  0.16041262426E+02 -0.65801612057E+01  0.18726434669E+02  0.00000000000E+00 0.  1.
         11    1    3    3    0    0  0.26367137073E+02 -0.24981094161E+02 -0.16710722358E+01  0.36360328183E+02  0.51100000000E-03 0. -1.
        -11    1    3    3    0    0 -0.20506694408E+02  0.79005507863E+01  0.69991236464E+01  0.23063628300E+02  0.51100000000E-03 0.  1.
         12    1    3    3    0    0 -0.12935662358E+02  0.10392809496E+01  0.12521097951E+01  0.13037608848E+02  0.00000000000E+00 0. -1.
</event>
<event>
 7    1  0.1830715E-013  0.7246157E+02  0.7816164E-02  0.1226708E+00
        -11   -1    0    0    0    0  0.00000000000E+00  0.00000000000E+00  0.45593999997E+02  0.45594000000E+02  0.51100000000E-03 0.  1.
         11   -1    0    0    0    0 -0.00000000000E+00 -0.00000000000E+00 -0.45593999997E+02  0.45594000000E+02  0.51100000000E-03 0. -1.
    9900012    2    1    2    0    0  0.70631163705E+01 -0.52234618271E+01 -0.16538042888E+02  0.72461574049E+02  0.70000004891E+02 0.  0.
        -12    1    1    2    0    0 -0.70631163705E+01  0.52234618271E+01  0.16538042888E+02  0.18726425951E+02  0.00000000000E+00 0.  1.
         11    1    3    3    0    0 -0.56878867296E+01  0.24456583398E+02  0.16690470362E+00  0.25109846363E+02  0.51100000000E-03 0. -1.
        -11    1    3    3    0    0  0.10960912142E+02 -0.31091400859E+02 -0.23302760227E+02  0.40371220403E+02  0.51100000000E-03 0.  1.
         12    1    3    3    0    0  0.17900909583E+01  0.14113556343E+01  0.65978126352E+01  0.69805072835E+01  0.00000000000E+00 0. -1.
</event>
<event>
 7    1  0.1830715E-013  0.7246159E+02  0.7816164E-02  0.1226708E+00
        -11   -1    0    0    0    0  0.00000000000E+00  0.00000000000E+00  0.45593999997E+02  0.45594000000E+02  0.51100000000E-03 0. -1.
         11   -1    0    0    0    0 -0.00000000000E+00 -0.00000000000E+00 -0.45593999997E+02  0.45594000000E+02  0.51100000000E-03 0.  1.
    9900012    2    1    2    0    0  0.13248870244E+02  0.39896901691E+01  0.12618570693E+02  0.72461587724E+02  0.70000022706E+02 0.  0.
        -12    1    1    2    0    0 -0.13248870244E+02 -0.39896901691E+01 -0.12618570693E+02  0.18726412276E+02  0.00000000000E+00 0.  1.
         11    1    3    3    0    0 -0.36994241713E+01  0.25707180182E+02  0.24456357229E+02  0.35674336171E+02  0.51100000000E-03 0. -1.
        -11    1    3    3    0    0  0.11738130262E+02 -0.32621679922E+01 -0.12690175425E+02  0.17591645592E+02  0.51100000000E-03 0.  1.
         12    1    3    3    0    0  0.52101641540E+01 -0.18455322020E+02  0.85238888846E+00  0.19195605961E+02  0.00000000000E+00 0. -1.
</event>
<event>
 7    1  0.1830715E-013  0.7246156E+02  0.7816164E-02  0.1226708E+00
        -11   -1    0    0    0    0  0.00000000000E+00  0.00000000000E+00  0.45593999997E+02  0.45594000000E+02  0.51100000000E-03 0.  1.
         11   -1    0    0    0    0 -0.00000000000E+00 -0.00000000000E+00 -0.45593999997E+02  0.45594000000E+02  0.51100000000E-03 0. -1.
    9900012    2    1    2    0    0  0.12761649347E+01 -0.18613680133E+02  0.16067843772E+01  0.72461563044E+02  0.69999990555E+02 0.  0.
        -12    1    1    2    0    0 -0.12761649347E+01  0.18613680133E+02 -0.16067843772E+01  0.18726436956E+02  0.00000000000E+00 0.  1.
         11    1    3    3    0    0 -0.10334078872E+02 -0.64848873830E+01  0.31275756769E+02  0.33571117232E+02  0.51100000000E-03 0.  1.
        -11    1    3    3    0    0  0.16521753401E+02 -0.11631999071E+02 -0.23665088859E+02  0.31117650438E+02  0.51100000000E-03 0. -1.
        -12    1    3    3    0    0 -0.49115095945E+01 -0.49679367901E+00 -0.60038835323E+01  0.77727953740E+01  0.00000000000E+00 0.  1.
</event>
<event>
 7    1  0.1830715E-013  0.7246145E+02  0.7816164E-02  0.1226708E+00
        -11   -1    0    0    0    0  0.00000000000E+00  0.00000000000E+00  0.45593999997E+02  0.45594000000E+02  0.51100000000E-03 0.  1.
         11   -1    0    0    0    0 -0.00000000000E+00 -0.00000000000E+00 -0.45593999997E+02  0.45594000000E+02  0.51100000000E-03 0. -1.
    9900012    2    1    2    0    0  0.13134438231E+02 -0.61930843942E+01 -0.11824375785E+02  0.72461451341E+02  0.69999845041E+02 0.  0.
        -12    1    1    2    0    0 -0.13134438231E+02  0.61930843942E+01  0.11824375785E+02  0.18726548659E+02  0.00000000000E+00 0.  1.
         11    1    3    3    0    0  0.44749240455E+01 -0.10209199749E+02 -0.30134502953E+02  0.32130063387E+02  0.51100000000E-03 0. -1.
        -11    1    3    3    0    0  0.13879147857E+02 -0.10569963020E+02  0.17662816011E+02  0.24825993095E+02  0.51100000000E-03 0.  1.
        -12    1    3    3    0    0 -0.52196336710E+01  0.14586078374E+02  0.64731115715E+00  0.15505394859E+02  0.00000000000E+00 0.  1.
</event>
<event>
 7    1  0.1830715E-013  0.7246157E+02  0.7816164E-02  0.1226708E+00
        -11   -1    0    0    0    0  0.00000000000E+00  0.00000000000E+00  0.45593999997E+02  0.45594000000E+02  0.51100000000E-03 0.  1.
         11   -1    0    0    0    0 -0.00000000000E+00 -0.00000000000E+00 -0.45593999997E+02  0.45594000000E+02  0.51100000000E-03 0. -1.
    9900012    2    1    2    0    0  0.95131167330E+01  0.14758024822E+02 -0.65100160617E+01  0.72461574934E+02  0.70000006044E+02 0.  0.
        -12    1    1    2    0    0 -0.95131167330E+01 -0.14758024822E+02  0.65100160617E+01  0.18726425066E+02  0.00000000000E+00 0.  1.
         11    1    3    3    0    0 -0.15626969566E+02  0.56142167654E+01  0.16201674087E+02  0.23199479545E+02  0.51100000000E-03 0.  1.
        -11    1    3    3    0    0  0.93548089770E+01 -0.13270459710E+02 -0.71775565333E+01  0.17752038473E+02  0.51100000000E-03 0. -1.
         12    1    3    3    0    0  0.15785277322E+02  0.22414267767E+02 -0.15534133615E+02  0.31510056915E+02  0.00000000000E+00 0. -1.
</event>
<event>
 7    1  0.1830715E-013  0.7246159E+02  0.7816164E-02  0.1226708E+00
        -11   -1    0    0    0    0  0.00000000000E+00  0.00000000000E+00  0.45593999997E+02  0.45594000000E+02  0.51100000000E-03 0. -1.
         11   -1    0    0    0    0 -0.00000000000E+00 -0.00000000000E+00 -0.45593999997E+02  0.45594000000E+02  0.51100000000E-03 0.  1.
    9900012    2    1    2    0    0 -0.78220843237E+01 -0.49589705122E+01  0.16275807094E+02  0.72461593824E+02  0.70000030652E+02 0.  0.
        -12    1    1    2    0    0  0.78220843237E+01  0.49589705122E+01 -0.16275807094E+02  0.18726406176E+02  0.00000000000E+00 0.  1.
         11    1    3    3    0    0 -0.20376272989E+02 -0.27017088501E+02  0.76065050952E+01  0.34683922673E+02  0.51100000000E-03 0. -1.
        -11    1    3    3    0    0  0.24077048684E+01  0.20072231915E+02 -0.48191447539E+01  0.20782581486E+02  0.51100000000E-03 0.  1.
         12    1    3    3    0    0  0.10146483796E+02  0.19858860732E+01  0.13488446753E+02  0.16995089665E+02  0.00000000000E+00 0. -1.
</event>
<event>
 7    1  0.1830715E-013  0.7246159E+02  0.7816164E-02  0.1226708E+00
        -11   -1    0    0    0    0  0.00000000000E+00  0.00000000000E+00  0.45593999997E+02  0.45594000000E+02  0.51100000000E-03 0. -1.
         11   -1    0    0    0    0 -0.00000000000E+00 -0.00000000000E+00 -0.45593999997E+02  0.45594000000E+02  0.51100000000E-03 0.  1.
    9900012    2    1    2    0    0 -0.10242487725E+02  0.15673784139E+02 -0.31998234656E+00  0.72461589432E+02  0.70000024931E+02 0.  0.
        -12    1    1    2    0    0  0.10242487725E+02 -0.15673784139E+02  0.31998234656E+00  0.18726410568E+02  0.00000000000E+00 0.  1.
         11    1    3    3    0    0 -0.28988995732E+02  0.28807142086E+02  0.99794092159E+00  0.40880425573E+02  0.51100000000E-03 0. -1.
        -11    1    3    3    0    0  0.99262975743E+00 -0.13526620709E+02 -0.24680744568E+01  0.13785723537E+02  0.51100000000E-03 0.  1.
         12    1    3    3    0    0  0.17753878250E+02  0.39326276309E+00  0.11501511887E+01  0.17795440323E+02  0.00000000000E+00 0. -1.
</event>
<event>
 7    1  0.1830715E-013  0.7246158E+02  0.7816164E-02  0.1226708E+00
        -11   -1    0    0    0    0  0.00000000000E+00  0.00000000000E+00  0.45593999997E+02  0.45594000000E+02  0.51100000000E-03 0.  1.
         11   -1    0    0    0    0 -0.00000000000E+00 -0.00000000000E+00 -0.45593999997E+02  0.45594000000E+02  0.51100000000E-03 0. -1.
    9900012    2    1    2    0    0 -0.35328729909E+01  0.18389233898E+02 -0.18382693878E+00  0.72461577297E+02  0.70000009122E+02 0.  0.
        -12    1    1    2    0    0  0.35328729909E+01 -0.18389233898E+02  0.18382693878E+00  0.18726422703E+02  0.00000000000E+00 0.  1.
         11    1    3    3    0    0  0.12149905425E+02  0.33051198182E+02 -0.57030544568E+01  0.35672492673E+02  0.51100000000E-03 0. -1.
        -11    1    3    3    0    0 -0.18802434561E+01 -0.13691816407E+02  0.14705642659E+02  0.20180611444E+02  0.51100000000E-03 0.  1.
        -12    1    3    3    0    0 -0.13802534960E+02 -0.97014787774E+00 -0.91864151406E+01  0.16608473180E+02  0.00000000000E+00 0.  1.
</event>
<event>
 7    1  0.1830715E-013  0.7246119E+02  0.7816164E-02  0.1226709E+00
        -11   -1    0    0    0    0  0.00000000000E+00  0.00000000000E+00  0.45593999997E+02  0.45594000000E+02  0.51100000000E-03 0.  1.
         11   -1    0    0    0    0 -0.00000000000E+00 -0.00000000000E+00 -0.45593999997E+02  0.45594000000E+02  0.51100000000E-03 0. -1.
    9900012    2    1    2    0    0  0.85070091443E+01  0.75028121772E+01 -0.14900732876E+02  0.72461194736E+02  0.69999510764E+02 0.  0.
        -12    1    1    2    0    0 -0.85070091443E+01 -0.75028121772E+01  0.14900732876E+02  0.18726805264E+02  0.00000000000E+00 0.  1.
         11    1    3    3    0    0  0.24713404561E+02  0.11191784152E+02 -0.15999063747E+02  0.31495689206E+02  0.51100000000E-03 0. -1.
        -11    1    3    3    0    0 -0.20687834007E+02  0.11470079771E+02 -0.47200429794E+01  0.24121111331E+02  0.51100000000E-03 0.  1.
        -12    1    3    3    0    0  0.44814385901E+01 -0.15159051746E+02  0.58183738504E+01  0.16844394199E+02  0.00000000000E+00 0.  1.
</event>
<event>
 7    1  0.1830715E-013  0.7246158E+02  0.7816164E-02  0.1226708E+00
        -11   -1    0    0    0    0  0.00000000000E+00  0.00000000000E+00  0.45593999997E+02  0.45594000000E+02  0.51100000000E-03 0.  1.
         11   -1    0    0    0    0 -0.00000000000E+00 -0.00000000000E+00 -0.45593999997E+02  0.45594000000E+02  0.51100000000E-03 0. -1.
    9900012    2    1    2    0    0  0.18259294666E+02 -0.41003842211E+01 -0.68091397583E+00  0.72461584532E+02  0.70000018547E+02 0.  0.
        -12    1    1    2    0    0 -0.18259294666E+02  0.41003842211E+01  0.68091397583E+00  0.18726415468E+02  0.00000000000E+00 0.  1.
         11    1    3    3    0    0 -0.26151577327E+01 -0.24910102206E+02  0.17084874113E+02  0.30319056146E+02  0.51100000000E-03 0. -1.
        -11    1    3    3    0    0  0.56522335412E+01  0.21681327655E+02 -0.14058098481E+02  0.26451046219E+02  0.51100000000E-03 0.  1.
         12    1    3    3    0    0  0.15222218857E+02 -0.87160967040E+00 -0.37076896076E+01  0.15691482166E+02  0.00000000000E+00 0. -1.
</event>
<event>
 7    1  0.1830715E-013  0.7246152E+02  0.7816164E-02  0.1226708E+00
        -11   -1    0    0    0    0  0.00000000000E+00  0.00000000000E+00  0.45593999997E+02  0.45594000000E+02  0.51100000000E-03 0. -1.
         11   -1    0    0    0    0 -0.00000000000E+00 -0.00000000000E+00 -0.45593999997E+02  0.45594000000E+02  0.51100000000E-03 0.  1.
    9900012    2    1    2    0    0  0.18384138542E+02 -0.18802539580E+01  0.30280521285E+01  0.72461521298E+02  0.69999936173E+02 0.  0.
        -12    1    1    2    0    0 -0.18384138542E+02  0.18802539580E+01 -0.30280521285E+01  0.18726478702E+02  0.00000000000E+00 0.  1.
         11    1    3    3    0    0  0.23487839962E+01  0.24427483688E+02  0.19682277814E+02  0.31458080135E+02  0.51100000000E-03 0. -1.
        -11    1    3    3    0    0  0.72819005364E+01 -0.25788297763E+00 -0.10600643689E+02  0.12863367597E+02  0.51100000000E-03 0.  1.
         12    1    3    3    0    0  0.87534540094E+01 -0.26049854668E+02 -0.60535819959E+01  0.28140073566E+02  0.00000000000E+00 0. -1.
</event>
<event>
 7    1  0.1830715E-013  0.7246119E+02  0.7816164E-02  0.1226709E+00
        -11   -1    0    0    0    0  0.00000000000E+00  0.00000000000E+00  0.45593999997E+02  0.45594000000E+02  0.51100000000E-03 0. -1.
         11   -1    0    0    0    0 -0.00000000000E+00 -0.00000000000E+00 -0.45593999997E+02  0.45594000000E+02  0.51100000000E-03 0.  1.
    9900012    2    1    2    0    0  0.83378801777E+01  0.12657110112E+02  0.10998676894E+02  0.72461185651E+02  0.69999498928E+02 0.  0.
        -12    1    1    2    0    0 -0.83378801777E+01 -0.12657110112E+02 -0.10998676894E+02  0.18726814349E+02  0.00000000000E+00 0.  1.
         11    1    3    3    0    0  0.15982366074E+02  0.20905197737E+02  0.22223228663E+02  0.34443217188E+02  0.51100000000E-03 0. -1.
        -11    1    3    3    0    0  0.16300164237E+01 -0.18909558004E+02  0.14509160302E+01  0.19035059628E+02  0.51100000000E-03 0.  1.
        -12    1    3    3    0    0 -0.92745023198E+01  0.10661470379E+02 -0.12675467799E+02  0.18982908835E+02  0.00000000000E+00 0.  1.
</event>
<event>
 7    1  0.1830715E-013  0.7246154E+02  0.7816164E-02  0.1226708E+00
        -11   -1    0    0    0    0  0.00000000000E+00  0.00000000000E+00  0.45593999997E+02  0.45594000000E+02  0.51100000000E-03 0.  1.
         11   -1    0    0    0    0 -0.00000000000E+00 -0.00000000000E+00 -0.45593999997E+02  0.45594000000E+02  0.51100000000E-03 0. -1.
    9900012    2    1    2    0    0  0.70641733553E+01 -0.13079217853E+02 -0.11389102846E+02  0.72461544156E+02  0.69999965950E+02 0.  0.
        -12    1    1    2    0    0 -0.70641733553E+01  0.13079217853E+02  0.11389102846E+02  0.18726455844E+02  0.00000000000E+00 0.  1.
         11    1    3    3    0    0 -0.19600353927E+02  0.60843448003E-01 -0.17645590189E+02  0.26373176323E+02  0.51100000000E-03 0. -1.
        -11    1    3    3    0    0  0.17392501249E+02 -0.69118200886E+01  0.20650031346E+02  0.27869268944E+02  0.51100000000E-03 0.  1.
        -12    1    3    3    0    0  0.92720260329E+01 -0.62282412125E+01 -0.14393544003E+02  0.18219098889E+02  0.00000000000E+00 0.  1.
</event>
<event>
 7    1  0.1830715E-013  0.7246148E+02  0.7816164E-02  0.1226708E+00
        -11   -1    0    0    0    0  0.00000000000E+00  0.00000000000E+00  0.45593999997E+02  0.45594000000E+02  0.51100000000E-03 0. -1.
         11   -1    0    0    0    0 -0.00000000000E+00 -0.00000000000E+00 -0.45593999997E+02  0.45594000000E+02  0.51100000000E-03 0.  1.
    9900012    2    1    2    0    0 -0.15851817411E+02  0.52952320599E+01  0.84476669480E+01  0.72461476707E+02  0.69999878084E+02 0.  0.
        -12    1    1    2    0    0  0.15851817411E+02 -0.52952320599E+01 -0.84476669480E+01  0.18726523293E+02  0.00000000000E+00 0.  1.
         11    1    3    3    0    0 -0.49629562059E+01  0.11673465074E+02  0.23248186433E+01  0.12895949097E+02  0.51100000000E-03 0. -1.
        -11    1    3    3    0    0 -0.12708592128E+02 -0.29683167013E+02  0.13580345314E+02  0.35028909445E+02  0.51100000000E-03 0.  1.
        -12    1    3    3    0    0  0.18197309227E+01  0.23304933999E+02 -0.74574970095E+01  0.24536618165E+02  0.00000000000E+00 0.  1.
</event>
<event>
 7    1  0.1830715E-013  0.7246167E+02  0.7816164E-02  0.1226708E+00
        -11   -1    0    0    0    0  0.00000000000E+00  0.00000000000E+00  0.45593999997E+02  0.45594000000E+02  0.51100000000E-03 0. -1.
         11   -1    0    0    0    0 -0.00000000000E+00 -0.00000000000E+00 -0.45593999997E+02  0.45594000000E+02  0.51100000000E-03 0.  1.
    9900012    2    1    2    0    0  0.15249037981E+02  0.97057630628E+01  0.48929083579E+01  0.72461666985E+02  0.70000125958E+02 0.  0.
        -12    1    1    2    0    0 -0.15249037981E+02 -0.97057630628E+01 -0.48929083579E+01  0.18726333015E+02  0.00000000000E+00 0.  1.
         11    1    3    3    0    0  0.82883508265E+01  0.12095363277E+02  0.32793072483E+02  0.35921862081E+02  0.51100000000E-03 0. -1.
        -11    1    3    3    0    0 -0.33307210458E+01  0.81399232699E+01 -0.90315414174E+01  0.12606379106E+02  0.51100000000E-03 0.  1.
         12    1    3    3    0    0  0.10291408201E+02 -0.10529523484E+02 -0.18868622708E+02  0.23933425798E+02  0.00000000000E+00 0. -1.
</event>
<event>
 7    1  0.1830715E-013  0.7246156E+02  0.7816164E-02  0.1226708E+00
        -11   -1    0    0    0    0  0.00000000000E+00  0.00000000000E+00  0.45593999997E+02  0.45594000000E+02  0.51100000000E-03 0. -1.
         11   -1    0    0    0    0 -0.00000000000E+00 -0.00000000000E+00 -0.45593999997E+02  0.45594000000E+02  0.51100000000E-03 0.  1.
    9900012    2    1    2    0    0 -0.48035046575E+01 -0.17964931809E+02  0.22061212352E+01  0.72461564066E+02  0.69999991886E+02 0.  0.
        -12    1    1    2    0    0  0.48035046575E+01  0.17964931809E+02 -0.22061212352E+01  0.18726435934E+02  0.00000000000E+00 0.  1.
         11    1    3    3    0    0 -0.10022736342E+02  0.12208865898E+02  0.33468752616E+01  0.16146616505E+02  0.51100000000E-03 0. -1.
        -11    1    3    3    0    0 -0.76535427545E+01 -0.36975931476E+02 -0.10268264439E+02  0.39130978522E+02  0.51100000000E-03 0.  1.
         12    1    3    3    0    0  0.12872774439E+02  0.68021337695E+01  0.91275104127E+01  0.17183969038E+02  0.00000000000E+00 0. -1.
</event>
<event>
 7    1  0.1830715E-013  0.7246157E+02  0.7816164E-02  0.1226708E+00
        -11   -1    0    0    0    0  0.00000000000E+00  0.00000000000E+00  0.45593999997E+02  0.45594000000E+02  0.51100000000E-03 0.  1.
         11   -1    0    0    0    0 -0.00000000000E+00 -0.00000000000E+00 -0.45593999997E+02  0.45594000000E+02  0.51100000000E-03 0. -1.
    9900012    2    1    2    0    0  0.56730435271E+01 -0.15447445438E+02 -0.89371172688E+01  0.72461573259E+02  0.70000003862E+02 0.  0.
        -12    1    1    2    0    0 -0.56730435271E+01  0.15447445438E+02  0.89371172688E+01  0.18726426741E+02  0.00000000000E+00 0.  1.
         11    1    3    3    0    0  0.13761081646E+02  0.58520189371E+01 -0.14309458608E+02  0.20697200285E+02  0.51100000000E-03 0. -1.
        -11    1    3    3    0    0 -0.20433724630E+02 -0.63147811113E+01  0.18540373765E+02  0.28304752646E+02  0.51100000000E-03 0.  1.
        -12    1    3    3    0    0  0.12345686512E+02 -0.14984683264E+02 -0.13168032426E+02  0.23459620328E+02  0.00000000000E+00 0.  1.
</event>
<event>
 7    1  0.1830715E-013  0.7246164E+02  0.7816164E-02  0.1226708E+00
        -11   -1    0    0    0    0  0.00000000000E+00  0.00000000000E+00  0.45593999997E+02  0.45594000000E+02  0.51100000000E-03 0.  1.
         11   -1    0    0    0    0 -0.00000000000E+00 -0.00000000000E+00 -0.45593999997E+02  0.45594000000E+02  0.51100000000E-03 0. -1.
    9900012    2    1    2    0    0 -0.15412435817E+02 -0.59878089863E+01 -0.87908680679E+01  0.72461644357E+02  0.70000096481E+02 0.  0.
        -12    1    1    2    0    0  0.15412435817E+02  0.59878089863E+01  0.87908680679E+01  0.18726355643E+02  0.00000000000E+00 0.  1.
         11    1    3    3    0    0 -0.63520521738E+01  0.69222549138E+01 -0.69198009010E+01  0.11668325702E+02  0.51100000000E-03 0. -1.
        -11    1    3    3    0    0  0.11887202310E+02 -0.29253142573E+02  0.77895550716E+01  0.32522747387E+02  0.51100000000E-03 0.  1.
        -12    1    3    3    0    0 -0.20947585954E+02  0.16343078673E+02 -0.96606222385E+01  0.28270571268E+02  0.00000000000E+00 0.  1.
</event>
<event>
 7    1  0.1830715E-013  0.7246160E+02  0.7816164E-02  0.1226708E+00
        -11   -1    0    0    0    0  0.00000000000E+00  0.00000000000E+00  0.45593999997E+02  0.45594000000E+02  0.51100000000E-03 0.  1.
         11   -1    0    0    0    0 -0.00000000000E+00 -0.00000000000E+00 -0.45593999997E+02  0.45594000000E+02  0.51100000000E-03 0. -1.
    9900012    2    1    2    0    0  0.10969817225E+02 -0.52420800456E+01 -0.14242950699E+02  0.72461603182E+02  0.70000042843E+02 0.  0.
        -12    1    1    2    0    0 -0.10969817225E+02  0.52420800456E+01  0.14242950699E+02  0.18726396818E+02  0.00000000000E+00 0.  1.
         11    1    3    3    0    0  0.74518224757E+01 -0.66221628662E+01 -0.20495181477E+02  0.22791120273E+02  0.51100000000E-03 0. -1.
        -11    1    3    3    0    0 -0.22057303083E+02 -0.52044205907E+01  0.51356093351E+01  0.23237579403E+02  0.51100000000E-03 0.  1.
        -12    1    3    3    0    0  0.25575297832E+02  0.65845034114E+01  0.11166214427E+01  0.26432903507E+02  0.00000000000E+00 0.  1.
</event>
<event>
 7    1  0.1830715E-013  0.7246090E+02  0.7816164E-02  0.1226710E+00
        -11   -1    0    0    0    0  0.00000000000E+00  0.00000000000E+00  0.45593999997E+02  0.45594000000E+02  0.51100000000E-03 0. -1.
         11   -1    0    0    0    0 -0.00000000000E+00 -0.00000000000E+00 -0.45593999997E+02  0.45594000000E+02  0.51100000000E-03 0.  1.
    9900012    2    1    2    0    0 -0.75138068240E+00 -0.35082298491E+01  0.18380210436E+02  0.72460897040E+02  0.69999122955E+02 0.  0.
        -12    1    1    2    0    0  0.75138068240E+00  0.35082298491E+01 -0.18380210436E+02  0.18727102960E+02  0.00000000000E+00 0.  1.
         11    1    3    3    0    0 -0.23395656484E+02 -0.67765354669E+01  0.23901219273E+02  0.34125451766E+02  0.51100000000E-03 0. -1.
        -11    1    3    3    0    0  0.23570126086E+01  0.10686419105E+02 -0.11547957525E+02  0.15909443265E+02  0.51100000000E-03 0.  1.
         12    1    3    3    0    0  0.20287263193E+02 -0.74181134875E+01  0.60269486888E+01  0.22426002009E+02  0.00000000000E+00 0. -1.
</event>
<event>
 7    1  0.1830715E-013  0.7246157E+02  0.7816164E-02  0.1226708E+00
        -11   -1    0    0    0    0  0.00000000000E+00  0.00000000000E+00  0.45593999997E+02  0.45594000000E+02  0.51100000000E-03 0.  1.
         11   -1    0    0    0    0 -0.00000000000E+00 -0.00000000000E+00 -0.45593999997E+02  0.45594000000E+02  0.51100000000E-03 0. -1.
    9900012    2    1    2    0    0  0.58169608153E+01 -0.17784087111E+02  0.75403593179E+00  0.72461565270E+02  0.69999993455E+02 0.  0.
        -12    1    1    2    0    0 -0.58169608153E+01  0.17784087111E+02 -0.75403593179E+00  0.18726434730E+02  0.00000000000E+00 0.  1.
         11    1    3    3    0    0  0.32589351155E+02  0.43946546758E+01  0.11286215262E+02  0.34767189326E+02  0.51100000000E-03 0. -1.
        -11    1    3    3    0    0 -0.17050633258E+02 -0.11707209100E+02 -0.13862694252E+01  0.20729316984E+02  0.51100000000E-03 0.  1.
         12    1    3    3    0    0 -0.97217570812E+01 -0.10471532686E+02 -0.91459099053E+01  0.16965058961E+02  0.00000000000E+00 0. -1.
</event>
<event>
 7    1  0.1830715E-013  0.7246154E+02  0.7816164E-02  0.1226708E+00
        -11   -1    0    0    0    0  0.00000000000E+00  0.00000000000E+00  0.45593999997E+02  0.45594000000E+02  0.51100000000E-03 0.  1.
         11   -1    0    0    0    0 -0.00000000000E+00 -0.00000000000E+00 -0.45593999997E+02  0.45594000000E+02  0.51100000000E-03 0. -1.
    9900012    2    1    2    0    0 -0.17933116960E+02 -0.53851182765E+01 -0.28974974822E+00  0.72461544445E+02  0.69999966326E+02 0.  0.
        -12    1    1    2    0    0  0.17933116960E+02  0.53851182765E+01  0.28974974822E+00  0.18726455555E+02  0.00000000000E+00 0.  1.
         11    1    3    3    0    0 -0.21766062543E+01 -0.87566287667E+00 -0.11630975705E+02  0.11865243208E+02  0.51100000000E-03 0. -1.
        -11    1    3    3    0    0 -0.30287667989E+02  0.44757325806E+01  0.24352983217E+02  0.39120874302E+02  0.51100000000E-03 0.  1.
        -12    1    3    3    0    0  0.14531157284E+02 -0.89851879804E+01 -0.13011757260E+02  0.21475426935E+02  0.00000000000E+00 0.  1.
</event>
<event>
 7    1  0.1830715E-013  0.7246154E+02  0.7816164E-02  0.1226708E+00
        -11   -1    0    0    0    0  0.00000000000E+00  0.00000000000E+00  0.45593999997E+02  0.45594000000E+02  0.51100000000E-03 0.  1.
         11   -1    0    0    0    0 -0.00000000000E+00 -0.00000000000E+00 -0.45593999997E+02  0.45594000000E+02  0.51100000000E-03 0. -1.
    9900012    2    1    2    0    0  0.67810451671E+01 -0.13237163121E+02 -0.11378725649E+02  0.72461535880E+02  0.69999955169E+02 0.  0.
        -12    1    1    2    0    0 -0.67810451671E+01  0.13237163121E+02  0.11378725649E+02  0.18726464120E+02  0.00000000000E+00 0.  1.
         11    1    3    3    0    0  0.24510831994E+02 -0.19681112702E+02  0.96185951910E+01  0.32873157073E+02  0.51100000000E-03 0. -1.
        -11    1    3    3    0    0 -0.11783592555E+02  0.17360688847E+02 -0.14957457956E+02  0.25767656462E+02  0.51100000000E-03 0.  1.
         12    1    3    3    0    0 -0.59461942711E+01 -0.10916739266E+02 -0.60398628833E+01  0.13820722346E+02  0.00000000000E+00 0. -1.
</event>
<event>
 7    1  0.1830715E-013  0.7246161E+02  0.7816164E-02  0.1226708E+00
        -11   -1    0    0    0    0  0.00000000000E+00  0.00000000000E+00  0.45593999997E+02  0.45594000000E+02  0.51100000000E-03 0.  1.
         11   -1    0    0    0    0 -0.00000000000E+00 -0.00000000000E+00 -0.45593999997E+02  0.45594000000E+02  0.51100000000E-03 0. -1.
    9900012    2    1    2    0    0 -0.15973379964E+02 -0.42604608174E+01 -0.87964378083E+01  0.72461609212E+02  0.70000050697E+02 0.  0.
        -12    1    1    2    0    0  0.15973379964E+02  0.42604608174E+01  0.87964378083E+01  0.18726390788E+02  0.00000000000E+00 0.  1.
         11    1    3    3    0    0 -0.19354406540E+02  0.22652272176E+02  0.14315453409E+01  0.29828976006E+02  0.51100000000E-03 0. -1.
        -11    1    3    3    0    0 -0.10450512110E+01 -0.23088952257E+02  0.72330848138E+01  0.24217955416E+02  0.51100000000E-03 0.  1.
         12    1    3    3    0    0  0.44260777870E+01 -0.38237807370E+01 -0.17461067963E+02  0.18414677790E+02  0.00000000000E+00 0. -1.
</event>
<event>
 7    1  0.1830715E-013  0.7246157E+02  0.7816164E-02  0.1226708E+00
        -11   -1    0    0    0    0  0.00000000000E+00  0.00000000000E+00  0.45593999997E+02  0.45594000000E+02  0.51100000000E-03 0.  1.
         11   -1    0    0    0    0 -0.00000000000E+00 -0.00000000000E+00 -0.45593999997E+02  0.45594000000E+02  0.51100000000E-03 0. -1.
    9900012    2    1    2    0    0 -0.14735101155E+02 -0.89841792921E+01 -0.72691541237E+01  0.72461567204E+02  0.69999995974E+02 0.  0.
        -12    1    1    2    0    0  0.14735101155E+02  0.89841792921E+01  0.72691541237E+01  0.18726432796E+02  0.00000000000E+00 0.  1.
         11    1    3    3    0    0 -0.98394695360E+01  0.12987883873E+02 -0.50152736544E+01  0.17048555902E+02  0.51100000000E-03 0. -1.
        -11    1    3    3    0    0 -0.12269850376E+02 -0.33688313854E+02  0.96784055928E+01  0.37136548758E+02  0.51100000000E-03 0.  1.
        -12    1    3    3    0    0  0.73742187567E+01  0.11716250688E+02 -0.11932286062E+02  0.18276462544E+02  0.00000000000E+00 0.  1.
</event>
<event>
 8    1  0.1830715E-013  0.7246157E+02  0.7816164E-02  0.1226708E+00
        -11   -1    0    0    0    0  0.00000000000E+00  0.00000000000E+00  0.45593999997E+02  0.45594000000E+02  0.51100000000E-03 0.  1.
         11   -1    0    0    0    0 -0.00000000000E+00 -0.00000000000E+00 -0.45593999997E+02  0.45594000000E+02  0.51100000000E-03 0. -1.
    9900012    2    1    2    0    0 -0.10519279521E+02 -0.11641429791E+02 -0.10222577526E+02  0.72461568934E+02  0.69999998227E+02 0.  0.
        -24    2    3    3    0    0 -0.24135244708E+02 -0.24850633142E+01 -0.97630253842E+01  0.56046796822E+02  0.49570567805E+02 0.  0.
        -12    1    1    2    0    0  0.10519279521E+02  0.11641429791E+02  0.10222577526E+02  0.18726431066E+02  0.00000000000E+00 0.  1.
         11    1    4    4    0    0 -0.34340288157E+02  0.85120000985E+01  0.41044440871E+01  0.35616793762E+02  0.51100000000E-03 0. -1.
        -11    1    3    3    0    0  0.13615965188E+02 -0.91563664769E+01 -0.45955214142E+00  0.16414772112E+02  0.51100000000E-03 0.  1.
        -12    1    4    4    0    0  0.10205043448E+02 -0.10997063413E+02 -0.13867469471E+02  0.20430003060E+02  0.00000000000E+00 0.  1.
</event>
<event>
 7    1  0.1830715E-013  0.7246131E+02  0.7816164E-02  0.1226709E+00
        -11   -1    0    0    0    0  0.00000000000E+00  0.00000000000E+00  0.45593999997E+02  0.45594000000E+02  0.51100000000E-03 0.  1.
         11   -1    0    0    0    0 -0.00000000000E+00 -0.00000000000E+00 -0.45593999997E+02  0.45594000000E+02  0.51100000000E-03 0. -1.
    9900012    2    1    2    0    0  0.11550516548E+02  0.14667719452E+02 -0.14602773922E+01  0.72461312185E+02  0.69999663764E+02 0.  0.
        -12    1    1    2    0    0 -0.11550516548E+02 -0.14667719452E+02  0.14602773922E+01  0.18726687815E+02  0.00000000000E+00 0.  1.
         11    1    3    3    0    0  0.30711727435E+02  0.24025152137E+02  0.11608430440E+02  0.40683827190E+02  0.51100000000E-03 0. -1.
        -11    1    3    3    0    0 -0.53546566043E+01 -0.96173527154E+01 -0.14148740929E+02  0.17926312804E+02  0.51100000000E-03 0.  1.
         12    1    3    3    0    0 -0.13806554283E+02  0.25992003100E+00  0.10800330968E+01  0.13851172191E+02  0.00000000000E+00 0. -1.
</event>
<event>
 7    1  0.1830715E-013  0.7246158E+02  0.7816164E-02  0.1226708E+00
        -11   -1    0    0    0    0  0.00000000000E+00  0.00000000000E+00  0.45593999997E+02  0.45594000000E+02  0.51100000000E-03 0.  1.
         11   -1    0    0    0    0 -0.00000000000E+00 -0.00000000000E+00 -0.45593999997E+02  0.45594000000E+02  0.51100000000E-03 0. -1.
    9900012    2    1    2    0    0 -0.18686557140E+02 -0.10827478841E+01 -0.56484570771E+00  0.72461579856E+02  0.70000012456E+02 0.  0.
        -12    1    1    2    0    0  0.18686557140E+02  0.10827478841E+01  0.56484570771E+00  0.18726420144E+02  0.00000000000E+00 0.  1.
         11    1    3    3    0    0 -0.14095200545E+02 -0.19101485650E+02 -0.89907029616E+01  0.25384526240E+02  0.51100000000E-03 0. -1.
        -11    1    3    3    0    0  0.17621822808E+02  0.95419378520E+01 -0.37151819339E+01  0.20380868335E+02  0.51100000000E-03 0.  1.
        -12    1    3    3    0    0 -0.22213179403E+02  0.84767999140E+01  0.12141039188E+02  0.26696185280E+02  0.00000000000E+00 0.  1.
</event>
<event>
 7    1  0.1830715E-013  0.7246167E+02  0.7816164E-02  0.1226708E+00
        -11   -1    0    0    0    0  0.00000000000E+00  0.00000000000E+00  0.45593999997E+02  0.45594000000E+02  0.51100000000E-03 0.  1.
         11   -1    0    0    0    0 -0.00000000000E+00 -0.00000000000E+00 -0.45593999997E+02  0.45594000000E+02  0.51100000000E-03 0. -1.
    9900012    2    1    2    0    0  0.59843990946E+01  0.15377381250E+01 -0.17677605587E+02  0.72461670665E+02  0.70000130751E+02 0.  0.
        -12    1    1    2    0    0 -0.59843990946E+01 -0.15377381250E+01  0.17677605587E+02  0.18726329335E+02  0.00000000000E+00 0.  1.
         11    1    3    3    0    0  0.31884539498E+02 -0.97789872953E+01 -0.58652160176E+01  0.33862268245E+02  0.51100000000E-03 0. -1.
        -11    1    3    3    0    0 -0.10626450308E+02 -0.67622116685E+01 -0.11707894989E+01  0.12649889372E+02  0.51100000000E-03 0.  1.
         12    1    3    3    0    0 -0.15273690095E+02  0.18078937089E+02 -0.10641600071E+02  0.25949513048E+02  0.00000000000E+00 0. -1.
</event>
<event>
 7    1  0.1830715E-013  0.7246158E+02  0.7816164E-02  0.1226708E+00
        -11   -1    0    0    0    0  0.00000000000E+00  0.00000000000E+00  0.45593999997E+02  0.45594000000E+02  0.51100000000E-03 0.  1.
         11   -1    0    0    0    0 -0.00000000000E+00 -0.00000000000E+00 -0.45593999997E+02  0.45594000000E+02  0.51100000000E-03 0. -1.
    9900012    2    1    2    0    0 -0.15626065607E+02  0.99667958301E+01 -0.26772610178E+01  0.72461583578E+02  0.70000017304E+02 0.  0.
        -12    1    1    2    0    0  0.15626065607E+02 -0.99667958301E+01  0.26772610178E+01  0.18726416422E+02  0.00000000000E+00 0.  1.
         11    1    3    3    0    0  0.12899639842E+02  0.20901680939E+01  0.13482794264E+02  0.18776454728E+02  0.51100000000E-03 0. -1.
        -11    1    3    3    0    0 -0.31493451963E+02  0.15113804268E+02  0.87159858743E+00  0.34943157848E+02  0.51100000000E-03 0.  1.
         12    1    3    3    0    0  0.29677465140E+01 -0.72371765318E+01 -0.17031653869E+02  0.18741971002E+02  0.00000000000E+00 0. -1.
</event>
<event>
 7    1  0.1830715E-013  0.7246159E+02  0.7816164E-02  0.1226708E+00
        -11   -1    0    0    0    0  0.00000000000E+00  0.00000000000E+00  0.45593999997E+02  0.45594000000E+02  0.51100000000E-03 0.  1.
         11   -1    0    0    0    0 -0.00000000000E+00 -0.00000000000E+00 -0.45593999997E+02  0.45594000000E+02  0.51100000000E-03 0. -1.
    9900012    2    1    2    0    0  0.70173854266E+01  0.39037341082E+01 -0.16917318148E+02  0.72461588397E+02  0.70000023582E+02 0.  0.
        -12    1    1    2    0    0 -0.70173854266E+01 -0.39037341082E+01  0.16917318148E+02  0.18726411603E+02  0.00000000000E+00 0.  1.
         11    1    3    3    0    0 -0.22570566898E+02 -0.37740096549E+01  0.25071279801E+00  0.22885289951E+02  0.51100000000E-03 0.  1.
        -11    1    3    3    0    0  0.25633693383E+02  0.19014813338E+02 -0.19419766778E+02  0.37360095084E+02  0.51100000000E-03 0. -1.
         12    1    3    3    0    0  0.39542589409E+01 -0.11337069575E+02  0.22517358322E+01  0.12216203362E+02  0.00000000000E+00 0. -1.
</event>
<event>
 7    1  0.1830715E-013  0.7246165E+02  0.7816164E-02  0.1226708E+00
        -11   -1    0    0    0    0  0.00000000000E+00  0.00000000000E+00  0.45593999997E+02  0.45594000000E+02  0.51100000000E-03 0. -1.
         11   -1    0    0    0    0 -0.00000000000E+00 -0.00000000000E+00 -0.45593999997E+02  0.45594000000E+02  0.51100000000E-03 0.  1.
    9900012    2    1    2    0    0  0.14905455674E+02  0.30715920346E+01  0.10911866680E+02  0.72461651693E+02  0.70000106036E+02 0.  0.
        -12    1    1    2    0    0 -0.14905455674E+02 -0.30715920346E+01 -0.10911866680E+02  0.18726348307E+02  0.00000000000E+00 0.  1.
         11    1    3    3    0    0  0.17759728079E+02  0.21585546595E+01  0.68802910243E+01  0.19167829937E+02  0.51100000000E-03 0. -1.
        -11    1    3    3    0    0  0.20957185124E+01 -0.39017030265E+01 -0.24009720621E+02  0.24414790745E+02  0.51100000000E-03 0.  1.
        -12    1    3    3    0    0 -0.49499909173E+01  0.48147404016E+01  0.28041296276E+02  0.28879031010E+02  0.00000000000E+00 0.  1.
</event>
<event>
 7    1  0.1830715E-013  0.7246172E+02  0.7816164E-02  0.1226708E+00
        -11   -1    0    0    0    0  0.00000000000E+00  0.00000000000E+00  0.45593999997E+02  0.45594000000E+02  0.51100000000E-03 0.  1.
         11   -1    0    0    0    0 -0.00000000000E+00 -0.00000000000E+00 -0.45593999997E+02  0.45594000000E+02  0.51100000000E-03 0. -1.
    9900012    2    1    2    0    0 -0.41436557905E+01  0.53286911345E+01 -0.17467365614E+02  0.72461716493E+02  0.70000190450E+02 0.  0.
        -12    1    1    2    0    0  0.41436557905E+01 -0.53286911345E+01  0.17467365614E+02  0.18726283507E+02  0.00000000000E+00 0.  1.
         11    1    3    3    0    0 -0.95426550107E+01 -0.17679103374E+02 -0.24188081875E+02  0.31443222892E+02  0.51100000000E-03 0. -1.
        -11    1    3    3    0    0  0.17548992749E+02  0.53855048397E+01  0.69060047861E+01  0.19612845567E+02  0.51100000000E-03 0.  1.
        -12    1    3    3    0    0 -0.12149993528E+02  0.17622289669E+02 -0.18528852484E+00  0.21405648034E+02  0.00000000000E+00 0.  1.
</event>
<event>
 7    1  0.1830715E-013  0.7246173E+02  0.7816164E-02  0.1226708E+00
        -11   -1    0    0    0    0  0.00000000000E+00  0.00000000000E+00  0.45593999997E+02  0.45594000000E+02  0.51100000000E-03 0.  1.
         11   -1    0    0    0    0 -0.00000000000E+00 -0.00000000000E+00 -0.45593999997E+02  0.45594000000E+02  0.51100000000E-03 0. -1.
    9900012    2    1    2    0    0 -0.15146981231E+01 -0.16289190364E+02 -0.91126954737E+01  0.72461728297E+02  0.70000205827E+02 0.  0.
        -12    1    1    2    0    0  0.15146981231E+01  0.16289190364E+02  0.91126954737E+01  0.18726271703E+02  0.00000000000E+00 0.  1.
         11    1    3    3    0    0  0.11324983834E+01 -0.36149659843E+02 -0.11368567863E+02  0.37912066613E+02  0.51100000000E-03 0. -1.
        -11    1    3    3    0    0  0.12629376634E+02  0.93465813523E+01 -0.90252365272E+00  0.15737670932E+02  0.51100000000E-03 0.  1.
        -12    1    3    3    0    0 -0.15276573141E+02  0.10513888127E+02  0.31583960419E+01  0.18811990752E+02  0.00000000000E+00 0.  1.
</event>
<event>
 7    1  0.1830715E-013  0.7246161E+02  0.7816164E-02  0.1226708E+00
        -11   -1    0    0    0    0  0.00000000000E+00  0.00000000000E+00  0.45593999997E+02  0.45594000000E+02  0.51100000000E-03 0. -1.
         11   -1    0    0    0    0 -0.00000000000E+00 -0.00000000000E+00 -0.45593999997E+02  0.45594000000E+02  0.51100000000E-03 0.  1.
    9900012    2    1    2    0    0  0.17670643889E+02  0.58687321478E+01 -0.19959974023E+01  0.72461610115E+02  0.70000051874E+02 0.  0.
        -12    1    1    2    0    0 -0.17670643889E+02 -0.58687321478E+01  0.19959974023E+01  0.18726389885E+02  0.00000000000E+00 0.  1.
         11    1    3    3    0    0  0.34610122420E+01 -0.18268375722E+01  0.17706487477E+02  0.18133825859E+02  0.51100000000E-03 0. -1.
        -11    1    3    3    0    0 -0.87549589130E+01 -0.12294514206E+02 -0.18475444065E+02  0.23856789784E+02  0.51100000000E-03 0.  1.
        -12    1    3    3    0    0  0.22964590560E+02  0.19990083926E+02 -0.12270408144E+01  0.30470994472E+02  0.00000000000E+00 0.  1.
</event>
<event>
 7    1  0.1830715E-013  0.7246165E+02  0.7816164E-02  0.1226708E+00
        -11   -1    0    0    0    0  0.00000000000E+00  0.00000000000E+00  0.45593999997E+02  0.45594000000E+02  0.51100000000E-03 0.  1.
         11   -1    0    0    0    0 -0.00000000000E+00 -0.00000000000E+00 -0.45593999997E+02  0.45594000000E+02  0.51100000000E-03 0. -1.
    9900012    2    1    2    0    0  0.12370685597E+02  0.75049154910E+01 -0.11887743830E+02  0.72461652998E+02  0.70000107737E+02 0.  0.
        -12    1    1    2    0    0 -0.12370685597E+02 -0.75049154910E+01  0.11887743830E+02  0.18726347002E+02  0.00000000000E+00 0.  1.
         11    1    3    3    0    0 -0.16580193172E+02 -0.11151633255E+02 -0.55447584382E+01  0.20736587865E+02  0.51100000000E-03 0. -1.
        -11    1    3    3    0    0  0.23733990629E+02  0.30348013573E+02 -0.44354235772E+01  0.38781145181E+02  0.51100000000E-03 0.  1.
        -12    1    3    3    0    0  0.52168881394E+01 -0.11691464827E+02 -0.19075618142E+01  0.12943919953E+02  0.00000000000E+00 0.  1.
</event>
<event>
 7    1  0.1830715E-013  0.7246158E+02  0.7816164E-02  0.1226708E+00
        -11   -1    0    0    0    0  0.00000000000E+00  0.00000000000E+00  0.45593999997E+02  0.45594000000E+02  0.51100000000E-03 0. -1.
         11   -1    0    0    0    0 -0.00000000000E+00 -0.00000000000E+00 -0.45593999997E+02  0.45594000000E+02  0.51100000000E-03 0.  1.
    9900012    2    1    2    0    0  0.16999000367E+02 -0.66749600015E+00  0.78273377434E+01  0.72461580680E+02  0.70000013529E+02 0.  0.
        -12    1    1    2    0    0 -0.16999000367E+02  0.66749600015E+00 -0.78273377434E+01  0.18726419320E+02  0.00000000000E+00 0.  1.
         11    1    3    3    0    0  0.17399757979E+02 -0.50640564674E+01  0.32385742149E+02  0.37111083795E+02  0.51100000000E-03 0. -1.
        -11    1    3    3    0    0 -0.47451481096E+00 -0.68243103216E+01 -0.23031526746E+02  0.24025977611E+02  0.51100000000E-03 0.  1.
         12    1    3    3    0    0  0.73757198976E-01  0.11220870789E+02 -0.15268776604E+01  0.11324519273E+02  0.00000000000E+00 0. -1.
</event>
<event>
 7    1  0.1830715E-013  0.7246156E+02  0.7816164E-02  0.1226708E+00
        -11   -1    0    0    0    0  0.00000000000E+00  0.00000000000E+00  0.45593999997E+02  0.45594000000E+02  0.51100000000E-03 0.  1.
         11   -1    0    0    0    0 -0.00000000000E+00 -0.00000000000E+00 -0.45593999997E+02  0.45594000000E+02  0.51100000000E-03 0. -1.
    9900012    2    1    2    0    0  0.10199673844E+02  0.97685566845E+00 -0.15674567052E+02  0.72461557577E+02  0.69999983434E+02 0.  0.
        -12    1    1    2    0    0 -0.10199673844E+02 -0.97685566845E+00  0.15674567052E+02  0.18726442423E+02  0.00000000000E+00 0.  1.
         11    1    3    3    0    0 -0.25284857177E+02 -0.30836850891E+01 -0.22846786258E+02  0.34217082850E+02  0.51100000000E-03 0. -1.
        -11    1    3    3    0    0  0.14695807271E+02 -0.38426463341E+01  0.13202811802E+01  0.15247157927E+02  0.51100000000E-03 0.  1.
         12    1    3    3    0    0  0.20788723750E+02  0.79031870917E+01  0.58519380254E+01  0.22997316800E+02  0.00000000000E+00 0. -1.
</event>
<event>
 7    1  0.1830715E-013  0.7246167E+02  0.7816164E-02  0.1226708E+00
        -11   -1    0    0    0    0  0.00000000000E+00  0.00000000000E+00  0.45593999997E+02  0.45594000000E+02  0.51100000000E-03 0.  1.
         11   -1    0    0    0    0 -0.00000000000E+00 -0.00000000000E+00 -0.45593999997E+02  0.45594000000E+02  0.51100000000E-03 0. -1.
    9900012    2    1    2    0    0 -0.11235711240E+02  0.14600592330E+00 -0.14980423149E+02  0.72461665535E+02  0.70000124068E+02 0.  0.
        -12    1    1    2    0    0  0.11235711240E+02 -0.14600592330E+00  0.14980423149E+02  0.18726334465E+02  0.00000000000E+00 0.  1.
         11    1    3    3    0    0 -0.34872080580E+02  0.13413633022E+02 -0.22665398990E+02  0.43700204422E+02  0.51100000000E-03 0. -1.
        -11    1    3    3    0    0  0.22949450387E+01 -0.26733033082E+01 -0.52102102554E+00  0.35615707881E+01  0.51100000000E-03 0.  1.
         12    1    3    3    0    0  0.21341424302E+02 -0.10594323791E+02  0.82059968665E+01  0.25199890325E+02  0.00000000000E+00 0. -1.
</event>
<event>
 7    1  0.1830715E-013  0.7246156E+02  0.7816164E-02  0.1226708E+00
        -11   -1    0    0    0    0  0.00000000000E+00  0.00000000000E+00  0.45593999997E+02  0.45594000000E+02  0.51100000000E-03 0. -1.
         11   -1    0    0    0    0 -0.00000000000E+00 -0.00000000000E+00 -0.45593999997E+02  0.45594000000E+02  0.51100000000E-03 0.  1.
    9900012    2    1    2    0    0  0.10128638154E+02 -0.13681898449E+02 -0.78035816625E+01  0.72461560328E+02  0.69999987017E+02 0.  0.
        -12    1    1    2    0    0 -0.10128638154E+02  0.13681898449E+02  0.78035816625E+01  0.18726439672E+02  0.00000000000E+00 0.  1.
         11    1    3    3    0    0 -0.42956958949E+01 -0.73817351006E+01 -0.77163937421E+01  0.11510245391E+02  0.51100000000E-03 0. -1.
        -11    1    3    3    0    0  0.30079216472E+02  0.90862284235E+01  0.14489813338E+02  0.34601640154E+02  0.51100000000E-03 0.  1.
        -12    1    3    3    0    0 -0.15654882423E+02 -0.15386391772E+02 -0.14577001259E+02  0.26349674783E+02  0.00000000000E+00 0.  1.
</event>
<event>
 7    1  0.1830715E-013  0.7246164E+02  0.7816164E-02  0.1226708E+00
        -11   -1    0    0    0    0  0.00000000000E+00  0.00000000000E+00  0.45593999997E+02  0.45594000000E+02  0.51100000000E-03 0. -1.
         11   -1    0    0    0    0 -0.00000000000E+00 -0.00000000000E+00 -0.45593999997E+02  0.45594000000E+02  0.51100000000E-03 0.  1.
    9900012    2    1    2    0    0  0.19919483277E+01  0.60185840609E+01  0.17620595886E+02  0.72461638591E+02  0.70000088970E+02 0.  0.
        -12    1    1    2    0    0 -0.19919483277E+01 -0.60185840609E+01 -0.17620595886E+02  0.18726361409E+02  0.00000000000E+00 0.  1.
         11    1    3    3    0    0 -0.59730964743E+01  0.23412555761E+02 -0.36713621652E+01  0.24439814835E+02  0.51100000000E-03 0. -1.
        -11    1    3    3    0    0  0.21231131430E+02 -0.15536499541E+01  0.54185456329E+01  0.21966688577E+02  0.51100000000E-03 0.  1.
         12    1    3    3    0    0 -0.13266086628E+02 -0.15840321746E+02  0.15873412418E+02  0.26055135180E+02  0.00000000000E+00 0. -1.
</event>
<event>
 7    1  0.1830715E-013  0.7246160E+02  0.7816164E-02  0.1226708E+00
        -11   -1    0    0    0    0  0.00000000000E+00  0.00000000000E+00  0.45593999997E+02  0.45594000000E+02  0.51100000000E-03 0. -1.
         11   -1    0    0    0    0 -0.00000000000E+00 -0.00000000000E+00 -0.45593999997E+02  0.45594000000E+02  0.51100000000E-03 0.  1.
    9900012    2    1    2    0    0 -0.30642822745E+01 -0.15512088195E+02  0.10033119055E+02  0.72461596608E+02  0.70000034279E+02 0.  0.
        -12    1    1    2    0    0  0.30642822745E+01  0.15512088195E+02 -0.10033119055E+02  0.18726403392E+02  0.00000000000E+00 0.  1.
         11    1    3    3    0    0 -0.17806476521E+02 -0.29812450050E+02 -0.58355951792E+01  0.35212312555E+02  0.51100000000E-03 0. -1.
        -11    1    3    3    0    0  0.21992376827E+01  0.19670834778E+02  0.11651202967E+02  0.22967997695E+02  0.51100000000E-03 0.  1.
         12    1    3    3    0    0  0.12542956564E+02 -0.53704729229E+01  0.42175112667E+01  0.14281286359E+02  0.00000000000E+00 0. -1.
</event>
<event>
 7    1  0.1830715E-013  0.7246156E+02  0.7816164E-02  0.1226708E+00
        -11   -1    0    0    0    0  0.00000000000E+00  0.00000000000E+00  0.45593999997E+02  0.45594000000E+02  0.51100000000E-03 0.  1.
         11   -1    0    0    0    0 -0.00000000000E+00 -0.00000000000E+00 -0.45593999997E+02  0.45594000000E+02  0.51100000000E-03 0. -1.
    9900012    2    1    2    0    0 -0.79639872195E+01  0.32535366154E+01 -0.16633366407E+02  0.72461562245E+02  0.69999989515E+02 0.  0.
        -12    1    1    2    0    0  0.79639872195E+01 -0.32535366154E+01  0.16633366407E+02  0.18726437755E+02  0.00000000000E+00 0.  1.
         11    1    3    3    0    0 -0.88924595026E+01 -0.19973594558E+02  0.33080188742E+01  0.22112514663E+02  0.51100000000E-03 0. -1.
        -11    1    3    3    0    0  0.17862476599E+02  0.23130061218E+02 -0.11254266807E+02  0.31316550318E+02  0.51100000000E-03 0.  1.
        -12    1    3    3    0    0 -0.16934004316E+02  0.97069955567E-01 -0.86871184741E+01  0.19032497264E+02  0.00000000000E+00 0.  1.
</event>
<event>
 7    1  0.1830715E-013  0.7246153E+02  0.7816164E-02  0.1226708E+00
        -11   -1    0    0    0    0  0.00000000000E+00  0.00000000000E+00  0.45593999997E+02  0.45594000000E+02  0.51100000000E-03 0.  1.
         11   -1    0    0    0    0 -0.00000000000E+00 -0.00000000000E+00 -0.45593999997E+02  0.45594000000E+02  0.51100000000E-03 0. -1.
    9900012    2    1    2    0    0 -0.17363585347E+02  0.58184826045E+01 -0.39156048171E+01  0.72461526840E+02  0.69999943393E+02 0.  0.
        -12    1    1    2    0    0  0.17363585347E+02 -0.58184826045E+01  0.39156048171E+01  0.18726473160E+02  0.00000000000E+00 0.  1.
         11    1    3    3    0    0 -0.27383924381E+02  0.31245669111E+01  0.18571080727E+02  0.33234429024E+02  0.51100000000E-03 0. -1.
        -11    1    3    3    0    0 -0.47543938757E+01 -0.48833499022E+01 -0.21543504860E+02  0.22595883902E+02  0.51100000000E-03 0.  1.
         12    1    3    3    0    0  0.14774732910E+02  0.75772655956E+01 -0.94318068432E+00  0.16631213915E+02  0.00000000000E+00 0. -1.
</event>
<event>
 7    1  0.1830715E-013  0.7246160E+02  0.7816164E-02  0.1226708E+00
        -11   -1    0    0    0    0  0.00000000000E+00  0.00000000000E+00  0.45593999997E+02  0.45594000000E+02  0.51100000000E-03 0.  1.
         11   -1    0    0    0    0 -0.00000000000E+00 -0.00000000000E+00 -0.45593999997E+02  0.45594000000E+02  0.51100000000E-03 0. -1.
    9900012    2    1    2    0    0 -0.11210869331E+02 -0.14847045901E+02 -0.21353191637E+01  0.72461602827E+02  0.70000042380E+02 0.  0.
        -12    1    1    2    0    0  0.11210869331E+02  0.14847045901E+02  0.21353191637E+01  0.18726397173E+02  0.00000000000E+00 0.  1.
         11    1    3    3    0    0  0.10656572206E+02 -0.19274927897E+02 -0.13747147777E+01  0.22067514984E+02  0.51100000000E-03 0. -1.
        -11    1    3    3    0    0 -0.21795157074E+02  0.21009641292E+02  0.84446368179E+01  0.31428423288E+02  0.51100000000E-03 0.  1.
         12    1    3    3    0    0 -0.72284462912E-01 -0.16581759296E+02 -0.92052412038E+01  0.18965664555E+02  0.00000000000E+00 0. -1.
</event>
<event>
 7    1  0.1830715E-013  0.7246153E+02  0.7816164E-02  0.1226708E+00
        -11   -1    0    0    0    0  0.00000000000E+00  0.00000000000E+00  0.45593999997E+02  0.45594000000E+02  0.51100000000E-03 0.  1.
         11   -1    0    0    0    0 -0.00000000000E+00 -0.00000000000E+00 -0.45593999997E+02  0.45594000000E+02  0.51100000000E-03 0. -1.
    9900012    2    1    2    0    0  0.14130134449E+02  0.63730636089E+01 -0.10507334995E+02  0.72461528682E+02  0.69999945793E+02 0.  0.
        -12    1    1    2    0    0 -0.14130134449E+02 -0.63730636089E+01  0.10507334995E+02  0.18726471318E+02  0.00000000000E+00 0.  1.
         11    1    3    3    0    0 -0.13745725081E+01  0.89315172116E+01 -0.98520528833E+01  0.13368784371E+02  0.51100000000E-03 0. -1.
        -11    1    3    3    0    0  0.28189554073E+01  0.54922282269E+01  0.26958382465E+02  0.27656201219E+02  0.51100000000E-03 0.  1.
        -12    1    3    3    0    0  0.12685751550E+02 -0.80506818296E+01 -0.27613664576E+02  0.31436543093E+02  0.00000000000E+00 0.  1.
</event>
<event>
 7    1  0.1830715E-013  0.7246150E+02  0.7816164E-02  0.1226708E+00
        -11   -1    0    0    0    0  0.00000000000E+00  0.00000000000E+00  0.45593999997E+02  0.45594000000E+02  0.51100000000E-03 0.  1.
         11   -1    0    0    0    0 -0.00000000000E+00 -0.00000000000E+00 -0.45593999997E+02  0.45594000000E+02  0.51100000000E-03 0. -1.
    9900012    2    1    2    0    0 -0.33390439481E+01  0.10893210343E+02 -0.14861714813E+02  0.72461499707E+02  0.69999908046E+02 0.  0.
        -12    1    1    2    0    0  0.33390439481E+01 -0.10893210343E+02  0.14861714813E+02  0.18726500293E+02  0.00000000000E+00 0.  1.
         11    1    3    3    0    0 -0.12571703570E+02  0.89763972620E+01 -0.90195627710E+00  0.15473750801E+02  0.51100000000E-03 0. -1.
        -11    1    3    3    0    0  0.16327780958E+02  0.56021448322E+01 -0.32498452941E+02  0.36798504067E+02  0.51100000000E-03 0.  1.
        -12    1    3    3    0    0 -0.70951213362E+01 -0.36853317516E+01  0.18538694405E+02  0.20189244839E+02  0.00000000000E+00 0.  1.
</event>
<event>
 7    1  0.1830715E-013  0.7246164E+02  0.7816164E-02  0.1226708E+00
        -11   -1    0    0    0    0  0.00000000000E+00  0.00000000000E+00  0.45593999997E+02  0.45594000000E+02  0.51100000000E-03 0. -1.
         11   -1    0    0    0    0 -0.00000000000E+00 -0.00000000000E+00 -0.45593999997E+02  0.45594000000E+02  0.51100000000E-03 0.  1.
    9900012    2    1    2    0    0  0.14560347492E+02  0.92232833971E+01  0.73214662647E+01  0.72461640397E+02  0.70000091322E+02 0.  0.
        -12    1    1    2    0    0 -0.14560347492E+02 -0.92232833971E+01 -0.73214662647E+01  0.18726359603E+02  0.00000000000E+00 0.  1.
         11    1    3    3    0    0 -0.15966423426E+02  0.20004200278E+02 -0.80265705320E+01  0.26823880043E+02  0.51100000000E-03 0.  1.
        -11    1    3    3    0    0  0.33318970677E+02 -0.13379332308E+02  0.71697109668E+01  0.36613728239E+02  0.51100000000E-03 0. -1.
         12    1    3    3    0    0 -0.27921997585E+01  0.25984154271E+01  0.81783258300E+01  0.90240321146E+01  0.00000000000E+00 0. -1.
</event>
<event>
 7    1  0.1830715E-013  0.7246155E+02  0.7816164E-02  0.1226708E+00
        -11   -1    0    0    0    0  0.00000000000E+00  0.00000000000E+00  0.45593999997E+02  0.45594000000E+02  0.51100000000E-03 0. -1.
         11   -1    0    0    0    0 -0.00000000000E+00 -0.00000000000E+00 -0.45593999997E+02  0.45594000000E+02  0.51100000000E-03 0.  1.
    9900012    2    1    2    0    0  0.15567647613E+02 -0.68885742480E+01  0.78022960802E+01  0.72461549950E+02  0.69999973497E+02 0.  0.
        -12    1    1    2    0    0 -0.15567647613E+02  0.68885742480E+01 -0.78022960802E+01  0.18726450050E+02  0.00000000000E+00 0.  1.
         11    1    3    3    0    0  0.34313755853E+01 -0.83311538195E+01  0.14148169995E+02  0.16773585688E+02  0.51100000000E-03 0. -1.
        -11    1    3    3    0    0  0.16531093411E+02 -0.14738826394E+01 -0.28464244894E+02  0.32949394790E+02  0.51100000000E-03 0.  1.
        -12    1    3    3    0    0 -0.43948213832E+01  0.29164622109E+01  0.22118370979E+02  0.22738569471E+02  0.00000000000E+00 0.  1.
</event>
<event>
 7    1  0.1830715E-013  0.7246160E+02  0.7816164E-02  0.1226708E+00
        -11   -1    0    0    0    0  0.00000000000E+00  0.00000000000E+00  0.45593999997E+02  0.45594000000E+02  0.51100000000E-03 0. -1.
         11   -1    0    0    0    0 -0.00000000000E+00 -0.00000000000E+00 -0.45593999997E+02  0.45594000000E+02  0.51100000000E-03 0.  1.
    9900012    2    1    2    0    0 -0.98008640208E+01 -0.54225234276E+01  0.15007245492E+02  0.72461598500E+02  0.70000036743E+02 0.  0.
        -12    1    1    2    0    0  0.98008640208E+01  0.54225234276E+01 -0.15007245492E+02  0.18726401500E+02  0.00000000000E+00 0.  1.
         11    1    3    3    0    0 -0.15596330094E+02  0.13983066115E+01  0.40068726941E+02  0.43019805354E+02  0.51100000000E-03 0. -1.
        -11    1    3    3    0    0  0.79157666678E+01 -0.88033989489E+01 -0.15847452802E+02  0.19781328458E+02  0.51100000000E-03 0.  1.
         12    1    3    3    0    0 -0.21203005944E+01  0.19825689097E+01 -0.92140286469E+01  0.96604646885E+01  0.00000000000E+00 0. -1.
</event>
<event>
 7    1  0.1830715E-013  0.7246158E+02  0.7816164E-02  0.1226708E+00
        -11   -1    0    0    0    0  0.00000000000E+00  0.00000000000E+00  0.45593999997E+02  0.45594000000E+02  0.51100000000E-03 0.  1.
         11   -1    0    0    0    0 -0.00000000000E+00 -0.00000000000E+00 -0.45593999997E+02  0.45594000000E+02  0.51100000000E-03 0. -1.
    9900012    2    1    2    0    0  0.17146625909E+02 -0.11566219503E+01 -0.74387067184E+01  0.72461577169E+02  0.70000008955E+02 0.  0.
        -12    1    1    2    0    0 -0.17146625909E+02  0.11566219503E+01  0.74387067184E+01  0.18726422831E+02  0.00000000000E+00 0.  1.
         11    1    3    3    0    0  0.15313517655E+02  0.19615767411E+02 -0.22529160075E+02  0.33568515130E+02  0.51100000000E-03 0. -1.
        -11    1    3    3    0    0  0.15449969685E+02 -0.11230709357E+02  0.64880954214E+01  0.20172401404E+02  0.51100000000E-03 0.  1.
         12    1    3    3    0    0 -0.13616861431E+02 -0.95416800051E+01  0.86023579357E+01  0.18720660635E+02  0.00000000000E+00 0. -1.
</event>
<event>
 7    1  0.1830715E-013  0.7246160E+02  0.7816164E-02  0.1226708E+00
        -11   -1    0    0    0    0  0.00000000000E+00  0.00000000000E+00  0.45593999997E+02  0.45594000000E+02  0.51100000000E-03 0. -1.
         11   -1    0    0    0    0 -0.00000000000E+00 -0.00000000000E+00 -0.45593999997E+02  0.45594000000E+02  0.51100000000E-03 0.  1.
    9900012    2    1    2    0    0 -0.14014314326E+02 -0.12096623991E+01  0.12361786548E+02  0.72461600030E+02  0.70000038737E+02 0.  0.
        -12    1    1    2    0    0  0.14014314326E+02  0.12096623991E+01 -0.12361786548E+02  0.18726399970E+02  0.00000000000E+00 0.  1.
         11    1    3    3    0    0  0.59154163430E+00  0.11147454544E+02 -0.13830659686E+02  0.17773654996E+02  0.51100000000E-03 0.  1.
        -11    1    3    3    0    0 -0.76514007661E+01 -0.28796812533E+02  0.13086745784E+02  0.32543252161E+02  0.51100000000E-03 0. -1.
         12    1    3    3    0    0 -0.69544551945E+01  0.16439695590E+02  0.13105700451E+02  0.22144692873E+02  0.00000000000E+00 0. -1.
</event>
<event>
 7    1  0.1830715E-013  0.7246165E+02  0.7816164E-02  0.1226708E+00
        -11   -1    0    0    0    0  0.00000000000E+00  0.00000000000E+00  0.45593999997E+02  0.45594000000E+02  0.51100000000E-03 0.  1.
         11   -1    0    0    0    0 -0.00000000000E+00 -0.00000000000E+00 -0.45593999997E+02  0.45594000000E+02  0.51100000000E-03 0. -1.
    9900012    2    1    2    0    0  0.33552389772E+01  0.17948257950E+02 -0.41567562942E+01  0.72461649183E+02  0.70000102767E+02 0.  0.
        -12    1    1    2    0    0 -0.33552389772E+01 -0.17948257950E+02  0.41567562942E+01  0.18726350817E+02  0.00000000000E+00 0.  1.
         11    1    3    3    0    0  0.81272086279E-01 -0.39340521979E+01  0.30075034683E+02  0.30331354788E+02  0.51100000000E-03 0.  1.
        -11    1    3    3    0    0 -0.80290544038E+00  0.99445437056E+01 -0.23638235601E+02  0.25657450950E+02  0.51100000000E-03 0. -1.
        -12    1    3    3    0    0  0.40768723313E+01  0.11937766443E+02 -0.10593555376E+02  0.16472843445E+02  0.00000000000E+00 0.  1.
</event>
<event>
 7    1  0.1830715E-013  0.7246160E+02  0.7816164E-02  0.1226708E+00
        -11   -1    0    0    0    0  0.00000000000E+00  0.00000000000E+00  0.45593999997E+02  0.45594000000E+02  0.51100000000E-03 0. -1.
         11   -1    0    0    0    0 -0.00000000000E+00 -0.00000000000E+00 -0.45593999997E+02  0.45594000000E+02  0.51100000000E-03 0.  1.
    9900012    2    1    2    0    0  0.91211622501E+01 -0.16179930325E+02  0.23858766384E+01  0.72461597424E+02  0.70000035341E+02 0.  0.
        -12    1    1    2    0    0 -0.91211622501E+01  0.16179930325E+02 -0.23858766384E+01  0.18726402576E+02  0.00000000000E+00 0.  1.
         11    1    3    3    0    0  0.28753296046E+02 -0.20635404541E+02 -0.63837840202E+01  0.35962823203E+02  0.51100000000E-03 0. -1.
        -11    1    3    3    0    0 -0.58728424025E+01  0.79111803474E+01  0.17326031281E+02  0.19931593328E+02  0.51100000000E-03 0.  1.
         12    1    3    3    0    0 -0.13759291393E+02 -0.34557061313E+01 -0.85563706224E+01  0.16567180893E+02  0.00000000000E+00 0. -1.
</event>
<event>
 7    1  0.1830715E-013  0.7246155E+02  0.7816164E-02  0.1226708E+00
        -11   -1    0    0    0    0  0.00000000000E+00  0.00000000000E+00  0.45593999997E+02  0.45594000000E+02  0.51100000000E-03 0. -1.
         11   -1    0    0    0    0 -0.00000000000E+00 -0.00000000000E+00 -0.45593999997E+02  0.45594000000E+02  0.51100000000E-03 0.  1.
    9900012    2    1    2    0    0  0.77747720266E+01  0.12397042461E+02  0.11685292158E+02  0.72461553603E+02  0.69999978256E+02 0.  0.
        -12    1    1    2    0    0 -0.77747720266E+01 -0.12397042461E+02 -0.11685292158E+02  0.18726446397E+02  0.00000000000E+00 0.  1.
         11    1    3    3    0    0 -0.12708897663E+02  0.11222111399E+02 -0.15041338407E+02  0.22664812494E+02  0.51100000000E-03 0.  1.
        -11    1    3    3    0    0  0.94055515656E+01 -0.14214297055E+02  0.25659884297E+02  0.30804874670E+02  0.51100000000E-03 0. -1.
         12    1    3    3    0    0  0.11078118124E+02  0.15389228118E+02  0.10667462671E+01  0.18991866439E+02  0.00000000000E+00 0. -1.
</event>
<event>
 7    1  0.1830715E-013  0.7246158E+02  0.7816164E-02  0.1226708E+00
        -11   -1    0    0    0    0  0.00000000000E+00  0.00000000000E+00  0.45593999997E+02  0.45594000000E+02  0.51100000000E-03 0. -1.
         11   -1    0    0    0    0 -0.00000000000E+00 -0.00000000000E+00 -0.45593999997E+02  0.45594000000E+02  0.51100000000E-03 0.  1.
    9900012    2    1    2    0    0  0.18416704143E+02  0.33150390056E+01  0.71715240997E+00  0.72461580623E+02  0.70000013456E+02 0.  0.
        -12    1    1    2    0    0 -0.18416704143E+02 -0.33150390056E+01 -0.71715240997E+00  0.18726419377E+02  0.00000000000E+00 0.  1.
         11    1    3    3    0    0 -0.11771847154E+02  0.10261873171E+02 -0.12844553657E+02  0.20220410117E+02  0.51100000000E-03 0.  1.
        -11    1    3    3    0    0  0.27431529262E+02 -0.13451245499E+02  0.24539340855E+02  0.39186784162E+02  0.51100000000E-03 0. -1.
         12    1    3    3    0    0  0.27570220346E+01  0.65044113331E+01 -0.10977634787E+02  0.13054386344E+02  0.00000000000E+00 0. -1.
</event>
<event>
 7    1  0.1830715E-013  0.7246157E+02  0.7816164E-02  0.1226708E+00
        -11   -1    0    0    0    0  0.00000000000E+00  0.00000000000E+00  0.45593999997E+02  0.45594000000E+02  0.51100000000E-03 0. -1.
         11   -1    0    0    0    0 -0.00000000000E+00 -0.00000000000E+00 -0.45593999997E+02  0.45594000000E+02  0.51100000000E-03 0.  1.
    9900012    2    1    2    0    0 -0.69026622986E+01 -0.10185194748E+02 -0.14117159703E+02  0.72461571164E+02  0.70000001133E+02 0.  0.
        -12    1    1    2    0    0  0.69026622986E+01  0.10185194748E+02  0.14117159703E+02  0.18726428836E+02  0.00000000000E+00 0.  1.
         11    1    3    3    0    0  0.92416628962E+01 -0.30572162348E+02 -0.22142822735E+01  0.32015129080E+02  0.51100000000E-03 0. -1.
        -11    1    3    3    0    0 -0.11236383853E+01  0.22920957814E+02 -0.10218331564E+02  0.25120652271E+02  0.51100000000E-03 0.  1.
         12    1    3    3    0    0 -0.15020686809E+02 -0.25339902136E+01 -0.16845458648E+01  0.15325789813E+02  0.00000000000E+00 0. -1.
</event>
<event>
 7    1  0.1830715E-013  0.7246154E+02  0.7816164E-02  0.1226708E+00
        -11   -1    0    0    0    0  0.00000000000E+00  0.00000000000E+00  0.45593999997E+02  0.45594000000E+02  0.51100000000E-03 0.  1.
         11   -1    0    0    0    0 -0.00000000000E+00 -0.00000000000E+00 -0.45593999997E+02  0.45594000000E+02  0.51100000000E-03 0. -1.
    9900012    2    1    2    0    0 -0.92598306702E+00 -0.13672779203E+02 -0.12762369121E+02  0.72461537404E+02  0.69999957154E+02 0.  0.
        -12    1    1    2    0    0  0.92598306702E+00  0.13672779203E+02  0.12762369121E+02  0.18726462596E+02  0.00000000000E+00 0.  1.
         11    1    3    3    0    0  0.99806617436E+00  0.17598452925E+02  0.33990237371E+01  0.17951463563E+02  0.51100000000E-03 0. -1.
        -11    1    3    3    0    0  0.14880001237E+02 -0.24418292372E+02  0.22182847057E+01  0.28680798916E+02  0.51100000000E-03 0.  1.
         12    1    3    3    0    0 -0.16804050478E+02 -0.68529397562E+01 -0.18379677563E+02  0.25829274924E+02  0.00000000000E+00 0. -1.
</event>
<event>
 7    1  0.1830715E-013  0.7246165E+02  0.7816164E-02  0.1226708E+00
        -11   -1    0    0    0    0  0.00000000000E+00  0.00000000000E+00  0.45593999997E+02  0.45594000000E+02  0.51100000000E-03 0.  1.
         11   -1    0    0    0    0 -0.00000000000E+00 -0.00000000000E+00 -0.45593999997E+02  0.45594000000E+02  0.51100000000E-03 0. -1.
    9900012    2    1    2    0    0  0.17483195515E+02  0.59106476014E+01 -0.31746433746E+01  0.72461648486E+02  0.70000101859E+02 0.  0.
        -12    1    1    2    0    0 -0.17483195515E+02 -0.59106476014E+01  0.31746433746E+01  0.18726351514E+02  0.00000000000E+00 0.  1.
         11    1    3    3    0    0  0.15926065226E+02  0.20298564239E+02 -0.25609878143E+02  0.36352952046E+02  0.51100000000E-03 0. -1.
        -11    1    3    3    0    0 -0.10239242071E+02 -0.77298309908E+01  0.44206349378E+01  0.13569612332E+02  0.51100000000E-03 0.  1.
         12    1    3    3    0    0  0.11796372360E+02 -0.66580856464E+01  0.18014599830E+02  0.22539084107E+02  0.00000000000E+00 0. -1.
</event>
<event>
 7    1  0.1830715E-013  0.7246158E+02  0.7816164E-02  0.1226708E+00
        -11   -1    0    0    0    0  0.00000000000E+00  0.00000000000E+00  0.45593999997E+02  0.45594000000E+02  0.51100000000E-03 0. -1.
         11   -1    0    0    0    0 -0.00000000000E+00 -0.00000000000E+00 -0.45593999997E+02  0.45594000000E+02  0.51100000000E-03 0.  1.
    9900012    2    1    2    0    0  0.13308377726E+02  0.12548309733E+02 -0.40132193959E+01  0.72461576829E+02  0.70000008513E+02 0.  0.
        -12    1    1    2    0    0 -0.13308377726E+02 -0.12548309733E+02  0.40132193959E+01  0.18726423171E+02  0.00000000000E+00 0.  1.
         11    1    3    3    0    0 -0.18738330356E+02  0.21647332968E+02  0.92750581941E+01  0.30095826188E+02  0.51100000000E-03 0. -1.
        -11    1    3    3    0    0  0.19347177401E+02 -0.16324229890E+02 -0.58974182193E+01  0.25991792874E+02  0.51100000000E-03 0.  1.
         12    1    3    3    0    0  0.12699530682E+02  0.72252066552E+01 -0.73908593708E+01  0.16373957768E+02  0.00000000000E+00 0. -1.
</event>
<event>
 7    1  0.1830715E-013  0.7246153E+02  0.7816164E-02  0.1226708E+00
        -11   -1    0    0    0    0  0.00000000000E+00  0.00000000000E+00  0.45593999997E+02  0.45594000000E+02  0.51100000000E-03 0. -1.
         11   -1    0    0    0    0 -0.00000000000E+00 -0.00000000000E+00 -0.45593999997E+02  0.45594000000E+02  0.51100000000E-03 0.  1.
    9900012    2    1    2    0    0  0.10541689621E+02 -0.15412238183E+02  0.14200050181E+01  0.72461528893E+02  0.69999946066E+02 0.  0.
        -12    1    1    2    0    0 -0.10541689621E+02  0.15412238183E+02 -0.14200050181E+01  0.18726471107E+02  0.00000000000E+00 0.  1.
         11    1    3    3    0    0 -0.37497494493E+01 -0.34173074971E+02 -0.12774793651E+02  0.36674991847E+02  0.51100000000E-03 0. -1.
        -11    1    3    3    0    0  0.73940388404E+01  0.31360193687E+01  0.16693627777E+02  0.18525216233E+02  0.51100000000E-03 0.  1.
         12    1    3    3    0    0  0.68974002299E+01  0.15624817419E+02 -0.24988291080E+01  0.17261320813E+02  0.00000000000E+00 0. -1.
</event>
<event>
 7    1  0.1830715E-013  0.7246184E+02  0.7816164E-02  0.1226707E+00
        -11   -1    0    0    0    0  0.00000000000E+00  0.00000000000E+00  0.45593999997E+02  0.45594000000E+02  0.51100000000E-03 0.  1.
         11   -1    0    0    0    0 -0.00000000000E+00 -0.00000000000E+00 -0.45593999997E+02  0.45594000000E+02  0.51100000000E-03 0. -1.
    9900012    2    1    2    0    0  0.25044523413E+01 -0.33599407657E+00 -0.18554890723E+02  0.72461837999E+02  0.70000348734E+02 0.  0.
        -12    1    1    2    0    0 -0.25044523413E+01  0.33599407657E+00  0.18554890723E+02  0.18726162001E+02  0.00000000000E+00 0.  1.
         11    1    3    3    0    0 -0.20015866553E+02  0.14105727620E+02  0.79915573424E+01  0.25757939641E+02  0.51100000000E-03 0. -1.
        -11    1    3    3    0    0  0.25469164065E+02 -0.18682840554E+02 -0.17053037698E+02  0.35896141078E+02  0.51100000000E-03 0.  1.
        -12    1    3    3    0    0 -0.29488451712E+01  0.42411188573E+01 -0.94934103676E+01  0.10807757280E+02  0.00000000000E+00 0.  1.
</event>
<event>
 7    1  0.1830715E-013  0.7246161E+02  0.7816164E-02  0.1226708E+00
        -11   -1    0    0    0    0  0.00000000000E+00  0.00000000000E+00  0.45593999997E+02  0.45594000000E+02  0.51100000000E-03 0.  1.
         11   -1    0    0    0    0 -0.00000000000E+00 -0.00000000000E+00 -0.45593999997E+02  0.45594000000E+02  0.51100000000E-03 0. -1.
    9900012    2    1    2    0    0  0.97241258456E+01 -0.15539235664E+01  0.15928103951E+02  0.72461606931E+02  0.70000047726E+02 0.  0.
        -12    1    1    2    0    0 -0.97241258456E+01  0.15539235664E+01 -0.15928103951E+02  0.18726393069E+02  0.00000000000E+00 0.  1.
         11    1    3    3    0    0  0.21327810610E+02  0.24988098547E+02  0.96499418377E+01  0.34240355608E+02  0.51100000000E-03 0. -1.
        -11    1    3    3    0    0 -0.16983552163E+02 -0.13885829365E+02 -0.22289176004E+01  0.22050518705E+02  0.51100000000E-03 0.  1.
        -12    1    3    3    0    0  0.53798673991E+01 -0.12656192749E+02  0.85070797138E+01  0.16170732618E+02  0.00000000000E+00 0.  1.
</event>
<event>
 7    1  0.1830715E-013  0.7246151E+02  0.7816164E-02  0.1226708E+00
        -11   -1    0    0    0    0  0.00000000000E+00  0.00000000000E+00  0.45593999997E+02  0.45594000000E+02  0.51100000000E-03 0.  1.
         11   -1    0    0    0    0 -0.00000000000E+00 -0.00000000000E+00 -0.45593999997E+02  0.45594000000E+02  0.51100000000E-03 0. -1.
    9900012    2    1    2    0    0  0.40914351631E+01  0.13674215656E+02 -0.12122606116E+02  0.72461505546E+02  0.69999915653E+02 0.  0.
        -12    1    1    2    0    0 -0.40914351631E+01 -0.13674215656E+02  0.12122606116E+02  0.18726494454E+02  0.00000000000E+00 0.  1.
         11    1    3    3    0    0  0.87834424645E+01  0.11090303695E+02 -0.19727621863E+02  0.24275970881E+02  0.51100000000E-03 0. -1.
        -11    1    3    3    0    0 -0.13459473280E+02 -0.19492521535E+02  0.19501487052E+01  0.23768022572E+02  0.51100000000E-03 0.  1.
        -12    1    3    3    0    0  0.87674659785E+01  0.22076433495E+02  0.56548670416E+01  0.24417512093E+02  0.00000000000E+00 0.  1.
</event>
<event>
 7    1  0.1830715E-013  0.7246169E+02  0.7816164E-02  0.1226708E+00
        -11   -1    0    0    0    0  0.00000000000E+00  0.00000000000E+00  0.45593999997E+02  0.45594000000E+02  0.51100000000E-03 0. -1.
         11   -1    0    0    0    0 -0.00000000000E+00 -0.00000000000E+00 -0.45593999997E+02  0.45594000000E+02  0.51100000000E-03 0.  1.
    9900012    2    1    2    0    0  0.34621697742E+00 -0.18170137983E+02  0.45167319265E+01  0.72461691026E+02  0.70000157275E+02 0.  0.
        -12    1    1    2    0    0 -0.34621697742E+00  0.18170137983E+02 -0.45167319265E+01  0.18726308974E+02  0.00000000000E+00 0.  1.
         11    1    3    3    0    0 -0.10465822554E+02 -0.30390557368E+02  0.22021991858E+02  0.38962642935E+02  0.51100000000E-03 0. -1.
        -11    1    3    3    0    0  0.17516817890E+02  0.89782207668E+01 -0.75855146920E+01  0.21094724234E+02  0.51100000000E-03 0.  1.
         12    1    3    3    0    0 -0.67047783584E+01  0.32421986184E+01 -0.99197452392E+01  0.12404323856E+02  0.00000000000E+00 0. -1.
</event>
<event>
 7    1  0.1830715E-013  0.7246159E+02  0.7816164E-02  0.1226708E+00
        -11   -1    0    0    0    0  0.00000000000E+00  0.00000000000E+00  0.45593999997E+02  0.45594000000E+02  0.51100000000E-03 0.  1.
         11   -1    0    0    0    0 -0.00000000000E+00 -0.00000000000E+00 -0.45593999997E+02  0.45594000000E+02  0.51100000000E-03 0. -1.
    9900012    2    1    2    0    0  0.96861133244E+01 -0.16024193399E+02 -0.28786195860E+00  0.72461590042E+02  0.70000025725E+02 0.  0.
        -12    1    1    2    0    0 -0.96861133244E+01  0.16024193399E+02  0.28786195860E+00  0.18726409958E+02  0.00000000000E+00 0.  1.
         11    1    3    3    0    0 -0.21835210179E+02 -0.88163495915E+01 -0.74935597616E+01  0.24711492505E+02  0.51100000000E-03 0. -1.
        -11    1    3    3    0    0  0.21048726737E+02 -0.20949908080E+02  0.22852469432E+01  0.29785397423E+02  0.51100000000E-03 0.  1.
         12    1    3    3    0    0  0.10472596766E+02  0.13742064273E+02  0.49204508598E+01  0.17964700114E+02  0.00000000000E+00 0. -1.
</event>
<event>
 7    1  0.1830715E-013  0.7246161E+02  0.7816164E-02  0.1226708E+00
        -11   -1    0    0    0    0  0.00000000000E+00  0.00000000000E+00  0.45593999997E+02  0.45594000000E+02  0.51100000000E-03 0.  1.
         11   -1    0    0    0    0 -0.00000000000E+00 -0.00000000000E+00 -0.45593999997E+02  0.45594000000E+02  0.51100000000E-03 0. -1.
    9900012    2    1    2    0    0  0.12748977126E+02  0.13675971490E+01 -0.13648118083E+02  0.72461605074E+02  0.70000045307E+02 0.  0.
        -12    1    1    2    0    0 -0.12748977126E+02 -0.13675971490E+01  0.13648118083E+02  0.18726394926E+02  0.00000000000E+00 0.  1.
         11    1    3    3    0    0  0.21417762244E+02  0.17808255245E+02 -0.17553721393E+02  0.32923967400E+02  0.51100000000E-03 0. -1.
        -11    1    3    3    0    0 -0.18416920474E+02 -0.83017484029E+01 -0.83778365489E+01  0.21869845263E+02  0.51100000000E-03 0.  1.
         12    1    3    3    0    0  0.97481353565E+01 -0.81389096930E+01  0.12283439858E+02  0.17667792411E+02  0.00000000000E+00 0. -1.
</event>
<event>
 7    1  0.1830715E-013  0.7246166E+02  0.7816164E-02  0.1226708E+00
        -11   -1    0    0    0    0  0.00000000000E+00  0.00000000000E+00  0.45593999997E+02  0.45594000000E+02  0.51100000000E-03 0.  1.
         11   -1    0    0    0    0 -0.00000000000E+00 -0.00000000000E+00 -0.45593999997E+02  0.45594000000E+02  0.51100000000E-03 0. -1.
    9900012    2    1    2    0    0  0.39977470881E+01 -0.18269920772E+02  0.95063309871E+00  0.72461663196E+02  0.70000121022E+02 0.  0.
        -12    1    1    2    0    0 -0.39977470881E+01  0.18269920772E+02 -0.95063309871E+00  0.18726336804E+02  0.00000000000E+00 0.  1.
         11    1    3    3    0    0 -0.41793619040E+01 -0.19572874905E+02 -0.22990925792E+01  0.20145727213E+02  0.51100000000E-03 0. -1.
        -11    1    3    3    0    0  0.37772666660E+01 -0.40315272765E+01  0.27010362063E+02  0.27569559566E+02  0.51100000000E-03 0.  1.
        -12    1    3    3    0    0  0.43998423261E+01  0.53344814097E+01 -0.23760636385E+02  0.24746376418E+02  0.00000000000E+00 0.  1.
</event>
<event>
 7    1  0.1830715E-013  0.7246153E+02  0.7816164E-02  0.1226708E+00
        -11   -1    0    0    0    0  0.00000000000E+00  0.00000000000E+00  0.45593999997E+02  0.45594000000E+02  0.51100000000E-03 0. -1.
         11   -1    0    0    0    0 -0.00000000000E+00 -0.00000000000E+00 -0.45593999997E+02  0.45594000000E+02  0.51100000000E-03 0.  1.
    9900012    2    1    2    0    0  0.12076889173E+02 -0.14228805611E+02  0.15396802567E+01  0.72461527388E+02  0.69999944106E+02 0.  0.
        -12    1    1    2    0    0 -0.12076889173E+02  0.14228805611E+02 -0.15396802567E+01  0.18726472612E+02  0.00000000000E+00 0.  1.
         11    1    3    3    0    0  0.10056936628E+02  0.88486473567E+01  0.73089480484E+01  0.15259792142E+02  0.51100000000E-03 0.  1.
        -11    1    3    3    0    0 -0.53435907229E+01 -0.25952682050E+02  0.18079188766E+02  0.32077293123E+02  0.51100000000E-03 0. -1.
        -12    1    3    3    0    0  0.73635432676E+01  0.28752290827E+01 -0.23848456558E+02  0.25124442122E+02  0.00000000000E+00 0.  1.
</event>
<event>
 7    1  0.1830715E-013  0.7246155E+02  0.7816164E-02  0.1226708E+00
        -11   -1    0    0    0    0  0.00000000000E+00  0.00000000000E+00  0.45593999997E+02  0.45594000000E+02  0.51100000000E-03 0. -1.
         11   -1    0    0    0    0 -0.00000000000E+00 -0.00000000000E+00 -0.45593999997E+02  0.45594000000E+02  0.51100000000E-03 0.  1.
    9900012    2    1    2    0    0  0.43103971731E+01  0.16018081571E+02  0.86903013071E+01  0.72461553519E+02  0.69999978147E+02 0.  0.
        -12    1    1    2    0    0 -0.43103971731E+01 -0.16018081571E+02 -0.86903013071E+01  0.18726446481E+02  0.00000000000E+00 0.  1.
         11    1    3    3    0    0 -0.11345400468E+02  0.83368203331E+01 -0.46692069842E+01  0.14833144615E+02  0.51100000000E-03 0. -1.
        -11    1    3    3    0    0  0.17651475486E+02 -0.19945506675E+02  0.13649021502E+02  0.29928140797E+02  0.51100000000E-03 0.  1.
        -12    1    3    3    0    0 -0.19956778453E+01  0.27626767912E+02 -0.28951321102E+00  0.27700268107E+02  0.00000000000E+00 0.  1.
</event>
<event>
 7    1  0.1830715E-013  0.7246166E+02  0.7816164E-02  0.1226708E+00
        -11   -1    0    0    0    0  0.00000000000E+00  0.00000000000E+00  0.45593999997E+02  0.45594000000E+02  0.51100000000E-03 0. -1.
         11   -1    0    0    0    0 -0.00000000000E+00 -0.00000000000E+00 -0.45593999997E+02  0.45594000000E+02  0.51100000000E-03 0.  1.
    9900012    2    1    2    0    0  0.92589081198E+01  0.16273031143E+02  0.37019948673E+00  0.72461655727E+02  0.70000111292E+02 0.  0.
        -12    1    1    2    0    0 -0.92589081198E+01 -0.16273031143E+02 -0.37019948673E+00  0.18726344273E+02  0.00000000000E+00 0.  1.
         11    1    3    3    0    0 -0.84915982217E+01  0.17562574258E+02  0.24500424139E+02  0.31318078456E+02  0.51100000000E-03 0. -1.
        -11    1    3    3    0    0  0.80563917290E+01  0.93141227379E+01 -0.23771443105E+02  0.26771997266E+02  0.51100000000E-03 0.  1.
         12    1    3    3    0    0  0.96941146125E+01 -0.10603665853E+02 -0.35878154742E+00  0.14371580005E+02  0.00000000000E+00 0. -1.
</event>
<event>
 7    1  0.1830715E-013  0.7246158E+02  0.7816164E-02  0.1226708E+00
        -11   -1    0    0    0    0  0.00000000000E+00  0.00000000000E+00  0.45593999997E+02  0.45594000000E+02  0.51100000000E-03 0.  1.
         11   -1    0    0    0    0 -0.00000000000E+00 -0.00000000000E+00 -0.45593999997E+02  0.45594000000E+02  0.51100000000E-03 0. -1.
    9900012    2    1    2    0    0 -0.11789712304E+00 -0.18656670764E+02  0.16104952397E+01  0.72461575925E+02  0.70000007335E+02 0.  0.
        -12    1    1    2    0    0  0.11789712304E+00  0.18656670764E+02 -0.16104952397E+01  0.18726424075E+02  0.00000000000E+00 0.  1.
         11    1    3    3    0    0  0.14930475763E+02  0.72596019829E+01 -0.24589114957E+01  0.16782942932E+02  0.51100000000E-03 0. -1.
        -11    1    3    3    0    0  0.38764622267E+01 -0.31844573342E+02 -0.71873382743E+01  0.32874939429E+02  0.51100000000E-03 0.  1.
        -12    1    3    3    0    0 -0.18924835112E+02  0.59283005950E+01  0.11256745010E+02  0.22803693565E+02  0.00000000000E+00 0.  1.
</event>
<event>
 7    1  0.1830715E-013  0.7246162E+02  0.7816164E-02  0.1226708E+00
        -11   -1    0    0    0    0  0.00000000000E+00  0.00000000000E+00  0.45593999997E+02  0.45594000000E+02  0.51100000000E-03 0. -1.
         11   -1    0    0    0    0 -0.00000000000E+00 -0.00000000000E+00 -0.45593999997E+02  0.45594000000E+02  0.51100000000E-03 0.  1.
    9900012    2    1    2    0    0  0.14495188263E+02 -0.11413804232E+02 -0.32080794910E+01  0.72461623312E+02  0.70000069065E+02 0.  0.
        -12    1    1    2    0    0 -0.14495188263E+02  0.11413804232E+02  0.32080794910E+01  0.18726376688E+02  0.00000000000E+00 0.  1.
         11    1    3    3    0    0 -0.13522121861E+02  0.19452146007E+02  0.26862944164E+01  0.23842188278E+02  0.51100000000E-03 0. -1.
        -11    1    3    3    0    0 -0.23709376149E-01 -0.11786309776E+02 -0.86072082612E+01  0.14594577575E+02  0.51100000000E-03 0.  1.
         12    1    3    3    0    0  0.28041019501E+02 -0.19079640463E+02  0.27128343538E+01  0.34024857459E+02  0.00000000000E+00 0. -1.
</event>
<event>
 7    1  0.1830715E-013  0.7246155E+02  0.7816164E-02  0.1226708E+00
        -11   -1    0    0    0    0  0.00000000000E+00  0.00000000000E+00  0.45593999997E+02  0.45594000000E+02  0.51100000000E-03 0.  1.
         11   -1    0    0    0    0 -0.00000000000E+00 -0.00000000000E+00 -0.45593999997E+02  0.45594000000E+02  0.51100000000E-03 0. -1.
    9900012    2    1    2    0    0 -0.21286820187E+01  0.11007637674E+01 -0.18572481647E+02  0.72461546985E+02  0.69999969635E+02 0.  0.
        -12    1    1    2    0    0  0.21286820187E+01 -0.11007637674E+01  0.18572481647E+02  0.18726453015E+02  0.00000000000E+00 0.  1.
         11    1    3    3    0    0  0.22684763077E+02  0.11021376749E+02  0.54617196793E+00  0.25226326039E+02  0.51100000000E-03 0.  1.
        -11    1    3    3    0    0 -0.25842333086E+02 -0.51911577934E+01  0.11628246759E+01  0.26384208536E+02  0.51100000000E-03 0. -1.
         12    1    3    3    0    0  0.10288879900E+01 -0.47294551885E+01 -0.20281478291E+02  0.20851012410E+02  0.00000000000E+00 0. -1.
</event>
<event>
 7    1  0.1830715E-013  0.7246158E+02  0.7816164E-02  0.1226708E+00
        -11   -1    0    0    0    0  0.00000000000E+00  0.00000000000E+00  0.45593999997E+02  0.45594000000E+02  0.51100000000E-03 0. -1.
         11   -1    0    0    0    0 -0.00000000000E+00 -0.00000000000E+00 -0.45593999997E+02  0.45594000000E+02  0.51100000000E-03 0.  1.
    9900012    2    1    2    0    0 -0.22866766966E+01 -0.18350075743E+02  0.29537668019E+01  0.72461577266E+02  0.70000009082E+02 0.  0.
        -12    1    1    2    0    0  0.22866766966E+01  0.18350075743E+02 -0.29537668019E+01  0.18726422734E+02  0.00000000000E+00 0.  1.
         11    1    3    3    0    0 -0.98825573785E+01 -0.10120788142E+00  0.31148515935E+02  0.32678819266E+02  0.51100000000E-03 0. -1.
        -11    1    3    3    0    0  0.12583958741E+02 -0.15551332432E+02 -0.13777406033E+02  0.24290262972E+02  0.51100000000E-03 0.  1.
         12    1    3    3    0    0 -0.49880780589E+01 -0.26975354293E+01 -0.14417343100E+02  0.15492495028E+02  0.00000000000E+00 0. -1.
</event>
<event>
 7    1  0.1830715E-013  0.7246164E+02  0.7816164E-02  0.1226708E+00
        -11   -1    0    0    0    0  0.00000000000E+00  0.00000000000E+00  0.45593999997E+02  0.45594000000E+02  0.51100000000E-03 0.  1.
         11   -1    0    0    0    0 -0.00000000000E+00 -0.00000000000E+00 -0.45593999997E+02  0.45594000000E+02  0.51100000000E-03 0. -1.
    9900012    2    1    2    0    0  0.18378452516E+02 -0.22596371177E+00  0.35858158220E+01  0.72461637523E+02  0.70000087578E+02 0.  0.
        -12    1    1    2    0    0 -0.18378452516E+02  0.22596371177E+00 -0.35858158220E+01  0.18726362477E+02  0.00000000000E+00 0.  1.
         11    1    3    3    0    0  0.61563605537E+01  0.10061421280E+01 -0.25829980302E+02  0.26572560658E+02  0.51100000000E-03 0. -1.
        -11    1    3    3    0    0  0.67658029181E-01 -0.15760401945E+02  0.17304927548E+02  0.23406310363E+02  0.51100000000E-03 0.  1.
         12    1    3    3    0    0  0.12154433934E+02  0.14528296105E+02  0.12110868576E+02  0.22482766503E+02  0.00000000000E+00 0. -1.
</event>
<event>
 7    1  0.1830715E-013  0.7246156E+02  0.7816164E-02  0.1226708E+00
        -11   -1    0    0    0    0  0.00000000000E+00  0.00000000000E+00  0.45593999997E+02  0.45594000000E+02  0.51100000000E-03 0.  1.
         11   -1    0    0    0    0 -0.00000000000E+00 -0.00000000000E+00 -0.45593999997E+02  0.45594000000E+02  0.51100000000E-03 0. -1.
    9900012    2    1    2    0    0 -0.53152521537E+01 -0.17889221564E+02 -0.15503382385E+01  0.72461556070E+02  0.69999981470E+02 0.  0.
        -12    1    1    2    0    0  0.53152521537E+01  0.17889221564E+02  0.15503382385E+01  0.18726443930E+02  0.00000000000E+00 0.  1.
         11    1    3    3    0    0  0.95062715429E+01 -0.76295308254E+01 -0.18243414104E+02  0.21940854534E+02  0.51100000000E-03 0. -1.
        -11    1    3    3    0    0 -0.52269294780E+01 -0.26064198026E+02  0.17810508076E+02  0.31998084453E+02  0.51100000000E-03 0.  1.
         12    1    3    3    0    0 -0.95945942187E+01  0.15804507288E+02 -0.11174322103E+01  0.18522617082E+02  0.00000000000E+00 0. -1.
</event>
<event>
 7    1  0.1830715E-013  0.7246181E+02  0.7816164E-02  0.1226707E+00
        -11   -1    0    0    0    0  0.00000000000E+00  0.00000000000E+00  0.45593999997E+02  0.45594000000E+02  0.51100000000E-03 0.  1.
         11   -1    0    0    0    0 -0.00000000000E+00 -0.00000000000E+00 -0.45593999997E+02  0.45594000000E+02  0.51100000000E-03 0. -1.
    9900012    2    1    2    0    0  0.81933714690E+00  0.88331420220E+01 -0.16491645656E+02  0.72461812780E+02  0.70000315882E+02 0.  0.
        -12    1    1    2    0    0 -0.81933714690E+00 -0.88331420220E+01  0.16491645656E+02  0.18726187220E+02  0.00000000000E+00 0.  1.
         11    1    3    3    0    0 -0.20455761128E+02  0.88185601150E+01 -0.52300486857E+01  0.22881402390E+02  0.51100000000E-03 0. -1.
        -11    1    3    3    0    0  0.20082507999E+02 -0.19094182681E+02 -0.12488859415E+02  0.30395173129E+02  0.51100000000E-03 0.  1.
         12    1    3    3    0    0  0.11925902752E+01  0.19108764588E+02  0.12272624445E+01  0.19185237261E+02  0.00000000000E+00 0. -1.
</event>
<event>
 7    1  0.1830715E-013  0.7246159E+02  0.7816164E-02  0.1226708E+00
        -11   -1    0    0    0    0  0.00000000000E+00  0.00000000000E+00  0.45593999997E+02  0.45594000000E+02  0.51100000000E-03 0.  1.
         11   -1    0    0    0    0 -0.00000000000E+00 -0.00000000000E+00 -0.45593999997E+02  0.45594000000E+02  0.51100000000E-03 0. -1.
    9900012    2    1    2    0    0 -0.14302901123E+01 -0.15426995837E+02 -0.10518584699E+02  0.72461586717E+02  0.70000021394E+02 0.  0.
        -12    1    1    2    0    0  0.14302901123E+01  0.15426995837E+02  0.10518584699E+02  0.18726413283E+02  0.00000000000E+00 0.  1.
         11    1    3    3    0    0  0.33139374324E+01  0.93814648012E+00 -0.11372887804E+02  0.11882965850E+02  0.51100000000E-03 0. -1.
        -11    1    3    3    0    0 -0.19082323440E+02 -0.33010521118E+02  0.41857295940E+01  0.38358179113E+02  0.51100000000E-03 0.  1.
        -12    1    3    3    0    0  0.14338095896E+02  0.16645378801E+02 -0.33314264892E+01  0.22220441755E+02  0.00000000000E+00 0.  1.
</event>
<event>
 7    1  0.1830715E-013  0.7246151E+02  0.7816164E-02  0.1226708E+00
        -11   -1    0    0    0    0  0.00000000000E+00  0.00000000000E+00  0.45593999997E+02  0.45594000000E+02  0.51100000000E-03 0.  1.
         11   -1    0    0    0    0 -0.00000000000E+00 -0.00000000000E+00 -0.45593999997E+02  0.45594000000E+02  0.51100000000E-03 0. -1.
    9900012    2    1    2    0    0  0.58730236728E+01 -0.98016575377E+01 -0.14836320271E+02  0.72461513497E+02  0.69999926011E+02 0.  0.
        -12    1    1    2    0    0 -0.58730236728E+01  0.98016575377E+01  0.14836320271E+02  0.18726486503E+02  0.00000000000E+00 0.  1.
         11    1    3    3    0    0  0.65036538772E+01 -0.56898610402E+01 -0.78848936286E+01  0.11698016080E+02  0.51100000000E-03 0. -1.
        -11    1    3    3    0    0 -0.17551000047E+02  0.21505650143E+02 -0.10875192035E+02  0.29812755539E+02  0.51100000000E-03 0.  1.
        -12    1    3    3    0    0  0.16920369843E+02 -0.25617446640E+02  0.39237653929E+01  0.30950741879E+02  0.00000000000E+00 0.  1.
</event>
<event>
 7    1  0.1830715E-013  0.7246157E+02  0.7816164E-02  0.1226708E+00
        -11   -1    0    0    0    0  0.00000000000E+00  0.00000000000E+00  0.45593999997E+02  0.45594000000E+02  0.51100000000E-03 0.  1.
         11   -1    0    0    0    0 -0.00000000000E+00 -0.00000000000E+00 -0.45593999997E+02  0.45594000000E+02  0.51100000000E-03 0. -1.
    9900012    2    1    2    0    0 -0.60976423555E+01  0.16369704327E+02 -0.67476385025E+01  0.72461572487E+02  0.70000002856E+02 0.  0.
        -12    1    1    2    0    0  0.60976423555E+01 -0.16369704327E+02  0.67476385025E+01  0.18726427513E+02  0.00000000000E+00 0.  1.
         11    1    3    3    0    0 -0.20763976168E+02 -0.31290142429E+01  0.79082152196E+01  0.22438210817E+02  0.51100000000E-03 0. -1.
        -11    1    3    3    0    0  0.12981651647E+02  0.16196572975E+02 -0.28744265086E+02  0.35455394952E+02  0.51100000000E-03 0.  1.
         12    1    3    3    0    0  0.16846821655E+01  0.33021455953E+01  0.14088411364E+02  0.14567966718E+02  0.00000000000E+00 0. -1.
</event>
<event>
 7    1  0.1830715E-013  0.7246154E+02  0.7816164E-02  0.1226708E+00
        -11   -1    0    0    0    0  0.00000000000E+00  0.00000000000E+00  0.45593999997E+02  0.45594000000E+02  0.51100000000E-03 0. -1.
         11   -1    0    0    0    0 -0.00000000000E+00 -0.00000000000E+00 -0.45593999997E+02  0.45594000000E+02  0.51100000000E-03 0.  1.
    9900012    2    1    2    0    0  0.68712243979E+01  0.32469219352E+01  0.17115024358E+02  0.72461540496E+02  0.69999961182E+02 0.  0.
        -12    1    1    2    0    0 -0.68712243979E+01 -0.32469219352E+01 -0.17115024358E+02  0.18726459504E+02  0.00000000000E+00 0.  1.
         11    1    3    3    0    0  0.77713998851E+01  0.18833341350E+02  0.31167155973E+02  0.37235480584E+02  0.51100000000E-03 0. -1.
        -11    1    3    3    0    0 -0.65937959342E+01  0.53059611211E+01 -0.10162370574E+02  0.13225170856E+02  0.51100000000E-03 0.  1.
         12    1    3    3    0    0  0.56936204470E+01 -0.20892380536E+02 -0.38897610414E+01  0.22000889055E+02  0.00000000000E+00 0. -1.
</event>
<event>
 7    1  0.1830715E-013  0.7246153E+02  0.7816164E-02  0.1226708E+00
        -11   -1    0    0    0    0  0.00000000000E+00  0.00000000000E+00  0.45593999997E+02  0.45594000000E+02  0.51100000000E-03 0. -1.
         11   -1    0    0    0    0 -0.00000000000E+00 -0.00000000000E+00 -0.45593999997E+02  0.45594000000E+02  0.51100000000E-03 0.  1.
    9900012    2    1    2    0    0 -0.11706211499E+02  0.11500485275E+02  0.90213202021E+01  0.72461527630E+02  0.69999944422E+02 0.  0.
        -12    1    1    2    0    0  0.11706211499E+02 -0.11500485275E+02 -0.90213202021E+01  0.18726472370E+02  0.00000000000E+00 0.  1.
         11    1    3    3    0    0  0.47472626565E+01  0.88771080874E+01 -0.50400846222E+01  0.11257975128E+02  0.51100000000E-03 0. -1.
        -11    1    3    3    0    0 -0.37694547493E+02  0.47435322577E+01  0.64200303226E+01  0.38530465850E+02  0.51100000000E-03 0.  1.
        -12    1    3    3    0    0  0.21241073337E+02 -0.21201550696E+01  0.76413745017E+01  0.22673086652E+02  0.00000000000E+00 0.  1.
</event>
<event>
 7    1  0.1830715E-013  0.7246153E+02  0.7816164E-02  0.1226708E+00
        -11   -1    0    0    0    0  0.00000000000E+00  0.00000000000E+00  0.45593999997E+02  0.45594000000E+02  0.51100000000E-03 0.  1.
         11   -1    0    0    0    0 -0.00000000000E+00 -0.00000000000E+00 -0.45593999997E+02  0.45594000000E+02  0.51100000000E-03 0. -1.
    9900012    2    1    2    0    0  0.14989828222E+00  0.17730816492E+02 -0.60229754534E+01  0.72461533268E+02  0.69999951766E+02 0.  0.
        -12    1    1    2    0    0 -0.14989828222E+00 -0.17730816492E+02  0.60229754534E+01  0.18726466732E+02  0.00000000000E+00 0.  1.
         11    1    3    3    0    0 -0.60316135578E+01  0.14062135128E+01 -0.18931620136E+02  0.19918936713E+02  0.51100000000E-03 0. -1.
        -11    1    3    3    0    0  0.19697062430E+02 -0.44885159528E+01  0.18173908358E+02  0.27173737121E+02  0.51100000000E-03 0.  1.
        -12    1    3    3    0    0 -0.13515550590E+02  0.20813118932E+02 -0.52652636753E+01  0.25368859434E+02  0.00000000000E+00 0.  1.
</event>
<event>
 7    1  0.1830715E-013  0.7246169E+02  0.7816164E-02  0.1226708E+00
        -11   -1    0    0    0    0  0.00000000000E+00  0.00000000000E+00  0.45593999997E+02  0.45594000000E+02  0.51100000000E-03 0. -1.
         11   -1    0    0    0    0 -0.00000000000E+00 -0.00000000000E+00 -0.45593999997E+02  0.45594000000E+02  0.51100000000E-03 0.  1.
    9900012    2    1    2    0    0 -0.16077694933E+01  0.36173196944E-02  0.18657161957E+02  0.72461691552E+02  0.70000157960E+02 0.  0.
        -12    1    1    2    0    0  0.16077694933E+01 -0.36173196944E-02 -0.18657161957E+02  0.18726308448E+02  0.00000000000E+00 0.  1.
         11    1    3    3    0    0  0.30265365472E+00  0.31016048821E+02  0.25664628675E+02  0.40258664272E+02  0.51100000000E-03 0. -1.
        -11    1    3    3    0    0 -0.53774427868E+00 -0.18305812717E+02 -0.17987718522E+01  0.18401834924E+02  0.51100000000E-03 0.  1.
         12    1    3    3    0    0 -0.13726788693E+01 -0.12706618785E+02 -0.52086948662E+01  0.13801192356E+02  0.00000000000E+00 0. -1.
</event>
<event>
 7    1  0.1830715E-013  0.7246158E+02  0.7816164E-02  0.1226708E+00
        -11   -1    0    0    0    0  0.00000000000E+00  0.00000000000E+00  0.45593999997E+02  0.45594000000E+02  0.51100000000E-03 0. -1.
         11   -1    0    0    0    0 -0.00000000000E+00 -0.00000000000E+00 -0.45593999997E+02  0.45594000000E+02  0.51100000000E-03 0.  1.
    9900012    2    1    2    0    0  0.12776564245E+02  0.67861510875E+01  0.11890600939E+02  0.72461579328E+02  0.70000011768E+02 0.  0.
        -12    1    1    2    0    0 -0.12776564245E+02 -0.67861510875E+01 -0.11890600939E+02  0.18726420672E+02  0.00000000000E+00 0.  1.
         11    1    3    3    0    0  0.20536319312E+02 -0.13866571397E+02 -0.10760526223E+01  0.24802824490E+02  0.51100000000E-03 0. -1.
        -11    1    3    3    0    0 -0.15821368908E+02  0.12928808336E+02  0.24300993880E+02  0.31749143342E+02  0.51100000000E-03 0.  1.
        -12    1    3    3    0    0  0.80616138413E+01  0.77239141488E+01 -0.11334340318E+02  0.15909611496E+02  0.00000000000E+00 0.  1.
</event>
<event>
 7    1  0.1830715E-013  0.7246155E+02  0.7816164E-02  0.1226708E+00
        -11   -1    0    0    0    0  0.00000000000E+00  0.00000000000E+00  0.45593999997E+02  0.45594000000E+02  0.51100000000E-03 0.  1.
         11   -1    0    0    0    0 -0.00000000000E+00 -0.00000000000E+00 -0.45593999997E+02  0.45594000000E+02  0.51100000000E-03 0. -1.
    9900012    2    1    2    0    0 -0.52001875798E+01 -0.11122845732E+02 -0.14139320225E+02  0.72461547468E+02  0.69999970264E+02 0.  0.
        -12    1    1    2    0    0  0.52001875798E+01  0.11122845732E+02  0.14139320225E+02  0.18726452532E+02  0.00000000000E+00 0.  1.
         11    1    3    3    0    0 -0.32732752785E+01 -0.73458668988E+01 -0.28447089384E+01  0.85304431742E+01  0.51100000000E-03 0. -1.
        -11    1    3    3    0    0 -0.14077450605E+02  0.24672793585E+02  0.51911283252E+01  0.28876792972E+02  0.51100000000E-03 0.  1.
        -12    1    3    3    0    0  0.12150538304E+02 -0.28449772417E+02 -0.16485739611E+02  0.35054311321E+02  0.00000000000E+00 0.  1.
</event>
<event>
 7    1  0.1830715E-013  0.7246162E+02  0.7816164E-02  0.1226708E+00
        -11   -1    0    0    0    0  0.00000000000E+00  0.00000000000E+00  0.45593999997E+02  0.45594000000E+02  0.51100000000E-03 0.  1.
         11   -1    0    0    0    0 -0.00000000000E+00 -0.00000000000E+00 -0.45593999997E+02  0.45594000000E+02  0.51100000000E-03 0. -1.
    9900012    2    1    2    0    0 -0.43159047781E+01 -0.58845269277E+01 -0.17245948609E+02  0.72461616616E+02  0.70000060343E+02 0.  0.
        -12    1    1    2    0    0  0.43159047781E+01  0.58845269277E+01  0.17245948609E+02  0.18726383384E+02  0.00000000000E+00 0.  1.
         11    1    3    3    0    0  0.88379440866E+01  0.52506599007E+01 -0.11023525830E+02  0.15073049030E+02  0.51100000000E-03 0. -1.
        -11    1    3    3    0    0 -0.34346095934E+02 -0.86576805052E+01 -0.10599064439E+01  0.35436325142E+02  0.51100000000E-03 0.  1.
        -12    1    3    3    0    0  0.21192247069E+02 -0.24775063231E+01 -0.51625163353E+01  0.21952242444E+02  0.00000000000E+00 0.  1.
</event>
<event>
 7    1  0.1830715E-013  0.7246157E+02  0.7816164E-02  0.1226708E+00
        -11   -1    0    0    0    0  0.00000000000E+00  0.00000000000E+00  0.45593999997E+02  0.45594000000E+02  0.51100000000E-03 0. -1.
         11   -1    0    0    0    0 -0.00000000000E+00 -0.00000000000E+00 -0.45593999997E+02  0.45594000000E+02  0.51100000000E-03 0.  1.
    9900012    2    1    2    0    0 -0.57105020361E+01 -0.33560648346E+01  0.17515883507E+02  0.72461570022E+02  0.69999999646E+02 0.  0.
        -12    1    1    2    0    0  0.57105020361E+01  0.33560648346E+01 -0.17515883507E+02  0.18726429978E+02  0.00000000000E+00 0.  1.
         11    1    3    3    0    0 -0.19833423001E+02 -0.13183625020E+02  0.29675994073E+02  0.38050456779E+02  0.51100000000E-03 0. -1.
        -11    1    3    3    0    0  0.13223045505E+02  0.10773323684E+02 -0.20101839262E+02  0.26362802917E+02  0.51100000000E-03 0.  1.
        -12    1    3    3    0    0  0.89987545932E+00 -0.94576349940E+00  0.79417286959E+01  0.80483103269E+01  0.00000000000E+00 0.  1.
</event>
<event>
 7    1  0.1830715E-013  0.7246158E+02  0.7816164E-02  0.1226708E+00
        -11   -1    0    0    0    0  0.00000000000E+00  0.00000000000E+00  0.45593999997E+02  0.45594000000E+02  0.51100000000E-03 0. -1.
         11   -1    0    0    0    0 -0.00000000000E+00 -0.00000000000E+00 -0.45593999997E+02  0.45594000000E+02  0.51100000000E-03 0.  1.
    9900012    2    1    2    0    0 -0.36097050742E+01 -0.18321629094E+02 -0.14023947590E+01  0.72461580843E+02  0.70000013742E+02 0.  0.
        -12    1    1    2    0    0  0.36097050742E+01  0.18321629094E+02  0.14023947590E+01  0.18726419157E+02  0.00000000000E+00 0.  1.
         11    1    3    3    0    0  0.44874724262E+01 -0.34388202344E+02  0.16411919926E+02  0.38367134180E+02  0.51100000000E-03 0. -1.
        -11    1    3    3    0    0  0.79305306744E+01  0.45261895182E+01 -0.38685113803E+01  0.99169092409E+01  0.51100000000E-03 0.  1.
         12    1    3    3    0    0 -0.16027708175E+02  0.11540383732E+02 -0.13945803304E+02  0.24177537423E+02  0.00000000000E+00 0. -1.
</event>
<event>
 7    1  0.1830715E-013  0.7246160E+02  0.7816164E-02  0.1226708E+00
        -11   -1    0    0    0    0  0.00000000000E+00  0.00000000000E+00  0.45593999997E+02  0.45594000000E+02  0.51100000000E-03 0. -1.
         11   -1    0    0    0    0 -0.00000000000E+00 -0.00000000000E+00 -0.45593999997E+02  0.45594000000E+02  0.51100000000E-03 0.  1.
    9900012    2    1    2    0    0 -0.14528288603E+02 -0.11658002964E+02 -0.19230290897E+01  0.72461595014E+02  0.70000032201E+02 0.  0.
        -12    1    1    2    0    0  0.14528288603E+02  0.11658002964E+02  0.19230290897E+01  0.18726404986E+02  0.00000000000E+00 0.  1.
         11    1    3    3    0    0 -0.12734997929E+02 -0.34967912870E+02 -0.82926161852E+00  0.37223954355E+02  0.51100000000E-03 0. -1.
        -11    1    3    3    0    0 -0.14054355714E+02  0.12956796787E+02 -0.15985433215E+01  0.19182253219E+02  0.51100000000E-03 0.  1.
         12    1    3    3    0    0  0.12261065040E+02  0.10353113119E+02  0.50477585028E+00  0.16055387440E+02  0.00000000000E+00 0. -1.
</event>
<event>
 7    1  0.1830715E-013  0.7246180E+02  0.7816164E-02  0.1226707E+00
        -11   -1    0    0    0    0  0.00000000000E+00  0.00000000000E+00  0.45593999997E+02  0.45594000000E+02  0.51100000000E-03 0. -1.
         11   -1    0    0    0    0 -0.00000000000E+00 -0.00000000000E+00 -0.45593999997E+02  0.45594000000E+02  0.51100000000E-03 0.  1.
    9900012    2    1    2    0    0  0.82006669207E+01  0.16486880542E+02  0.34062368010E+01  0.72461798648E+02  0.70000297472E+02 0.  0.
        -12    1    1    2    0    0 -0.82006669207E+01 -0.16486880542E+02 -0.34062368010E+01  0.18726201352E+02  0.00000000000E+00 0.  1.
         11    1    3    3    0    0  0.12956371704E+02  0.33145488720E+02  0.62884801460E+00  0.35593348259E+02  0.51100000000E-03 0. -1.
        -11    1    3    3    0    0 -0.38354598934E+01 -0.21418113299E+01 -0.13994351301E+02  0.14667650697E+02  0.51100000000E-03 0.  1.
         12    1    3    3    0    0 -0.92024488989E+00 -0.14516796848E+02  0.16771740088E+02  0.22200799692E+02  0.00000000000E+00 0. -1.
</event>
<event>
 7    1  0.1830715E-013  0.7246159E+02  0.7816164E-02  0.1226708E+00
        -11   -1    0    0    0    0  0.00000000000E+00  0.00000000000E+00  0.45593999997E+02  0.45594000000E+02  0.51100000000E-03 0.  1.
         11   -1    0    0    0    0 -0.00000000000E+00 -0.00000000000E+00 -0.45593999997E+02  0.45594000000E+02  0.51100000000E-03 0. -1.
    9900012    2    1    2    0    0  0.68090191137E+01 -0.58760593512E+01 -0.16425213344E+02  0.72461589554E+02  0.70000025090E+02 0.  0.
        -12    1    1    2    0    0 -0.68090191137E+01  0.58760593512E+01  0.16425213344E+02  0.18726410446E+02  0.00000000000E+00 0.  1.
         11    1    3    3    0    0  0.73699667848E+01 -0.36685522184E+01 -0.80328456657E-01  0.82329301412E+01  0.51100000000E-03 0. -1.
        -11    1    3    3    0    0  0.76789231849E+01  0.23738627896E+02 -0.25336766486E+02  0.35558965844E+02  0.51100000000E-03 0.  1.
        -12    1    3    3    0    0 -0.82398708560E+01 -0.25946135029E+02  0.89918815989E+01  0.28669693569E+02  0.00000000000E+00 0.  1.
</event>
<event>
 7    1  0.1830715E-013  0.7246156E+02  0.7816164E-02  0.1226708E+00
        -11   -1    0    0    0    0  0.00000000000E+00  0.00000000000E+00  0.45593999997E+02  0.45594000000E+02  0.51100000000E-03 0.  1.
         11   -1    0    0    0    0 -0.00000000000E+00 -0.00000000000E+00 -0.45593999997E+02  0.45594000000E+02  0.51100000000E-03 0. -1.
    9900012    2    1    2    0    0 -0.46749997892E+01 -0.18039629744E+02 -0.18427891142E+01  0.72461555168E+02  0.69999980296E+02 0.  0.
        -12    1    1    2    0    0  0.46749997892E+01  0.18039629744E+02  0.18427891142E+01  0.18726444832E+02  0.00000000000E+00 0.  1.
         11    1    3    3    0    0 -0.28350268201E+02 -0.25594314660E+01  0.16540368971E+01  0.28513579831E+02  0.51100000000E-03 0.  1.
        -11    1    3    3    0    0  0.19680700264E+02 -0.51337461545E+01 -0.16975765279E+02  0.26492676715E+02  0.51100000000E-03 0. -1.
        -12    1    3    3    0    0  0.39945681477E+01 -0.10346452123E+02  0.13478939268E+02  0.17455298622E+02  0.00000000000E+00 0.  1.
</event>
<event>
 7    1  0.1830715E-013  0.7246159E+02  0.7816164E-02  0.1226708E+00
        -11   -1    0    0    0    0  0.00000000000E+00  0.00000000000E+00  0.45593999997E+02  0.45594000000E+02  0.51100000000E-03 0.  1.
         11   -1    0    0    0    0 -0.00000000000E+00 -0.00000000000E+00 -0.45593999997E+02  0.45594000000E+02  0.51100000000E-03 0. -1.
    9900012    2    1    2    0    0 -0.10134391254E+02  0.11862857993E+02 -0.10355925738E+02  0.72461588605E+02  0.70000023853E+02 0.  0.
        -12    1    1    2    0    0  0.10134391254E+02 -0.11862857993E+02  0.10355925738E+02  0.18726411395E+02  0.00000000000E+00 0.  1.
         11    1    3    3    0    0 -0.30442019406E+02  0.16410378651E+02 -0.14356469413E+02  0.37444963443E+02  0.51100000000E-03 0. -1.
        -11    1    3    3    0    0  0.18507215980E+02 -0.66333628507E+01  0.14328491653E+02  0.24327437583E+02  0.51100000000E-03 0.  1.
        -12    1    3    3    0    0  0.18004121718E+01  0.20858421924E+01 -0.10327947979E+02  0.10689187578E+02  0.00000000000E+00 0.  1.
</event>
<event>
 7    1  0.1830715E-013  0.7246165E+02  0.7816164E-02  0.1226708E+00
        -11   -1    0    0    0    0  0.00000000000E+00  0.00000000000E+00  0.45593999997E+02  0.45594000000E+02  0.51100000000E-03 0. -1.
         11   -1    0    0    0    0 -0.00000000000E+00 -0.00000000000E+00 -0.45593999997E+02  0.45594000000E+02  0.51100000000E-03 0.  1.
    9900012    2    1    2    0    0 -0.60324282501E+01  0.60786244022E+01  0.16653413086E+02  0.72461654050E+02  0.70000109107E+02 0.  0.
        -12    1    1    2    0    0  0.60324282501E+01 -0.60786244022E+01 -0.16653413086E+02  0.18726345950E+02  0.00000000000E+00 0.  1.
         11    1    3    3    0    0  0.62654907353E+01  0.33601195307E+02  0.84744921982E+01  0.35215248381E+02  0.51100000000E-03 0. -1.
        -11    1    3    3    0    0 -0.17930757746E+02 -0.19855930701E+02  0.70427179123E+01  0.27665320045E+02  0.51100000000E-03 0.  1.
         12    1    3    3    0    0  0.56328387610E+01 -0.76666402047E+01  0.11362029759E+01  0.95810856242E+01  0.00000000000E+00 0. -1.
</event>
<event>
 7    1  0.1830715E-013  0.7246151E+02  0.7816164E-02  0.1226708E+00
        -11   -1    0    0    0    0  0.00000000000E+00  0.00000000000E+00  0.45593999997E+02  0.45594000000E+02  0.51100000000E-03 0.  1.
         11   -1    0    0    0    0 -0.00000000000E+00 -0.00000000000E+00 -0.45593999997E+02  0.45594000000E+02  0.51100000000E-03 0. -1.
    9900012    2    1    2    0    0 -0.44772457959E+01 -0.12612220107E+02 -0.13098381660E+02  0.72461509991E+02  0.69999921443E+02 0.  0.
        -12    1    1    2    0    0  0.44772457959E+01  0.12612220107E+02  0.13098381660E+02  0.18726490009E+02  0.00000000000E+00 0.  1.
         11    1    3    3    0    0 -0.78105258404E+01 -0.21068407665E+02 -0.82904171531E+01  0.23950221967E+02  0.51100000000E-03 0. -1.
        -11    1    3    3    0    0 -0.84284265556E+01  0.25676150011E+02 -0.57796186962E+01  0.27635250064E+02  0.51100000000E-03 0.  1.
        -12    1    3    3    0    0  0.11761706600E+02 -0.17219962453E+02  0.97165418929E+00  0.20876037959E+02  0.00000000000E+00 0.  1.
</event>
<event>
 7    1  0.1830715E-013  0.7246154E+02  0.7816164E-02  0.1226708E+00
        -11   -1    0    0    0    0  0.00000000000E+00  0.00000000000E+00  0.45593999997E+02  0.45594000000E+02  0.51100000000E-03 0.  1.
         11   -1    0    0    0    0 -0.00000000000E+00 -0.00000000000E+00 -0.45593999997E+02  0.45594000000E+02  0.51100000000E-03 0. -1.
    9900012    2    1    2    0    0 -0.11506099152E+02 -0.78335392126E+01  0.12526992998E+02  0.72461542570E+02  0.69999963885E+02 0.  0.
        -12    1    1    2    0    0  0.11506099152E+02  0.78335392126E+01 -0.12526992998E+02  0.18726457430E+02  0.00000000000E+00 0.  1.
         11    1    3    3    0    0  0.19248871395E+00 -0.25086672268E+02 -0.14559734934E+02  0.29006276200E+02  0.51100000000E-03 0. -1.
        -11    1    3    3    0    0 -0.24547220684E+01  0.42105316064E+01  0.27033138519E+02  0.27468979145E+02  0.51100000000E-03 0.  1.
         12    1    3    3    0    0 -0.92438657974E+01  0.13042601449E+02  0.53589413148E-01  0.15986287225E+02  0.00000000000E+00 0. -1.
</event>
<event>
 7    1  0.1830715E-013  0.7246158E+02  0.7816164E-02  0.1226708E+00
        -11   -1    0    0    0    0  0.00000000000E+00  0.00000000000E+00  0.45593999997E+02  0.45594000000E+02  0.51100000000E-03 0. -1.
         11   -1    0    0    0    0 -0.00000000000E+00 -0.00000000000E+00 -0.45593999997E+02  0.45594000000E+02  0.51100000000E-03 0.  1.
    9900012    2    1    2    0    0 -0.56023546451E+00 -0.16707497550E+02  0.84394681469E+01  0.72461575868E+02  0.70000007261E+02 0.  0.
        -12    1    1    2    0    0  0.56023546451E+00  0.16707497550E+02 -0.84394681469E+01  0.18726424132E+02  0.00000000000E+00 0.  1.
         11    1    3    3    0    0  0.20151930416E+01  0.24469083309E+02  0.10492423491E+02  0.26699962396E+02  0.51100000000E-03 0. -1.
        -11    1    3    3    0    0 -0.71316691305E+01 -0.12139042596E+02 -0.73706698418E+01  0.15891627793E+02  0.51100000000E-03 0.  1.
         12    1    3    3    0    0  0.45562406245E+01 -0.29037538263E+02  0.53177144976E+01  0.29869985679E+02  0.00000000000E+00 0. -1.
</event>
<event>
 7    1  0.1830715E-013  0.7246158E+02  0.7816164E-02  0.1226708E+00
        -11   -1    0    0    0    0  0.00000000000E+00  0.00000000000E+00  0.45593999997E+02  0.45594000000E+02  0.51100000000E-03 0.  1.
         11   -1    0    0    0    0 -0.00000000000E+00 -0.00000000000E+00 -0.45593999997E+02  0.45594000000E+02  0.51100000000E-03 0. -1.
    9900012    2    1    2    0    0 -0.14940900621E+02  0.10461745381E+02 -0.42426493070E+01  0.72461582806E+02  0.70000016298E+02 0.  0.
        -12    1    1    2    0    0  0.14940900621E+02 -0.10461745381E+02  0.42426493070E+01  0.18726417194E+02  0.00000000000E+00 0.  1.
         11    1    3    3    0    0 -0.17264622570E+02  0.29445485620E+02 -0.17945598914E+02  0.38563562290E+02  0.51100000000E-03 0. -1.
        -11    1    3    3    0    0 -0.64882476541E+01 -0.14459473189E+02  0.17204655891E+02  0.23391748697E+02  0.51100000000E-03 0.  1.
        -12    1    3    3    0    0  0.88119696029E+01 -0.45242670493E+01 -0.35017062843E+01  0.10506271818E+02  0.00000000000E+00 0.  1.
</event>
<event>
 7    1  0.1830715E-013  0.7246149E+02  0.7816164E-02  0.1226708E+00
        -11   -1    0    0    0    0  0.00000000000E+00  0.00000000000E+00  0.45593999997E+02  0.45594000000E+02  0.51100000000E-03 0. -1.
         11   -1    0    0    0    0 -0.00000000000E+00 -0.00000000000E+00 -0.45593999997E+02  0.45594000000E+02  0.51100000000E-03 0.  1.
    9900012    2    1    2    0    0 -0.16137302433E+02  0.49493348170E+01  0.81101069567E+01  0.72461487249E+02  0.69999891818E+02 0.  0.
        -12    1    1    2    0    0  0.16137302433E+02 -0.49493348170E+01 -0.81101069567E+01  0.18726512751E+02  0.00000000000E+00 0.  1.
         11    1    3    3    0    0  0.30277991988E+01  0.15409404835E+02  0.16733586296E+02  0.22948425566E+02  0.51100000000E-03 0. -1.
        -11    1    3    3    0    0 -0.28890174295E+02 -0.60453806152E+01  0.72385508898E+01  0.30390548150E+02  0.51100000000E-03 0.  1.
         12    1    3    3    0    0  0.97250726633E+01 -0.44146894027E+01 -0.15862030230E+02  0.19122513533E+02  0.00000000000E+00 0. -1.
</event>
<event>
 7    1  0.1830715E-013  0.7246155E+02  0.7816164E-02  0.1226708E+00
        -11   -1    0    0    0    0  0.00000000000E+00  0.00000000000E+00  0.45593999997E+02  0.45594000000E+02  0.51100000000E-03 0.  1.
         11   -1    0    0    0    0 -0.00000000000E+00 -0.00000000000E+00 -0.45593999997E+02  0.45594000000E+02  0.51100000000E-03 0. -1.
    9900012    2    1    2    0    0 -0.16135788193E+02 -0.38309916621E+01 -0.86971074355E+01  0.72461552513E+02  0.69999976837E+02 0.  0.
        -12    1    1    2    0    0  0.16135788193E+02  0.38309916621E+01  0.86971074355E+01  0.18726447487E+02  0.00000000000E+00 0.  1.
         11    1    3    3    0    0 -0.20236411504E+02 -0.27952689688E+00 -0.65956105539E+01  0.21285971077E+02  0.51100000000E-03 0. -1.
        -11    1    3    3    0    0  0.91745501123E+00  0.15243379882E+02  0.17910923605E+02  0.23537279761E+02  0.51100000000E-03 0.  1.
        -12    1    3    3    0    0  0.31831682997E+01 -0.18794844647E+02 -0.20012420487E+02  0.27638301675E+02  0.00000000000E+00 0.  1.
</event>
<event>
 7    1  0.1830715E-013  0.7246161E+02  0.7816164E-02  0.1226708E+00
        -11   -1    0    0    0    0  0.00000000000E+00  0.00000000000E+00  0.45593999997E+02  0.45594000000E+02  0.51100000000E-03 0.  1.
         11   -1    0    0    0    0 -0.00000000000E+00 -0.00000000000E+00 -0.45593999997E+02  0.45594000000E+02  0.51100000000E-03 0. -1.
    9900012    2    1    2    0    0  0.17858612211E+02 -0.41225899904E+01  0.38408280193E+01  0.72461608511E+02  0.70000049784E+02 0.  0.
        -12    1    1    2    0    0 -0.17858612211E+02  0.41225899904E+01 -0.38408280193E+01  0.18726391489E+02  0.00000000000E+00 0.  1.
         11    1    3    3    0    0  0.18519926990E+02  0.12465951452E+01 -0.21947910555E+02  0.28744607723E+02  0.51100000000E-03 0. -1.
        -11    1    3    3    0    0 -0.64022110058E+01  0.91910466472E+01  0.25733700966E+02  0.28065762237E+02  0.51100000000E-03 0.  1.
         12    1    3    3    0    0  0.57408962270E+01 -0.14560231783E+02  0.55037607683E-01  0.15651238552E+02  0.00000000000E+00 0. -1.
</event>
<event>
 7    1  0.1830715E-013  0.7246158E+02  0.7816164E-02  0.1226708E+00
        -11   -1    0    0    0    0  0.00000000000E+00  0.00000000000E+00  0.45593999997E+02  0.45594000000E+02  0.51100000000E-03 0. -1.
         11   -1    0    0    0    0 -0.00000000000E+00 -0.00000000000E+00 -0.45593999997E+02  0.45594000000E+02  0.51100000000E-03 0.  1.
    9900012    2    1    2    0    0 -0.91049086137E+01  0.42260570512E+01  0.15808849583E+02  0.72461584320E+02  0.70000018271E+02 0.  0.
        -12    1    1    2    0    0  0.91049086137E+01 -0.42260570512E+01 -0.15808849583E+02  0.18726415680E+02  0.00000000000E+00 0.  1.
         11    1    3    3    0    0 -0.86438445585E+01  0.30301970679E+02  0.11922961696E+02  0.33690985317E+02  0.51100000000E-03 0. -1.
        -11    1    3    3    0    0  0.81706239665E+01 -0.43103812843E+01 -0.82609090350E+01  0.12392784238E+02  0.51100000000E-03 0.  1.
         12    1    3    3    0    0 -0.86316880217E+01 -0.21765532344E+02  0.12146796922E+02  0.26377814765E+02  0.00000000000E+00 0. -1.
</event>
<event>
 7    1  0.1830715E-013  0.7246155E+02  0.7816164E-02  0.1226708E+00
        -11   -1    0    0    0    0  0.00000000000E+00  0.00000000000E+00  0.45593999997E+02  0.45594000000E+02  0.51100000000E-03 0. -1.
         11   -1    0    0    0    0 -0.00000000000E+00 -0.00000000000E+00 -0.45593999997E+02  0.45594000000E+02  0.51100000000E-03 0.  1.
    9900012    2    1    2    0    0 -0.84519863331E+01 -0.12731551225E+02  0.10823645037E+02  0.72461554489E+02  0.69999979411E+02 0.  0.
        -12    1    1    2    0    0  0.84519863331E+01  0.12731551225E+02 -0.10823645037E+02  0.18726445511E+02  0.00000000000E+00 0.  1.
         11    1    3    3    0    0  0.65439663193E+01 -0.52523634511E+01  0.28493026747E-01  0.83911637527E+01  0.51100000000E-03 0. -1.
        -11    1    3    3    0    0 -0.34893010460E+02 -0.92281704628E+01  0.20877746809E+02  0.41696062418E+02  0.51100000000E-03 0.  1.
        -12    1    3    3    0    0  0.19897057808E+02  0.17489826885E+01 -0.10082594798E+02  0.22374328319E+02  0.00000000000E+00 0.  1.
</event>
<event>
 7    1  0.1830715E-013  0.7246161E+02  0.7816164E-02  0.1226708E+00
        -11   -1    0    0    0    0  0.00000000000E+00  0.00000000000E+00  0.45593999997E+02  0.45594000000E+02  0.51100000000E-03 0.  1.
         11   -1    0    0    0    0 -0.00000000000E+00 -0.00000000000E+00 -0.45593999997E+02  0.45594000000E+02  0.51100000000E-03 0. -1.
    9900012    2    1    2    0    0 -0.51619008436E+00  0.46872632997E+01 -0.18122935371E+02  0.72461610174E+02  0.70000051951E+02 0.  0.
        -12    1    1    2    0    0  0.51619008436E+00 -0.46872632997E+01  0.18122935371E+02  0.18726389826E+02  0.00000000000E+00 0.  1.
         11    1    3    3    0    0  0.14196997052E+00  0.28228042480E+02 -0.11717005050E+02  0.30563552563E+02  0.51100000000E-03 0. -1.
        -11    1    3    3    0    0  0.14150697450E+02 -0.17152256590E+02  0.41535524422E+01  0.22620657430E+02  0.51100000000E-03 0.  1.
        -12    1    3    3    0    0 -0.14808857505E+02 -0.63885225903E+01 -0.10559482764E+02  0.19277400180E+02  0.00000000000E+00 0.  1.
</event>
<event>
 7    1  0.1830715E-013  0.7246159E+02  0.7816164E-02  0.1226708E+00
        -11   -1    0    0    0    0  0.00000000000E+00  0.00000000000E+00  0.45593999997E+02  0.45594000000E+02  0.51100000000E-03 0.  1.
         11   -1    0    0    0    0 -0.00000000000E+00 -0.00000000000E+00 -0.45593999997E+02  0.45594000000E+02  0.51100000000E-03 0. -1.
    9900012    2    1    2    0    0  0.15450665598E+02 -0.85928684196E+01  0.61739657602E+01  0.72461593289E+02  0.70000029954E+02 0.  0.
        -12    1    1    2    0    0 -0.15450665598E+02  0.85928684196E+01 -0.61739657602E+01  0.18726406711E+02  0.00000000000E+00 0.  1.
         11    1    3    3    0    0  0.20114842564E+02 -0.29382475664E+02 -0.10915724399E+02  0.37243654586E+02  0.51100000000E-03 0. -1.
        -11    1    3    3    0    0  0.79826058275E+01  0.13443359754E+02  0.12081027370E+02  0.19758470079E+02  0.51100000000E-03 0.  1.
         12    1    3    3    0    0 -0.12646782793E+02  0.73462474908E+01  0.50086627892E+01  0.15459468624E+02  0.00000000000E+00 0. -1.
</event>
<event>
 7    1  0.1830715E-013  0.7246155E+02  0.7816164E-02  0.1226708E+00
        -11   -1    0    0    0    0  0.00000000000E+00  0.00000000000E+00  0.45593999997E+02  0.45594000000E+02  0.51100000000E-03 0.  1.
         11   -1    0    0    0    0 -0.00000000000E+00 -0.00000000000E+00 -0.45593999997E+02  0.45594000000E+02  0.51100000000E-03 0. -1.
    9900012    2    1    2    0    0  0.16412881976E+01  0.85171818132E+01 -0.16596498192E+02  0.72461549049E+02  0.69999972324E+02 0.  0.
        -12    1    1    2    0    0 -0.16412881976E+01 -0.85171818132E+01  0.16596498192E+02  0.18726450951E+02  0.00000000000E+00 0.  1.
         11    1    3    3    0    0  0.14853729393E+02  0.26138331447E+02 -0.10174004360E+02  0.31738872266E+02  0.51100000000E-03 0. -1.
        -11    1    3    3    0    0  0.77888804898E+00 -0.23764894886E+02  0.86439822446E+00  0.23793362101E+02  0.51100000000E-03 0.  1.
         12    1    3    3    0    0 -0.13991329244E+02  0.61437452517E+01 -0.72868920564E+01  0.16929314681E+02  0.00000000000E+00 0. -1.
</event>
<event>
 7    1  0.1830715E-013  0.7246178E+02  0.7816164E-02  0.1226707E+00
        -11   -1    0    0    0    0  0.00000000000E+00  0.00000000000E+00  0.45593999997E+02  0.45594000000E+02  0.51100000000E-03 0.  1.
         11   -1    0    0    0    0 -0.00000000000E+00 -0.00000000000E+00 -0.45593999997E+02  0.45594000000E+02  0.51100000000E-03 0. -1.
    9900012    2    1    2    0    0 -0.15322596665E+02 -0.28419188906E+01 -0.10383300720E+02  0.72461777600E+02  0.70000270053E+02 0.  0.
        -12    1    1    2    0    0  0.15322596665E+02  0.28419188906E+01  0.10383300720E+02  0.18726222400E+02  0.00000000000E+00 0.  1.
         11    1    3    3    0    0  0.19847323937E+02  0.99623904523E+01 -0.80017309957E+01  0.23604939953E+02  0.51100000000E-03 0. -1.
        -11    1    3    3    0    0 -0.21320499922E+02 -0.25728660331E+01 -0.16100938928E+02  0.26840707725E+02  0.51100000000E-03 0.  1.
         12    1    3    3    0    0 -0.13849420680E+02 -0.10231443310E+02  0.13719369204E+02  0.22016129922E+02  0.00000000000E+00 0. -1.
</event>
<event>
 7    1  0.1830715E-013  0.7246114E+02  0.7816164E-02  0.1226709E+00
        -11   -1    0    0    0    0  0.00000000000E+00  0.00000000000E+00  0.45593999997E+02  0.45594000000E+02  0.51100000000E-03 0. -1.
         11   -1    0    0    0    0 -0.00000000000E+00 -0.00000000000E+00 -0.45593999997E+02  0.45594000000E+02  0.51100000000E-03 0.  1.
    9900012    2    1    2    0    0 -0.81263193606E+01  0.16871801149E+02 -0.26456818615E-01  0.72461135865E+02  0.69999434073E+02 0.  0.
        -12    1    1    2    0    0  0.81263193606E+01 -0.16871801149E+02  0.26456818615E-01  0.18726864135E+02  0.00000000000E+00 0.  1.
         11    1    3    3    0    0 -0.18449067182E+02  0.37796064674E+02  0.29754800254E+01  0.42163539538E+02  0.51100000000E-03 0. -1.
        -11    1    3    3    0    0 -0.38903347205E+01 -0.11784082518E+02 -0.47962067274E+01  0.13304243844E+02  0.51100000000E-03 0.  1.
         12    1    3    3    0    0  0.14213082542E+02 -0.91401810072E+01  0.17942698833E+01  0.16993352483E+02  0.00000000000E+00 0. -1.
</event>
<event>
 7    1  0.1830715E-013  0.7246161E+02  0.7816164E-02  0.1226708E+00
        -11   -1    0    0    0    0  0.00000000000E+00  0.00000000000E+00  0.45593999997E+02  0.45594000000E+02  0.51100000000E-03 0.  1.
         11   -1    0    0    0    0 -0.00000000000E+00 -0.00000000000E+00 -0.45593999997E+02  0.45594000000E+02  0.51100000000E-03 0. -1.
    9900012    2    1    2    0    0  0.11222664975E+02  0.70934189911E+01 -0.13206543751E+02  0.72461612201E+02  0.70000054592E+02 0.  0.
        -12    1    1    2    0    0 -0.11222664975E+02 -0.70934189911E+01  0.13206543751E+02  0.18726387799E+02  0.00000000000E+00 0.  1.
         11    1    3    3    0    0  0.41966393199E+01  0.13127787386E+02 -0.10411914918E+02  0.17273058668E+02  0.51100000000E-03 0. -1.
        -11    1    3    3    0    0 -0.17329957404E+02 -0.57740030951E+01  0.16110000600E+02  0.24355669872E+02  0.51100000000E-03 0.  1.
        -12    1    3    3    0    0  0.24355983059E+02 -0.26036529933E+00 -0.18904629433E+02  0.30832883661E+02  0.00000000000E+00 0.  1.
</event>
<event>
 7    1  0.1830715E-013  0.7246158E+02  0.7816164E-02  0.1226708E+00
        -11   -1    0    0    0    0  0.00000000000E+00  0.00000000000E+00  0.45593999997E+02  0.45594000000E+02  0.51100000000E-03 0.  1.
         11   -1    0    0    0    0 -0.00000000000E+00 -0.00000000000E+00 -0.45593999997E+02  0.45594000000E+02  0.51100000000E-03 0. -1.
    9900012    2    1    2    0    0  0.13951167751E+01  0.12109850436E+02  0.14215628636E+02  0.72461576799E+02  0.70000008473E+02 0.  0.
        -12    1    1    2    0    0 -0.13951167751E+01 -0.12109850436E+02 -0.14215628636E+02  0.18726423201E+02  0.00000000000E+00 0.  1.
         11    1    3    3    0    0  0.13340818351E+02 -0.21610005433E+02  0.96135627907E+01  0.27154932496E+02  0.51100000000E-03 0. -1.
        -11    1    3    3    0    0 -0.15337824475E+02  0.17855599874E+02  0.13157071801E+02  0.26966272362E+02  0.51100000000E-03 0.  1.
        -12    1    3    3    0    0  0.33921228987E+01  0.15864255995E+02 -0.85550059557E+01  0.18340371941E+02  0.00000000000E+00 0.  1.
</event>
<event>
 7    1  0.1830715E-013  0.7246156E+02  0.7816164E-02  0.1226708E+00
        -11   -1    0    0    0    0  0.00000000000E+00  0.00000000000E+00  0.45593999997E+02  0.45594000000E+02  0.51100000000E-03 0. -1.
         11   -1    0    0    0    0 -0.00000000000E+00 -0.00000000000E+00 -0.45593999997E+02  0.45594000000E+02  0.51100000000E-03 0.  1.
    9900012    2    1    2    0    0 -0.10442577856E+02  0.14515683395E+02  0.55611933920E+01  0.72461564978E+02  0.69999993075E+02 0.  0.
        -12    1    1    2    0    0  0.10442577856E+02 -0.14515683395E+02 -0.55611933920E+01  0.18726435022E+02  0.00000000000E+00 0.  1.
         11    1    3    3    0    0 -0.35365278431E+01 -0.70277539059E+01  0.32817180369E+02  0.33747054416E+02  0.51100000000E-03 0. -1.
        -11    1    3    3    0    0  0.27999883889E+01  0.30331388925E+01 -0.12407985215E+02  0.13076618978E+02  0.51100000000E-03 0.  1.
         12    1    3    3    0    0 -0.97060384016E+01  0.18510298408E+02 -0.14848001761E+02  0.25637891585E+02  0.00000000000E+00 0. -1.
</event>
<event>
 7    1  0.1830715E-013  0.7246157E+02  0.7816164E-02  0.1226708E+00
        -11   -1    0    0    0    0  0.00000000000E+00  0.00000000000E+00  0.45593999997E+02  0.45594000000E+02  0.51100000000E-03 0. -1.
         11   -1    0    0    0    0 -0.00000000000E+00 -0.00000000000E+00 -0.45593999997E+02  0.45594000000E+02  0.51100000000E-03 0.  1.
    9900012    2    1    2    0    0 -0.10639773734E+02 -0.15258042509E+02 -0.21602022674E+01  0.72461571613E+02  0.70000001717E+02 0.  0.
        -12    1    1    2    0    0  0.10639773734E+02  0.15258042509E+02  0.21602022674E+01  0.18726428387E+02  0.00000000000E+00 0.  1.
         11    1    3    3    0    0 -0.18473879085E+02 -0.13393131987E+02  0.16666062404E+02  0.28256288312E+02  0.51100000000E-03 0. -1.
        -11    1    3    3    0    0  0.51721433741E+01 -0.19340154127E+02 -0.17306362060E+02  0.26463234813E+02  0.51100000000E-03 0.  1.
         12    1    3    3    0    0  0.26619619771E+01  0.17475243604E+02 -0.15199026115E+01  0.17742048488E+02  0.00000000000E+00 0. -1.
</event>
<event>
 7    1  0.1830715E-013  0.7246169E+02  0.7816164E-02  0.1226708E+00
        -11   -1    0    0    0    0  0.00000000000E+00  0.00000000000E+00  0.45593999997E+02  0.45594000000E+02  0.51100000000E-03 0. -1.
         11   -1    0    0    0    0 -0.00000000000E+00 -0.00000000000E+00 -0.45593999997E+02  0.45594000000E+02  0.51100000000E-03 0.  1.
    9900012    2    1    2    0    0 -0.17755065446E+02 -0.32538687318E+01  0.49844575516E+01  0.72461686220E+02  0.70000151014E+02 0.  0.
        -12    1    1    2    0    0  0.17755065446E+02  0.32538687318E+01 -0.49844575516E+01  0.18726313780E+02  0.00000000000E+00 0.  1.
         11    1    3    3    0    0 -0.16069276087E+01 -0.15195908651E+02  0.14392128100E+02  0.20991217392E+02  0.51100000000E-03 0. -1.
        -11    1    3    3    0    0 -0.91249182062E+01 -0.49510774945E+01 -0.25230167316E+02  0.27282570327E+02  0.51100000000E-03 0.  1.
         12    1    3    3    0    0 -0.70232196311E+01  0.16893117414E+02  0.15822496767E+02  0.24187898501E+02  0.00000000000E+00 0. -1.
</event>
<event>
 7    1  0.1830715E-013  0.7246139E+02  0.7816164E-02  0.1226708E+00
        -11   -1    0    0    0    0  0.00000000000E+00  0.00000000000E+00  0.45593999997E+02  0.45594000000E+02  0.51100000000E-03 0. -1.
         11   -1    0    0    0    0 -0.00000000000E+00 -0.00000000000E+00 -0.45593999997E+02  0.45594000000E+02  0.51100000000E-03 0.  1.
    9900012    2    1    2    0    0 -0.14248468068E+02  0.72277043434E+01  0.97686930276E+01  0.72461390168E+02  0.69999765351E+02 0.  0.
        -12    1    1    2    0    0  0.14248468068E+02 -0.72277043434E+01 -0.97686930276E+01  0.18726609832E+02  0.00000000000E+00 0.  1.
         11    1    3    3    0    0 -0.23928405309E+02  0.24380973684E+02 -0.10734458390E+02  0.35808226089E+02  0.51100000000E-03 0. -1.
        -11    1    3    3    0    0  0.14240464040E+01 -0.15045855434E+02  0.73968546299E+00  0.15131186627E+02  0.51100000000E-03 0.  1.
         12    1    3    3    0    0  0.82558908370E+01 -0.21074139071E+01  0.19763465955E+02  0.21521977452E+02  0.00000000000E+00 0. -1.
</event>
<event>
 7    1  0.1830715E-013  0.7246160E+02  0.7816164E-02  0.1226708E+00
        -11   -1    0    0    0    0  0.00000000000E+00  0.00000000000E+00  0.45593999997E+02  0.45594000000E+02  0.51100000000E-03 0.  1.
         11   -1    0    0    0    0 -0.00000000000E+00 -0.00000000000E+00 -0.45593999997E+02  0.45594000000E+02  0.51100000000E-03 0. -1.
    9900012    2    1    2    0    0 -0.78173029734E+01  0.53512471829E+01 -0.16153389066E+02  0.72461600172E+02  0.70000038921E+02 0.  0.
        -12    1    1    2    0    0  0.78173029734E+01 -0.53512471829E+01  0.16153389066E+02  0.18726399828E+02  0.00000000000E+00 0.  1.
         11    1    3    3    0    0 -0.10271096637E+02 -0.56421378795E+01  0.35970040828E+00  0.11724271006E+02  0.51100000000E-03 0. -1.
        -11    1    3    3    0    0  0.11557896493E+02  0.25020103050E+02 -0.28893982385E+02  0.39930599123E+02  0.51100000000E-03 0.  1.
        -12    1    3    3    0    0 -0.91041028288E+01 -0.14026717988E+02  0.12380892910E+02  0.20806730043E+02  0.00000000000E+00 0.  1.
</event>
<event>
 7    1  0.1830715E-013  0.7246150E+02  0.7816164E-02  0.1226708E+00
        -11   -1    0    0    0    0  0.00000000000E+00  0.00000000000E+00  0.45593999997E+02  0.45594000000E+02  0.51100000000E-03 0.  1.
         11   -1    0    0    0    0 -0.00000000000E+00 -0.00000000000E+00 -0.45593999997E+02  0.45594000000E+02  0.51100000000E-03 0. -1.
    9900012    2    1    2    0    0  0.14485259107E+02 -0.20537836099E+01 -0.11689360697E+02  0.72461497069E+02  0.69999904610E+02 0.  0.
        -12    1    1    2    0    0 -0.14485259107E+02  0.20537836099E+01  0.11689360697E+02  0.18726502931E+02  0.00000000000E+00 0.  1.
         11    1    3    3    0    0  0.22568389877E+02 -0.86985885016E+00 -0.20825443755E+02  0.30721132529E+02  0.51100000000E-03 0. -1.
        -11    1    3    3    0    0 -0.10655454042E+02 -0.18184252767E+02 -0.21311299464E+01  0.21183660323E+02  0.51100000000E-03 0.  1.
         12    1    3    3    0    0  0.25723232730E+01  0.17000328008E+02  0.11267213003E+02  0.20556704217E+02  0.00000000000E+00 0. -1.
</event>
<event>
 7    1  0.1830715E-013  0.7246157E+02  0.7816164E-02  0.1226708E+00
        -11   -1    0    0    0    0  0.00000000000E+00  0.00000000000E+00  0.45593999997E+02  0.45594000000E+02  0.51100000000E-03 0.  1.
         11   -1    0    0    0    0 -0.00000000000E+00 -0.00000000000E+00 -0.45593999997E+02  0.45594000000E+02  0.51100000000E-03 0. -1.
    9900012    2    1    2    0    0  0.11161681978E+02  0.81441746313E+01 -0.12639952088E+02  0.72461571782E+02  0.70000001938E+02 0.  0.
        -12    1    1    2    0    0 -0.11161681978E+02 -0.81441746313E+01  0.12639952088E+02  0.18726428218E+02  0.00000000000E+00 0.  1.
         11    1    3    3    0    0 -0.16161111937E+02  0.47264705404E+01 -0.14455319685E+01  0.16900018513E+02  0.51100000000E-03 0. -1.
        -11    1    3    3    0    0  0.83135284235E+01 -0.21444805350E+02 -0.66083949229E+01  0.23930426554E+02  0.51100000000E-03 0.  1.
        -12    1    3    3    0    0  0.19009265491E+02  0.24862509441E+02 -0.45860251967E+01  0.31631126716E+02  0.00000000000E+00 0.  1.
</event>
<event>
 7    1  0.1830715E-013  0.7246157E+02  0.7816164E-02  0.1226708E+00
        -11   -1    0    0    0    0  0.00000000000E+00  0.00000000000E+00  0.45593999997E+02  0.45594000000E+02  0.51100000000E-03 0.  1.
         11   -1    0    0    0    0 -0.00000000000E+00 -0.00000000000E+00 -0.45593999997E+02  0.45594000000E+02  0.51100000000E-03 0. -1.
    9900012    2    1    2    0    0  0.14965794491E+02 -0.11548674616E+01 -0.11196890262E+02  0.72461572814E+02  0.70000003283E+02 0.  0.
        -12    1    1    2    0    0 -0.14965794491E+02  0.11548674616E+01  0.11196890262E+02  0.18726427186E+02  0.00000000000E+00 0.  1.
         11    1    3    3    0    0  0.70190649205E+01 -0.30671815416E+02 -0.15629862535E+02  0.35132892514E+02  0.51100000000E-03 0. -1.
        -11    1    3    3    0    0 -0.51965974735E+01  0.52645876479E+01 -0.40956776003E+01  0.84554765490E+01  0.51100000000E-03 0.  1.
         12    1    3    3    0    0  0.13143327044E+02  0.24252360306E+02  0.85286498740E+01  0.28873203752E+02  0.00000000000E+00 0. -1.
</event>
<event>
 7    1  0.1830715E-013  0.7246162E+02  0.7816164E-02  0.1226708E+00
        -11   -1    0    0    0    0  0.00000000000E+00  0.00000000000E+00  0.45593999997E+02  0.45594000000E+02  0.51100000000E-03 0. -1.
         11   -1    0    0    0    0 -0.00000000000E+00 -0.00000000000E+00 -0.45593999997E+02  0.45594000000E+02  0.51100000000E-03 0.  1.
    9900012    2    1    2    0    0 -0.24072869313E+01  0.67022034401E+00  0.18558910208E+02  0.72461618241E+02  0.70000062459E+02 0.  0.
        -12    1    1    2    0    0  0.24072869313E+01 -0.67022034401E+00 -0.18558910208E+02  0.18726381759E+02  0.00000000000E+00 0.  1.
         11    1    3    3    0    0 -0.92287511376E+01 -0.11349683879E+02 -0.20121659643E+02  0.24877024717E+02  0.51100000000E-03 0. -1.
        -11    1    3    3    0    0 -0.56711312182E+01 -0.43201023252E+01  0.92360772469E+01  0.11667482015E+02  0.51100000000E-03 0.  1.
         12    1    3    3    0    0  0.12492595425E+02  0.16340006548E+02  0.29444492604E+02  0.35917111509E+02  0.00000000000E+00 0. -1.
</event>
<event>
 7    1  0.1830715E-013  0.7246155E+02  0.7816164E-02  0.1226708E+00
        -11   -1    0    0    0    0  0.00000000000E+00  0.00000000000E+00  0.45593999997E+02  0.45594000000E+02  0.51100000000E-03 0.  1.
         11   -1    0    0    0    0 -0.00000000000E+00 -0.00000000000E+00 -0.45593999997E+02  0.45594000000E+02  0.51100000000E-03 0. -1.
    9900012    2    1    2    0    0 -0.17346456382E+02  0.34807046845E+01 -0.61371876434E+01  0.72461550088E+02  0.69999973678E+02 0.  0.
        -12    1    1    2    0    0  0.17346456382E+02 -0.34807046845E+01  0.61371876434E+01  0.18726449912E+02  0.00000000000E+00 0.  1.
         11    1    3    3    0    0  0.15429058917E+01 -0.19630466230E+02 -0.22848087627E+02  0.30162408251E+02  0.51100000000E-03 0. -1.
        -11    1    3    3    0    0 -0.90479398699E+01 -0.40900480531E+01  0.44582464183E+01  0.10884377353E+02  0.51100000000E-03 0.  1.
         12    1    3    3    0    0 -0.98414224041E+01  0.27201218968E+02  0.12252653566E+02  0.31414764485E+02  0.00000000000E+00 0. -1.
</event>
<event>
 7    1  0.1830715E-013  0.7246154E+02  0.7816164E-02  0.1226708E+00
        -11   -1    0    0    0    0  0.00000000000E+00  0.00000000000E+00  0.45593999997E+02  0.45594000000E+02  0.51100000000E-03 0.  1.
         11   -1    0    0    0    0 -0.00000000000E+00 -0.00000000000E+00 -0.45593999997E+02  0.45594000000E+02  0.51100000000E-03 0. -1.
    9900012    2    1    2    0    0  0.50295984336E+01 -0.13663431011E+02 -0.11776847894E+02  0.72461538676E+02  0.69999958811E+02 0.  0.
        -12    1    1    2    0    0 -0.50295984336E+01  0.13663431011E+02  0.11776847894E+02  0.18726461324E+02  0.00000000000E+00 0.  1.
         11    1    3    3    0    0 -0.85149909418E+01  0.24438949148E+02 -0.35266686417E+01  0.26119048569E+02  0.51100000000E-03 0. -1.
        -11    1    3    3    0    0  0.98478677581E+00 -0.25254501617E+02  0.25128235909E+01  0.25398305840E+02  0.51100000000E-03 0.  1.
         12    1    3    3    0    0  0.12559802600E+02 -0.12847878542E+02 -0.10763002843E+02  0.20944184266E+02  0.00000000000E+00 0. -1.
</event>
<event>
 7    1  0.1830715E-013  0.7246172E+02  0.7816164E-02  0.1226708E+00
        -11   -1    0    0    0    0  0.00000000000E+00  0.00000000000E+00  0.45593999997E+02  0.45594000000E+02  0.51100000000E-03 0. -1.
         11   -1    0    0    0    0 -0.00000000000E+00 -0.00000000000E+00 -0.45593999997E+02  0.45594000000E+02  0.51100000000E-03 0.  1.
    9900012    2    1    2    0    0  0.12450359003E+02 -0.41118678471E+01  0.13369922276E+02  0.72461715848E+02  0.70000189610E+02 0.  0.
        -12    1    1    2    0    0 -0.12450359003E+02  0.41118678471E+01 -0.13369922276E+02  0.18726284152E+02  0.00000000000E+00 0.  1.
         11    1    3    3    0    0 -0.14138181499E+02 -0.82346024728E+00  0.18071028921E+02  0.22959275891E+02  0.51100000000E-03 0. -1.
        -11    1    3    3    0    0  0.24832174322E+02 -0.13467724999E+02  0.11325833875E+02  0.30435029348E+02  0.51100000000E-03 0.  1.
        -12    1    3    3    0    0  0.17563661797E+01  0.10179317399E+02 -0.16026940521E+02  0.19067410609E+02  0.00000000000E+00 0.  1.
</event>
<event>
 7    1  0.1830715E-013  0.7246139E+02  0.7816164E-02  0.1226708E+00
        -11   -1    0    0    0    0  0.00000000000E+00  0.00000000000E+00  0.45593999997E+02  0.45594000000E+02  0.51100000000E-03 0.  1.
         11   -1    0    0    0    0 -0.00000000000E+00 -0.00000000000E+00 -0.45593999997E+02  0.45594000000E+02  0.51100000000E-03 0. -1.
    9900012    2    1    2    0    0  0.34340741078E+01  0.74109357259E+01 -0.16851443757E+02  0.72461388186E+02  0.69999762770E+02 0.  0.
        -12    1    1    2    0    0 -0.34340741078E+01 -0.74109357259E+01  0.16851443757E+02  0.18726611814E+02  0.00000000000E+00 0.  1.
         11    1    3    3    0    0  0.10890589035E+02 -0.22869654993E+02  0.43247332110E+01  0.25696874647E+02  0.51100000000E-03 0.  1.
        -11    1    3    3    0    0 -0.12989185605E+01  0.28372591499E+02 -0.43343713532E+01  0.28731131427E+02  0.51100000000E-03 0. -1.
        -12    1    3    3    0    0 -0.61575963664E+01  0.19079992205E+01 -0.16841805615E+02  0.18033382112E+02  0.00000000000E+00 0.  1.
</event>
<event>
 7    1  0.1830715E-013  0.7246157E+02  0.7816164E-02  0.1226708E+00
        -11   -1    0    0    0    0  0.00000000000E+00  0.00000000000E+00  0.45593999997E+02  0.45594000000E+02  0.51100000000E-03 0.  1.
         11   -1    0    0    0    0 -0.00000000000E+00 -0.00000000000E+00 -0.45593999997E+02  0.45594000000E+02  0.51100000000E-03 0. -1.
    9900012    2    1    2    0    0 -0.18722778935E+02  0.27314799619E+00  0.24942917654E+00  0.72461567457E+02  0.69999996304E+02 0.  0.
        -12    1    1    2    0    0  0.18722778935E+02 -0.27314799619E+00 -0.24942917654E+00  0.18726432543E+02  0.00000000000E+00 0.  1.
         11    1    3    3    0    0 -0.25767630646E+02 -0.37366805857E+01  0.24901753292E+00  0.26038348275E+02  0.51100000000E-03 0. -1.
        -11    1    3    3    0    0  0.13032771515E+02  0.96199827421E+00 -0.20799981476E+02  0.24564563984E+02  0.51100000000E-03 0.  1.
        -12    1    3    3    0    0 -0.59879198042E+01  0.30478303077E+01  0.20800393120E+02  0.21858655199E+02  0.00000000000E+00 0.  1.
</event>
<event>
 7    1  0.1830715E-013  0.7246163E+02  0.7816164E-02  0.1226708E+00
        -11   -1    0    0    0    0  0.00000000000E+00  0.00000000000E+00  0.45593999997E+02  0.45594000000E+02  0.51100000000E-03 0.  1.
         11   -1    0    0    0    0 -0.00000000000E+00 -0.00000000000E+00 -0.45593999997E+02  0.45594000000E+02  0.51100000000E-03 0. -1.
    9900012    2    1    2    0    0  0.36944455622E+01 -0.15809049769E+02 -0.93328398347E+01  0.72461631372E+02  0.70000079565E+02 0.  0.
        -12    1    1    2    0    0 -0.36944455622E+01  0.15809049769E+02  0.93328398347E+01  0.18726368628E+02  0.00000000000E+00 0.  1.
         11    1    3    3    0    0 -0.41184915788E+01 -0.34238372415E+01 -0.33854792935E+02  0.34275817121E+02  0.51100000000E-03 0. -1.
        -11    1    3    3    0    0 -0.81707535237E+01  0.10420064181E+01  0.87924179736E+01  0.12047970975E+02  0.51100000000E-03 0.  1.
         12    1    3    3    0    0  0.15983690665E+02 -0.13427218945E+02  0.15729535127E+02  0.26137843277E+02  0.00000000000E+00 0. -1.
</event>
<event>
 7    1  0.1830715E-013  0.7246156E+02  0.7816164E-02  0.1226708E+00
        -11   -1    0    0    0    0  0.00000000000E+00  0.00000000000E+00  0.45593999997E+02  0.45594000000E+02  0.51100000000E-03 0.  1.
         11   -1    0    0    0    0 -0.00000000000E+00 -0.00000000000E+00 -0.45593999997E+02  0.45594000000E+02  0.51100000000E-03 0. -1.
    9900012    2    1    2    0    0 -0.11271370921E+02  0.35125713978E+01 -0.14536073894E+02  0.72461564020E+02  0.69999991827E+02 0.  0.
        -12    1    1    2    0    0  0.11271370921E+02 -0.35125713978E+01  0.14536073894E+02  0.18726435980E+02  0.00000000000E+00 0.  1.
         11    1    3    3    0    0 -0.24277294654E+02 -0.23547917792E+02 -0.13488617558E+02  0.36412007250E+02  0.51100000000E-03 0. -1.
        -11    1    3    3    0    0  0.26711482008E+01  0.15960266544E+02  0.83480427401E+01  0.18208650656E+02  0.51100000000E-03 0.  1.
        -12    1    3    3    0    0  0.10334775533E+02  0.11100222645E+02 -0.93954990763E+01  0.17840906114E+02  0.00000000000E+00 0.  1.
</event>
<event>
 7    1  0.1830715E-013  0.7246160E+02  0.7816164E-02  0.1226708E+00
        -11   -1    0    0    0    0  0.00000000000E+00  0.00000000000E+00  0.45593999997E+02  0.45594000000E+02  0.51100000000E-03 0. -1.
         11   -1    0    0    0    0 -0.00000000000E+00 -0.00000000000E+00 -0.45593999997E+02  0.45594000000E+02  0.51100000000E-03 0.  1.
    9900012    2    1    2    0    0  0.56529663026E+01 -0.52494056666E+01  0.17063581923E+02  0.72461598426E+02  0.70000036646E+02 0.  0.
        -12    1    1    2    0    0 -0.56529663026E+01  0.52494056666E+01 -0.17063581923E+02  0.18726401574E+02  0.00000000000E+00 0.  1.
         11    1    3    3    0    0 -0.14100425353E+01 -0.28215486012E+02  0.30286621142E+02  0.41417161797E+02  0.51100000000E-03 0. -1.
        -11    1    3    3    0    0 -0.13629774342E+01  0.17660175926E+02 -0.58474512652E+01  0.18652940995E+02  0.51100000000E-03 0.  1.
         12    1    3    3    0    0  0.84259862721E+01  0.53059044201E+01 -0.73755879534E+01  0.12391495633E+02  0.00000000000E+00 0. -1.
</event>
<event>
 7    1  0.1830715E-013  0.7246157E+02  0.7816164E-02  0.1226708E+00
        -11   -1    0    0    0    0  0.00000000000E+00  0.00000000000E+00  0.45593999997E+02  0.45594000000E+02  0.51100000000E-03 0.  1.
         11   -1    0    0    0    0 -0.00000000000E+00 -0.00000000000E+00 -0.45593999997E+02  0.45594000000E+02  0.51100000000E-03 0. -1.
    9900012    2    1    2    0    0 -0.49880816171E+01  0.80571376475E+01 -0.16151808607E+02  0.72461565567E+02  0.69999993842E+02 0.  0.
        -12    1    1    2    0    0  0.49880816171E+01 -0.80571376475E+01  0.16151808607E+02  0.18726434433E+02  0.00000000000E+00 0.  1.
         11    1    3    3    0    0  0.61629435122E+01 -0.15296673450E+02 -0.16848715185E+02  0.23576456371E+02  0.51100000000E-03 0. -1.
        -11    1    3    3    0    0  0.54548409448E+01  0.26532952112E+02 -0.10003624450E+02  0.28876034006E+02  0.51100000000E-03 0.  1.
        -12    1    3    3    0    0 -0.16605866074E+02 -0.31791410151E+01  0.10700531029E+02  0.20009075190E+02  0.00000000000E+00 0.  1.
</event>
<event>
 7    1  0.1830715E-013  0.7246155E+02  0.7816164E-02  0.1226708E+00
        -11   -1    0    0    0    0  0.00000000000E+00  0.00000000000E+00  0.45593999997E+02  0.45594000000E+02  0.51100000000E-03 0.  1.
         11   -1    0    0    0    0 -0.00000000000E+00 -0.00000000000E+00 -0.45593999997E+02  0.45594000000E+02  0.51100000000E-03 0. -1.
    9900012    2    1    2    0    0 -0.28394174789E+01  0.12778630348E+02 -0.13391194256E+02  0.72461554294E+02  0.69999979156E+02 0.  0.
        -12    1    1    2    0    0  0.28394174789E+01 -0.12778630348E+02  0.13391194256E+02  0.18726445706E+02  0.00000000000E+00 0.  1.
         11    1    3    3    0    0 -0.10503648549E+02 -0.20139620005E+02  0.55622632051E+01  0.23385245327E+02  0.51100000000E-03 0. -1.
        -11    1    3    3    0    0  0.14251897757E+01  0.37092074250E+02 -0.12471518505E+02  0.39158548391E+02  0.51100000000E-03 0.  1.
         12    1    3    3    0    0  0.62390412941E+01 -0.41738238967E+01 -0.64819389567E+01  0.99177605753E+01  0.00000000000E+00 0. -1.
</event>
<event>
 7    1  0.1830715E-013  0.7246155E+02  0.7816164E-02  0.1226708E+00
        -11   -1    0    0    0    0  0.00000000000E+00  0.00000000000E+00  0.45593999997E+02  0.45594000000E+02  0.51100000000E-03 0. -1.
         11   -1    0    0    0    0 -0.00000000000E+00 -0.00000000000E+00 -0.45593999997E+02  0.45594000000E+02  0.51100000000E-03 0.  1.
    9900012    2    1    2    0    0 -0.13664923916E+02  0.93292812195E+01 -0.87700697421E+01  0.72461554609E+02  0.69999979567E+02 0.  0.
        -12    1    1    2    0    0  0.13664923916E+02 -0.93292812195E+01  0.87700697421E+01  0.18726445391E+02  0.00000000000E+00 0.  1.
         11    1    3    3    0    0 -0.96266351607E+01  0.16733117215E+02 -0.39257032343E+01  0.19699757928E+02  0.51100000000E-03 0. -1.
        -11    1    3    3    0    0 -0.75838367423E+01 -0.29255561214E+02 -0.64445656022E+00  0.30229418886E+02  0.51100000000E-03 0.  1.
        -12    1    3    3    0    0  0.35455479874E+01  0.21851725218E+02 -0.41999099475E+01  0.22532377795E+02  0.00000000000E+00 0.  1.
</event>
<event>
 7    1  0.1830715E-013  0.7246155E+02  0.7816164E-02  0.1226708E+00
        -11   -1    0    0    0    0  0.00000000000E+00  0.00000000000E+00  0.45593999997E+02  0.45594000000E+02  0.51100000000E-03 0.  1.
         11   -1    0    0    0    0 -0.00000000000E+00 -0.00000000000E+00 -0.45593999997E+02  0.45594000000E+02  0.51100000000E-03 0. -1.
    9900012    2    1    2    0    0 -0.17487298965E+01  0.26629674306E+01 -0.18453468658E+02  0.72461549260E+02  0.69999972599E+02 0.  0.
        -12    1    1    2    0    0  0.17487298965E+01 -0.26629674306E+01  0.18453468658E+02  0.18726450740E+02  0.00000000000E+00 0.  1.
         11    1    3    3    0    0  0.85245914564E+01 -0.12708383637E+02 -0.12091188862E+02  0.19503038802E+02  0.51100000000E-03 0. -1.
        -11    1    3    3    0    0 -0.25504244482E+02  0.11355723429E+02  0.10552090422E+02  0.29845695732E+02  0.51100000000E-03 0.  1.
        -12    1    3    3    0    0  0.15230923129E+02  0.40156276384E+01 -0.16914370218E+02  0.23112814726E+02  0.00000000000E+00 0.  1.
</event>
<event>
 7    1  0.1830715E-013  0.7246159E+02  0.7816164E-02  0.1226708E+00
        -11   -1    0    0    0    0  0.00000000000E+00  0.00000000000E+00  0.45593999997E+02  0.45594000000E+02  0.51100000000E-03 0. -1.
         11   -1    0    0    0    0 -0.00000000000E+00 -0.00000000000E+00 -0.45593999997E+02  0.45594000000E+02  0.51100000000E-03 0.  1.
    9900012    2    1    2    0    0  0.53835794610E+01  0.66731011953E+01  0.16648281126E+02  0.72461588923E+02  0.70000024267E+02 0.  0.
        -12    1    1    2    0    0 -0.53835794610E+01 -0.66731011953E+01 -0.16648281126E+02  0.18726411077E+02  0.00000000000E+00 0.  1.
         11    1    3    3    0    0  0.35670265946E+01  0.44128496948E+01  0.11261743790E+02  0.12610463696E+02  0.51100000000E-03 0. -1.
        -11    1    3    3    0    0  0.25309603191E+02 -0.84399646421E+01 -0.11447819937E+02  0.29032078782E+02  0.51100000000E-03 0.  1.
        -12    1    3    3    0    0 -0.23493050324E+02  0.10700216143E+02  0.16834357272E+02  0.30819046446E+02  0.00000000000E+00 0.  1.
</event>
<event>
 7    1  0.1830715E-013  0.7246161E+02  0.7816164E-02  0.1226708E+00
        -11   -1    0    0    0    0  0.00000000000E+00  0.00000000000E+00  0.45593999997E+02  0.45594000000E+02  0.51100000000E-03 0. -1.
         11   -1    0    0    0    0 -0.00000000000E+00 -0.00000000000E+00 -0.45593999997E+02  0.45594000000E+02  0.51100000000E-03 0.  1.
    9900012    2    1    2    0    0 -0.99070718945E+01  0.15070344695E+02 -0.50410567974E+01  0.72461611764E+02  0.70000054022E+02 0.  0.
        -12    1    1    2    0    0  0.99070718945E+01 -0.15070344695E+02  0.50410567974E+01  0.18726388236E+02  0.00000000000E+00 0.  1.
         11    1    3    3    0    0 -0.99587639342E+01 -0.11801825857E+02 -0.11898410797E+02  0.19494415929E+02  0.51100000000E-03 0.  1.
        -11    1    3    3    0    0 -0.63360235566E+00  0.37640436809E+02 -0.37553884563E+01  0.37832616587E+02  0.51100000000E-03 0. -1.
         12    1    3    3    0    0  0.68529439539E+00 -0.10768266257E+02  0.10612742456E+02  0.15134579248E+02  0.00000000000E+00 0. -1.
</event>
<event>
 7    1  0.1830715E-013  0.7246162E+02  0.7816164E-02  0.1226708E+00
        -11   -1    0    0    0    0  0.00000000000E+00  0.00000000000E+00  0.45593999997E+02  0.45594000000E+02  0.51100000000E-03 0. -1.
         11   -1    0    0    0    0 -0.00000000000E+00 -0.00000000000E+00 -0.45593999997E+02  0.45594000000E+02  0.51100000000E-03 0.  1.
    9900012    2    1    2    0    0  0.16505873058E+02  0.63546775768E+01  0.61523554132E+01  0.72461621556E+02  0.70000066777E+02 0.  0.
        -12    1    1    2    0    0 -0.16505873058E+02 -0.63546775768E+01 -0.61523554132E+01  0.18726378444E+02  0.00000000000E+00 0.  1.
         11    1    3    3    0    0  0.13246988113E+02  0.18802537226E+02  0.20154094620E+02  0.30581131935E+02  0.51100000000E-03 0. -1.
        -11    1    3    3    0    0 -0.87882669918E+01 -0.13963233671E+02  0.67592267099E+01  0.17829545065E+02  0.51100000000E-03 0.  1.
        -12    1    3    3    0    0  0.12047151937E+02  0.15153740210E+01 -0.20760965916E+02  0.24050944555E+02  0.00000000000E+00 0.  1.
</event>
<event>
 7    1  0.1830715E-013  0.7246157E+02  0.7816164E-02  0.1226708E+00
        -11   -1    0    0    0    0  0.00000000000E+00  0.00000000000E+00  0.45593999997E+02  0.45594000000E+02  0.51100000000E-03 0.  1.
         11   -1    0    0    0    0 -0.00000000000E+00 -0.00000000000E+00 -0.45593999997E+02  0.45594000000E+02  0.51100000000E-03 0. -1.
    9900012    2    1    2    0    0  0.37969680893E+01 -0.18036900036E+02  0.33064347672E+01  0.72461568401E+02  0.69999997533E+02 0.  0.
        -12    1    1    2    0    0 -0.37969680893E+01  0.18036900036E+02 -0.33064347672E+01  0.18726431599E+02  0.00000000000E+00 0.  1.
         11    1    3    3    0    0  0.18861324403E+02 -0.37650165771E+01  0.85950884737E-01  0.19233624096E+02  0.51100000000E-03 0. -1.
        -11    1    3    3    0    0 -0.10210597493E+02  0.16036797012E+02  0.10448594657E+02  0.21693508018E+02  0.51100000000E-03 0.  1.
        -12    1    3    3    0    0 -0.48537588199E+01 -0.30308680471E+02 -0.72281107745E+01  0.31534436287E+02  0.00000000000E+00 0.  1.
</event>
<event>
 7    1  0.1830715E-013  0.7246157E+02  0.7816164E-02  0.1226708E+00
        -11   -1    0    0    0    0  0.00000000000E+00  0.00000000000E+00  0.45593999997E+02  0.45594000000E+02  0.51100000000E-03 0. -1.
         11   -1    0    0    0    0 -0.00000000000E+00 -0.00000000000E+00 -0.45593999997E+02  0.45594000000E+02  0.51100000000E-03 0.  1.
    9900012    2    1    2    0    0  0.54951950355E+01 -0.17872936332E+02  0.10197945356E+01  0.72461574754E+02  0.70000005810E+02 0.  0.
        -12    1    1    2    0    0 -0.54951950355E+01  0.17872936332E+02 -0.10197945356E+01  0.18726425246E+02  0.00000000000E+00 0.  1.
         11    1    3    3    0    0  0.34709616918E+02 -0.17423074170E+02 -0.11052786975E+02  0.40379265970E+02  0.51100000000E-03 0.  1.
        -11    1    3    3    0    0 -0.25657948445E+02 -0.11088956489E+00  0.84988995955E+01  0.27029130757E+02  0.51100000000E-03 0. -1.
        -12    1    3    3    0    0 -0.35564734373E+01 -0.33897259646E+00  0.35736819155E+01  0.50531780262E+01  0.00000000000E+00 0.  1.
</event>
<event>
 7    1  0.1830715E-013  0.7246161E+02  0.7816164E-02  0.1226708E+00
        -11   -1    0    0    0    0  0.00000000000E+00  0.00000000000E+00  0.45593999997E+02  0.45594000000E+02  0.51100000000E-03 0.  1.
         11   -1    0    0    0    0 -0.00000000000E+00 -0.00000000000E+00 -0.45593999997E+02  0.45594000000E+02  0.51100000000E-03 0. -1.
    9900012    2    1    2    0    0  0.14382241675E+02 -0.85446225602E+01 -0.84153655321E+01  0.72461606131E+02  0.70000046684E+02 0.  0.
        -12    1    1    2    0    0 -0.14382241675E+02  0.85446225602E+01  0.84153655321E+01  0.18726393869E+02  0.00000000000E+00 0.  1.
         11    1    3    3    0    0 -0.31656134035E+01 -0.57230549163E+01 -0.23127859234E+02  0.24034815140E+02  0.51100000000E-03 0. -1.
        -11    1    3    3    0    0  0.16348586645E+02  0.17928306008E+02  0.13115329579E+02  0.27581013611E+02  0.51100000000E-03 0.  1.
        -12    1    3    3    0    0  0.11992684331E+01 -0.20749873652E+02  0.15971641236E+01  0.20845777380E+02  0.00000000000E+00 0.  1.
</event>
<event>
 7    1  0.1830715E-013  0.7246159E+02  0.7816164E-02  0.1226708E+00
        -11   -1    0    0    0    0  0.00000000000E+00  0.00000000000E+00  0.45593999997E+02  0.45594000000E+02  0.51100000000E-03 0.  1.
         11   -1    0    0    0    0 -0.00000000000E+00 -0.00000000000E+00 -0.45593999997E+02  0.45594000000E+02  0.51100000000E-03 0. -1.
    9900012    2    1    2    0    0 -0.16060860445E+02 -0.95180498829E+01  0.14608120791E+01  0.72461588605E+02  0.70000023853E+02 0.  0.
        -12    1    1    2    0    0  0.16060860445E+02  0.95180498829E+01 -0.14608120791E+01  0.18726411395E+02  0.00000000000E+00 0.  1.
         11    1    3    3    0    0 -0.52129052887E+00  0.29131787094E+01 -0.25906256914E+01  0.39331534095E+01  0.51100000000E-03 0. -1.
        -11    1    3    3    0    0 -0.17114908771E+02 -0.17402792795E+02  0.31916186284E+02  0.40179848761E+02  0.51100000000E-03 0.  1.
        -12    1    3    3    0    0  0.15753388551E+01  0.49715642032E+01 -0.27864748513E+02  0.28348586435E+02  0.00000000000E+00 0.  1.
</event>
<event>
 7    1  0.1830715E-013  0.7246157E+02  0.7816164E-02  0.1226708E+00
        -11   -1    0    0    0    0  0.00000000000E+00  0.00000000000E+00  0.45593999997E+02  0.45594000000E+02  0.51100000000E-03 0. -1.
         11   -1    0    0    0    0 -0.00000000000E+00 -0.00000000000E+00 -0.45593999997E+02  0.45594000000E+02  0.51100000000E-03 0.  1.
    9900012    2    1    2    0    0 -0.13673883818E+02  0.12491927880E+02  0.27668961148E+01  0.72461572820E+02  0.70000003290E+02 0.  0.
        -12    1    1    2    0    0  0.13673883818E+02 -0.12491927880E+02 -0.27668961148E+01  0.18726427180E+02  0.00000000000E+00 0.  1.
         11    1    3    3    0    0 -0.25237307283E+02  0.17385873704E+02 -0.19444332600E+02  0.36294246843E+02  0.51100000000E-03 0. -1.
        -11    1    3    3    0    0  0.27505095231E+01 -0.14447767591E+02  0.74079348859E+01  0.16467567839E+02  0.51100000000E-03 0.  1.
         12    1    3    3    0    0  0.88129139419E+01  0.95538217672E+01  0.14803293829E+02  0.19699758138E+02  0.00000000000E+00 0. -1.
</event>
<event>
 7    1  0.1830715E-013  0.7246156E+02  0.7816164E-02  0.1226708E+00
        -11   -1    0    0    0    0  0.00000000000E+00  0.00000000000E+00  0.45593999997E+02  0.45594000000E+02  0.51100000000E-03 0.  1.
         11   -1    0    0    0    0 -0.00000000000E+00 -0.00000000000E+00 -0.45593999997E+02  0.45594000000E+02  0.51100000000E-03 0. -1.
    9900012    2    1    2    0    0 -0.17233456252E+02  0.73179076457E+01 -0.36854632669E+00  0.72461558451E+02  0.69999984572E+02 0.  0.
        -12    1    1    2    0    0  0.17233456252E+02 -0.73179076457E+01  0.36854632669E+00  0.18726441549E+02  0.00000000000E+00 0.  1.
         11    1    3    3    0    0 -0.20594914298E+02  0.13969354030E+02  0.13943946701E+02  0.28525900456E+02  0.51100000000E-03 0. -1.
        -11    1    3    3    0    0 -0.71597031398E+01 -0.10364068957E+02 -0.25308916870E+02  0.28270418246E+02  0.51100000000E-03 0.  1.
         12    1    3    3    0    0  0.10521161186E+02  0.37126225727E+01  0.10996423842E+02  0.15665239749E+02  0.00000000000E+00 0. -1.
</event>
<event>
 7    1  0.1830715E-013  0.7246155E+02  0.7816164E-02  0.1226708E+00
        -11   -1    0    0    0    0  0.00000000000E+00  0.00000000000E+00  0.45593999997E+02  0.45594000000E+02  0.51100000000E-03 0.  1.
         11   -1    0    0    0    0 -0.00000000000E+00 -0.00000000000E+00 -0.45593999997E+02  0.45594000000E+02  0.51100000000E-03 0. -1.
    9900012    2    1    2    0    0  0.10955083464E+02  0.13187971345E+02 -0.75328152350E+01  0.72461554869E+02  0.69999979905E+02 0.  0.
        -12    1    1    2    0    0 -0.10955083464E+02 -0.13187971345E+02  0.75328152350E+01  0.18726445131E+02  0.00000000000E+00 0.  1.
         11    1    3    3    0    0  0.48741305715E+01  0.36367173833E+01 -0.16686527116E+02  0.17760153423E+02  0.51100000000E-03 0. -1.
        -11    1    3    3    0    0 -0.11399996790E+02  0.26528909123E+02  0.92907407706E+01  0.30332504189E+02  0.51100000000E-03 0.  1.
        -12    1    3    3    0    0  0.17480949682E+02 -0.16977655162E+02 -0.13702888964E+00  0.24368897257E+02  0.00000000000E+00 0.  1.
</event>
<event>
 7    1  0.1830715E-013  0.7246157E+02  0.7816164E-02  0.1226708E+00
        -11   -1    0    0    0    0  0.00000000000E+00  0.00000000000E+00  0.45593999997E+02  0.45594000000E+02  0.51100000000E-03 0.  1.
         11   -1    0    0    0    0 -0.00000000000E+00 -0.00000000000E+00 -0.45593999997E+02  0.45594000000E+02  0.51100000000E-03 0. -1.
    9900012    2    1    2    0    0  0.59023446678E+01  0.14921258338E+02 -0.96538843840E+01  0.72461571973E+02  0.70000002187E+02 0.  0.
        -12    1    1    2    0    0 -0.59023446678E+01 -0.14921258338E+02  0.96538843840E+01  0.18726428027E+02  0.00000000000E+00 0.  1.
         11    1    3    3    0    0 -0.13693982980E+02  0.36916070393E+02 -0.11397210720E+02  0.40990460300E+02  0.51100000000E-03 0. -1.
        -11    1    3    3    0    0  0.16173077760E+02 -0.10558714941E+02  0.26673626306E+01  0.19497941664E+02  0.51100000000E-03 0.  1.
         12    1    3    3    0    0  0.34232498874E+01 -0.11436097114E+02 -0.92403629487E+00  0.11973170010E+02  0.00000000000E+00 0. -1.
</event>
<event>
 7    1  0.1830715E-013  0.7246159E+02  0.7816164E-02  0.1226708E+00
        -11   -1    0    0    0    0  0.00000000000E+00  0.00000000000E+00  0.45593999997E+02  0.45594000000E+02  0.51100000000E-03 0. -1.
         11   -1    0    0    0    0 -0.00000000000E+00 -0.00000000000E+00 -0.45593999997E+02  0.45594000000E+02  0.51100000000E-03 0.  1.
    9900012    2    1    2    0    0  0.13744591475E+02 -0.11507395574E+02 -0.54170659953E+01  0.72461586791E+02  0.70000021490E+02 0.  0.
        -12    1    1    2    0    0 -0.13744591475E+02  0.11507395574E+02  0.54170659953E+01  0.18726413209E+02  0.00000000000E+00 0.  1.
         11    1    3    3    0    0 -0.11156649539E+02 -0.67047863834E+01  0.14094663205E+02  0.19185528935E+02  0.51100000000E-03 0. -1.
        -11    1    3    3    0    0  0.20402141585E+02  0.15251603167E+02 -0.20503534039E+02  0.32699444777E+02  0.51100000000E-03 0.  1.
        -12    1    3    3    0    0  0.44990994293E+01 -0.20054212357E+02  0.99180483849E+00  0.20576613078E+02  0.00000000000E+00 0.  1.
</event>
<event>
 7    1  0.1830715E-013  0.7246158E+02  0.7816164E-02  0.1226708E+00
        -11   -1    0    0    0    0  0.00000000000E+00  0.00000000000E+00  0.45593999997E+02  0.45594000000E+02  0.51100000000E-03 0.  1.
         11   -1    0    0    0    0 -0.00000000000E+00 -0.00000000000E+00 -0.45593999997E+02  0.45594000000E+02  0.51100000000E-03 0. -1.
    9900012    2    1    2    0    0 -0.59359080935E+00 -0.10283226160E+02 -0.15639102881E+02  0.72461584720E+02  0.70000018792E+02 0.  0.
        -12    1    1    2    0    0  0.59359080935E+00  0.10283226160E+02  0.15639102881E+02  0.18726415280E+02  0.00000000000E+00 0.  1.
         11    1    3    3    0    0 -0.16570452210E+02 -0.13990549586E+02 -0.13908833390E+02  0.25763753816E+02  0.51100000000E-03 0. -1.
        -11    1    3    3    0    0  0.29031649423E+02  0.11359481714E+02  0.15529732084E+01  0.31213558257E+02  0.51100000000E-03 0.  1.
        -12    1    3    3    0    0 -0.13054788023E+02 -0.76521582885E+01 -0.32832426994E+01  0.15484272647E+02  0.00000000000E+00 0.  1.
</event>
<event>
 7    1  0.1830715E-013  0.7246157E+02  0.7816164E-02  0.1226708E+00
        -11   -1    0    0    0    0  0.00000000000E+00  0.00000000000E+00  0.45593999997E+02  0.45594000000E+02  0.51100000000E-03 0.  1.
         11   -1    0    0    0    0 -0.00000000000E+00 -0.00000000000E+00 -0.45593999997E+02  0.45594000000E+02  0.51100000000E-03 0. -1.
    9900012    2    1    2    0    0 -0.17866059878E+02  0.42978825696E+01 -0.36071322279E+01  0.72461566996E+02  0.69999995703E+02 0.  0.
        -12    1    1    2    0    0  0.17866059878E+02 -0.42978825696E+01  0.36071322279E+01  0.18726433004E+02  0.00000000000E+00 0.  1.
         11    1    3    3    0    0 -0.78117467393E+01 -0.16584635997E+02 -0.16539950305E+02  0.24690959775E+02  0.51100000000E-03 0. -1.
        -11    1    3    3    0    0 -0.22729073705E+02  0.14232908630E+02  0.18319311461E+02  0.32477432969E+02  0.51100000000E-03 0.  1.
        -12    1    3    3    0    0  0.12674760566E+02  0.66496099365E+01 -0.53864933841E+01  0.15293174252E+02  0.00000000000E+00 0.  1.
</event>
<event>
 7    1  0.1830715E-013  0.7246160E+02  0.7816164E-02  0.1226708E+00
        -11   -1    0    0    0    0  0.00000000000E+00  0.00000000000E+00  0.45593999997E+02  0.45594000000E+02  0.51100000000E-03 0.  1.
         11   -1    0    0    0    0 -0.00000000000E+00 -0.00000000000E+00 -0.45593999997E+02  0.45594000000E+02  0.51100000000E-03 0. -1.
    9900012    2    1    2    0    0 -0.61083963378E+01 -0.59967876960E+01  0.16655446643E+02  0.72461604955E+02  0.70000045152E+02 0.  0.
        -12    1    1    2    0    0  0.61083963378E+01  0.59967876960E+01 -0.16655446643E+02  0.18726395045E+02  0.00000000000E+00 0.  1.
         11    1    3    3    0    0 -0.21598902950E+01 -0.27232735720E+02  0.86580225153E+00  0.27331970925E+02  0.51100000000E-03 0. -1.
        -11    1    3    3    0    0  0.15201379041E+02  0.14837848710E+02  0.12573234210E+02  0.24684608522E+02  0.51100000000E-03 0.  1.
        -12    1    3    3    0    0 -0.19149885084E+02  0.63980993136E+01  0.32164101820E+01  0.20445025508E+02  0.00000000000E+00 0.  1.
</event>
<event>
 7    1  0.1830715E-013  0.7246155E+02  0.7816164E-02  0.1226708E+00
        -11   -1    0    0    0    0  0.00000000000E+00  0.00000000000E+00  0.45593999997E+02  0.45594000000E+02  0.51100000000E-03 0.  1.
         11   -1    0    0    0    0 -0.00000000000E+00 -0.00000000000E+00 -0.45593999997E+02  0.45594000000E+02  0.51100000000E-03 0. -1.
    9900012    2    1    2    0    0  0.16191803086E+02 -0.28852189474E+01 -0.89543835782E+01  0.72461549166E+02  0.69999972477E+02 0.  0.
        -12    1    1    2    0    0 -0.16191803086E+02  0.28852189474E+01  0.89543835782E+01  0.18726450834E+02  0.00000000000E+00 0.  1.
         11    1    3    3    0    0  0.12101087053E+02  0.14810999281E+02 -0.90594341701E+01  0.21163065829E+02  0.51100000000E-03 0. -1.
        -11    1    3    3    0    0 -0.16999410983E+02 -0.77673575764E+01 -0.14618175375E+02  0.23727681494E+02  0.51100000000E-03 0.  1.
        -12    1    3    3    0    0  0.21090127017E+02 -0.99288606517E+01  0.14723225967E+02  0.27570801844E+02  0.00000000000E+00 0.  1.
</event>
<event>
 7    1  0.1830715E-013  0.7246158E+02  0.7816164E-02  0.1226708E+00
        -11   -1    0    0    0    0  0.00000000000E+00  0.00000000000E+00  0.45593999997E+02  0.45594000000E+02  0.51100000000E-03 0.  1.
         11   -1    0    0    0    0 -0.00000000000E+00 -0.00000000000E+00 -0.45593999997E+02  0.45594000000E+02  0.51100000000E-03 0. -1.
    9900012    2    1    2    0    0  0.63989359419E+01  0.17590300302E+02 -0.56011432373E+00  0.72461580856E+02  0.70000013759E+02 0.  0.
        -12    1    1    2    0    0 -0.63989359419E+01 -0.17590300302E+02  0.56011432373E+00  0.18726419144E+02  0.00000000000E+00 0.  1.
         11    1    3    3    0    0  0.87820012435E+01 -0.19804274785E+02 -0.55010142900E+01  0.22351599586E+02  0.51100000000E-03 0. -1.
        -11    1    3    3    0    0  0.83319341145E+01  0.38125066570E+02  0.51817998054E+01  0.39367408812E+02  0.51100000000E-03 0.  1.
         12    1    3    3    0    0 -0.10714999416E+02 -0.73049148384E+00 -0.24089983914E+00  0.10742572459E+02  0.00000000000E+00 0. -1.
</event>
<event>
 7    1  0.1830715E-013  0.7246154E+02  0.7816164E-02  0.1226708E+00
        -11   -1    0    0    0    0  0.00000000000E+00  0.00000000000E+00  0.45593999997E+02  0.45594000000E+02  0.51100000000E-03 0. -1.
         11   -1    0    0    0    0 -0.00000000000E+00 -0.00000000000E+00 -0.45593999997E+02  0.45594000000E+02  0.51100000000E-03 0.  1.
    9900012    2    1    2    0    0  0.73153603497E+01 -0.83497372320E+01  0.15081365067E+02  0.72461543283E+02  0.69999964813E+02 0.  0.
        -12    1    1    2    0    0 -0.73153603497E+01  0.83497372320E+01 -0.15081365067E+02  0.18726456717E+02  0.00000000000E+00 0.  1.
         11    1    3    3    0    0  0.15304270062E+02 -0.25665890514E+01 -0.76105933533E+01  0.17283784103E+02  0.51100000000E-03 0. -1.
        -11    1    3    3    0    0 -0.22472721732E+02 -0.22028126473E+01 -0.55362642391E+01  0.23249211332E+02  0.51100000000E-03 0.  1.
        -12    1    3    3    0    0  0.14483812020E+02 -0.35803355333E+01  0.28228222659E+02  0.31928547847E+02  0.00000000000E+00 0.  1.
</event>
<event>
 7    1  0.1830715E-013  0.7246164E+02  0.7816164E-02  0.1226708E+00
        -11   -1    0    0    0    0  0.00000000000E+00  0.00000000000E+00  0.45593999997E+02  0.45594000000E+02  0.51100000000E-03 0. -1.
         11   -1    0    0    0    0 -0.00000000000E+00 -0.00000000000E+00 -0.45593999997E+02  0.45594000000E+02  0.51100000000E-03 0.  1.
    9900012    2    1    2    0    0 -0.35964567738E+01  0.10904694951E+02  0.14792894124E+02  0.72461639172E+02  0.70000089726E+02 0.  0.
        -12    1    1    2    0    0  0.35964567738E+01 -0.10904694951E+02 -0.14792894124E+02  0.18726360828E+02  0.00000000000E+00 0.  1.
         11    1    3    3    0    0  0.99173788195E+01  0.98107422014E+01  0.40073654490E+01  0.14514270333E+02  0.51100000000E-03 0. -1.
        -11    1    3    3    0    0 -0.10589608747E+02 -0.25624612583E+02  0.13673037786E+02  0.30914600854E+02  0.51100000000E-03 0.  1.
        -12    1    3    3    0    0 -0.29242268467E+01  0.26718565332E+02 -0.28875091110E+01  0.27032767985E+02  0.00000000000E+00 0.  1.
</event>
<event>
 7    1  0.1830715E-013  0.7246144E+02  0.7816164E-02  0.1226708E+00
        -11   -1    0    0    0    0  0.00000000000E+00  0.00000000000E+00  0.45593999997E+02  0.45594000000E+02  0.51100000000E-03 0.  1.
         11   -1    0    0    0    0 -0.00000000000E+00 -0.00000000000E+00 -0.45593999997E+02  0.45594000000E+02  0.51100000000E-03 0. -1.
    9900012    2    1    2    0    0  0.10704145127E+02 -0.73968539345E+01  0.13468184762E+02  0.72461436732E+02  0.69999826010E+02 0.  0.
        -12    1    1    2    0    0 -0.10704145127E+02  0.73968539345E+01 -0.13468184762E+02  0.18726563268E+02  0.00000000000E+00 0.  1.
         11    1    3    3    0    0  0.18465108402E+02 -0.23040364032E+02  0.11973535571E+01  0.29550841931E+02  0.51100000000E-03 0. -1.
        -11    1    3    3    0    0 -0.13016510426E+02  0.18542608003E+02 -0.62006431557E+01  0.23488419084E+02  0.51100000000E-03 0.  1.
         12    1    3    3    0    0  0.52555471515E+01 -0.28990979055E+01  0.18471474361E+02  0.19422175717E+02  0.00000000000E+00 0. -1.
</event>
<event>
 7    1  0.1830715E-013  0.7246148E+02  0.7816164E-02  0.1226708E+00
        -11   -1    0    0    0    0  0.00000000000E+00  0.00000000000E+00  0.45593999997E+02  0.45594000000E+02  0.51100000000E-03 0.  1.
         11   -1    0    0    0    0 -0.00000000000E+00 -0.00000000000E+00 -0.45593999997E+02  0.45594000000E+02  0.51100000000E-03 0. -1.
    9900012    2    1    2    0    0 -0.82815283171E+01  0.10430663227E+02 -0.13164353136E+02  0.72461477629E+02  0.69999879286E+02 0.  0.
        -12    1    1    2    0    0  0.82815283171E+01 -0.10430663227E+02  0.13164353136E+02  0.18726522371E+02  0.00000000000E+00 0.  1.
         11    1    3    3    0    0  0.13870225860E+02 -0.19714298578E+02 -0.58728825174E+01  0.24809826343E+02  0.51100000000E-03 0.  1.
        -11    1    3    3    0    0 -0.27727474663E+02  0.24392607357E+02 -0.11398757962E+02  0.38648982240E+02  0.51100000000E-03 0. -1.
         12    1    3    3    0    0  0.55757204862E+01  0.57523544484E+01  0.41072873432E+01  0.90026690464E+01  0.00000000000E+00 0. -1.
</event>
<event>
 8    1  0.1830715E-013  0.7246162E+02  0.7816164E-02  0.1226708E+00
        -11   -1    0    0    0    0  0.00000000000E+00  0.00000000000E+00  0.45593999997E+02  0.45594000000E+02  0.51100000000E-03 0. -1.
         11   -1    0    0    0    0 -0.00000000000E+00 -0.00000000000E+00 -0.45593999997E+02  0.45594000000E+02  0.51100000000E-03 0.  1.
    9900012    2    1    2    0    0 -0.15791017924E+02  0.82345178571E+00 -0.10032103680E+02  0.72461616896E+02  0.70000060708E+02 0.  0.
         24    2    3    3    0    0 -0.33448869983E+01 -0.65024115422E+01 -0.19102610163E+02  0.55407334835E+02  0.51493624980E+02 0.  0.
        -12    1    1    2    0    0  0.15791017924E+02 -0.82345178571E+00  0.10032103680E+02  0.18726383104E+02  0.00000000000E+00 0.  1.
         11    1    3    3    0    0 -0.12446130925E+02  0.73258633279E+01  0.90705064834E+01  0.17054282062E+02  0.51100000000E-03 0. -1.
        -11    1    4    4    0    0 -0.46726310518E+00 -0.17577244735E+02 -0.33007960157E+02  0.37399241988E+02  0.51100000000E-03 0.  1.
         12    1    4    4    0    0 -0.28776238931E+01  0.11074833192E+02  0.13905349994E+02  0.18008092847E+02  0.00000000000E+00 0. -1.
</event>
<event>
 7    1  0.1830715E-013  0.7246155E+02  0.7816164E-02  0.1226708E+00
        -11   -1    0    0    0    0  0.00000000000E+00  0.00000000000E+00  0.45593999997E+02  0.45594000000E+02  0.51100000000E-03 0.  1.
         11   -1    0    0    0    0 -0.00000000000E+00 -0.00000000000E+00 -0.45593999997E+02  0.45594000000E+02  0.51100000000E-03 0. -1.
    9900012    2    1    2    0    0 -0.49808057641E+01  0.10826021831E+02 -0.14445371641E+02  0.72461549814E+02  0.69999973320E+02 0.  0.
        -12    1    1    2    0    0  0.49808057641E+01 -0.10826021831E+02  0.14445371641E+02  0.18726450186E+02  0.00000000000E+00 0.  1.
         11    1    3    3    0    0  0.75910913765E+01  0.53310602298E+01  0.62589736684E-01  0.92762486596E+01  0.51100000000E-03 0. -1.
        -11    1    3    3    0    0 -0.28297985183E+02 -0.17171216995E+02 -0.12984261849E+02  0.35555839387E+02  0.51100000000E-03 0.  1.
        -12    1    3    3    0    0  0.15726088042E+02  0.22666178596E+02 -0.15236995283E+01  0.27629461767E+02  0.00000000000E+00 0.  1.
</event>
<event>
 7    1  0.1830715E-013  0.7246156E+02  0.7816164E-02  0.1226708E+00
        -11   -1    0    0    0    0  0.00000000000E+00  0.00000000000E+00  0.45593999997E+02  0.45594000000E+02  0.51100000000E-03 0.  1.
         11   -1    0    0    0    0 -0.00000000000E+00 -0.00000000000E+00 -0.45593999997E+02  0.45594000000E+02  0.51100000000E-03 0. -1.
    9900012    2    1    2    0    0  0.14795786412E+02  0.11437196502E+02 -0.97720435428E+00  0.72461556458E+02  0.69999981976E+02 0.  0.
        -12    1    1    2    0    0 -0.14795786412E+02 -0.11437196502E+02  0.97720435428E+00  0.18726443542E+02  0.00000000000E+00 0.  1.
         11    1    3    3    0    0  0.12755764863E+02  0.32113106488E+02 -0.19078165714E+01  0.34606370943E+02  0.51100000000E-03 0. -1.
        -11    1    3    3    0    0 -0.82365210707E+01 -0.36281400837E+01  0.12061073007E+02  0.15049025289E+02  0.51100000000E-03 0.  1.
         12    1    3    3    0    0  0.10276542620E+02 -0.17047769902E+02 -0.11130460790E+02  0.22806160226E+02  0.00000000000E+00 0. -1.
</event>
<event>
 7    1  0.1830715E-013  0.7246153E+02  0.7816164E-02  0.1226708E+00
        -11   -1    0    0    0    0  0.00000000000E+00  0.00000000000E+00  0.45593999997E+02  0.45594000000E+02  0.51100000000E-03 0.  1.
         11   -1    0    0    0    0 -0.00000000000E+00 -0.00000000000E+00 -0.45593999997E+02  0.45594000000E+02  0.51100000000E-03 0. -1.
    9900012    2    1    2    0    0 -0.28666904002E+01  0.13526495623E+02 -0.12629199212E+02  0.72461530219E+02  0.69999947795E+02 0.  0.
        -12    1    1    2    0    0  0.28666904002E+01 -0.13526495623E+02  0.12629199212E+02  0.18726469781E+02  0.00000000000E+00 0.  1.
         11    1    3    3    0    0 -0.12502777625E+02 -0.19921747944E+02  0.11904896035E+02  0.26361374003E+02  0.51100000000E-03 0.  1.
        -11    1    3    3    0    0  0.86118463398E+01  0.26208931959E+02 -0.26783718788E+02  0.38450482497E+02  0.51100000000E-03 0. -1.
        -12    1    3    3    0    0  0.10242408853E+01  0.72393116075E+01  0.22496235410E+01  0.76496737197E+01  0.00000000000E+00 0.  1.
</event>
<event>
 7    1  0.1830715E-013  0.7246154E+02  0.7816164E-02  0.1226708E+00
        -11   -1    0    0    0    0  0.00000000000E+00  0.00000000000E+00  0.45593999997E+02  0.45594000000E+02  0.51100000000E-03 0.  1.
         11   -1    0    0    0    0 -0.00000000000E+00 -0.00000000000E+00 -0.45593999997E+02  0.45594000000E+02  0.51100000000E-03 0. -1.
    9900012    2    1    2    0    0 -0.14422463674E+02 -0.90468854484E+01 -0.77991520215E+01  0.72461538321E+02  0.69999958349E+02 0.  0.
        -12    1    1    2    0    0  0.14422463674E+02  0.90468854484E+01  0.77991520215E+01  0.18726461679E+02  0.00000000000E+00 0.  1.
         11    1    3    3    0    0  0.58190456123E+01 -0.17183962029E+02 -0.64866269177E+01  0.19267230520E+02  0.51100000000E-03 0. -1.
        -11    1    3    3    0    0 -0.38389677933E+01  0.27445430435E+02  0.11756207318E+01  0.27737545130E+02  0.51100000000E-03 0.  1.
        -12    1    3    3    0    0 -0.16402541493E+02 -0.19308353854E+02 -0.24881458355E+01  0.25456762671E+02  0.00000000000E+00 0.  1.
</event>
<event>
 7    1  0.1830715E-013  0.7246162E+02  0.7816164E-02  0.1226708E+00
        -11   -1    0    0    0    0  0.00000000000E+00  0.00000000000E+00  0.45593999997E+02  0.45594000000E+02  0.51100000000E-03 0.  1.
         11   -1    0    0    0    0 -0.00000000000E+00 -0.00000000000E+00 -0.45593999997E+02  0.45594000000E+02  0.51100000000E-03 0. -1.
    9900012    2    1    2    0    0  0.79277281633E+01  0.12293835734E+02 -0.11691454483E+02  0.72461618107E+02  0.70000062285E+02 0.  0.
        -12    1    1    2    0    0 -0.79277281633E+01 -0.12293835734E+02  0.11691454483E+02  0.18726381893E+02  0.00000000000E+00 0.  1.
         11    1    3    3    0    0 -0.18782345987E+02 -0.53406293513E+01 -0.17460393382E+02  0.26194735730E+02  0.51100000000E-03 0. -1.
        -11    1    3    3    0    0  0.18550475827E+02  0.56568256288E+00  0.16224557132E+02  0.24651093375E+02  0.51100000000E-03 0.  1.
         12    1    3    3    0    0  0.81595983228E+01  0.17068782522E+02 -0.10455618233E+02  0.21615789003E+02  0.00000000000E+00 0. -1.
</event>
<event>
 7    1  0.1830715E-013  0.7246153E+02  0.7816164E-02  0.1226708E+00
        -11   -1    0    0    0    0  0.00000000000E+00  0.00000000000E+00  0.45593999997E+02  0.45594000000E+02  0.51100000000E-03 0. -1.
         11   -1    0    0    0    0 -0.00000000000E+00 -0.00000000000E+00 -0.45593999997E+02  0.45594000000E+02  0.51100000000E-03 0.  1.
    9900012    2    1    2    0    0 -0.37741032596E+01  0.15915927383E+02  0.91170156542E+01  0.72461532786E+02  0.69999951139E+02 0.  0.
        -12    1    1    2    0    0  0.37741032596E+01 -0.15915927383E+02 -0.91170156542E+01  0.18726467214E+02  0.00000000000E+00 0.  1.
         11    1    3    3    0    0 -0.17757950291E+02  0.28621225264E+02  0.38833433518E+01  0.33905747153E+02  0.51100000000E-03 0. -1.
        -11    1    3    3    0    0  0.15992703968E+02 -0.22830984438E+02  0.37086250225E+01  0.28120709992E+02  0.51100000000E-03 0.  1.
        -12    1    3    3    0    0 -0.20088569367E+01  0.10125686557E+02  0.15250472799E+01  0.10435075642E+02  0.00000000000E+00 0.  1.
</event>
<event>
 7    1  0.1830715E-013  0.7246156E+02  0.7816164E-02  0.1226708E+00
        -11   -1    0    0    0    0  0.00000000000E+00  0.00000000000E+00  0.45593999997E+02  0.45594000000E+02  0.51100000000E-03 0.  1.
         11   -1    0    0    0    0 -0.00000000000E+00 -0.00000000000E+00 -0.45593999997E+02  0.45594000000E+02  0.51100000000E-03 0. -1.
    9900012    2    1    2    0    0 -0.11297526036E+02  0.12564374361E+02 -0.80735238059E+01  0.72461564561E+02  0.69999992531E+02 0.  0.
        -12    1    1    2    0    0  0.11297526036E+02 -0.12564374361E+02  0.80735238059E+01  0.18726435439E+02  0.00000000000E+00 0.  1.
         11    1    3    3    0    0  0.67298261286E+01  0.12473766270E+02  0.14395837680E+00  0.14174135916E+02  0.51100000000E-03 0. -1.
        -11    1    3    3    0    0  0.39857693840E+01 -0.21986593762E+02 -0.14291847716E+02  0.26524584336E+02  0.51100000000E-03 0.  1.
        -12    1    3    3    0    0 -0.22013121549E+02  0.22077201853E+02  0.60743655329E+01  0.31762844309E+02  0.00000000000E+00 0.  1.
</event>
<event>
 7    1  0.1830715E-013  0.7246156E+02  0.7816164E-02  0.1226708E+00
        -11   -1    0    0    0    0  0.00000000000E+00  0.00000000000E+00  0.45593999997E+02  0.45594000000E+02  0.51100000000E-03 0.  1.
         11   -1    0    0    0    0 -0.00000000000E+00 -0.00000000000E+00 -0.45593999997E+02  0.45594000000E+02  0.51100000000E-03 0. -1.
    9900012    2    1    2    0    0  0.55245603569E+01 -0.12078511226E+02 -0.13201074288E+02  0.72461559790E+02  0.69999986316E+02 0.  0.
        -12    1    1    2    0    0 -0.55245603569E+01  0.12078511226E+02  0.13201074288E+02  0.18726440210E+02  0.00000000000E+00 0.  1.
         11    1    3    3    0    0  0.20088510247E+02 -0.21174595310E+02 -0.30146249152E+01  0.29342796290E+02  0.51100000000E-03 0. -1.
        -11    1    3    3    0    0 -0.14643951198E+02  0.11664981768E+02  0.11041696585E+02  0.21735596841E+02  0.51100000000E-03 0.  1.
        -12    1    3    3    0    0  0.80001307165E-01 -0.25688976842E+01 -0.21228145958E+02  0.21383166658E+02  0.00000000000E+00 0.  1.
</event>
<event>
 7    1  0.1830715E-013  0.7246155E+02  0.7816164E-02  0.1226708E+00
        -11   -1    0    0    0    0  0.00000000000E+00  0.00000000000E+00  0.45593999997E+02  0.45594000000E+02  0.51100000000E-03 0.  1.
         11   -1    0    0    0    0 -0.00000000000E+00 -0.00000000000E+00 -0.45593999997E+02  0.45594000000E+02  0.51100000000E-03 0. -1.
    9900012    2    1    2    0    0 -0.24024152311E+00  0.11804027307E+02 -0.14535725331E+02  0.72461545783E+02  0.69999968069E+02 0.  0.
        -12    1    1    2    0    0  0.24024152311E+00 -0.11804027307E+02  0.14535725331E+02  0.18726454217E+02  0.00000000000E+00 0.  1.
         11    1    3    3    0    0  0.19979633175E+02 -0.14034803623E+01  0.20675669538E+01  0.20135300651E+02  0.51100000000E-03 0. -1.
        -11    1    3    3    0    0 -0.18708518334E+02  0.15420476351E+02 -0.30052385492E+02  0.38612765028E+02  0.51100000000E-03 0.  1.
        -12    1    3    3    0    0 -0.15113563647E+01 -0.22129686818E+01  0.13449093207E+02  0.13713480103E+02  0.00000000000E+00 0.  1.
</event>
<event>
 7    1  0.1830715E-013  0.7246157E+02  0.7816164E-02  0.1226708E+00
        -11   -1    0    0    0    0  0.00000000000E+00  0.00000000000E+00  0.45593999997E+02  0.45594000000E+02  0.51100000000E-03 0.  1.
         11   -1    0    0    0    0 -0.00000000000E+00 -0.00000000000E+00 -0.45593999997E+02  0.45594000000E+02  0.51100000000E-03 0. -1.
    9900012    2    1    2    0    0  0.30147080116E+01 -0.59958477681E+01 -0.17482579463E+02  0.72461568425E+02  0.69999997565E+02 0.  0.
        -12    1    1    2    0    0 -0.30147080116E+01  0.59958477681E+01  0.17482579463E+02  0.18726431575E+02  0.00000000000E+00 0.  1.
         11    1    3    3    0    0 -0.69957876548E+01 -0.97060349715E+01 -0.26347676402E+02  0.28936969638E+02  0.51100000000E-03 0. -1.
        -11    1    3    3    0    0  0.89547658385E+01  0.17850139725E+02  0.17811035911E+02  0.26759079205E+02  0.51100000000E-03 0.  1.
        -12    1    3    3    0    0  0.10557298279E+01 -0.14139952521E+02 -0.89459389714E+01  0.16765519582E+02  0.00000000000E+00 0.  1.
</event>
<event>
 7    1  0.1830715E-013  0.7246143E+02  0.7816164E-02  0.1226708E+00
        -11   -1    0    0    0    0  0.00000000000E+00  0.00000000000E+00  0.45593999997E+02  0.45594000000E+02  0.51100000000E-03 0.  1.
         11   -1    0    0    0    0 -0.00000000000E+00 -0.00000000000E+00 -0.45593999997E+02  0.45594000000E+02  0.51100000000E-03 0. -1.
    9900012    2    1    2    0    0  0.34077180434E+01  0.12589334545E+02 -0.13438029273E+02  0.72461427508E+02  0.69999813994E+02 0.  0.
        -12    1    1    2    0    0 -0.34077180434E+01 -0.12589334545E+02  0.13438029273E+02  0.18726572492E+02  0.00000000000E+00 0.  1.
         11    1    3    3    0    0 -0.40093485714E+01 -0.12982397075E+02  0.16026260534E+02  0.21010914705E+02  0.51100000000E-03 0.  1.
        -11    1    3    3    0    0 -0.20820737341E+01  0.20403379529E+02 -0.34013557635E+02  0.39718446980E+02  0.51100000000E-03 0. -1.
         12    1    3    3    0    0  0.94991403488E+01  0.51683520915E+01  0.45492678274E+01  0.11732065823E+02  0.00000000000E+00 0. -1.
</event>
<event>
 7    1  0.1830715E-013  0.7246157E+02  0.7816164E-02  0.1226708E+00
        -11   -1    0    0    0    0  0.00000000000E+00  0.00000000000E+00  0.45593999997E+02  0.45594000000E+02  0.51100000000E-03 0.  1.
         11   -1    0    0    0    0 -0.00000000000E+00 -0.00000000000E+00 -0.45593999997E+02  0.45594000000E+02  0.51100000000E-03 0. -1.
    9900012    2    1    2    0    0 -0.41370076337E+01 -0.16627299448E+02 -0.75562672074E+01  0.72461572332E+02  0.70000002654E+02 0.  0.
        -12    1    1    2    0    0  0.41370076337E+01  0.16627299448E+02  0.75562672074E+01  0.18726427668E+02  0.00000000000E+00 0.  1.
         11    1    3    3    0    0 -0.11050593369E+02 -0.31305250229E+02  0.10829699260E+02  0.34920147365E+02  0.51100000000E-03 0. -1.
        -11    1    3    3    0    0 -0.10714282201E+01  0.15189516371E+02  0.22647664247E+01  0.15394756680E+02  0.51100000000E-03 0.  1.
         12    1    3    3    0    0  0.79850139557E+01 -0.51156559065E+00 -0.20650732892E+02  0.22146668287E+02  0.00000000000E+00 0. -1.
</event>
<event>
 7    1  0.1830715E-013  0.7246157E+02  0.7816164E-02  0.1226708E+00
        -11   -1    0    0    0    0  0.00000000000E+00  0.00000000000E+00  0.45593999997E+02  0.45594000000E+02  0.51100000000E-03 0. -1.
         11   -1    0    0    0    0 -0.00000000000E+00 -0.00000000000E+00 -0.45593999997E+02  0.45594000000E+02  0.51100000000E-03 0.  1.
    9900012    2    1    2    0    0 -0.13259675607E+02 -0.77379839553E+00  0.13200815058E+02  0.72461567361E+02  0.69999996179E+02 0.  0.
        -12    1    1    2    0    0  0.13259675607E+02  0.77379839553E+00 -0.13200815058E+02  0.18726432639E+02  0.00000000000E+00 0.  1.
         11    1    3    3    0    0 -0.30277733701E+01 -0.62255624018E+01  0.25456483476E+02  0.26381008132E+02  0.51100000000E-03 0. -1.
        -11    1    3    3    0    0  0.10316415074E+02  0.15781411092E+02 -0.13276004715E+02  0.23059350760E+02  0.51100000000E-03 0.  1.
        -12    1    3    3    0    0 -0.20548317311E+02 -0.10329647086E+02  0.10203362967E+01  0.23021208470E+02  0.00000000000E+00 0.  1.
</event>
<event>
 7    1  0.1830715E-013  0.7246170E+02  0.7816164E-02  0.1226708E+00
        -11   -1    0    0    0    0  0.00000000000E+00  0.00000000000E+00  0.45593999997E+02  0.45594000000E+02  0.51100000000E-03 0.  1.
         11   -1    0    0    0    0 -0.00000000000E+00 -0.00000000000E+00 -0.45593999997E+02  0.45594000000E+02  0.51100000000E-03 0. -1.
    9900012    2    1    2    0    0  0.14803447066E+02 -0.94633375411E+01  0.64790022752E+01  0.72461701035E+02  0.70000170314E+02 0.  0.
        -12    1    1    2    0    0 -0.14803447066E+02  0.94633375411E+01 -0.64790022752E+01  0.18726298965E+02  0.00000000000E+00 0.  1.
         11    1    3    3    0    0 -0.48784607330E+01 -0.29903311749E+02  0.12009808867E+02  0.32592068697E+02  0.51100000000E-03 0. -1.
        -11    1    3    3    0    0  0.17993267657E+02  0.73080100734E+01  0.79403024847E+01  0.20981255825E+02  0.51100000000E-03 0.  1.
         12    1    3    3    0    0  0.16886401423E+01  0.13131964134E+02 -0.13471109076E+02  0.18888376513E+02  0.00000000000E+00 0. -1.
</event>
<event>
 7    1  0.2312731E-013  0.7246155E+02  0.7816164E-02  0.1226708E+00
        -11   -1    0    0    0    0  0.00000000000E+00  0.00000000000E+00  0.45593999997E+02  0.45594000000E+02  0.51100000000E-03 0. -1.
         11   -1    0    0    0    0 -0.00000000000E+00 -0.00000000000E+00 -0.45593999997E+02  0.45594000000E+02  0.51100000000E-03 0.  1.
    9900012    2    1    2    0    0  0.66246124782E+01 -0.58333494482E+01  0.16515643208E+02  0.72461550074E+02  0.69999973659E+02 0.  0.
        -12    1    1    2    0    0 -0.66246124782E+01  0.58333494482E+01 -0.16515643208E+02  0.18726449926E+02  0.00000000000E+00 0.  1.
         11    1    3    3    0    0 -0.31074030783E+01 -0.19110777469E+02  0.12885817686E+02  0.23257731339E+02  0.51100000000E-03 0. -1.
        -11    1    3    3    0    0 -0.14711993386E+02  0.18929873017E+02  0.21609673488E+01  0.24071822158E+02  0.51100000000E-03 0.  1.
        -12    1    3    3    0    0  0.24444008942E+02 -0.56524449966E+01  0.14688581730E+01  0.25131996577E+02  0.00000000000E+00 0.  1.
</event>
<event>
 7    1  0.1830715E-013  0.7246161E+02  0.7816164E-02  0.1226708E+00
        -11   -1    0    0    0    0  0.00000000000E+00  0.00000000000E+00  0.45593999997E+02  0.45594000000E+02  0.51100000000E-03 0.  1.
         11   -1    0    0    0    0 -0.00000000000E+00 -0.00000000000E+00 -0.45593999997E+02  0.45594000000E+02  0.51100000000E-03 0. -1.
    9900012    2    1    2    0    0 -0.16860352071E+02  0.29505128356E+01 -0.75961031529E+01  0.72461607366E+02  0.70000048293E+02 0.  0.
        -12    1    1    2    0    0  0.16860352071E+02 -0.29505128356E+01  0.75961031529E+01  0.18726392634E+02  0.00000000000E+00 0.  1.
         11    1    3    3    0    0 -0.85422853779E+00 -0.16147866970E+02  0.38290299099E+01  0.16617604653E+02  0.51100000000E-03 0.  1.
        -11    1    3    3    0    0 -0.32947537259E+01 -0.28611200497E+01 -0.26147374080E+02  0.26508990580E+02  0.51100000000E-03 0. -1.
        -12    1    3    3    0    0 -0.12711369808E+02  0.21959499856E+02  0.14722241017E+02  0.29335012133E+02  0.00000000000E+00 0.  1.
</event>
<event>
 7    1  0.1830715E-013  0.7246157E+02  0.7816164E-02  0.1226708E+00
        -11   -1    0    0    0    0  0.00000000000E+00  0.00000000000E+00  0.45593999997E+02  0.45594000000E+02  0.51100000000E-03 0. -1.
         11   -1    0    0    0    0 -0.00000000000E+00 -0.00000000000E+00 -0.45593999997E+02  0.45594000000E+02  0.51100000000E-03 0.  1.
    9900012    2    1    2    0    0  0.14120479077E+02 -0.88478028773E+01  0.85444572176E+01  0.72461566963E+02  0.69999995661E+02 0.  0.
        -12    1    1    2    0    0 -0.14120479077E+02  0.88478028773E+01 -0.85444572176E+01  0.18726433037E+02  0.00000000000E+00 0.  1.
         11    1    3    3    0    0  0.27371097485E+02  0.16117428958E+02  0.61695259915E+01  0.32357557772E+02  0.51100000000E-03 0. -1.
        -11    1    3    3    0    0 -0.10931146237E+02 -0.25523472871E+01  0.11244618142E+02  0.15888545312E+02  0.51100000000E-03 0.  1.
         12    1    3    3    0    0 -0.23194721702E+01 -0.22412884548E+02 -0.88696869156E+01  0.24215463879E+02  0.00000000000E+00 0. -1.
</event>
<event>
 7    1  0.1830715E-013  0.7246157E+02  0.7816164E-02  0.1226708E+00
        -11   -1    0    0    0    0  0.00000000000E+00  0.00000000000E+00  0.45593999997E+02  0.45594000000E+02  0.51100000000E-03 0.  1.
         11   -1    0    0    0    0 -0.00000000000E+00 -0.00000000000E+00 -0.45593999997E+02  0.45594000000E+02  0.51100000000E-03 0. -1.
    9900012    2    1    2    0    0 -0.64201150719E+01  0.78361297354E+01 -0.15749800709E+02  0.72461574043E+02  0.70000004883E+02 0.  0.
        -12    1    1    2    0    0  0.64201150719E+01 -0.78361297354E+01  0.15749800709E+02  0.18726425957E+02  0.00000000000E+00 0.  1.
         11    1    3    3    0    0  0.19647196250E+02  0.13470745465E+02 -0.26173295021E+01  0.23965052010E+02  0.51100000000E-03 0. -1.
        -11    1    3    3    0    0 -0.15803970778E+02 -0.20693025310E+02 -0.60660559920E-02  0.26037796103E+02  0.51100000000E-03 0.  1.
        -12    1    3    3    0    0 -0.10263340543E+02  0.15058409581E+02 -0.13126405151E+02  0.22458725930E+02  0.00000000000E+00 0.  1.
</event>
<event>
 7    1  0.1830715E-013  0.7246187E+02  0.7816164E-02  0.1226707E+00
        -11   -1    0    0    0    0  0.00000000000E+00  0.00000000000E+00  0.45593999997E+02  0.45594000000E+02  0.51100000000E-03 0. -1.
         11   -1    0    0    0    0 -0.00000000000E+00 -0.00000000000E+00 -0.45593999997E+02  0.45594000000E+02  0.51100000000E-03 0.  1.
    9900012    2    1    2    0    0  0.71385813341E+01  0.12015497770E+02  0.12463408455E+02  0.72461866378E+02  0.70000385702E+02 0.  0.
        -12    1    1    2    0    0 -0.71385813341E+01 -0.12015497770E+02 -0.12463408455E+02  0.18726133622E+02  0.00000000000E+00 0.  1.
         11    1    3    3    0    0  0.10807514920E+02 -0.28001501686E+02  0.81747805730E+01  0.31108094013E+02  0.51100000000E-03 0. -1.
        -11    1    3    3    0    0  0.58248562798E+00  0.17050484251E+02 -0.19680919840E+01  0.17173575313E+02  0.51100000000E-03 0.  1.
         12    1    3    3    0    0 -0.42514192135E+01  0.22966515205E+02  0.62567198664E+01  0.24180197052E+02  0.00000000000E+00 0. -1.
</event>
<event>
 7    1  0.1830715E-013  0.7246155E+02  0.7816164E-02  0.1226708E+00
        -11   -1    0    0    0    0  0.00000000000E+00  0.00000000000E+00  0.45593999997E+02  0.45594000000E+02  0.51100000000E-03 0.  1.
         11   -1    0    0    0    0 -0.00000000000E+00 -0.00000000000E+00 -0.45593999997E+02  0.45594000000E+02  0.51100000000E-03 0. -1.
    9900012    2    1    2    0    0  0.93288798292E+01  0.67019387919E+01  0.14789725833E+02  0.72461548851E+02  0.69999972065E+02 0.  0.
        -12    1    1    2    0    0 -0.93288798292E+01 -0.67019387919E+01 -0.14789725833E+02  0.18726451149E+02  0.00000000000E+00 0.  1.
         11    1    3    3    0    0  0.12974574970E+02  0.36275205477E+01  0.33662944344E+02  0.36258686175E+02  0.51100000000E-03 0.  1.
        -11    1    3    3    0    0 -0.11622963032E+02 -0.80420122482E+01 -0.16855242727E+01  0.14234051530E+02  0.51100000000E-03 0. -1.
         12    1    3    3    0    0  0.79772678909E+01  0.11116430492E+02 -0.17187694238E+02  0.21968811145E+02  0.00000000000E+00 0. -1.
</event>
<event>
 7    1  0.1830715E-013  0.7246159E+02  0.7816164E-02  0.1226708E+00
        -11   -1    0    0    0    0  0.00000000000E+00  0.00000000000E+00  0.45593999997E+02  0.45594000000E+02  0.51100000000E-03 0. -1.
         11   -1    0    0    0    0 -0.00000000000E+00 -0.00000000000E+00 -0.45593999997E+02  0.45594000000E+02  0.51100000000E-03 0.  1.
    9900012    2    1    2    0    0 -0.12161176111E+02 -0.14003775650E+02  0.25842495301E+01  0.72461593978E+02  0.70000030853E+02 0.  0.
        -12    1    1    2    0    0  0.12161176111E+02  0.14003775650E+02 -0.25842495301E+01  0.18726406022E+02  0.00000000000E+00 0.  1.
         11    1    3    3    0    0 -0.50582509331E+01 -0.13029074735E+02  0.34649771742E+02  0.37362405878E+02  0.51100000000E-03 0. -1.
        -11    1    3    3    0    0  0.18953346130E+01  0.63365245318E+00 -0.19273706400E+02  0.19377037115E+02  0.51100000000E-03 0.  1.
         12    1    3    3    0    0 -0.89982597905E+01 -0.16083533688E+01 -0.12791815812E+02  0.15722150985E+02  0.00000000000E+00 0. -1.
</event>
<event>
 7    1  0.1830715E-013  0.7246159E+02  0.7816164E-02  0.1226708E+00
        -11   -1    0    0    0    0  0.00000000000E+00  0.00000000000E+00  0.45593999997E+02  0.45594000000E+02  0.51100000000E-03 0.  1.
         11   -1    0    0    0    0 -0.00000000000E+00 -0.00000000000E+00 -0.45593999997E+02  0.45594000000E+02  0.51100000000E-03 0. -1.
    9900012    2    1    2    0    0 -0.13034685886E+02 -0.41373333429E+01 -0.12792883444E+02  0.72461590036E+02  0.70000025718E+02 0.  0.
        -12    1    1    2    0    0  0.13034685886E+02  0.41373333429E+01  0.12792883444E+02  0.18726409964E+02  0.00000000000E+00 0.  1.
         11    1    3    3    0    0 -0.80190777657E+00  0.18021157580E+02  0.66815938738E+01  0.19236654428E+02  0.51100000000E-03 0. -1.
        -11    1    3    3    0    0  0.13986576717E+02 -0.27718374632E+01 -0.14326626065E+02  0.20212857934E+02  0.51100000000E-03 0.  1.
        -12    1    3    3    0    0 -0.26219354826E+02 -0.19386653460E+02 -0.51478512522E+01  0.33012077675E+02  0.00000000000E+00 0.  1.
</event>
<event>
 7    1  0.1830715E-013  0.7246151E+02  0.7816164E-02  0.1226708E+00
        -11   -1    0    0    0    0  0.00000000000E+00  0.00000000000E+00  0.45593999997E+02  0.45594000000E+02  0.51100000000E-03 0. -1.
         11   -1    0    0    0    0 -0.00000000000E+00 -0.00000000000E+00 -0.45593999997E+02  0.45594000000E+02  0.51100000000E-03 0.  1.
    9900012    2    1    2    0    0  0.45028239654E+01  0.14183185441E+02 -0.11368525877E+02  0.72461506640E+02  0.69999917079E+02 0.  0.
        -12    1    1    2    0    0 -0.45028239654E+01 -0.14183185441E+02  0.11368525877E+02  0.18726493360E+02  0.00000000000E+00 0.  1.
         11    1    3    3    0    0 -0.16226791781E+02 -0.60378676695E+00 -0.75506853446E+01  0.17907712847E+02  0.51100000000E-03 0. -1.
        -11    1    3    3    0    0  0.25163147033E+02 -0.38277312219E+01 -0.17623177744E+02  0.30958228130E+02  0.51100000000E-03 0.  1.
        -12    1    3    3    0    0 -0.44335312861E+01  0.18614703430E+02  0.13805337211E+02  0.23595565663E+02  0.00000000000E+00 0.  1.
</event>
<event>
 7    1  0.1830715E-013  0.7246156E+02  0.7816164E-02  0.1226708E+00
        -11   -1    0    0    0    0  0.00000000000E+00  0.00000000000E+00  0.45593999997E+02  0.45594000000E+02  0.51100000000E-03 0. -1.
         11   -1    0    0    0    0 -0.00000000000E+00 -0.00000000000E+00 -0.45593999997E+02  0.45594000000E+02  0.51100000000E-03 0.  1.
    9900012    2    1    2    0    0  0.12635299731E+02 -0.11376195204E+02  0.78492529001E+01  0.72461564469E+02  0.69999992411E+02 0.  0.
        -12    1    1    2    0    0 -0.12635299731E+02  0.11376195204E+02 -0.78492529001E+01  0.18726435531E+02  0.00000000000E+00 0.  1.
         11    1    3    3    0    0  0.13967603705E-01 -0.23513526047E+02  0.72327060967E+01  0.24600775191E+02  0.51100000000E-03 0.  1.
        -11    1    3    3    0    0  0.13917124559E+02  0.26663113340E+02  0.85376230645E+01  0.31264980039E+02  0.51100000000E-03 0. -1.
         12    1    3    3    0    0 -0.12957924312E+01 -0.14525782496E+02 -0.79210762612E+01  0.16595809239E+02  0.00000000000E+00 0. -1.
</event>
<event>
 7    1  0.1830715E-013  0.7246153E+02  0.7816164E-02  0.1226708E+00
        -11   -1    0    0    0    0  0.00000000000E+00  0.00000000000E+00  0.45593999997E+02  0.45594000000E+02  0.51100000000E-03 0.  1.
         11   -1    0    0    0    0 -0.00000000000E+00 -0.00000000000E+00 -0.45593999997E+02  0.45594000000E+02  0.51100000000E-03 0. -1.
    9900012    2    1    2    0    0  0.18634586098E+02 -0.15698347197E+01 -0.98402920835E+00  0.72461534942E+02  0.69999953947E+02 0.  0.
        -12    1    1    2    0    0 -0.18634586098E+02  0.15698347197E+01  0.98402920835E+00  0.18726465058E+02  0.00000000000E+00 0.  1.
         11    1    3    3    0    0  0.17462547761E+01  0.15331436759E+02 -0.15496550058E+02  0.21868823077E+02  0.51100000000E-03 0. -1.
        -11    1    3    3    0    0 -0.93096045979E+01 -0.19446847979E+02  0.26528522661E+01  0.21722943160E+02  0.51100000000E-03 0.  1.
        -12    1    3    3    0    0  0.26197935920E+02  0.25455765006E+01  0.11859668583E+02  0.28869768705E+02  0.00000000000E+00 0.  1.
</event>
<event>
 7    1  0.1830715E-013  0.7246155E+02  0.7816164E-02  0.1226708E+00
        -11   -1    0    0    0    0  0.00000000000E+00  0.00000000000E+00  0.45593999997E+02  0.45594000000E+02  0.51100000000E-03 0.  1.
         11   -1    0    0    0    0 -0.00000000000E+00 -0.00000000000E+00 -0.45593999997E+02  0.45594000000E+02  0.51100000000E-03 0. -1.
    9900012    2    1    2    0    0 -0.10184527987E+01 -0.94073628855E+01 -0.16159955801E+02  0.72461550949E+02  0.69999974799E+02 0.  0.
        -12    1    1    2    0    0  0.10184527987E+01  0.94073628855E+01  0.16159955801E+02  0.18726449051E+02  0.00000000000E+00 0.  1.
         11    1    3    3    0    0  0.22030994790E+02 -0.16475844367E+02 -0.12664682849E+02  0.30285514210E+02  0.51100000000E-03 0. -1.
        -11    1    3    3    0    0 -0.11591742295E+02  0.19282438434E+02 -0.94491839243E+01  0.24402212984E+02  0.51100000000E-03 0.  1.
        -12    1    3    3    0    0 -0.11457705294E+02 -0.12213956953E+02  0.59539109721E+01  0.17773823756E+02  0.00000000000E+00 0.  1.
</event>
<event>
 7    1  0.1830715E-013  0.7246152E+02  0.7816164E-02  0.1226708E+00
        -11   -1    0    0    0    0  0.00000000000E+00  0.00000000000E+00  0.45593999997E+02  0.45594000000E+02  0.51100000000E-03 0.  1.
         11   -1    0    0    0    0 -0.00000000000E+00 -0.00000000000E+00 -0.45593999997E+02  0.45594000000E+02  0.51100000000E-03 0. -1.
    9900012    2    1    2    0    0  0.72027496126E+01 -0.65078015902E+01  0.16014055821E+02  0.72461519622E+02  0.69999933990E+02 0.  0.
        -12    1    1    2    0    0 -0.72027496126E+01  0.65078015902E+01 -0.16014055821E+02  0.18726480378E+02  0.00000000000E+00 0.  1.
         11    1    3    3    0    0 -0.33161205628E+01  0.19387748026E+02  0.60140715429E+01  0.20568191118E+02  0.51100000000E-03 0.  1.
        -11    1    3    3    0    0  0.15667871040E+02 -0.31119909177E+02 -0.49975035417E+01  0.35198096142E+02  0.51100000000E-03 0. -1.
         12    1    3    3    0    0 -0.51490008644E+01  0.52243595612E+01  0.14997487820E+02  0.16695232362E+02  0.00000000000E+00 0. -1.
</event>
<event>
 7    1  0.1830715E-013  0.7246154E+02  0.7816164E-02  0.1226708E+00
        -11   -1    0    0    0    0  0.00000000000E+00  0.00000000000E+00  0.45593999997E+02  0.45594000000E+02  0.51100000000E-03 0. -1.
         11   -1    0    0    0    0 -0.00000000000E+00 -0.00000000000E+00 -0.45593999997E+02  0.45594000000E+02  0.51100000000E-03 0.  1.
    9900012    2    1    2    0    0 -0.96908715305E-01 -0.13448070455E+02  0.13031510194E+02  0.72461541493E+02  0.69999962481E+02 0.  0.
        -12    1    1    2    0    0  0.96908715305E-01  0.13448070455E+02 -0.13031510194E+02  0.18726458507E+02  0.00000000000E+00 0.  1.
         11    1    3    3    0    0 -0.12036117900E+02  0.14157817959E+02  0.14943729013E+02  0.23845900707E+02  0.51100000000E-03 0. -1.
        -11    1    3    3    0    0 -0.39214786891E+01 -0.23424475475E+02 -0.14599550368E+02  0.27878861484E+02  0.51100000000E-03 0.  1.
         12    1    3    3    0    0  0.15860687874E+02 -0.41814129383E+01  0.12687331550E+02  0.20736779303E+02  0.00000000000E+00 0. -1.
</event>
<event>
 8    1  0.1830715E-013  0.7246162E+02  0.7816164E-02  0.1226708E+00
        -11   -1    0    0    0    0  0.00000000000E+00  0.00000000000E+00  0.45593999997E+02  0.45594000000E+02  0.51100000000E-03 0. -1.
         11   -1    0    0    0    0 -0.00000000000E+00 -0.00000000000E+00 -0.45593999997E+02  0.45594000000E+02  0.51100000000E-03 0.  1.
    9900012    2    1    2    0    0 -0.48613887244E+01 -0.15989215847E+02 -0.84492143776E+01  0.72461618947E+02  0.70000063379E+02 0.  0.
         24    2    3    3    0    0  0.44420920920E+01 -0.14962954454E+02  0.72164386690E+01  0.54212765466E+02  0.51413274203E+02 0.  0.
        -12    1    1    2    0    0  0.48613887244E+01  0.15989215847E+02  0.84492143776E+01  0.18726381053E+02  0.00000000000E+00 0.  1.
         11    1    3    3    0    0 -0.93034808165E+01 -0.10262613929E+01 -0.15665653047E+02  0.18248853481E+02  0.51100000000E-03 0.  1.
        -11    1    4    4    0    0  0.17093524357E+02 -0.20001800555E+02  0.21866329736E+02  0.34211065122E+02  0.51100000000E-03 0. -1.
         12    1    4    4    0    0 -0.12651432265E+02  0.50388461012E+01 -0.14649891067E+02  0.20001700344E+02  0.00000000000E+00 0. -1.
</event>
<event>
 7    1  0.1830715E-013  0.7246155E+02  0.7816164E-02  0.1226708E+00
        -11   -1    0    0    0    0  0.00000000000E+00  0.00000000000E+00  0.45593999997E+02  0.45594000000E+02  0.51100000000E-03 0.  1.
         11   -1    0    0    0    0 -0.00000000000E+00 -0.00000000000E+00 -0.45593999997E+02  0.45594000000E+02  0.51100000000E-03 0. -1.
    9900012    2    1    2    0    0 -0.38265650062E+01  0.18135661134E+02 -0.26711575870E+01  0.72461551128E+02  0.69999975032E+02 0.  0.
        -12    1    1    2    0    0  0.38265650062E+01 -0.18135661134E+02  0.26711575870E+01  0.18726448872E+02  0.00000000000E+00 0.  1.
         11    1    3    3    0    0 -0.47391499295E+01  0.53081363141E+01 -0.68295115313E+01  0.98629651323E+01  0.51100000000E-03 0. -1.
        -11    1    3    3    0    0  0.43546626994E+01 -0.13750193920E+02  0.24855484122E+02  0.28737188646E+02  0.51100000000E-03 0.  1.
        -12    1    3    3    0    0 -0.34420777761E+01  0.26577718740E+02 -0.20697130178E+02  0.33861397349E+02  0.00000000000E+00 0.  1.
</event>
<event>
 7    1  0.1830715E-013  0.7246158E+02  0.7816164E-02  0.1226708E+00
        -11   -1    0    0    0    0  0.00000000000E+00  0.00000000000E+00  0.45593999997E+02  0.45594000000E+02  0.51100000000E-03 0.  1.
         11   -1    0    0    0    0 -0.00000000000E+00 -0.00000000000E+00 -0.45593999997E+02  0.45594000000E+02  0.51100000000E-03 0. -1.
    9900012    2    1    2    0    0  0.12536750859E+02  0.76504997567E+01 -0.11618027863E+02  0.72461579091E+02  0.70000011459E+02 0.  0.
        -12    1    1    2    0    0 -0.12536750859E+02 -0.76504997567E+01  0.11618027863E+02  0.18726420909E+02  0.00000000000E+00 0.  1.
         11    1    3    3    0    0 -0.31905480864E+01  0.28206141222E+02 -0.26171950239E+02  0.38610063187E+02  0.51100000000E-03 0. -1.
        -11    1    3    3    0    0  0.63446688038E+00 -0.10581586898E+02  0.11257321930E+02  0.15462853126E+02  0.51100000000E-03 0.  1.
         12    1    3    3    0    0  0.15092832065E+02 -0.99740545676E+01  0.32966004464E+01  0.18388662778E+02  0.00000000000E+00 0. -1.
</event>
<event>
 7    1  0.1830715E-013  0.7246156E+02  0.7816164E-02  0.1226708E+00
        -11   -1    0    0    0    0  0.00000000000E+00  0.00000000000E+00  0.45593999997E+02  0.45594000000E+02  0.51100000000E-03 0. -1.
         11   -1    0    0    0    0 -0.00000000000E+00 -0.00000000000E+00 -0.45593999997E+02  0.45594000000E+02  0.51100000000E-03 0.  1.
    9900012    2    1    2    0    0  0.62627847132E+01  0.61600572249E+01  0.16538163800E+02  0.72461557753E+02  0.69999983662E+02 0.  0.
        -12    1    1    2    0    0 -0.62627847132E+01 -0.61600572249E+01 -0.16538163800E+02  0.18726442247E+02  0.00000000000E+00 0.  1.
         11    1    3    3    0    0 -0.31163331493E+01  0.11944966075E+02 -0.14891234816E+02  0.19342766644E+02  0.51100000000E-03 0.  1.
        -11    1    3    3    0    0 -0.12143696287E+02 -0.89995189798E+01  0.26952619683E+02  0.30901527623E+02  0.51100000000E-03 0. -1.
         12    1    3    3    0    0  0.21522814150E+02  0.32146101295E+01  0.44767789320E+01  0.22217263486E+02  0.00000000000E+00 0. -1.
</event>
<event>
 7    1  0.1830715E-013  0.7246155E+02  0.7816164E-02  0.1226708E+00
        -11   -1    0    0    0    0  0.00000000000E+00  0.00000000000E+00  0.45593999997E+02  0.45594000000E+02  0.51100000000E-03 0.  1.
         11   -1    0    0    0    0 -0.00000000000E+00 -0.00000000000E+00 -0.45593999997E+02  0.45594000000E+02  0.51100000000E-03 0. -1.
    9900012    2    1    2    0    0 -0.13657127233E+01  0.88843230686E+01 -0.16428137767E+02  0.72461546035E+02  0.69999968398E+02 0.  0.
        -12    1    1    2    0    0  0.13657127233E+01 -0.88843230686E+01  0.16428137767E+02  0.18726453965E+02  0.00000000000E+00 0.  1.
         11    1    3    3    0    0 -0.19091276000E+02 -0.77938232658E+01  0.11694208459E+02  0.23706012152E+02  0.51100000000E-03 0. -1.
        -11    1    3    3    0    0  0.14327984677E+02  0.26026177498E+02 -0.22972087845E+02  0.37554891563E+02  0.51100000000E-03 0.  1.
         12    1    3    3    0    0  0.33975786007E+01 -0.93480311640E+01 -0.51502583802E+01  0.11200642320E+02  0.00000000000E+00 0. -1.
</event>
<event>
 7    1  0.1830715E-013  0.7246156E+02  0.7816164E-02  0.1226708E+00
        -11   -1    0    0    0    0  0.00000000000E+00  0.00000000000E+00  0.45593999997E+02  0.45594000000E+02  0.51100000000E-03 0.  1.
         11   -1    0    0    0    0 -0.00000000000E+00 -0.00000000000E+00 -0.45593999997E+02  0.45594000000E+02  0.51100000000E-03 0. -1.
    9900012    2    1    2    0    0 -0.25993788762E+01 -0.11920433987E+02 -0.14206544614E+02  0.72461563423E+02  0.69999991049E+02 0.  0.
        -12    1    1    2    0    0  0.25993788762E+01  0.11920433987E+02  0.14206544614E+02  0.18726436577E+02  0.00000000000E+00 0.  1.
         11    1    3    3    0    0  0.77165098310E+01 -0.56910214687E+01 -0.13141321550E+02  0.16267347100E+02  0.51100000000E-03 0. -1.
        -11    1    3    3    0    0  0.27993188895E+01  0.21217130543E+02  0.10262519712E+02  0.23734408057E+02  0.51100000000E-03 0.  1.
        -12    1    3    3    0    0 -0.13115207597E+02 -0.27446543061E+02 -0.11327742776E+02  0.32459808266E+02  0.00000000000E+00 0.  1.
</event>
<event>
 7    1  0.1830715E-013  0.7246162E+02  0.7816164E-02  0.1226708E+00
        -11   -1    0    0    0    0  0.00000000000E+00  0.00000000000E+00  0.45593999997E+02  0.45594000000E+02  0.51100000000E-03 0.  1.
         11   -1    0    0    0    0 -0.00000000000E+00 -0.00000000000E+00 -0.45593999997E+02  0.45594000000E+02  0.51100000000E-03 0. -1.
    9900012    2    1    2    0    0 -0.14227730490E+02 -0.74440004595E+01 -0.96351304770E+01  0.72461622960E+02  0.70000068607E+02 0.  0.
        -12    1    1    2    0    0  0.14227730490E+02  0.74440004595E+01  0.96351304770E+01  0.18726377040E+02  0.00000000000E+00 0.  1.
         11    1    3    3    0    0 -0.21356650284E+02 -0.12200774643E+02 -0.26883174623E+02  0.36437213001E+02  0.51100000000E-03 0. -1.
        -11    1    3    3    0    0  0.64090677848E+01 -0.12049816598E+02  0.29878433837E+01  0.13971450829E+02  0.51100000000E-03 0.  1.
         12    1    3    3    0    0  0.71985200917E+00  0.16806590782E+02  0.14260200762E+02  0.22052959130E+02  0.00000000000E+00 0. -1.
</event>
<event>
 8    1  0.1830715E-013  0.7246188E+02  0.7816164E-02  0.1226707E+00
        -11   -1    0    0    0    0  0.00000000000E+00  0.00000000000E+00  0.45593999997E+02  0.45594000000E+02  0.51100000000E-03 0.  1.
         11   -1    0    0    0    0 -0.00000000000E+00 -0.00000000000E+00 -0.45593999997E+02  0.45594000000E+02  0.51100000000E-03 0. -1.
    9900012    2    1    2    0    0 -0.95283786869E+01 -0.39128488727E+01  0.15638644532E+02  0.72461879486E+02  0.70000402779E+02 0.  0.
        -24    2    3    3    0    0 -0.23040121130E+02 -0.32816292725E+00  0.11743643139E+02  0.57950222335E+02  0.51859042046E+02 0.  0.
        -12    1    1    2    0    0  0.95283786869E+01  0.39128488727E+01 -0.15638644532E+02  0.18726120514E+02  0.00000000000E+00 0.  1.
         11    1    4    4    0    0 -0.22530271597E+02 -0.63248074706E+01 -0.16781933108E+02  0.28796694375E+02  0.51100000000E-03 0. -1.
        -11    1    3    3    0    0  0.13511742443E+02 -0.35846859455E+01  0.38950013929E+01  0.14511657151E+02  0.51100000000E-03 0.  1.
        -12    1    4    4    0    0 -0.50984953217E+00  0.59966445433E+01  0.28525576247E+02  0.29153527961E+02  0.00000000000E+00 0.  1.
</event>
<event>
 7    1  0.1830715E-013  0.7246157E+02  0.7816164E-02  0.1226708E+00
        -11   -1    0    0    0    0  0.00000000000E+00  0.00000000000E+00  0.45593999997E+02  0.45594000000E+02  0.51100000000E-03 0. -1.
         11   -1    0    0    0    0 -0.00000000000E+00 -0.00000000000E+00 -0.45593999997E+02  0.45594000000E+02  0.51100000000E-03 0.  1.
    9900012    2    1    2    0    0  0.13533735720E+02  0.50792873950E+01  0.11904538082E+02  0.72461569749E+02  0.69999999290E+02 0.  0.
        -12    1    1    2    0    0 -0.13533735720E+02 -0.50792873950E+01 -0.11904538082E+02  0.18726430251E+02  0.00000000000E+00 0.  1.
         11    1    3    3    0    0 -0.25452834703E+02 -0.11838210205E+01  0.11070281128E+02  0.27781276989E+02  0.51100000000E-03 0. -1.
        -11    1    3    3    0    0  0.47815533762E+00  0.40371469228E+01 -0.41231936636E+01  0.57903293560E+01  0.51100000000E-03 0.  1.
         12    1    3    3    0    0  0.38508415085E+02  0.22259614927E+01  0.49574506181E+01  0.38889963404E+02  0.00000000000E+00 0. -1.
</event>
<event>
 7    1  0.1830715E-013  0.7246154E+02  0.7816164E-02  0.1226708E+00
        -11   -1    0    0    0    0  0.00000000000E+00  0.00000000000E+00  0.45593999997E+02  0.45594000000E+02  0.51100000000E-03 0.  1.
         11   -1    0    0    0    0 -0.00000000000E+00 -0.00000000000E+00 -0.45593999997E+02  0.45594000000E+02  0.51100000000E-03 0. -1.
    9900012    2    1    2    0    0  0.13214341872E+02 -0.78475116935E+01  0.10699442107E+02  0.72461539248E+02  0.69999959557E+02 0.  0.
        -12    1    1    2    0    0 -0.13214341872E+02  0.78475116935E+01 -0.10699442107E+02  0.18726460752E+02  0.00000000000E+00 0.  1.
         11    1    3    3    0    0  0.92404860228E+00 -0.41949936156E+01 -0.32429716534E+01  0.53822581377E+01  0.51100000000E-03 0. -1.
        -11    1    3    3    0    0  0.32059410520E+02 -0.17201000237E+02  0.21111291450E+02  0.42063842418E+02  0.51100000000E-03 0.  1.
        -12    1    3    3    0    0 -0.19769117250E+02  0.13548482159E+02 -0.71688776891E+01  0.25015438693E+02  0.00000000000E+00 0.  1.
</event>
<event>
 7    1  0.1830715E-013  0.7246166E+02  0.7816164E-02  0.1226708E+00
        -11   -1    0    0    0    0  0.00000000000E+00  0.00000000000E+00  0.45593999997E+02  0.45594000000E+02  0.51100000000E-03 0. -1.
         11   -1    0    0    0    0 -0.00000000000E+00 -0.00000000000E+00 -0.45593999997E+02  0.45594000000E+02  0.51100000000E-03 0.  1.
    9900012    2    1    2    0    0  0.11974865580E+01 -0.69814278879E+01  0.17334979830E+02  0.72461659324E+02  0.70000115977E+02 0.  0.
        -12    1    1    2    0    0 -0.11974865580E+01  0.69814278879E+01 -0.17334979830E+02  0.18726340676E+02  0.00000000000E+00 0.  1.
         11    1    3    3    0    0  0.11506323002E+02 -0.22946313331E+02  0.85468617429E+01  0.27055084742E+02  0.51100000000E-03 0. -1.
        -11    1    3    3    0    0 -0.21892079033E+02  0.26959948570E+01 -0.54927519471E+01  0.22731076457E+02  0.51100000000E-03 0.  1.
        -12    1    3    3    0    0  0.11583242589E+02  0.13268890586E+02  0.14280870034E+02  0.22675498125E+02  0.00000000000E+00 0.  1.
</event>
<event>
 7    1  0.1830715E-013  0.7246157E+02  0.7816164E-02  0.1226708E+00
        -11   -1    0    0    0    0  0.00000000000E+00  0.00000000000E+00  0.45593999997E+02  0.45594000000E+02  0.51100000000E-03 0.  1.
         11   -1    0    0    0    0 -0.00000000000E+00 -0.00000000000E+00 -0.45593999997E+02  0.45594000000E+02  0.51100000000E-03 0. -1.
    9900012    2    1    2    0    0  0.10294388262E+02 -0.13757200258E+02 -0.74460858144E+01  0.72461569945E+02  0.69999999545E+02 0.  0.
        -12    1    1    2    0    0 -0.10294388262E+02  0.13757200258E+02  0.74460858144E+01  0.18726430055E+02  0.00000000000E+00 0.  1.
         11    1    3    3    0    0  0.28281832653E+02  0.60110392228E+01 -0.24148761056E+02  0.37671704388E+02  0.51100000000E-03 0. -1.
        -11    1    3    3    0    0 -0.53152004140E+01  0.31478628576E+00 -0.67025593995E+00  0.53665341826E+01  0.51100000000E-03 0.  1.
         12    1    3    3    0    0 -0.12672243977E+02 -0.20083025767E+02  0.17372931181E+02  0.29423331375E+02  0.00000000000E+00 0. -1.
</event>
<event>
 7    1  0.1830715E-013  0.7246155E+02  0.7816164E-02  0.1226708E+00
        -11   -1    0    0    0    0  0.00000000000E+00  0.00000000000E+00  0.45593999997E+02  0.45594000000E+02  0.51100000000E-03 0. -1.
         11   -1    0    0    0    0 -0.00000000000E+00 -0.00000000000E+00 -0.45593999997E+02  0.45594000000E+02  0.51100000000E-03 0.  1.
    9900012    2    1    2    0    0 -0.96749538657E+01 -0.83958450502E+01 -0.13659618007E+02  0.72461545170E+02  0.69999967271E+02 0.  0.
        -12    1    1    2    0    0  0.96749538657E+01  0.83958450502E+01  0.13659618007E+02  0.18726454830E+02  0.00000000000E+00 0.  1.
         11    1    3    3    0    0 -0.28837015758E+01 -0.12938583290E+02 -0.30433362302E+02  0.33195063090E+02  0.51100000000E-03 0.  1.
        -11    1    3    3    0    0 -0.19091976835E+01  0.13738286728E+01  0.27212916987E+02  0.27314378854E+02  0.51100000000E-03 0. -1.
         12    1    3    3    0    0 -0.48820546064E+01  0.31689095670E+01 -0.10439172692E+02  0.11952103225E+02  0.00000000000E+00 0. -1.
</event>
<event>
 7    1  0.1830715E-013  0.7246156E+02  0.7816164E-02  0.1226708E+00
        -11   -1    0    0    0    0  0.00000000000E+00  0.00000000000E+00  0.45593999997E+02  0.45594000000E+02  0.51100000000E-03 0.  1.
         11   -1    0    0    0    0 -0.00000000000E+00 -0.00000000000E+00 -0.45593999997E+02  0.45594000000E+02  0.51100000000E-03 0. -1.
    9900012    2    1    2    0    0  0.15686900221E+02  0.21174391470E+01 -0.10005858210E+02  0.72461559184E+02  0.69999985527E+02 0.  0.
        -12    1    1    2    0    0 -0.15686900221E+02 -0.21174391470E+01  0.10005858210E+02  0.18726440816E+02  0.00000000000E+00 0.  1.
         11    1    3    3    0    0 -0.45407723513E+01  0.43602634086E+01 -0.16038585002E+02  0.17229820651E+02  0.51100000000E-03 0. -1.
        -11    1    3    3    0    0  0.28101735918E+02 -0.19305469741E+02 -0.32935730443E+01  0.34252829769E+02  0.51100000000E-03 0.  1.
        -12    1    3    3    0    0 -0.78740633448E+01  0.17062645480E+02  0.93262998363E+01  0.20978908765E+02  0.00000000000E+00 0.  1.
</event>
<event>
 7    1  0.1830715E-013  0.7246158E+02  0.7816164E-02  0.1226708E+00
        -11   -1    0    0    0    0  0.00000000000E+00  0.00000000000E+00  0.45593999997E+02  0.45594000000E+02  0.51100000000E-03 0.  1.
         11   -1    0    0    0    0 -0.00000000000E+00 -0.00000000000E+00 -0.45593999997E+02  0.45594000000E+02  0.51100000000E-03 0. -1.
    9900012    2    1    2    0    0  0.32655392159E+01 -0.10813014852E+02 -0.14936325148E+02  0.72461578946E+02  0.70000011270E+02 0.  0.
        -12    1    1    2    0    0 -0.32655392159E+01  0.10813014852E+02  0.14936325148E+02  0.18726421054E+02  0.00000000000E+00 0.  1.
         11    1    3    3    0    0 -0.79534348911E+01 -0.29545531388E+02 -0.31142422048E+02  0.43658286761E+02  0.51100000000E-03 0. -1.
        -11    1    3    3    0    0  0.10824553131E+02  0.14530560631E+02  0.84928813378E+01  0.20010926426E+02  0.51100000000E-03 0.  1.
         12    1    3    3    0    0  0.39442097559E+00  0.42019559056E+01  0.77132155622E+01  0.87923657595E+01  0.00000000000E+00 0. -1.
</event>
<event>
 7    1  0.1830715E-013  0.7246153E+02  0.7816164E-02  0.1226708E+00
        -11   -1    0    0    0    0  0.00000000000E+00  0.00000000000E+00  0.45593999997E+02  0.45594000000E+02  0.51100000000E-03 0.  1.
         11   -1    0    0    0    0 -0.00000000000E+00 -0.00000000000E+00 -0.45593999997E+02  0.45594000000E+02  0.51100000000E-03 0. -1.
    9900012    2    1    2    0    0 -0.49562382852E+01 -0.35034493515E+01 -0.17715591350E+02  0.72461531241E+02  0.69999949126E+02 0.  0.
        -12    1    1    2    0    0  0.49562382852E+01  0.35034493515E+01  0.17715591350E+02  0.18726468759E+02  0.00000000000E+00 0.  1.
         11    1    3    3    0    0  0.45758121300E+01 -0.32678984791E+02 -0.13622168784E+02  0.35698985787E+02  0.51100000000E-03 0. -1.
        -11    1    3    3    0    0  0.52821990998E+01  0.53155192555E+01  0.25261119055E+01  0.79080727049E+01  0.51100000000E-03 0.  1.
         12    1    3    3    0    0 -0.14814249515E+02  0.23860016184E+02 -0.66195344719E+01  0.28854472749E+02  0.00000000000E+00 0. -1.
</event>
<event>
 7    1  0.1830715E-013  0.7246156E+02  0.7816164E-02  0.1226708E+00
        -11   -1    0    0    0    0  0.00000000000E+00  0.00000000000E+00  0.45593999997E+02  0.45594000000E+02  0.51100000000E-03 0.  1.
         11   -1    0    0    0    0 -0.00000000000E+00 -0.00000000000E+00 -0.45593999997E+02  0.45594000000E+02  0.51100000000E-03 0. -1.
    9900012    2    1    2    0    0  0.87359781730E+01 -0.11122606480E+02  0.12273943572E+02  0.72461564665E+02  0.69999992666E+02 0.  0.
        -12    1    1    2    0    0 -0.87359781730E+01  0.11122606480E+02 -0.12273943572E+02  0.18726435335E+02  0.00000000000E+00 0.  1.
         11    1    3    3    0    0  0.48809697515E+01  0.19622501707E+02 -0.12312608905E+02  0.23674179547E+02  0.51100000000E-03 0. -1.
        -11    1    3    3    0    0 -0.95838283560E+01 -0.11430406543E+02  0.19775768768E+02  0.24770647757E+02  0.51100000000E-03 0.  1.
         12    1    3    3    0    0  0.13438836777E+02 -0.19314701644E+02  0.48107837091E+01  0.24016737360E+02  0.00000000000E+00 0. -1.
</event>
<event>
 7    1  0.1830715E-013  0.7246174E+02  0.7816164E-02  0.1226708E+00
        -11   -1    0    0    0    0  0.00000000000E+00  0.00000000000E+00  0.45593999997E+02  0.45594000000E+02  0.51100000000E-03 0. -1.
         11   -1    0    0    0    0 -0.00000000000E+00 -0.00000000000E+00 -0.45593999997E+02  0.45594000000E+02  0.51100000000E-03 0.  1.
    9900012    2    1    2    0    0  0.78972938142E+01  0.15016040412E+02  0.79261575888E+01  0.72461743210E+02  0.70000225254E+02 0.  0.
        -12    1    1    2    0    0 -0.78972938142E+01 -0.15016040412E+02 -0.79261575888E+01  0.18726256790E+02  0.00000000000E+00 0.  1.
         11    1    3    3    0    0  0.93307977075E+01  0.20607474777E+01  0.35028400416E+02  0.36308391620E+02  0.51100000000E-03 0. -1.
        -11    1    3    3    0    0 -0.78133487304E+01  0.77095222481E+01 -0.41070333686E+01  0.11719764291E+02  0.51100000000E-03 0.  1.
         12    1    3    3    0    0  0.63798448370E+01  0.52457706864E+01 -0.22995209459E+02  0.24433587299E+02  0.00000000000E+00 0. -1.
</event>
<event>
 7    1  0.1830715E-013  0.7246156E+02  0.7816164E-02  0.1226708E+00
        -11   -1    0    0    0    0  0.00000000000E+00  0.00000000000E+00  0.45593999997E+02  0.45594000000E+02  0.51100000000E-03 0. -1.
         11   -1    0    0    0    0 -0.00000000000E+00 -0.00000000000E+00 -0.45593999997E+02  0.45594000000E+02  0.51100000000E-03 0.  1.
    9900012    2    1    2    0    0  0.63641420168E+01 -0.63846629164E+00  0.17600274462E+02  0.72461558695E+02  0.69999984890E+02 0.  0.
        -12    1    1    2    0    0 -0.63641420168E+01  0.63846629164E+00 -0.17600274462E+02  0.18726441305E+02  0.00000000000E+00 0.  1.
         11    1    3    3    0    0 -0.17523009732E+02  0.13145209749E+02  0.28843587990E+02  0.36218848378E+02  0.51100000000E-03 0. -1.
        -11    1    3    3    0    0  0.12952438842E+02  0.39996114507E+01 -0.37869417423E+01  0.14074924217E+02  0.51100000000E-03 0.  1.
         12    1    3    3    0    0  0.10934712907E+02 -0.17783287492E+02 -0.74563717858E+01  0.22167786100E+02  0.00000000000E+00 0. -1.
</event>
<event>
 7    1  0.1830715E-013  0.7246158E+02  0.7816164E-02  0.1226708E+00
        -11   -1    0    0    0    0  0.00000000000E+00  0.00000000000E+00  0.45593999997E+02  0.45594000000E+02  0.51100000000E-03 0. -1.
         11   -1    0    0    0    0 -0.00000000000E+00 -0.00000000000E+00 -0.45593999997E+02  0.45594000000E+02  0.51100000000E-03 0.  1.
    9900012    2    1    2    0    0  0.15686967882E+02 -0.89813646715E+01  0.48921281535E+01  0.72461580413E+02  0.70000013181E+02 0.  0.
        -12    1    1    2    0    0 -0.15686967882E+02  0.89813646715E+01 -0.48921281535E+01  0.18726419587E+02  0.00000000000E+00 0.  1.
         11    1    3    3    0    0  0.25052601649E+02  0.11353048976E+02 -0.96566152840E+01  0.29150896889E+02  0.51100000000E-03 0. -1.
        -11    1    3    3    0    0 -0.11837206169E+02  0.40775264183E+01  0.13981017113E+02  0.18767378915E+02  0.51100000000E-03 0.  1.
         12    1    3    3    0    0  0.24715724018E+01 -0.24411940066E+02  0.56772632443E+00  0.24543304608E+02  0.00000000000E+00 0. -1.
</event>
<event>
 7    1  0.1830715E-013  0.7246170E+02  0.7816164E-02  0.1226708E+00
        -11   -1    0    0    0    0  0.00000000000E+00  0.00000000000E+00  0.45593999997E+02  0.45594000000E+02  0.51100000000E-03 0.  1.
         11   -1    0    0    0    0 -0.00000000000E+00 -0.00000000000E+00 -0.45593999997E+02  0.45594000000E+02  0.51100000000E-03 0. -1.
    9900012    2    1    2    0    0 -0.16635666269E+01  0.15101556071E+02 -0.10947594670E+02  0.72461700880E+02  0.70000170111E+02 0.  0.
        -12    1    1    2    0    0  0.16635666269E+01 -0.15101556071E+02  0.10947594670E+02  0.18726299120E+02  0.00000000000E+00 0.  1.
         11    1    3    3    0    0 -0.33975289258E+01  0.21706969489E+02  0.13277852994E+02  0.25671718049E+02  0.51100000000E-03 0. -1.
        -11    1    3    3    0    0 -0.35097165198E+01 -0.22148926259E+02 -0.19502720688E+02  0.29719508054E+02  0.51100000000E-03 0.  1.
         12    1    3    3    0    0  0.52436788187E+01  0.15543512841E+02 -0.47227269755E+01  0.17070474776E+02  0.00000000000E+00 0. -1.
</event>
<event>
 7    1  0.1830715E-013  0.7246156E+02  0.7816164E-02  0.1226708E+00
        -11   -1    0    0    0    0  0.00000000000E+00  0.00000000000E+00  0.45593999997E+02  0.45594000000E+02  0.51100000000E-03 0. -1.
         11   -1    0    0    0    0 -0.00000000000E+00 -0.00000000000E+00 -0.45593999997E+02  0.45594000000E+02  0.51100000000E-03 0.  1.
    9900012    2    1    2    0    0  0.18007692898E+02  0.51383455960E+01  0.72402948684E-02  0.72461557429E+02  0.69999983240E+02 0.  0.
        -12    1    1    2    0    0 -0.18007692898E+02 -0.51383455960E+01 -0.72402948684E-02  0.18726442571E+02  0.00000000000E+00 0.  1.
         11    1    3    3    0    0  0.14557590882E+02 -0.14671080959E+02  0.20345602689E+02  0.29001855420E+02  0.51100000000E-03 0. -1.
        -11    1    3    3    0    0  0.11597188356E+02  0.16122090960E+01 -0.20400583889E+02  0.23521858328E+02  0.51100000000E-03 0.  1.
         12    1    3    3    0    0 -0.81470863403E+01  0.18197217459E+02  0.62221495323E-01  0.19937843680E+02  0.00000000000E+00 0. -1.
</event>
<event>
 7    1  0.1830715E-013  0.7246154E+02  0.7816164E-02  0.1226708E+00
        -11   -1    0    0    0    0  0.00000000000E+00  0.00000000000E+00  0.45593999997E+02  0.45594000000E+02  0.51100000000E-03 0.  1.
         11   -1    0    0    0    0 -0.00000000000E+00 -0.00000000000E+00 -0.45593999997E+02  0.45594000000E+02  0.51100000000E-03 0. -1.
    9900012    2    1    2    0    0 -0.83454878968E+01 -0.61436450763E+01  0.15597712515E+02  0.72461543347E+02  0.69999964897E+02 0.  0.
        -12    1    1    2    0    0  0.83454878968E+01  0.61436450763E+01 -0.15597712515E+02  0.18726456653E+02  0.00000000000E+00 0.  1.
         11    1    3    3    0    0 -0.81482106337E+01 -0.18172144905E+02 -0.29303842270E+01  0.20129762516E+02  0.51100000000E-03 0. -1.
        -11    1    3    3    0    0  0.11936291579E+02  0.55227700782E+01  0.31050508339E+02  0.33721063364E+02  0.51100000000E-03 0.  1.
         12    1    3    3    0    0 -0.12133568842E+02  0.65057297508E+01 -0.12522411597E+02  0.18610717467E+02  0.00000000000E+00 0. -1.
</event>
<event>
 7    1  0.1830715E-013  0.7246164E+02  0.7816164E-02  0.1226708E+00
        -11   -1    0    0    0    0  0.00000000000E+00  0.00000000000E+00  0.45593999997E+02  0.45594000000E+02  0.51100000000E-03 0.  1.
         11   -1    0    0    0    0 -0.00000000000E+00 -0.00000000000E+00 -0.45593999997E+02  0.45594000000E+02  0.51100000000E-03 0. -1.
    9900012    2    1    2    0    0 -0.14686520816E+02  0.47903623383E+01 -0.10584658750E+02  0.72461642483E+02  0.70000094039E+02 0.  0.
        -12    1    1    2    0    0  0.14686520816E+02 -0.47903623383E+01  0.10584658750E+02  0.18726357517E+02  0.00000000000E+00 0.  1.
         11    1    3    3    0    0  0.23786506268E+01 -0.90081408006E+00 -0.11054872860E+02  0.11343705701E+02  0.51100000000E-03 0. -1.
        -11    1    3    3    0    0  0.38910320490E+01 -0.56994515444E+01  0.25574617757E+02  0.26489336571E+02  0.51100000000E-03 0.  1.
        -12    1    3    3    0    0 -0.20956203491E+02  0.11390627963E+02 -0.25104403646E+02  0.34628600211E+02  0.00000000000E+00 0.  1.
</event>
<event>
 7    1  0.1830715E-013  0.7246165E+02  0.7816164E-02  0.1226708E+00
        -11   -1    0    0    0    0  0.00000000000E+00  0.00000000000E+00  0.45593999997E+02  0.45594000000E+02  0.51100000000E-03 0. -1.
         11   -1    0    0    0    0 -0.00000000000E+00 -0.00000000000E+00 -0.45593999997E+02  0.45594000000E+02  0.51100000000E-03 0.  1.
    9900012    2    1    2    0    0 -0.75552544349E+01 -0.54726314127E+01  0.16237142600E+02  0.72461645204E+02  0.70000097583E+02 0.  0.
        -12    1    1    2    0    0  0.75552544349E+01  0.54726314127E+01 -0.16237142600E+02  0.18726354796E+02  0.00000000000E+00 0.  1.
         11    1    3    3    0    0  0.96242494713E+01  0.11107426937E+01  0.83255799943E+01  0.12774005234E+02  0.51100000000E-03 0. -1.
        -11    1    3    3    0    0 -0.34194910206E+02  0.92212806059E+01  0.89505298026E+00  0.35427743650E+02  0.51100000000E-03 0.  1.
        -12    1    3    3    0    0  0.17015406300E+02 -0.15804654712E+02  0.70165096252E+01  0.24259896320E+02  0.00000000000E+00 0.  1.
</event>
<event>
 7    1  0.1830715E-013  0.7246094E+02  0.7816164E-02  0.1226710E+00
        -11   -1    0    0    0    0  0.00000000000E+00  0.00000000000E+00  0.45593999997E+02  0.45594000000E+02  0.51100000000E-03 0.  1.
         11   -1    0    0    0    0 -0.00000000000E+00 -0.00000000000E+00 -0.45593999997E+02  0.45594000000E+02  0.51100000000E-03 0. -1.
    9900012    2    1    2    0    0 -0.89458927006E+01  0.55864247820E+01 -0.15474672057E+02  0.72460944350E+02  0.69999184587E+02 0.  0.
        -12    1    1    2    0    0  0.89458927006E+01 -0.55864247820E+01  0.15474672057E+02  0.18727055650E+02  0.00000000000E+00 0.  1.
         11    1    3    3    0    0  0.16003904226E+02  0.19434397028E+02 -0.20697092047E+02  0.32591261985E+02  0.51100000000E-03 0. -1.
        -11    1    3    3    0    0  0.36720067286E+01 -0.99636649627E+01  0.79930879740E+00  0.10648809685E+02  0.51100000000E-03 0.  1.
         12    1    3    3    0    0 -0.28621803655E+02 -0.38843072836E+01  0.44231111928E+01  0.29220872680E+02  0.00000000000E+00 0. -1.
</event>
<event>
 7    1  0.1830715E-013  0.7246157E+02  0.7816164E-02  0.1226708E+00
        -11   -1    0    0    0    0  0.00000000000E+00  0.00000000000E+00  0.45593999997E+02  0.45594000000E+02  0.51100000000E-03 0.  1.
         11   -1    0    0    0    0 -0.00000000000E+00 -0.00000000000E+00 -0.45593999997E+02  0.45594000000E+02  0.51100000000E-03 0. -1.
    9900012    2    1    2    0    0 -0.17430287903E+02  0.17400155667E+01  0.66209340712E+01  0.72461565247E+02  0.69999993426E+02 0.  0.
        -12    1    1    2    0    0  0.17430287903E+02 -0.17400155667E+01 -0.66209340712E+01  0.18726434753E+02  0.00000000000E+00 0.  1.
         11    1    3    3    0    0 -0.27968791829E+01 -0.14474573379E+02 -0.10790949752E+02  0.18269658029E+02  0.51100000000E-03 0. -1.
        -11    1    3    3    0    0  0.24883580608E+01  0.28824879804E+02  0.44064976027E+01  0.29265728130E+02  0.51100000000E-03 0.  1.
        -12    1    3    3    0    0 -0.17121766781E+02 -0.12610290858E+02  0.13005386220E+02  0.24926179089E+02  0.00000000000E+00 0.  1.
</event>
<event>
 7    1  0.1830715E-013  0.7246119E+02  0.7816164E-02  0.1226709E+00
        -11   -1    0    0    0    0  0.00000000000E+00  0.00000000000E+00  0.45593999997E+02  0.45594000000E+02  0.51100000000E-03 0.  1.
         11   -1    0    0    0    0 -0.00000000000E+00 -0.00000000000E+00 -0.45593999997E+02  0.45594000000E+02  0.51100000000E-03 0. -1.
    9900012    2    1    2    0    0  0.18440876045E+02 -0.31879683988E+01 -0.68136196702E+00  0.72461192852E+02  0.69999508309E+02 0.  0.
        -12    1    1    2    0    0 -0.18440876045E+02  0.31879683988E+01  0.68136196702E+00  0.18726807148E+02  0.00000000000E+00 0.  1.
         11    1    3    3    0    0  0.33815446105E+02 -0.21391957997E+02  0.51067409487E+01  0.40338307669E+02  0.51100000000E-03 0. -1.
        -11    1    3    3    0    0 -0.46950965566E+01  0.15113870319E+02 -0.11557795342E+02  0.19597337603E+02  0.51100000000E-03 0.  1.
         12    1    3    3    0    0 -0.10679473503E+02  0.30901192791E+01  0.57696924267E+01  0.12525547580E+02  0.00000000000E+00 0. -1.
</event>
<event>
 7    1  0.1830715E-013  0.7246169E+02  0.7816164E-02  0.1226708E+00
        -11   -1    0    0    0    0  0.00000000000E+00  0.00000000000E+00  0.45593999997E+02  0.45594000000E+02  0.51100000000E-03 0. -1.
         11   -1    0    0    0    0 -0.00000000000E+00 -0.00000000000E+00 -0.45593999997E+02  0.45594000000E+02  0.51100000000E-03 0.  1.
    9900012    2    1    2    0    0  0.10501017680E+02  0.12478200609E+02 -0.92031520274E+01  0.72461685093E+02  0.70000149546E+02 0.  0.
        -12    1    1    2    0    0 -0.10501017680E+02 -0.12478200609E+02  0.92031520274E+01  0.18726314907E+02  0.00000000000E+00 0.  1.
         11    1    3    3    0    0  0.10839984474E+02 -0.98167015001E+01 -0.32657161418E+02  0.35782161532E+02  0.51100000000E-03 0.  1.
        -11    1    3    3    0    0 -0.31814558687E+01  0.23061529855E+02  0.24264232256E+02  0.33626013559E+02  0.51100000000E-03 0. -1.
         12    1    3    3    0    0  0.28424890744E+01 -0.76662774493E+00 -0.81022286453E+00  0.30535100013E+01  0.00000000000E+00 0. -1.
</event>
<event>
 7    1  0.1830715E-013  0.7246160E+02  0.7816164E-02  0.1226708E+00
        -11   -1    0    0    0    0  0.00000000000E+00  0.00000000000E+00  0.45593999997E+02  0.45594000000E+02  0.51100000000E-03 0. -1.
         11   -1    0    0    0    0 -0.00000000000E+00 -0.00000000000E+00 -0.45593999997E+02  0.45594000000E+02  0.51100000000E-03 0.  1.
    9900012    2    1    2    0    0 -0.81064399501E+01  0.51034227931E+01  0.16090954269E+02  0.72461598794E+02  0.70000037126E+02 0.  0.
        -12    1    1    2    0    0  0.81064399501E+01 -0.51034227931E+01 -0.16090954269E+02  0.18726401206E+02  0.00000000000E+00 0.  1.
         11    1    3    3    0    0 -0.23611183962E+02 -0.18194726409E+02  0.18108599564E+02  0.34877750152E+02  0.51100000000E-03 0. -1.
        -11    1    3    3    0    0  0.61805511104E+01  0.36627912701E+01 -0.11746350000E+02  0.13769240738E+02  0.51100000000E-03 0.  1.
         12    1    3    3    0    0  0.93241929019E+01  0.19635357932E+02  0.97287047047E+01  0.23814607904E+02  0.00000000000E+00 0. -1.
</event>
<event>
 7    1  0.1830715E-013  0.7246156E+02  0.7816164E-02  0.1226708E+00
        -11   -1    0    0    0    0  0.00000000000E+00  0.00000000000E+00  0.45593999997E+02  0.45594000000E+02  0.51100000000E-03 0. -1.
         11   -1    0    0    0    0 -0.00000000000E+00 -0.00000000000E+00 -0.45593999997E+02  0.45594000000E+02  0.51100000000E-03 0.  1.
    9900012    2    1    2    0    0 -0.44803725422E+01 -0.28404290774E+01  0.17959336321E+02  0.72461560495E+02  0.69999987234E+02 0.  0.
        -12    1    1    2    0    0  0.44803725422E+01  0.28404290774E+01 -0.17959336321E+02  0.18726439505E+02  0.00000000000E+00 0.  1.
         11    1    3    3    0    0 -0.14781500966E+02 -0.12980946404E+02 -0.37267651434E+00  0.19675787872E+02  0.51100000000E-03 0. -1.
        -11    1    3    3    0    0 -0.74936115603E+01  0.21042505365E+02 -0.34709520414E+01  0.22605060376E+02  0.51100000000E-03 0.  1.
        -12    1    3    3    0    0  0.17794739984E+02 -0.10901988039E+02  0.21802964877E+02  0.30180712247E+02  0.00000000000E+00 0.  1.
</event>
<event>
 7    1  0.1830715E-013  0.7246158E+02  0.7816164E-02  0.1226708E+00
        -11   -1    0    0    0    0  0.00000000000E+00  0.00000000000E+00  0.45593999997E+02  0.45594000000E+02  0.51100000000E-03 0. -1.
         11   -1    0    0    0    0 -0.00000000000E+00 -0.00000000000E+00 -0.45593999997E+02  0.45594000000E+02  0.51100000000E-03 0.  1.
    9900012    2    1    2    0    0 -0.10881836666E+02 -0.14748171470E+02  0.38413348330E+01  0.72461580582E+02  0.70000013401E+02 0.  0.
        -12    1    1    2    0    0  0.10881836666E+02  0.14748171470E+02 -0.38413348330E+01  0.18726419418E+02  0.00000000000E+00 0.  1.
         11    1    3    3    0    0  0.66325742741E+01 -0.15455172132E+02  0.31661833154E+02  0.35851430461E+02  0.51100000000E-03 0. -1.
        -11    1    3    3    0    0 -0.79642161621E+01  0.69111064589E+01 -0.63578297438E+01  0.12313169002E+02  0.51100000000E-03 0.  1.
         12    1    3    3    0    0 -0.95501947777E+01 -0.62041057969E+01 -0.21462668577E+02  0.24296981119E+02  0.00000000000E+00 0. -1.
</event>
<event>
 7    1  0.2070337E-013  0.7246156E+02  0.7816164E-02  0.1226708E+00
        -11   -1    0    0    0    0  0.00000000000E+00  0.00000000000E+00  0.45593999997E+02  0.45594000000E+02  0.51100000000E-03 0. -1.
         11   -1    0    0    0    0 -0.00000000000E+00 -0.00000000000E+00 -0.45593999997E+02  0.45594000000E+02  0.51100000000E-03 0.  1.
    9900012    2    1    2    0    0  0.17176730211E+02  0.56336391280E+01  0.48889326577E+01  0.72461558451E+02  0.69999984572E+02 0.  0.
        -12    1    1    2    0    0 -0.17176730211E+02 -0.56336391280E+01 -0.48889326577E+01  0.18726441549E+02  0.00000000000E+00 0.  1.
         11    1    3    3    0    0  0.28005350542E+02  0.10561832428E+02  0.98070782127E+01  0.31496519595E+02  0.51100000000E-03 0.  1.
        -11    1    3    3    0    0 -0.37204283830E+01 -0.21707994658E+02 -0.56130634773E+01  0.22728508558E+02  0.51100000000E-03 0. -1.
        -12    1    3    3    0    0 -0.71081919485E+01  0.16779801358E+02  0.69491792230E+00  0.18236530298E+02  0.00000000000E+00 0.  1.
</event>
<event>
 7    1  0.1830715E-013  0.7246155E+02  0.7816164E-02  0.1226708E+00
        -11   -1    0    0    0    0  0.00000000000E+00  0.00000000000E+00  0.45593999997E+02  0.45594000000E+02  0.51100000000E-03 0. -1.
         11   -1    0    0    0    0 -0.00000000000E+00 -0.00000000000E+00 -0.45593999997E+02  0.45594000000E+02  0.51100000000E-03 0.  1.
    9900012    2    1    2    0    0 -0.13836834285E+02  0.31013276024E+01  0.12231263555E+02  0.72461547478E+02  0.69999970277E+02 0.  0.
        -12    1    1    2    0    0  0.13836834285E+02 -0.31013276024E+01 -0.12231263555E+02  0.18726452522E+02  0.00000000000E+00 0.  1.
         11    1    3    3    0    0 -0.10609256395E+02  0.12557861565E+02 -0.14890505401E+02  0.22180697908E+02  0.51100000000E-03 0.  1.
        -11    1    3    3    0    0  0.31552143867E+01  0.59293970456E+01  0.32179185199E+02  0.32872679956E+02  0.51100000000E-03 0. -1.
         12    1    3    3    0    0 -0.63827922765E+01 -0.15385931008E+02 -0.50574162428E+01  0.17408169614E+02  0.00000000000E+00 0. -1.
</event>
<event>
 7    1  0.1830715E-013  0.7246152E+02  0.7816164E-02  0.1226708E+00
        -11   -1    0    0    0    0  0.00000000000E+00  0.00000000000E+00  0.45593999997E+02  0.45594000000E+02  0.51100000000E-03 0. -1.
         11   -1    0    0    0    0 -0.00000000000E+00 -0.00000000000E+00 -0.45593999997E+02  0.45594000000E+02  0.51100000000E-03 0.  1.
    9900012    2    1    2    0    0  0.66450427683E+01  0.16278916261E+02  0.64436933531E+01  0.72461524302E+02  0.69999940087E+02 0.  0.
        -12    1    1    2    0    0 -0.66450427683E+01 -0.16278916261E+02 -0.64436933531E+01  0.18726475698E+02  0.00000000000E+00 0.  1.
         11    1    3    3    0    0 -0.20512925803E+02 -0.71817759357E+01  0.15384842821E+02  0.26628019444E+02  0.51100000000E-03 0. -1.
        -11    1    3    3    0    0  0.11543609229E+02  0.31681704332E+01 -0.15324097638E+02  0.19445312716E+02  0.51100000000E-03 0.  1.
        -12    1    3    3    0    0  0.15614359343E+02  0.20292521764E+02  0.63829481700E+01  0.26388192143E+02  0.00000000000E+00 0.  1.
</event>
<event>
 7    1  0.1830715E-013  0.7246163E+02  0.7816164E-02  0.1226708E+00
        -11   -1    0    0    0    0  0.00000000000E+00  0.00000000000E+00  0.45593999997E+02  0.45594000000E+02  0.51100000000E-03 0.  1.
         11   -1    0    0    0    0 -0.00000000000E+00 -0.00000000000E+00 -0.45593999997E+02  0.45594000000E+02  0.51100000000E-03 0. -1.
    9900012    2    1    2    0    0 -0.13727365639E+02 -0.46041434541E+01 -0.11875958870E+02  0.72461625460E+02  0.70000071863E+02 0.  0.
        -12    1    1    2    0    0  0.13727365639E+02  0.46041434541E+01  0.11875958870E+02  0.18726374540E+02  0.00000000000E+00 0.  1.
         11    1    3    3    0    0 -0.20415336568E+02  0.35657516386E+01 -0.36962871455E+02  0.42376342674E+02  0.51100000000E-03 0. -1.
        -11    1    3    3    0    0 -0.26097508172E+01 -0.52034843750E+01  0.46963776401E+01  0.74795061447E+01  0.51100000000E-03 0.  1.
         12    1    3    3    0    0  0.92977217467E+01 -0.29664107177E+01  0.20390534945E+02  0.22605776641E+02  0.00000000000E+00 0. -1.
</event>
<event>
 7    1  0.1830715E-013  0.7246157E+02  0.7816164E-02  0.1226708E+00
        -11   -1    0    0    0    0  0.00000000000E+00  0.00000000000E+00  0.45593999997E+02  0.45594000000E+02  0.51100000000E-03 0.  1.
         11   -1    0    0    0    0 -0.00000000000E+00 -0.00000000000E+00 -0.45593999997E+02  0.45594000000E+02  0.51100000000E-03 0. -1.
    9900012    2    1    2    0    0  0.14870914558E+02 -0.32070963104E+01 -0.10920143442E+02  0.72461572168E+02  0.70000002441E+02 0.  0.
        -12    1    1    2    0    0 -0.14870914558E+02  0.32070963104E+01  0.10920143442E+02  0.18726427832E+02  0.00000000000E+00 0.  1.
         11    1    3    3    0    0  0.92054099128E+01 -0.15262781537E+02 -0.16321705562E+02  0.24167956980E+02  0.51100000000E-03 0. -1.
        -11    1    3    3    0    0  0.18308106672E+02  0.23401912752E+02  0.87608568492E+01  0.30977232016E+02  0.51100000000E-03 0.  1.
        -12    1    3    3    0    0 -0.12642602027E+02 -0.11346227526E+02 -0.33592947298E+01  0.17316383172E+02  0.00000000000E+00 0.  1.
</event>
<event>
 7    1  0.1830715E-013  0.7246155E+02  0.7816164E-02  0.1226708E+00
        -11   -1    0    0    0    0  0.00000000000E+00  0.00000000000E+00  0.45593999997E+02  0.45594000000E+02  0.51100000000E-03 0.  1.
         11   -1    0    0    0    0 -0.00000000000E+00 -0.00000000000E+00 -0.45593999997E+02  0.45594000000E+02  0.51100000000E-03 0. -1.
    9900012    2    1    2    0    0  0.33348225436E+01  0.34769623700E+01 -0.18096120262E+02  0.72461551397E+02  0.69999975383E+02 0.  0.
        -12    1    1    2    0    0 -0.33348225436E+01 -0.34769623700E+01  0.18096120262E+02  0.18726448603E+02  0.00000000000E+00 0.  1.
         11    1    3    3    0    0 -0.29046957660E+02 -0.11074117326E+01 -0.41696737916E+01  0.29365597045E+02  0.51100000000E-03 0. -1.
        -11    1    3    3    0    0  0.33531187100E+02  0.94264948314E+01 -0.15130964943E+02  0.37975589705E+02  0.51100000000E-03 0.  1.
        -12    1    3    3    0    0 -0.11494068963E+01 -0.48421207288E+01  0.12045184721E+01  0.51203646467E+01  0.00000000000E+00 0.  1.
</event>
<event>
 7    1  0.1830715E-013  0.7246156E+02  0.7816164E-02  0.1226708E+00
        -11   -1    0    0    0    0  0.00000000000E+00  0.00000000000E+00  0.45593999997E+02  0.45594000000E+02  0.51100000000E-03 0.  1.
         11   -1    0    0    0    0 -0.00000000000E+00 -0.00000000000E+00 -0.45593999997E+02  0.45594000000E+02  0.51100000000E-03 0. -1.
    9900012    2    1    2    0    0  0.29921705265E+01 -0.17836329834E+01 -0.18399598957E+02  0.72461556856E+02  0.69999982493E+02 0.  0.
        -12    1    1    2    0    0 -0.29921705265E+01  0.17836329834E+01  0.18399598957E+02  0.18726443144E+02  0.00000000000E+00 0.  1.
         11    1    3    3    0    0  0.32284248538E+01 -0.13241466539E+02  0.22323930384E+02  0.26155630965E+02  0.51100000000E-03 0.  1.
        -11    1    3    3    0    0  0.28205863987E+01  0.96040983077E+01 -0.41463954569E+02  0.42655057622E+02  0.51100000000E-03 0. -1.
        -12    1    3    3    0    0 -0.30568407260E+01  0.18537352479E+01  0.74042522850E+00  0.36508682683E+01  0.00000000000E+00 0.  1.
</event>
<event>
 7    1  0.1830715E-013  0.7246158E+02  0.7816164E-02  0.1226708E+00
        -11   -1    0    0    0    0  0.00000000000E+00  0.00000000000E+00  0.45593999997E+02  0.45594000000E+02  0.51100000000E-03 0. -1.
         11   -1    0    0    0    0 -0.00000000000E+00 -0.00000000000E+00 -0.45593999997E+02  0.45594000000E+02  0.51100000000E-03 0.  1.
    9900012    2    1    2    0    0 -0.37961571217E+01  0.11598928487E+02  0.14203272737E+02  0.72461577293E+02  0.70000009118E+02 0.  0.
        -12    1    1    2    0    0  0.37961571217E+01 -0.11598928487E+02 -0.14203272737E+02  0.18726422707E+02  0.00000000000E+00 0.  1.
         11    1    3    3    0    0 -0.21994610091E+02  0.16599555021E+02 -0.48312635782E+01  0.27975868315E+02  0.51100000000E-03 0. -1.
        -11    1    3    3    0    0  0.16960589088E+02 -0.16666580782E+02  0.20820964062E+01  0.23869889461E+02  0.51100000000E-03 0.  1.
         12    1    3    3    0    0  0.12378638816E+01  0.11665954248E+02  0.16952439909E+02  0.20615819518E+02  0.00000000000E+00 0. -1.
</event>
<event>
 7    1  0.1830715E-013  0.7246156E+02  0.7816164E-02  0.1226708E+00
        -11   -1    0    0    0    0  0.00000000000E+00  0.00000000000E+00  0.45593999997E+02  0.45594000000E+02  0.51100000000E-03 0. -1.
         11   -1    0    0    0    0 -0.00000000000E+00 -0.00000000000E+00 -0.45593999997E+02  0.45594000000E+02  0.51100000000E-03 0.  1.
    9900012    2    1    2    0    0 -0.11509720267E+01  0.16012805000E+02  0.96407942233E+01  0.72461559499E+02  0.69999985937E+02 0.  0.
        -12    1    1    2    0    0  0.11509720267E+01 -0.16012805000E+02 -0.96407942233E+01  0.18726440501E+02  0.00000000000E+00 0.  1.
         11    1    3    3    0    0  0.88681773627E+01  0.90560204406E+01 -0.16248299652E+02  0.20607360767E+02  0.51100000000E-03 0.  1.
        -11    1    3    3    0    0 -0.17413807963E+01 -0.17793336778E+02  0.15848589367E+02  0.23891693660E+02  0.51100000000E-03 0. -1.
        -12    1    3    3    0    0 -0.82777685930E+01  0.24750121338E+02  0.10040504508E+02  0.27962505072E+02  0.00000000000E+00 0.  1.
</event>
<event>
 7    1  0.1830715E-013  0.7246155E+02  0.7816164E-02  0.1226708E+00
        -11   -1    0    0    0    0  0.00000000000E+00  0.00000000000E+00  0.45593999997E+02  0.45594000000E+02  0.51100000000E-03 0.  1.
         11   -1    0    0    0    0 -0.00000000000E+00 -0.00000000000E+00 -0.45593999997E+02  0.45594000000E+02  0.51100000000E-03 0. -1.
    9900012    2    1    2    0    0 -0.77018947130E+01 -0.69989096507E+01 -0.15568427832E+02  0.72461551762E+02  0.69999975858E+02 0.  0.
        -12    1    1    2    0    0  0.77018947130E+01  0.69989096507E+01  0.15568427832E+02  0.18726448238E+02  0.00000000000E+00 0.  1.
         11    1    3    3    0    0 -0.16560514612E+02 -0.22578327646E+02  0.34352607628E+01  0.28210504077E+02  0.51100000000E-03 0. -1.
        -11    1    3    3    0    0  0.14565337525E+02 -0.65727173503E+01 -0.13003132675E+02  0.20601726389E+02  0.51100000000E-03 0.  1.
         12    1    3    3    0    0 -0.57067176257E+01  0.22152135345E+02 -0.60005559198E+01  0.23649321296E+02  0.00000000000E+00 0. -1.
</event>
<event>
 7    1  0.1830715E-013  0.7246155E+02  0.7816164E-02  0.1226708E+00
        -11   -1    0    0    0    0  0.00000000000E+00  0.00000000000E+00  0.45593999997E+02  0.45594000000E+02  0.51100000000E-03 0. -1.
         11   -1    0    0    0    0 -0.00000000000E+00 -0.00000000000E+00 -0.45593999997E+02  0.45594000000E+02  0.51100000000E-03 0.  1.
    9900012    2    1    2    0    0 -0.15022554037E+02  0.96591046389E+01  0.56306739386E+01  0.72461550224E+02  0.69999973854E+02 0.  0.
        -12    1    1    2    0    0  0.15022554037E+02 -0.96591046389E+01 -0.56306739386E+01  0.18726449776E+02  0.00000000000E+00 0.  1.
         11    1    3    3    0    0 -0.13251828899E+02  0.14895860406E+01  0.33271808773E+02  0.35844708048E+02  0.51100000000E-03 0. -1.
        -11    1    3    3    0    0 -0.73455445692E+01 -0.54041137943E+01 -0.82336272991E+01  0.12286337521E+02  0.51100000000E-03 0.  1.
         12    1    3    3    0    0  0.55748194309E+01  0.13573632393E+02 -0.19407507535E+02  0.24330504655E+02  0.00000000000E+00 0. -1.
</event>
<event>
 7    1  0.1830715E-013  0.7246156E+02  0.7816164E-02  0.1226708E+00
        -11   -1    0    0    0    0  0.00000000000E+00  0.00000000000E+00  0.45593999997E+02  0.45594000000E+02  0.51100000000E-03 0.  1.
         11   -1    0    0    0    0 -0.00000000000E+00 -0.00000000000E+00 -0.45593999997E+02  0.45594000000E+02  0.51100000000E-03 0. -1.
    9900012    2    1    2    0    0 -0.17379006298E+02 -0.18423550102E+01  0.67272279501E+01  0.72461555389E+02  0.69999980583E+02 0.  0.
        -12    1    1    2    0    0  0.17379006298E+02  0.18423550102E+01 -0.67272279501E+01  0.18726444611E+02  0.00000000000E+00 0.  1.
         11    1    3    3    0    0 -0.25925011076E+02 -0.54826892963E+01 -0.18535412612E+02  0.32337711764E+02  0.51100000000E-03 0. -1.
        -11    1    3    3    0    0  0.15445171264E+02 -0.69502997371E+01  0.80071440745E+01  0.18734309122E+02  0.51100000000E-03 0.  1.
        -12    1    3    3    0    0 -0.68991664859E+01  0.10590634023E+02  0.17255496487E+02  0.21389534503E+02  0.00000000000E+00 0.  1.
</event>
<event>
 7    1  0.1830715E-013  0.7246154E+02  0.7816164E-02  0.1226708E+00
        -11   -1    0    0    0    0  0.00000000000E+00  0.00000000000E+00  0.45593999997E+02  0.45594000000E+02  0.51100000000E-03 0. -1.
         11   -1    0    0    0    0 -0.00000000000E+00 -0.00000000000E+00 -0.45593999997E+02  0.45594000000E+02  0.51100000000E-03 0.  1.
    9900012    2    1    2    0    0  0.95965418981E+01  0.83561786480E+01  0.13739035425E+02  0.72461536575E+02  0.69999956074E+02 0.  0.
        -12    1    1    2    0    0 -0.95965418981E+01 -0.83561786480E+01 -0.13739035425E+02  0.18726463425E+02  0.00000000000E+00 0.  1.
         11    1    3    3    0    0  0.38540212365E+02  0.58024875108E+01  0.88748589472E+01  0.39972239768E+02  0.51100000000E-03 0. -1.
        -11    1    3    3    0    0 -0.11116368094E+02  0.57875289495E+01  0.68159061869E+01  0.14266243666E+02  0.51100000000E-03 0.  1.
         12    1    3    3    0    0 -0.17827302373E+02 -0.32338378124E+01 -0.19517297086E+01  0.18223053140E+02  0.00000000000E+00 0. -1.
</event>
<event>
 7    1  0.1830715E-013  0.7246163E+02  0.7816164E-02  0.1226708E+00
        -11   -1    0    0    0    0  0.00000000000E+00  0.00000000000E+00  0.45593999997E+02  0.45594000000E+02  0.51100000000E-03 0. -1.
         11   -1    0    0    0    0 -0.00000000000E+00 -0.00000000000E+00 -0.45593999997E+02  0.45594000000E+02  0.51100000000E-03 0.  1.
    9900012    2    1    2    0    0  0.47839051226E+01  0.91908989516E+01 -0.15598674556E+02  0.72461627696E+02  0.70000074777E+02 0.  0.
        -12    1    1    2    0    0 -0.47839051226E+01 -0.91908989516E+01  0.15598674556E+02  0.18726372304E+02  0.00000000000E+00 0.  1.
         11    1    3    3    0    0  0.68329078916E+01 -0.12800006652E+02 -0.37239926079E+02  0.39966747368E+02  0.51100000000E-03 0.  1.
        -11    1    3    3    0    0  0.28797612506E+01  0.16718557922E+02  0.16188025304E+02  0.23448995018E+02  0.51100000000E-03 0. -1.
        -12    1    3    3    0    0 -0.49287640196E+01  0.52723476811E+01  0.54532262201E+01  0.90458853098E+01  0.00000000000E+00 0.  1.
</event>
<event>
 7    1  0.1830715E-013  0.7246155E+02  0.7816164E-02  0.1226708E+00
        -11   -1    0    0    0    0  0.00000000000E+00  0.00000000000E+00  0.45593999997E+02  0.45594000000E+02  0.51100000000E-03 0. -1.
         11   -1    0    0    0    0 -0.00000000000E+00 -0.00000000000E+00 -0.45593999997E+02  0.45594000000E+02  0.51100000000E-03 0.  1.
    9900012    2    1    2    0    0  0.16828140139E+02  0.28133537341E+01 -0.77187125609E+01  0.72461553905E+02  0.69999978650E+02 0.  0.
        -12    1    1    2    0    0 -0.16828140139E+02 -0.28133537341E+01  0.77187125609E+01  0.18726446095E+02  0.00000000000E+00 0.  1.
         11    1    3    3    0    0  0.11597427955E+02  0.38766577526E+01 -0.28460081490E+02  0.30975878505E+02  0.51100000000E-03 0. -1.
        -11    1    3    3    0    0  0.17093432629E+02 -0.83833866059E+01  0.19870380260E+02  0.27519059249E+02  0.51100000000E-03 0.  1.
        -12    1    3    3    0    0 -0.11862720445E+02  0.73200825873E+01  0.87098866970E+00  0.13966616151E+02  0.00000000000E+00 0.  1.
</event>
<event>
 7    1  0.1830715E-013  0.7246184E+02  0.7816164E-02  0.1226707E+00
        -11   -1    0    0    0    0  0.00000000000E+00  0.00000000000E+00  0.45593999997E+02  0.45594000000E+02  0.51100000000E-03 0. -1.
         11   -1    0    0    0    0 -0.00000000000E+00 -0.00000000000E+00 -0.45593999997E+02  0.45594000000E+02  0.51100000000E-03 0.  1.
    9900012    2    1    2    0    0 -0.19917248503E+01 -0.14114249775E+02  0.12144544696E+02  0.72461842347E+02  0.70000354398E+02 0.  0.
        -12    1    1    2    0    0  0.19917248503E+01  0.14114249775E+02 -0.12144544696E+02  0.18726157653E+02  0.00000000000E+00 0.  1.
         11    1    3    3    0    0 -0.12859648845E+02 -0.89330112750E+01 -0.26066392818E+02  0.30407665048E+02  0.51100000000E-03 0.  1.
        -11    1    3    3    0    0  0.75997791370E+01  0.18809986479E+01  0.28786896623E+02  0.29832536203E+02  0.51100000000E-03 0. -1.
        -12    1    3    3    0    0  0.32681448578E+01 -0.70622371479E+01  0.94240408909E+01  0.12221641095E+02  0.00000000000E+00 0.  1.
</event>
<event>
 7    1  0.1830715E-013  0.7246159E+02  0.7816164E-02  0.1226708E+00
        -11   -1    0    0    0    0  0.00000000000E+00  0.00000000000E+00  0.45593999997E+02  0.45594000000E+02  0.51100000000E-03 0. -1.
         11   -1    0    0    0    0 -0.00000000000E+00 -0.00000000000E+00 -0.45593999997E+02  0.45594000000E+02  0.51100000000E-03 0.  1.
    9900012    2    1    2    0    0  0.14892985459E+02 -0.53655373902E+01  0.10004425917E+02  0.72461586962E+02  0.70000021712E+02 0.  0.
        -12    1    1    2    0    0 -0.14892985459E+02  0.53655373902E+01 -0.10004425917E+02  0.18726413038E+02  0.00000000000E+00 0.  1.
         11    1    3    3    0    0 -0.70622378442E+01  0.15344316411E+02  0.22627468039E+02  0.28236953794E+02  0.51100000000E-03 0.  1.
        -11    1    3    3    0    0  0.57533867031E+01 -0.24034321175E+02 -0.12477454530E+02  0.27684597246E+02  0.51100000000E-03 0. -1.
        -12    1    3    3    0    0  0.16201836600E+02  0.33244673735E+01 -0.14558759229E+00  0.16540035921E+02  0.00000000000E+00 0.  1.
</event>
<event>
 7    1  0.1830715E-013  0.7246157E+02  0.7816164E-02  0.1226708E+00
        -11   -1    0    0    0    0  0.00000000000E+00  0.00000000000E+00  0.45593999997E+02  0.45594000000E+02  0.51100000000E-03 0.  1.
         11   -1    0    0    0    0 -0.00000000000E+00 -0.00000000000E+00 -0.45593999997E+02  0.45594000000E+02  0.51100000000E-03 0. -1.
    9900012    2    1    2    0    0  0.76334331239E+01 -0.15655305065E+02  0.68790418459E+01  0.72461572293E+02  0.70000002604E+02 0.  0.
        -12    1    1    2    0    0 -0.76334331239E+01  0.15655305065E+02 -0.68790418459E+01  0.18726427707E+02  0.00000000000E+00 0.  1.
         11    1    3    3    0    0 -0.13777952630E+00 -0.29597121974E+02 -0.98914542705E+01  0.31206561492E+02  0.51100000000E-03 0. -1.
        -11    1    3    3    0    0  0.24819343792E+01  0.14850998884E+02 -0.72008357963E+01  0.16690242735E+02  0.51100000000E-03 0.  1.
        -12    1    3    3    0    0  0.52892782711E+01 -0.90918197491E+00  0.23971331913E+02  0.24564768066E+02  0.00000000000E+00 0.  1.
</event>
<event>
 7    1  0.1830715E-013  0.7246159E+02  0.7816164E-02  0.1226708E+00
        -11   -1    0    0    0    0  0.00000000000E+00  0.00000000000E+00  0.45593999997E+02  0.45594000000E+02  0.51100000000E-03 0. -1.
         11   -1    0    0    0    0 -0.00000000000E+00 -0.00000000000E+00 -0.45593999997E+02  0.45594000000E+02  0.51100000000E-03 0.  1.
    9900012    2    1    2    0    0 -0.98839346859E+01 -0.52460935724E+01  0.15015478532E+02  0.72461594627E+02  0.70000031698E+02 0.  0.
        -12    1    1    2    0    0  0.98839346859E+01  0.52460935724E+01 -0.15015478532E+02  0.18726405373E+02  0.00000000000E+00 0.  1.
         11    1    3    3    0    0  0.15344088346E+02  0.17920784456E+02  0.11971885445E+02  0.26456031525E+02  0.51100000000E-03 0. -1.
        -11    1    3    3    0    0 -0.79493971617E+01 -0.27046743771E+02  0.15343121543E+01  0.28232487986E+02  0.51100000000E-03 0.  1.
        -12    1    3    3    0    0 -0.17278625870E+02  0.38798657423E+01  0.15092809331E+01  0.17773075116E+02  0.00000000000E+00 0.  1.
</event>
<event>
 7    1  0.1913980E-013  0.7246161E+02  0.7816164E-02  0.1226708E+00
        -11   -1    0    0    0    0  0.00000000000E+00  0.00000000000E+00  0.45593999997E+02  0.45594000000E+02  0.51100000000E-03 0. -1.
         11   -1    0    0    0    0 -0.00000000000E+00 -0.00000000000E+00 -0.45593999997E+02  0.45594000000E+02  0.51100000000E-03 0.  1.
    9900012    2    1    2    0    0 -0.51136280207E+01 -0.57196814726E+01  0.17082555880E+02  0.72461610517E+02  0.70000052397E+02 0.  0.
        -12    1    1    2    0    0  0.51136280207E+01  0.57196814726E+01 -0.17082555880E+02  0.18726389483E+02  0.00000000000E+00 0.  1.
         11    1    3    3    0    0 -0.81242153504E+01  0.17968400874E+02  0.79832407194E+01  0.21274361041E+02  0.51100000000E-03 0. -1.
        -11    1    3    3    0    0 -0.16626491982E+02 -0.24783379257E+02  0.83967737207E+00  0.29855672516E+02  0.51100000000E-03 0.  1.
        -12    1    3    3    0    0  0.19637079312E+02  0.10952969097E+01  0.82596377887E+01  0.21331576960E+02  0.00000000000E+00 0.  1.
</event>
<event>
 7    1  0.1830715E-013  0.7246165E+02  0.7816164E-02  0.1226708E+00
        -11   -1    0    0    0    0  0.00000000000E+00  0.00000000000E+00  0.45593999997E+02  0.45594000000E+02  0.51100000000E-03 0.  1.
         11   -1    0    0    0    0 -0.00000000000E+00 -0.00000000000E+00 -0.45593999997E+02  0.45594000000E+02  0.51100000000E-03 0. -1.
    9900012    2    1    2    0    0 -0.14809217924E+02 -0.10312977762E+02  0.50005851657E+01  0.72461646969E+02  0.70000099883E+02 0.  0.
        -12    1    1    2    0    0  0.14809217924E+02  0.10312977762E+02 -0.50005851657E+01  0.18726353031E+02  0.00000000000E+00 0.  1.
         11    1    3    3    0    0 -0.12884213810E+01 -0.44977611794E+01 -0.58664366717E+01  0.75036634230E+01  0.51100000000E-03 0. -1.
        -11    1    3    3    0    0  0.10812985632E+02 -0.10690836670E+02  0.29991986965E+02  0.33626387397E+02  0.51100000000E-03 0.  1.
        -12    1    3    3    0    0 -0.24333782175E+02  0.48756200870E+01 -0.19124965127E+02  0.31331596150E+02  0.00000000000E+00 0.  1.
</event>
<event>
 7    1  0.1830715E-013  0.7246159E+02  0.7816164E-02  0.1226708E+00
        -11   -1    0    0    0    0  0.00000000000E+00  0.00000000000E+00  0.45593999997E+02  0.45594000000E+02  0.51100000000E-03 0. -1.
         11   -1    0    0    0    0 -0.00000000000E+00 -0.00000000000E+00 -0.45593999997E+02  0.45594000000E+02  0.51100000000E-03 0.  1.
    9900012    2    1    2    0    0 -0.42185290170E+01 -0.11983937281E+02  0.13757465965E+02  0.72461585245E+02  0.70000019476E+02 0.  0.
        -12    1    1    2    0    0  0.42185290170E+01  0.11983937281E+02 -0.13757465965E+02  0.18726414755E+02  0.00000000000E+00 0.  1.
         11    1    3    3    0    0 -0.12372525663E+02 -0.39322796166E+02  0.13979186562E+02  0.43529063242E+02  0.51100000000E-03 0. -1.
        -11    1    3    3    0    0  0.12729032016E+01  0.94365814915E+01  0.16435657864E+01  0.96628495570E+01  0.51100000000E-03 0.  1.
         12    1    3    3    0    0  0.68810934440E+01  0.17902277394E+02 -0.18652863834E+01  0.19269672445E+02  0.00000000000E+00 0. -1.
</event>
<event>
 7    1  0.1830715E-013  0.7246151E+02  0.7816164E-02  0.1226708E+00
        -11   -1    0    0    0    0  0.00000000000E+00  0.00000000000E+00  0.45593999997E+02  0.45594000000E+02  0.51100000000E-03 0.  1.
         11   -1    0    0    0    0 -0.00000000000E+00 -0.00000000000E+00 -0.45593999997E+02  0.45594000000E+02  0.51100000000E-03 0. -1.
    9900012    2    1    2    0    0  0.73809547007E+01  0.79347568583E+01 -0.15272278017E+02  0.72461512489E+02  0.69999924697E+02 0.  0.
        -12    1    1    2    0    0 -0.73809547007E+01 -0.79347568583E+01  0.15272278017E+02  0.18726487511E+02  0.00000000000E+00 0.  1.
         11    1    3    3    0    0 -0.15473847350E+02 -0.11197098377E+02 -0.20291512971E+02  0.27866834459E+02  0.51100000000E-03 0. -1.
        -11    1    3    3    0    0  0.20241067856E+01  0.76118210355E+01  0.16412519442E+02  0.18204604430E+02  0.51100000000E-03 0.  1.
         12    1    3    3    0    0  0.20830695265E+02  0.11520034200E+02 -0.11393284487E+02  0.26390073599E+02  0.00000000000E+00 0. -1.
</event>
<event>
 7    1  0.1830715E-013  0.7246178E+02  0.7816164E-02  0.1226707E+00
        -11   -1    0    0    0    0  0.00000000000E+00  0.00000000000E+00  0.45593999997E+02  0.45594000000E+02  0.51100000000E-03 0. -1.
         11   -1    0    0    0    0 -0.00000000000E+00 -0.00000000000E+00 -0.45593999997E+02  0.45594000000E+02  0.51100000000E-03 0.  1.
    9900012    2    1    2    0    0  0.26250312127E+01  0.18522012900E+02 -0.84584048726E+00  0.72461783167E+02  0.70000277306E+02 0.  0.
        -12    1    1    2    0    0 -0.26250312127E+01 -0.18522012900E+02  0.84584048726E+00  0.18726216833E+02  0.00000000000E+00 0.  1.
         11    1    3    3    0    0  0.35494429354E+01  0.22855432510E+02  0.15816839583E+02  0.28020381065E+02  0.51100000000E-03 0. -1.
        -11    1    3    3    0    0  0.18202719789E+02 -0.65836177526E+01 -0.16094940832E+02  0.25173997519E+02  0.51100000000E-03 0.  1.
        -12    1    3    3    0    0 -0.19127131512E+02  0.22501981429E+01 -0.56773923845E+00  0.19267404584E+02  0.00000000000E+00 0.  1.
</event>
<event>
 7    1  0.1830715E-013  0.7246156E+02  0.7816164E-02  0.1226708E+00
        -11   -1    0    0    0    0  0.00000000000E+00  0.00000000000E+00  0.45593999997E+02  0.45594000000E+02  0.51100000000E-03 0.  1.
         11   -1    0    0    0    0 -0.00000000000E+00 -0.00000000000E+00 -0.45593999997E+02  0.45594000000E+02  0.51100000000E-03 0. -1.
    9900012    2    1    2    0    0 -0.11697748314E+02  0.76224124740E+01 -0.12479633493E+02  0.72461555071E+02  0.69999980169E+02 0.  0.
        -12    1    1    2    0    0  0.11697748314E+02 -0.76224124740E+01  0.12479633493E+02  0.18726444929E+02  0.00000000000E+00 0.  1.
         11    1    3    3    0    0  0.11262843151E+01 -0.90133644582E+01 -0.57651579247E+01  0.10758545504E+02  0.51100000000E-03 0. -1.
        -11    1    3    3    0    0 -0.23154407265E+02  0.49212518432E+01  0.19846205887E+02  0.30890406017E+02  0.51100000000E-03 0.  1.
        -12    1    3    3    0    0  0.10330374636E+02  0.11714525089E+02 -0.26560681455E+02  0.30812603550E+02  0.00000000000E+00 0.  1.
</event>
<event>
 7    1  0.1830715E-013  0.7246169E+02  0.7816164E-02  0.1226708E+00
        -11   -1    0    0    0    0  0.00000000000E+00  0.00000000000E+00  0.45593999997E+02  0.45594000000E+02  0.51100000000E-03 0. -1.
         11   -1    0    0    0    0 -0.00000000000E+00 -0.00000000000E+00 -0.45593999997E+02  0.45594000000E+02  0.51100000000E-03 0.  1.
    9900012    2    1    2    0    0  0.13920344036E+02  0.49390427606E+01  0.11511068248E+02  0.72461686597E+02  0.70000151505E+02 0.  0.
        -12    1    1    2    0    0 -0.13920344036E+02 -0.49390427606E+01 -0.11511068248E+02  0.18726313403E+02  0.00000000000E+00 0.  1.
         11    1    3    3    0    0 -0.10004699987E+02  0.11893940901E+02  0.20113586987E+02  0.25418816529E+02  0.51100000000E-03 0. -1.
        -11    1    3    3    0    0  0.29092502050E+01 -0.19880076067E+02 -0.97733544262E+01  0.22342775525E+02  0.51100000000E-03 0.  1.
         12    1    3    3    0    0  0.21015793818E+02  0.12925177926E+02  0.11708356875E+01  0.24700094543E+02  0.00000000000E+00 0. -1.
</event>
<event>
 7    1  0.1830715E-013  0.7246155E+02  0.7816164E-02  0.1226708E+00
        -11   -1    0    0    0    0  0.00000000000E+00  0.00000000000E+00  0.45593999997E+02  0.45594000000E+02  0.51100000000E-03 0.  1.
         11   -1    0    0    0    0 -0.00000000000E+00 -0.00000000000E+00 -0.45593999997E+02  0.45594000000E+02  0.51100000000E-03 0. -1.
    9900012    2    1    2    0    0 -0.16959674919E+02 -0.55034042140E+01 -0.57238029660E+01  0.72461549410E+02  0.69999972794E+02 0.  0.
        -12    1    1    2    0    0  0.16959674919E+02  0.55034042140E+01  0.57238029660E+01  0.18726450590E+02  0.00000000000E+00 0.  1.
         11    1    3    3    0    0 -0.37364002846E+02 -0.25842064661E+01 -0.23674650840E+02  0.44308418212E+02  0.51100000000E-03 0. -1.
        -11    1    3    3    0    0  0.98251498652E+01 -0.47771867602E+00  0.12780325347E+02  0.16127569601E+02  0.51100000000E-03 0.  1.
         12    1    3    3    0    0  0.10579178062E+02 -0.24414790719E+01  0.51705225273E+01  0.12025561597E+02  0.00000000000E+00 0. -1.
</event>
<event>
 7    1  0.1830715E-013  0.7246154E+02  0.7816164E-02  0.1226708E+00
        -11   -1    0    0    0    0  0.00000000000E+00  0.00000000000E+00  0.45593999997E+02  0.45594000000E+02  0.51100000000E-03 0. -1.
         11   -1    0    0    0    0 -0.00000000000E+00 -0.00000000000E+00 -0.45593999997E+02  0.45594000000E+02  0.51100000000E-03 0.  1.
    9900012    2    1    2    0    0  0.96462805761E+01 -0.11596931761E+02  0.11096880861E+02  0.72461539575E+02  0.69999959982E+02 0.  0.
        -12    1    1    2    0    0 -0.96462805761E+01  0.11596931761E+02 -0.11096880861E+02  0.18726460425E+02  0.00000000000E+00 0.  1.
         11    1    3    3    0    0  0.27379525521E+02 -0.31007261246E+02  0.12672004089E+02  0.43262782569E+02  0.51100000000E-03 0. -1.
        -11    1    3    3    0    0 -0.63324050080E+00  0.22945418671E+01 -0.42356757663E+01  0.48586896763E+01  0.51100000000E-03 0.  1.
         12    1    3    3    0    0 -0.17100004445E+02  0.17115787618E+02  0.26605525384E+01  0.24340067329E+02  0.00000000000E+00 0. -1.
</event>
<event>
 7    1  0.1830715E-013  0.7246160E+02  0.7816164E-02  0.1226708E+00
        -11   -1    0    0    0    0  0.00000000000E+00  0.00000000000E+00  0.45593999997E+02  0.45594000000E+02  0.51100000000E-03 0.  1.
         11   -1    0    0    0    0 -0.00000000000E+00 -0.00000000000E+00 -0.45593999997E+02  0.45594000000E+02  0.51100000000E-03 0. -1.
    9900012    2    1    2    0    0 -0.15331441500E+02 -0.10639931093E+02 -0.15546496920E+01  0.72461597040E+02  0.70000034842E+02 0.  0.
        -12    1    1    2    0    0  0.15331441500E+02  0.10639931093E+02  0.15546496920E+01  0.18726402960E+02  0.00000000000E+00 0.  1.
         11    1    3    3    0    0 -0.13616507658E+02 -0.21090347148E+02 -0.11254110292E+02  0.27511216301E+02  0.51100000000E-03 0. -1.
        -11    1    3    3    0    0  0.21269490515E+01  0.26821918150E+02  0.78782705337E+01  0.28035804828E+02  0.51100000000E-03 0.  1.
        -12    1    3    3    0    0 -0.38418828941E+01 -0.16371502094E+02  0.18211900662E+01  0.16914575911E+02  0.00000000000E+00 0.  1.
</event>
<event>
 7    1  0.1830715E-013  0.7246158E+02  0.7816164E-02  0.1226708E+00
        -11   -1    0    0    0    0  0.00000000000E+00  0.00000000000E+00  0.45593999997E+02  0.45594000000E+02  0.51100000000E-03 0.  1.
         11   -1    0    0    0    0 -0.00000000000E+00 -0.00000000000E+00 -0.45593999997E+02  0.45594000000E+02  0.51100000000E-03 0. -1.
    9900012    2    1    2    0    0  0.10602905318E+02  0.48396134915E+00 -0.15427996649E+02  0.72461577481E+02  0.70000009362E+02 0.  0.
        -12    1    1    2    0    0 -0.10602905318E+02 -0.48396134915E+00  0.15427996649E+02  0.18726422519E+02  0.00000000000E+00 0.  1.
         11    1    3    3    0    0 -0.40260436477E+01  0.11118139523E+02 -0.18498145784E+02  0.21954577008E+02  0.51100000000E-03 0. -1.
        -11    1    3    3    0    0 -0.35130838169E+01 -0.12276573542E+01  0.22202982154E+02  0.22512692360E+02  0.51100000000E-03 0.  1.
         12    1    3    3    0    0  0.18142032782E+02 -0.94065208193E+01 -0.19132833019E+02  0.27994308113E+02  0.00000000000E+00 0. -1.
</event>
<event>
 7    1  0.1830715E-013  0.7246157E+02  0.7816164E-02  0.1226708E+00
        -11   -1    0    0    0    0  0.00000000000E+00  0.00000000000E+00  0.45593999997E+02  0.45594000000E+02  0.51100000000E-03 0.  1.
         11   -1    0    0    0    0 -0.00000000000E+00 -0.00000000000E+00 -0.45593999997E+02  0.45594000000E+02  0.51100000000E-03 0. -1.
    9900012    2    1    2    0    0  0.49778238666E+01  0.16487536990E+02  0.73526626768E+01  0.72461568015E+02  0.69999997031E+02 0.  0.
        -12    1    1    2    0    0 -0.49778238666E+01 -0.16487536990E+02 -0.73526626768E+01  0.18726431985E+02  0.00000000000E+00 0.  1.
         11    1    3    3    0    0 -0.20165852539E+02  0.13982968924E+02 -0.18145935590E+02  0.30519829738E+02  0.51100000000E-03 0. -1.
        -11    1    3    3    0    0  0.84193313397E+01 -0.75186820684E+01  0.17591308505E+02  0.20901431899E+02  0.51100000000E-03 0.  1.
         12    1    3    3    0    0  0.16724345066E+02  0.10023250134E+02  0.79072897613E+01  0.21040306378E+02  0.00000000000E+00 0. -1.
</event>
<event>
 7    1  0.1830715E-013  0.7246165E+02  0.7816164E-02  0.1226708E+00
        -11   -1    0    0    0    0  0.00000000000E+00  0.00000000000E+00  0.45593999997E+02  0.45594000000E+02  0.51100000000E-03 0. -1.
         11   -1    0    0    0    0 -0.00000000000E+00 -0.00000000000E+00 -0.45593999997E+02  0.45594000000E+02  0.51100000000E-03 0.  1.
    9900012    2    1    2    0    0  0.14205038429E+02  0.52506978229E+01  0.11014685485E+02  0.72461648494E+02  0.70000101870E+02 0.  0.
        -12    1    1    2    0    0 -0.14205038429E+02 -0.52506978229E+01 -0.11014685485E+02  0.18726351506E+02  0.00000000000E+00 0.  1.
         11    1    3    3    0    0  0.49912982077E+01  0.21233651879E+02  0.28829119194E+02  0.36151060063E+02  0.51100000000E-03 0. -1.
        -11    1    3    3    0    0  0.12971567291E+01 -0.15648509152E+02  0.11632062474E+01  0.15745205725E+02  0.51100000000E-03 0.  1.
         12    1    3    3    0    0  0.79165834920E+01 -0.33444490319E+00 -0.18977639956E+02  0.20565382707E+02  0.00000000000E+00 0. -1.
</event>
<event>
 8    1  0.1830715E-013  0.7246214E+02  0.7816164E-02  0.1226706E+00
        -11   -1    0    0    0    0  0.00000000000E+00  0.00000000000E+00  0.45593999997E+02  0.45594000000E+02  0.51100000000E-03 0. -1.
         11   -1    0    0    0    0 -0.00000000000E+00 -0.00000000000E+00 -0.45593999997E+02  0.45594000000E+02  0.51100000000E-03 0.  1.
    9900012    2    1    2    0    0 -0.15150187735E+02  0.51271886086E+00  0.10993939312E+02  0.72462141658E+02  0.70000744304E+02 0.  0.
        -24    2    3    3    0    0 -0.15561040202E+02  0.14880235950E+02  0.42392530085E+01  0.56580701724E+02  0.52152057941E+02 0.  0.
        -12    1    1    2    0    0  0.15150187735E+02 -0.51271886086E+00 -0.10993939312E+02  0.18725858342E+02  0.00000000000E+00 0.  1.
         11    1    4    4    0    0 -0.26838563843E+02 -0.55718693784E+00  0.18609701958E+02  0.32664047111E+02  0.51100000000E-03 0. -1.
        -11    1    3    3    0    0  0.41085246731E+00 -0.14367517089E+02  0.67546863035E+01  0.15881439934E+02  0.51100000000E-03 0.  1.
        -12    1    4    4    0    0  0.11277523641E+02  0.15437422888E+02 -0.14370448950E+02  0.23916654613E+02  0.00000000000E+00 0.  1.
</event>
<event>
 7    1  0.1830715E-013  0.7246160E+02  0.7816164E-02  0.1226708E+00
        -11   -1    0    0    0    0  0.00000000000E+00  0.00000000000E+00  0.45593999997E+02  0.45594000000E+02  0.51100000000E-03 0. -1.
         11   -1    0    0    0    0 -0.00000000000E+00 -0.00000000000E+00 -0.45593999997E+02  0.45594000000E+02  0.51100000000E-03 0.  1.
    9900012    2    1    2    0    0 -0.41799182447E+01  0.11216268019E+02  0.14401443034E+02  0.72461602956E+02  0.70000042547E+02 0.  0.
        -12    1    1    2    0    0  0.41799182447E+01 -0.11216268019E+02 -0.14401443034E+02  0.18726397044E+02  0.00000000000E+00 0.  1.
         11    1    3    3    0    0  0.17898575678E+02  0.26525429947E+00  0.19413552666E+02  0.26406730175E+02  0.51100000000E-03 0. -1.
        -11    1    3    3    0    0 -0.91226416665E+01 -0.10970622921E+02  0.91185171111E+01  0.16932941647E+02  0.51100000000E-03 0.  1.
         12    1    3    3    0    0 -0.12955852257E+02  0.21921636641E+02 -0.14130626744E+02  0.29121931133E+02  0.00000000000E+00 0. -1.
</event>
<event>
 7    1  0.1830715E-013  0.7246093E+02  0.7816164E-02  0.1226710E+00
        -11   -1    0    0    0    0  0.00000000000E+00  0.00000000000E+00  0.45593999997E+02  0.45594000000E+02  0.51100000000E-03 0. -1.
         11   -1    0    0    0    0 -0.00000000000E+00 -0.00000000000E+00 -0.45593999997E+02  0.45594000000E+02  0.51100000000E-03 0.  1.
    9900012    2    1    2    0    0 -0.15151950716E+02  0.98777286083E+01  0.48530555247E+01  0.72460926527E+02  0.69999161368E+02 0.  0.
        -12    1    1    2    0    0  0.15151950716E+02 -0.98777286083E+01 -0.48530555247E+01  0.18727073473E+02  0.00000000000E+00 0.  1.
         11    1    3    3    0    0 -0.17049575774E+02 -0.17428924952E+02  0.75831626994E+01  0.25533503791E+02  0.51100000000E-03 0. -1.
        -11    1    3    3    0    0  0.41973351456E+01  0.87943737005E+01 -0.19528036280E+02  0.21824363275E+02  0.51100000000E-03 0.  1.
         12    1    3    3    0    0 -0.22997100877E+01  0.18512279859E+02  0.16797929106E+02  0.25103059461E+02  0.00000000000E+00 0. -1.
</event>
<event>
 7    1  0.1830715E-013  0.7246154E+02  0.7816164E-02  0.1226708E+00
        -11   -1    0    0    0    0  0.00000000000E+00  0.00000000000E+00  0.45593999997E+02  0.45594000000E+02  0.51100000000E-03 0. -1.
         11   -1    0    0    0    0 -0.00000000000E+00 -0.00000000000E+00 -0.45593999997E+02  0.45594000000E+02  0.51100000000E-03 0.  1.
    9900012    2    1    2    0    0  0.10613523288E+02  0.15356477016E+02  0.14872328645E+01  0.72461544795E+02  0.69999966783E+02 0.  0.
        -12    1    1    2    0    0 -0.10613523288E+02 -0.15356477016E+02 -0.14872328645E+01  0.18726455205E+02  0.00000000000E+00 0.  1.
         11    1    3    3    0    0  0.11299180227E+02  0.11400054928E+02  0.32199837002E+02  0.35978635736E+02  0.51100000000E-03 0. -1.
        -11    1    3    3    0    0 -0.17543499487E+00 -0.78585890426E+01 -0.11882119475E+02  0.14246857992E+02  0.51100000000E-03 0.  1.
         12    1    3    3    0    0 -0.51022194372E+00  0.11815011130E+02 -0.18830484663E+02  0.22236051067E+02  0.00000000000E+00 0. -1.
</event>
<event>
 7    1  0.1830715E-013  0.7246171E+02  0.7816164E-02  0.1226708E+00
        -11   -1    0    0    0    0  0.00000000000E+00  0.00000000000E+00  0.45593999997E+02  0.45594000000E+02  0.51100000000E-03 0.  1.
         11   -1    0    0    0    0 -0.00000000000E+00 -0.00000000000E+00 -0.45593999997E+02  0.45594000000E+02  0.51100000000E-03 0. -1.
    9900012    2    1    2    0    0 -0.10274320880E+01  0.21314727222E+01 -0.18576201730E+02  0.72461706630E+02  0.70000177602E+02 0.  0.
        -12    1    1    2    0    0  0.10274320880E+01 -0.21314727222E+01  0.18576201730E+02  0.18726293370E+02  0.00000000000E+00 0.  1.
         11    1    3    3    0    0 -0.11807823559E+02 -0.11609640066E+02 -0.31763955618E+02  0.35821185302E+02  0.51100000000E-03 0. -1.
        -11    1    3    3    0    0  0.13210574753E+02 -0.41445003437E+01 -0.70462764061E+00  0.13863357053E+02  0.51100000000E-03 0.  1.
         12    1    3    3    0    0 -0.24301832818E+01  0.17885613132E+02  0.13892381528E+02  0.22777164275E+02  0.00000000000E+00 0. -1.
</event>
<event>
 7    1  0.1830715E-013  0.7246156E+02  0.7816164E-02  0.1226708E+00
        -11   -1    0    0    0    0  0.00000000000E+00  0.00000000000E+00  0.45593999997E+02  0.45594000000E+02  0.51100000000E-03 0.  1.
         11   -1    0    0    0    0 -0.00000000000E+00 -0.00000000000E+00 -0.45593999997E+02  0.45594000000E+02  0.51100000000E-03 0. -1.
    9900012    2    1    2    0    0  0.14715157468E+02 -0.11269637346E+02  0.26718569534E+01  0.72461564012E+02  0.69999991816E+02 0.  0.
        -12    1    1    2    0    0 -0.14715157468E+02  0.11269637346E+02 -0.26718569534E+01  0.18726435988E+02  0.00000000000E+00 0.  1.
         11    1    3    3    0    0 -0.14164366580E+02  0.65510795872E+01 -0.20521602760E+02  0.25781429450E+02  0.51100000000E-03 0. -1.
        -11    1    3    3    0    0  0.21739314660E+01 -0.13170093551E+02  0.88032295523E+01  0.15989815289E+02  0.51100000000E-03 0.  1.
         12    1    3    3    0    0  0.26705592582E+02 -0.46506233820E+01  0.14390230161E+02  0.30690319273E+02  0.00000000000E+00 0. -1.
</event>
<event>
 7    1  0.1830715E-013  0.7246166E+02  0.7816164E-02  0.1226708E+00
        -11   -1    0    0    0    0  0.00000000000E+00  0.00000000000E+00  0.45593999997E+02  0.45594000000E+02  0.51100000000E-03 0.  1.
         11   -1    0    0    0    0 -0.00000000000E+00 -0.00000000000E+00 -0.45593999997E+02  0.45594000000E+02  0.51100000000E-03 0. -1.
    9900012    2    1    2    0    0 -0.56139429368E+01 -0.12541866341E+02 -0.12722462390E+02  0.72461659837E+02  0.70000116646E+02 0.  0.
        -12    1    1    2    0    0  0.56139429368E+01  0.12541866341E+02  0.12722462390E+02  0.18726340163E+02  0.00000000000E+00 0.  1.
         11    1    3    3    0    0 -0.36542966596E+01  0.22518593674E+02 -0.18860313024E+02  0.29599870823E+02  0.51100000000E-03 0. -1.
        -11    1    3    3    0    0  0.87790951436E+01 -0.17338327999E+02  0.98852069410E+01  0.21803840163E+02  0.51100000000E-03 0.  1.
         12    1    3    3    0    0 -0.10738741421E+02 -0.17722132016E+02 -0.37473563075E+01  0.21057948851E+02  0.00000000000E+00 0. -1.
</event>
<event>
 7    1  0.1830715E-013  0.7246160E+02  0.7816164E-02  0.1226708E+00
        -11   -1    0    0    0    0  0.00000000000E+00  0.00000000000E+00  0.45593999997E+02  0.45594000000E+02  0.51100000000E-03 0. -1.
         11   -1    0    0    0    0 -0.00000000000E+00 -0.00000000000E+00 -0.45593999997E+02  0.45594000000E+02  0.51100000000E-03 0.  1.
    9900012    2    1    2    0    0 -0.23862036218E+01  0.64818815631E+01  0.17406008905E+02  0.72461604129E+02  0.70000044076E+02 0.  0.
        -12    1    1    2    0    0  0.23862036218E+01 -0.64818815631E+01 -0.17406008905E+02  0.18726395871E+02  0.00000000000E+00 0.  1.
         11    1    3    3    0    0 -0.23743037332E+02  0.33055478760E+01  0.14998588504E+01  0.24018910161E+02  0.51100000000E-03 0. -1.
        -11    1    3    3    0    0  0.10558537552E+02  0.17893756600E+02 -0.42950725539E+01  0.21215958357E+02  0.51100000000E-03 0.  1.
         12    1    3    3    0    0  0.10798296158E+02 -0.14717422913E+02  0.20201222609E+02  0.27226735610E+02  0.00000000000E+00 0. -1.
</event>
<event>
 8    1  0.1830715E-013  0.7246157E+02  0.7816164E-02  0.1226708E+00
        -11   -1    0    0    0    0  0.00000000000E+00  0.00000000000E+00  0.45593999997E+02  0.45594000000E+02  0.51100000000E-03 0. -1.
         11   -1    0    0    0    0 -0.00000000000E+00 -0.00000000000E+00 -0.45593999997E+02  0.45594000000E+02  0.51100000000E-03 0.  1.
    9900012    2    1    2    0    0 -0.38095548153E+01 -0.16383977442E+02  0.82299200665E+01  0.72461574580E+02  0.70000005582E+02 0.  0.
        -24    2    3    3    0    0 -0.11114352211E+02 -0.57732648774E+00  0.15867625326E+02  0.53447242583E+02  0.49809277000E+02 0.  0.
        -12    1    1    2    0    0  0.38095548153E+01  0.16383977442E+02 -0.82299200665E+01  0.18726425420E+02  0.00000000000E+00 0.  1.
         11    1    4    4    0    0 -0.22885394968E+02 -0.53107351211E+01  0.27545666610E+02  0.36203714721E+02  0.51100000000E-03 0. -1.
        -11    1    3    3    0    0  0.73047973956E+01 -0.15806650955E+02 -0.76377052600E+01  0.19014331997E+02  0.51100000000E-03 0.  1.
        -12    1    4    4    0    0  0.11771042757E+02  0.47334086334E+01 -0.11678041284E+02  0.17243527861E+02  0.00000000000E+00 0.  1.
</event>
<event>
 7    1  0.1830715E-013  0.7246155E+02  0.7816164E-02  0.1226708E+00
        -11   -1    0    0    0    0  0.00000000000E+00  0.00000000000E+00  0.45593999997E+02  0.45594000000E+02  0.51100000000E-03 0.  1.
         11   -1    0    0    0    0 -0.00000000000E+00 -0.00000000000E+00 -0.45593999997E+02  0.45594000000E+02  0.51100000000E-03 0. -1.
    9900012    2    1    2    0    0 -0.12572501965E+02 -0.73537127300E+01 -0.11770096295E+02  0.72461546428E+02  0.69999968910E+02 0.  0.
        -12    1    1    2    0    0  0.12572501965E+02  0.73537127300E+01  0.11770096295E+02  0.18726453572E+02  0.00000000000E+00 0.  1.
         11    1    3    3    0    0 -0.86146853769E+01  0.14980577252E+02 -0.16363921151E+02  0.23799336433E+02  0.51100000000E-03 0. -1.
        -11    1    3    3    0    0 -0.88599027888E+01 -0.34212878956E+02  0.55576150831E+01  0.35775774618E+02  0.51100000000E-03 0.  1.
        -12    1    3    3    0    0  0.49020862009E+01  0.11878588974E+02 -0.96379022759E+00  0.12886435377E+02  0.00000000000E+00 0.  1.
</event>
<event>
 7    1  0.1830715E-013  0.7246152E+02  0.7816164E-02  0.1226708E+00
        -11   -1    0    0    0    0  0.00000000000E+00  0.00000000000E+00  0.45593999997E+02  0.45594000000E+02  0.51100000000E-03 0.  1.
         11   -1    0    0    0    0 -0.00000000000E+00 -0.00000000000E+00 -0.45593999997E+02  0.45594000000E+02  0.51100000000E-03 0. -1.
    9900012    2    1    2    0    0 -0.15753980906E+02  0.22976504893E+01  0.98597198692E+01  0.72461516399E+02  0.69999929791E+02 0.  0.
        -12    1    1    2    0    0  0.15753980906E+02 -0.22976504893E+01 -0.98597198692E+01  0.18726483601E+02  0.00000000000E+00 0.  1.
         11    1    3    3    0    0 -0.92502926592E+01  0.13386086369E+02 -0.34753392532E+01  0.16638305374E+02  0.51100000000E-03 0. -1.
        -11    1    3    3    0    0 -0.84943824195E+00 -0.16767774453E+02  0.31652364230E+02  0.35829484605E+02  0.51100000000E-03 0.  1.
        -12    1    3    3    0    0 -0.56542500050E+01  0.56793385738E+01 -0.18317305107E+02  0.19993726420E+02  0.00000000000E+00 0.  1.
</event>
<event>
 7    1  0.1830715E-013  0.7246155E+02  0.7816164E-02  0.1226708E+00
        -11   -1    0    0    0    0  0.00000000000E+00  0.00000000000E+00  0.45593999997E+02  0.45594000000E+02  0.51100000000E-03 0.  1.
         11   -1    0    0    0    0 -0.00000000000E+00 -0.00000000000E+00 -0.45593999997E+02  0.45594000000E+02  0.51100000000E-03 0. -1.
    9900012    2    1    2    0    0  0.86000260886E+01  0.70350981346E-01 -0.16634737276E+02  0.72461551265E+02  0.69999975211E+02 0.  0.
        -12    1    1    2    0    0 -0.86000260886E+01 -0.70350981346E-01  0.16634737276E+02  0.18726448735E+02  0.00000000000E+00 0.  1.
         11    1    3    3    0    0  0.26633336032E+02 -0.78127823976E+01  0.18568372048E+01  0.27817656293E+02  0.51100000000E-03 0. -1.
        -11    1    3    3    0    0 -0.14988681598E+02  0.71675427112E+01  0.76677104658E+01  0.18298306714E+02  0.51100000000E-03 0.  1.
         12    1    3    3    0    0 -0.30446283448E+01  0.71559066771E+00 -0.26159284946E+02  0.26345588258E+02  0.00000000000E+00 0. -1.
</event>
<event>
 7    1  0.1830715E-013  0.7246158E+02  0.7816164E-02  0.1226708E+00
        -11   -1    0    0    0    0  0.00000000000E+00  0.00000000000E+00  0.45593999997E+02  0.45594000000E+02  0.51100000000E-03 0.  1.
         11   -1    0    0    0    0 -0.00000000000E+00 -0.00000000000E+00 -0.45593999997E+02  0.45594000000E+02  0.51100000000E-03 0. -1.
    9900012    2    1    2    0    0 -0.10704943101E+01 -0.29867962613E+01 -0.18455675210E+02  0.72461578627E+02  0.70000010855E+02 0.  0.
        -12    1    1    2    0    0  0.10704943101E+01  0.29867962613E+01  0.18455675210E+02  0.18726421373E+02  0.00000000000E+00 0.  1.
         11    1    3    3    0    0  0.15059510812E+02 -0.13448075954E+02  0.37937793180E+01  0.20543426554E+02  0.51100000000E-03 0.  1.
        -11    1    3    3    0    0 -0.17553091074E+01  0.25628600029E+02 -0.15280806784E+02  0.29889953257E+02  0.51100000000E-03 0. -1.
         12    1    3    3    0    0 -0.14374696015E+02 -0.15167320336E+02 -0.69686477446E+01  0.22028198816E+02  0.00000000000E+00 0. -1.
</event>
<event>
 7    1  0.1830715E-013  0.7246145E+02  0.7816164E-02  0.1226708E+00
        -11   -1    0    0    0    0  0.00000000000E+00  0.00000000000E+00  0.45593999997E+02  0.45594000000E+02  0.51100000000E-03 0.  1.
         11   -1    0    0    0    0 -0.00000000000E+00 -0.00000000000E+00 -0.45593999997E+02  0.45594000000E+02  0.51100000000E-03 0. -1.
    9900012    2    1    2    0    0 -0.18206808724E+02  0.31760330031E+01  0.30180646785E+01  0.72461447089E+02  0.69999839502E+02 0.  0.
        -12    1    1    2    0    0  0.18206808724E+02 -0.31760330031E+01 -0.30180646785E+01  0.18726552911E+02  0.00000000000E+00 0.  1.
         11    1    3    3    0    0  0.19531569584E+02  0.77890490610E+01  0.18969588686E+02  0.28319547858E+02  0.51100000000E-03 0.  1.
        -11    1    3    3    0    0 -0.33890438702E+02 -0.11901279336E+01 -0.18240880603E+02  0.38505947142E+02  0.51100000000E-03 0. -1.
        -12    1    3    3    0    0 -0.38479396061E+01 -0.34228881243E+01  0.22893565948E+01  0.56359520883E+01  0.00000000000E+00 0.  1.
</event>
<event>
 7    1  0.1830715E-013  0.7246161E+02  0.7816164E-02  0.1226708E+00
        -11   -1    0    0    0    0  0.00000000000E+00  0.00000000000E+00  0.45593999997E+02  0.45594000000E+02  0.51100000000E-03 0.  1.
         11   -1    0    0    0    0 -0.00000000000E+00 -0.00000000000E+00 -0.45593999997E+02  0.45594000000E+02  0.51100000000E-03 0. -1.
    9900012    2    1    2    0    0 -0.83309417937E+01 -0.40920074860E+01 -0.16264335993E+02  0.72461608417E+02  0.70000049662E+02 0.  0.
        -12    1    1    2    0    0  0.83309417937E+01  0.40920074860E+01  0.16264335993E+02  0.18726391583E+02  0.00000000000E+00 0.  1.
         11    1    3    3    0    0  0.13146932430E+02  0.19917757016E+02 -0.28365029935E+02  0.37069310762E+02  0.51100000000E-03 0. -1.
        -11    1    3    3    0    0 -0.26718709579E+01 -0.23302299180E+00  0.22978084594E+01  0.35317301861E+01  0.51100000000E-03 0.  1.
         12    1    3    3    0    0 -0.18806003266E+02 -0.23776741510E+02  0.98028854833E+01  0.31860567469E+02  0.00000000000E+00 0. -1.
</event>
<event>
 7    1  0.1830715E-013  0.7246161E+02  0.7816164E-02  0.1226708E+00
        -11   -1    0    0    0    0  0.00000000000E+00  0.00000000000E+00  0.45593999997E+02  0.45594000000E+02  0.51100000000E-03 0. -1.
         11   -1    0    0    0    0 -0.00000000000E+00 -0.00000000000E+00 -0.45593999997E+02  0.45594000000E+02  0.51100000000E-03 0.  1.
    9900012    2    1    2    0    0  0.17985767630E+02 -0.39788835475E+01  0.33701937957E+01  0.72461613329E+02  0.70000056061E+02 0.  0.
        -12    1    1    2    0    0 -0.17985767630E+02  0.39788835475E+01 -0.33701937957E+01  0.18726386671E+02  0.00000000000E+00 0.  1.
         11    1    3    3    0    0  0.34415285623E+02 -0.16246447411E+02 -0.32317395765E+00  0.38058683367E+02  0.51100000000E-03 0. -1.
        -11    1    3    3    0    0 -0.53814394034E+00  0.99856038836E+01 -0.93709602613E+01  0.13704626237E+02  0.51100000000E-03 0.  1.
         12    1    3    3    0    0 -0.15891374053E+02  0.22819599799E+01  0.13064328015E+02  0.20698303725E+02  0.00000000000E+00 0. -1.
</event>
<event>
 7    1  0.1830715E-013  0.7246171E+02  0.7816164E-02  0.1226708E+00
        -11   -1    0    0    0    0  0.00000000000E+00  0.00000000000E+00  0.45593999997E+02  0.45594000000E+02  0.51100000000E-03 0.  1.
         11   -1    0    0    0    0 -0.00000000000E+00 -0.00000000000E+00 -0.45593999997E+02  0.45594000000E+02  0.51100000000E-03 0. -1.
    9900012    2    1    2    0    0  0.84559427139E+01  0.15240608189E+02 -0.68479680111E+01  0.72461714436E+02  0.70000187771E+02 0.  0.
        -12    1    1    2    0    0 -0.84559427139E+01 -0.15240608189E+02  0.68479680111E+01  0.18726285564E+02  0.00000000000E+00 0.  1.
         11    1    3    3    0    0  0.22836670147E+02 -0.14769997329E+02  0.85559504544E+01  0.28510885868E+02  0.51100000000E-03 0. -1.
        -11    1    3    3    0    0 -0.38658831904E+01  0.10583736414E+02  0.63615991211E+01  0.12939492763E+02  0.51100000000E-03 0.  1.
         12    1    3    3    0    0 -0.10514844243E+02  0.19426869104E+02 -0.21765517587E+02  0.31011335806E+02  0.00000000000E+00 0. -1.
</event>
<event>
 7    1  0.1830715E-013  0.7246159E+02  0.7816164E-02  0.1226708E+00
        -11   -1    0    0    0    0  0.00000000000E+00  0.00000000000E+00  0.45593999997E+02  0.45594000000E+02  0.51100000000E-03 0.  1.
         11   -1    0    0    0    0 -0.00000000000E+00 -0.00000000000E+00 -0.45593999997E+02  0.45594000000E+02  0.51100000000E-03 0. -1.
    9900012    2    1    2    0    0 -0.10393736155E+02  0.51259587808E+01 -0.14709634151E+02  0.72461587061E+02  0.70000021842E+02 0.  0.
        -12    1    1    2    0    0  0.10393736155E+02 -0.51259587808E+01  0.14709634151E+02  0.18726412939E+02  0.00000000000E+00 0.  1.
         11    1    3    3    0    0 -0.22987145620E+00 -0.17029326017E+02 -0.12860779642E+01  0.17079367151E+02  0.51100000000E-03 0.  1.
        -11    1    3    3    0    0  0.12617938420E+02  0.26509408021E+02 -0.13192272205E+02  0.32186909293E+02  0.51100000000E-03 0. -1.
        -12    1    3    3    0    0 -0.22781803119E+02 -0.43541232237E+01 -0.23128398192E+00  0.23195310618E+02  0.00000000000E+00 0.  1.
</event>
<event>
 7    1  0.1830715E-013  0.7246165E+02  0.7816164E-02  0.1226708E+00
        -11   -1    0    0    0    0  0.00000000000E+00  0.00000000000E+00  0.45593999997E+02  0.45594000000E+02  0.51100000000E-03 0.  1.
         11   -1    0    0    0    0 -0.00000000000E+00 -0.00000000000E+00 -0.45593999997E+02  0.45594000000E+02  0.51100000000E-03 0. -1.
    9900012    2    1    2    0    0 -0.18370879874E+02  0.36313302106E+01 -0.22041402380E-01  0.72461647652E+02  0.70000100773E+02 0.  0.
        -12    1    1    2    0    0  0.18370879874E+02 -0.36313302106E+01  0.22041402380E-01  0.18726352348E+02  0.00000000000E+00 0.  1.
         11    1    3    3    0    0 -0.11042592303E+02 -0.23507349965E+02 -0.74500956734E+01  0.27019220435E+02  0.51100000000E-03 0. -1.
        -11    1    3    3    0    0 -0.19459026238E+02  0.23435282152E+02  0.10799294859E+02  0.32318584767E+02  0.51100000000E-03 0.  1.
         12    1    3    3    0    0  0.12130738667E+02  0.37033980234E+01 -0.33712405875E+01  0.13123842449E+02  0.00000000000E+00 0. -1.
</event>
<event>
 7    1  0.1830715E-013  0.7246160E+02  0.7816164E-02  0.1226708E+00
        -11   -1    0    0    0    0  0.00000000000E+00  0.00000000000E+00  0.45593999997E+02  0.45594000000E+02  0.51100000000E-03 0.  1.
         11   -1    0    0    0    0 -0.00000000000E+00 -0.00000000000E+00 -0.45593999997E+02  0.45594000000E+02  0.51100000000E-03 0. -1.
    9900012    2    1    2    0    0 -0.13929781472E+02 -0.25626243572E+01 -0.12250400554E+02  0.72461597003E+02  0.70000034793E+02 0.  0.
        -12    1    1    2    0    0  0.13929781472E+02  0.25626243572E+01  0.12250400554E+02  0.18726402997E+02  0.00000000000E+00 0.  1.
         11    1    3    3    0    0 -0.28313904112E+01 -0.87060501031E+01 -0.72315401434E+01  0.11666501325E+02  0.51100000000E-03 0. -1.
        -11    1    3    3    0    0 -0.34822723157E+02  0.42742246695E+01  0.40728592974E+01  0.35319671965E+02  0.51100000000E-03 0.  1.
        -12    1    3    3    0    0  0.23724332097E+02  0.18692010764E+01 -0.90917197082E+01  0.25475423713E+02  0.00000000000E+00 0.  1.
</event>
<event>
 7    1  0.1830715E-013  0.7246156E+02  0.7816164E-02  0.1226708E+00
        -11   -1    0    0    0    0  0.00000000000E+00  0.00000000000E+00  0.45593999997E+02  0.45594000000E+02  0.51100000000E-03 0.  1.
         11   -1    0    0    0    0 -0.00000000000E+00 -0.00000000000E+00 -0.45593999997E+02  0.45594000000E+02  0.51100000000E-03 0. -1.
    9900012    2    1    2    0    0  0.12349214990E+02  0.99122656724E+01 -0.99961741444E+01  0.72461558289E+02  0.69999984361E+02 0.  0.
        -12    1    1    2    0    0 -0.12349214990E+02 -0.99122656724E+01  0.99961741444E+01  0.18726441711E+02  0.00000000000E+00 0.  1.
         11    1    3    3    0    0  0.82791901538E+01 -0.19566823893E-02 -0.29607484822E+02  0.30743261883E+02  0.51100000000E-03 0. -1.
        -11    1    3    3    0    0  0.14852433649E+02 -0.36587557131E+01  0.18974080285E+02  0.24372053701E+02  0.51100000000E-03 0.  1.
        -12    1    3    3    0    0 -0.10782408813E+02  0.13572978068E+02  0.63723039240E+00  0.17346242706E+02  0.00000000000E+00 0.  1.
</event>
<event>
 7    1  0.1830715E-013  0.7246149E+02  0.7816164E-02  0.1226708E+00
        -11   -1    0    0    0    0  0.00000000000E+00  0.00000000000E+00  0.45593999997E+02  0.45594000000E+02  0.51100000000E-03 0.  1.
         11   -1    0    0    0    0 -0.00000000000E+00 -0.00000000000E+00 -0.45593999997E+02  0.45594000000E+02  0.51100000000E-03 0. -1.
    9900012    2    1    2    0    0  0.16748680698E+02 -0.74158452609E+01 -0.38947564342E+01  0.72461489547E+02  0.69999894811E+02 0.  0.
        -12    1    1    2    0    0 -0.16748680698E+02  0.74158452609E+01  0.38947564342E+01  0.18726510453E+02  0.00000000000E+00 0.  1.
         11    1    3    3    0    0  0.67217341068E+01 -0.12101141100E+02 -0.17146047872E+02  0.22036476197E+02  0.51100000000E-03 0. -1.
        -11    1    3    3    0    0 -0.14502431249E+02  0.88191666989E+01  0.18388630495E+02  0.25024786616E+02  0.51100000000E-03 0.  1.
        -12    1    3    3    0    0  0.24529377841E+02 -0.41338708602E+01 -0.51373390582E+01  0.25400226734E+02  0.00000000000E+00 0.  1.
</event>
<event>
 7    1  0.1830715E-013  0.7246159E+02  0.7816164E-02  0.1226708E+00
        -11   -1    0    0    0    0  0.00000000000E+00  0.00000000000E+00  0.45593999997E+02  0.45594000000E+02  0.51100000000E-03 0.  1.
         11   -1    0    0    0    0 -0.00000000000E+00 -0.00000000000E+00 -0.45593999997E+02  0.45594000000E+02  0.51100000000E-03 0. -1.
    9900012    2    1    2    0    0 -0.16281975947E+01  0.25320954370E+01 -0.18482853061E+02  0.72461591055E+02  0.70000027044E+02 0.  0.
        -12    1    1    2    0    0  0.16281975947E+01 -0.25320954370E+01  0.18482853061E+02  0.18726408945E+02  0.00000000000E+00 0.  1.
         11    1    3    3    0    0  0.90391756470E+01  0.46612356197E+01 -0.13707482042E+02  0.17068358974E+02  0.51100000000E-03 0. -1.
        -11    1    3    3    0    0 -0.13042456072E+02 -0.27114798587E+02 -0.25261606050E+01  0.30194361236E+02  0.51100000000E-03 0.  1.
        -12    1    3    3    0    0  0.23750828299E+01  0.24985658404E+02 -0.22492104144E+01  0.25198870845E+02  0.00000000000E+00 0.  1.
</event>
<event>
 7    1  0.1830715E-013  0.7246153E+02  0.7816164E-02  0.1226708E+00
        -11   -1    0    0    0    0  0.00000000000E+00  0.00000000000E+00  0.45593999997E+02  0.45594000000E+02  0.51100000000E-03 0. -1.
         11   -1    0    0    0    0 -0.00000000000E+00 -0.00000000000E+00 -0.45593999997E+02  0.45594000000E+02  0.51100000000E-03 0.  1.
    9900012    2    1    2    0    0  0.94021295464E+01  0.11281709203E+02  0.11619115914E+02  0.72461525234E+02  0.69999941300E+02 0.  0.
        -12    1    1    2    0    0 -0.94021295464E+01 -0.11281709203E+02 -0.11619115914E+02  0.18726474766E+02  0.00000000000E+00 0.  1.
         11    1    3    3    0    0  0.22734992201E+02  0.14947007942E+02 -0.48316967995E+01  0.27634004614E+02  0.51100000000E-03 0. -1.
        -11    1    3    3    0    0 -0.69008555763E+01 -0.44871949072E+01  0.29300316515E+02  0.30434606519E+02  0.51100000000E-03 0.  1.
        -12    1    3    3    0    0 -0.64320070780E+01  0.82189616826E+00 -0.12849503802E+02  0.14392914101E+02  0.00000000000E+00 0.  1.
</event>
<event>
 7    1  0.1830715E-013  0.7246154E+02  0.7816164E-02  0.1226708E+00
        -11   -1    0    0    0    0  0.00000000000E+00  0.00000000000E+00  0.45593999997E+02  0.45594000000E+02  0.51100000000E-03 0.  1.
         11   -1    0    0    0    0 -0.00000000000E+00 -0.00000000000E+00 -0.45593999997E+02  0.45594000000E+02  0.51100000000E-03 0. -1.
    9900012    2    1    2    0    0 -0.54228742550E+01 -0.16220958625E+02  0.76258161174E+01  0.72461544506E+02  0.69999966406E+02 0.  0.
        -12    1    1    2    0    0  0.54228742550E+01  0.16220958625E+02 -0.76258161174E+01  0.18726455494E+02  0.00000000000E+00 0.  1.
         11    1    3    3    0    0 -0.20497401886E+02 -0.69772831627E+01 -0.19098259353E+02  0.28871603263E+02  0.51100000000E-03 0. -1.
        -11    1    3    3    0    0  0.94089058700E+01  0.10168713707E+02  0.78243423269E+01  0.15910706497E+02  0.51100000000E-03 0.  1.
         12    1    3    3    0    0  0.56656217613E+01 -0.19412389170E+02  0.18899733143E+02  0.27679234746E+02  0.00000000000E+00 0. -1.
</event>
<event>
 7    1  0.1830715E-013  0.7246156E+02  0.7816164E-02  0.1226708E+00
        -11   -1    0    0    0    0  0.00000000000E+00  0.00000000000E+00  0.45593999997E+02  0.45594000000E+02  0.51100000000E-03 0. -1.
         11   -1    0    0    0    0 -0.00000000000E+00 -0.00000000000E+00 -0.45593999997E+02  0.45594000000E+02  0.51100000000E-03 0.  1.
    9900012    2    1    2    0    0  0.16930131199E+02  0.15310503238E+01  0.78553238532E+01  0.72461559592E+02  0.69999986059E+02 0.  0.
        -12    1    1    2    0    0 -0.16930131199E+02 -0.15310503238E+01 -0.78553238532E+01  0.18726440408E+02  0.00000000000E+00 0.  1.
         11    1    3    3    0    0  0.25768456952E+01 -0.13266426163E+02  0.58554206141E+01  0.14728345043E+02  0.51100000000E-03 0. -1.
        -11    1    3    3    0    0  0.77788138920E+01  0.21061150481E+02  0.24643065408E+02  0.33337106625E+02  0.51100000000E-03 0.  1.
        -12    1    3    3    0    0  0.65744716116E+01 -0.62636739938E+01 -0.22643162168E+02  0.24396107924E+02  0.00000000000E+00 0.  1.
</event>
<event>
 7    1  0.1830715E-013  0.7246151E+02  0.7816164E-02  0.1226708E+00
        -11   -1    0    0    0    0  0.00000000000E+00  0.00000000000E+00  0.45593999997E+02  0.45594000000E+02  0.51100000000E-03 0.  1.
         11   -1    0    0    0    0 -0.00000000000E+00 -0.00000000000E+00 -0.45593999997E+02  0.45594000000E+02  0.51100000000E-03 0. -1.
    9900012    2    1    2    0    0 -0.80495772979E+01 -0.13708578397E+02 -0.98975066946E+01  0.72461509269E+02  0.69999920503E+02 0.  0.
        -12    1    1    2    0    0  0.80495772979E+01  0.13708578397E+02  0.98975066946E+01  0.18726490731E+02  0.00000000000E+00 0.  1.
         11    1    3    3    0    0 -0.10526533709E+02  0.21745592199E+02  0.58275222793E+01  0.24852338083E+02  0.51100000000E-03 0. -1.
        -11    1    3    3    0    0 -0.11314146860E+02 -0.25071021585E+02 -0.76414412380E+01  0.28547463406E+02  0.51100000000E-03 0.  1.
        -12    1    3    3    0    0  0.13791103271E+02 -0.10383149011E+02 -0.80835877359E+01  0.19061707780E+02  0.00000000000E+00 0.  1.
</event>
<event>
 7    1  0.1830715E-013  0.7246126E+02  0.7816164E-02  0.1226709E+00
        -11   -1    0    0    0    0  0.00000000000E+00  0.00000000000E+00  0.45593999997E+02  0.45594000000E+02  0.51100000000E-03 0.  1.
         11   -1    0    0    0    0 -0.00000000000E+00 -0.00000000000E+00 -0.45593999997E+02  0.45594000000E+02  0.51100000000E-03 0. -1.
    9900012    2    1    2    0    0  0.12516180897E+02  0.98499411100E+01 -0.98496103692E+01  0.72461255794E+02  0.69999590304E+02 0.  0.
        -12    1    1    2    0    0 -0.12516180897E+02 -0.98499411100E+01  0.98496103692E+01  0.18726744206E+02  0.00000000000E+00 0.  1.
         11    1    3    3    0    0  0.18847751828E+02 -0.85749032703E+01 -0.19945402769E+02  0.28750405336E+02  0.51100000000E-03 0. -1.
        -11    1    3    3    0    0  0.90240663631E+01  0.37478510878E+01  0.18456054973E+02  0.20883154142E+02  0.51100000000E-03 0.  1.
         12    1    3    3    0    0 -0.15355637294E+02  0.14676993293E+02 -0.83602625728E+01  0.22827696316E+02  0.00000000000E+00 0. -1.
</event>
<event>
 7    1  0.1830715E-013  0.7246158E+02  0.7816164E-02  0.1226708E+00
        -11   -1    0    0    0    0  0.00000000000E+00  0.00000000000E+00  0.45593999997E+02  0.45594000000E+02  0.51100000000E-03 0. -1.
         11   -1    0    0    0    0 -0.00000000000E+00 -0.00000000000E+00 -0.45593999997E+02  0.45594000000E+02  0.51100000000E-03 0.  1.
    9900012    2    1    2    0    0 -0.24446593620E+00 -0.74402031581E+01  0.17183196748E+02  0.72461584510E+02  0.70000018518E+02 0.  0.
        -12    1    1    2    0    0  0.24446593620E+00  0.74402031581E+01 -0.17183196748E+02  0.18726415490E+02  0.00000000000E+00 0.  1.
         11    1    3    3    0    0  0.44724166476E+01 -0.29677027900E+02  0.20630343599E+01  0.30082962066E+02  0.51100000000E-03 0. -1.
        -11    1    3    3    0    0 -0.14787178215E+02  0.16258448174E+02  0.19977438812E+02  0.29700098289E+02  0.51100000000E-03 0.  1.
        -12    1    3    3    0    0  0.10070295632E+02  0.59783765675E+01 -0.48572764238E+01  0.12678524155E+02  0.00000000000E+00 0.  1.
</event>
<event>
 7    1  0.1830715E-013  0.7246157E+02  0.7816164E-02  0.1226708E+00
        -11   -1    0    0    0    0  0.00000000000E+00  0.00000000000E+00  0.45593999997E+02  0.45594000000E+02  0.51100000000E-03 0. -1.
         11   -1    0    0    0    0 -0.00000000000E+00 -0.00000000000E+00 -0.45593999997E+02  0.45594000000E+02  0.51100000000E-03 0.  1.
    9900012    2    1    2    0    0 -0.42367049082E+01  0.11857233059E+02  0.13861289938E+02  0.72461574740E+02  0.70000005791E+02 0.  0.
        -12    1    1    2    0    0  0.42367049082E+01 -0.11857233059E+02 -0.13861289938E+02  0.18726425260E+02  0.00000000000E+00 0.  1.
         11    1    3    3    0    0 -0.25240653130E+00 -0.55325602860E+01  0.83919637319E+01  0.10054749520E+02  0.51100000000E-03 0. -1.
        -11    1    3    3    0    0  0.26836667170E+02  0.15166301798E+02  0.64370185582E+01  0.31490611667E+02  0.51100000000E-03 0.  1.
        -12    1    3    3    0    0 -0.30820965547E+02  0.22234915471E+01 -0.96769235221E+00  0.30916213552E+02  0.00000000000E+00 0.  1.
</event>
<event>
 7    1  0.1830715E-013  0.7246163E+02  0.7816164E-02  0.1226708E+00
        -11   -1    0    0    0    0  0.00000000000E+00  0.00000000000E+00  0.45593999997E+02  0.45594000000E+02  0.51100000000E-03 0.  1.
         11   -1    0    0    0    0 -0.00000000000E+00 -0.00000000000E+00 -0.45593999997E+02  0.45594000000E+02  0.51100000000E-03 0. -1.
    9900012    2    1    2    0    0  0.14379124537E+02 -0.10818485286E+02 -0.51844191395E+01  0.72461626936E+02  0.70000073786E+02 0.  0.
        -12    1    1    2    0    0 -0.14379124537E+02  0.10818485286E+02  0.51844191395E+01  0.18726373064E+02  0.00000000000E+00 0.  1.
         11    1    3    3    0    0  0.26301212928E+02  0.93481202341E+01  0.56111844187E+01  0.28471504074E+02  0.51100000000E-03 0. -1.
        -11    1    3    3    0    0 -0.16246205735E+02 -0.24167440105E+02  0.27191778577E+01  0.29247192865E+02  0.51100000000E-03 0.  1.
        -12    1    3    3    0    0  0.43241173445E+01  0.40008345850E+01 -0.13514781416E+02  0.14742929997E+02  0.00000000000E+00 0.  1.
</event>
<event>
 7    1  0.1830715E-013  0.7246154E+02  0.7816164E-02  0.1226708E+00
        -11   -1    0    0    0    0  0.00000000000E+00  0.00000000000E+00  0.45593999997E+02  0.45594000000E+02  0.51100000000E-03 0.  1.
         11   -1    0    0    0    0 -0.00000000000E+00 -0.00000000000E+00 -0.45593999997E+02  0.45594000000E+02  0.51100000000E-03 0. -1.
    9900012    2    1    2    0    0  0.43146382789E+01 -0.12971103496E+02 -0.12799006084E+02  0.72461543152E+02  0.69999964641E+02 0.  0.
        -12    1    1    2    0    0 -0.43146382789E+01  0.12971103496E+02  0.12799006084E+02  0.18726456848E+02  0.00000000000E+00 0.  1.
         11    1    3    3    0    0 -0.54031190824E+01 -0.14995250190E+02 -0.11266663631E+02  0.19518937822E+02  0.51100000000E-03 0. -1.
        -11    1    3    3    0    0 -0.13208430965E+02  0.12592527938E+02  0.14264531131E+02  0.23162712645E+02  0.51100000000E-03 0.  1.
        -12    1    3    3    0    0  0.22926188327E+02 -0.10568381243E+02 -0.15796873583E+02  0.29779892685E+02  0.00000000000E+00 0.  1.
</event>
<event>
 7    1  0.1830715E-013  0.7246155E+02  0.7816164E-02  0.1226708E+00
        -11   -1    0    0    0    0  0.00000000000E+00  0.00000000000E+00  0.45593999997E+02  0.45594000000E+02  0.51100000000E-03 0. -1.
         11   -1    0    0    0    0 -0.00000000000E+00 -0.00000000000E+00 -0.45593999997E+02  0.45594000000E+02  0.51100000000E-03 0.  1.
    9900012    2    1    2    0    0 -0.59055300964E+01 -0.17760153162E+02 -0.61787347964E+00  0.72461545619E+02  0.69999967856E+02 0.  0.
        -12    1    1    2    0    0  0.59055300964E+01  0.17760153162E+02  0.61787347964E+00  0.18726454381E+02  0.00000000000E+00 0.  1.
         11    1    3    3    0    0 -0.23618872296E+01  0.21238381097E+02  0.44052370277E+01  0.21818649281E+02  0.51100000000E-03 0. -1.
        -11    1    3    3    0    0  0.21263379608E+01 -0.14089397899E+02 -0.17206194655E+02  0.22340223389E+02  0.51100000000E-03 0.  1.
         12    1    3    3    0    0 -0.56699808276E+01 -0.24909136359E+02  0.12183084147E+02  0.28302672950E+02  0.00000000000E+00 0. -1.
</event>
<event>
 7    1  0.1830715E-013  0.7246143E+02  0.7816164E-02  0.1226708E+00
        -11   -1    0    0    0    0  0.00000000000E+00  0.00000000000E+00  0.45593999997E+02  0.45594000000E+02  0.51100000000E-03 0. -1.
         11   -1    0    0    0    0 -0.00000000000E+00 -0.00000000000E+00 -0.45593999997E+02  0.45594000000E+02  0.51100000000E-03 0.  1.
    9900012    2    1    2    0    0  0.12403235399E+01 -0.12133529466E+02  0.14209984702E+02  0.72461425166E+02  0.69999810943E+02 0.  0.
        -12    1    1    2    0    0 -0.12403235399E+01  0.12133529466E+02 -0.14209984702E+02  0.18726574834E+02  0.00000000000E+00 0.  1.
         11    1    3    3    0    0  0.64855657177E+01  0.18063990545E+02  0.48906723804E+01  0.19806286721E+02  0.51100000000E-03 0. -1.
        -11    1    3    3    0    0 -0.86469687031E+01 -0.28413650715E+02 -0.11228101846E+02  0.31751785557E+02  0.51100000000E-03 0.  1.
         12    1    3    3    0    0  0.34017265252E+01 -0.17838692953E+01  0.20547414167E+02  0.20903352889E+02  0.00000000000E+00 0. -1.
</event>
<event>
 7    1  0.1830715E-013  0.7246158E+02  0.7816164E-02  0.1226708E+00
        -11   -1    0    0    0    0  0.00000000000E+00  0.00000000000E+00  0.45593999997E+02  0.45594000000E+02  0.51100000000E-03 0.  1.
         11   -1    0    0    0    0 -0.00000000000E+00 -0.00000000000E+00 -0.45593999997E+02  0.45594000000E+02  0.51100000000E-03 0. -1.
    9900012    2    1    2    0    0 -0.64486126113E+01 -0.17170606248E+02  0.37768196247E+01  0.72461583098E+02  0.70000016679E+02 0.  0.
        -12    1    1    2    0    0  0.64486126113E+01  0.17170606248E+02 -0.37768196247E+01  0.18726416902E+02  0.00000000000E+00 0.  1.
         11    1    3    3    0    0  0.70944830504E+01 -0.15335596195E+02 -0.11675204380E+02  0.20538320233E+02  0.51100000000E-03 0. -1.
        -11    1    3    3    0    0  0.27921411875E+01  0.10791718186E+02  0.26325734547E+02  0.28588486031E+02  0.51100000000E-03 0.  1.
        -12    1    3    3    0    0 -0.16335236849E+02 -0.12626728239E+02 -0.10873710542E+02  0.23334776834E+02  0.00000000000E+00 0.  1.
</event>
<event>
 7    1  0.1830715E-013  0.7246154E+02  0.7816164E-02  0.1226708E+00
        -11   -1    0    0    0    0  0.00000000000E+00  0.00000000000E+00  0.45593999997E+02  0.45594000000E+02  0.51100000000E-03 0.  1.
         11   -1    0    0    0    0 -0.00000000000E+00 -0.00000000000E+00 -0.45593999997E+02  0.45594000000E+02  0.51100000000E-03 0. -1.
    9900012    2    1    2    0    0 -0.32688444943E+01 -0.15329073900E+02 -0.10247658288E+02  0.72461538740E+02  0.69999958894E+02 0.  0.
        -12    1    1    2    0    0  0.32688444943E+01  0.15329073900E+02  0.10247658288E+02  0.18726461260E+02  0.00000000000E+00 0.  1.
         11    1    3    3    0    0  0.15415350946E+02  0.11823050118E+02 -0.24815981277E+02  0.31515876727E+02  0.51100000000E-03 0. -1.
        -11    1    3    3    0    0 -0.11037635497E+02 -0.10158997108E+02  0.16394720968E+02  0.22222094759E+02  0.51100000000E-03 0.  1.
         12    1    3    3    0    0 -0.76465599432E+01 -0.16993126910E+02 -0.18263979785E+01  0.18723567254E+02  0.00000000000E+00 0. -1.
</event>
<event>
 7    1  0.1830715E-013  0.7246169E+02  0.7816164E-02  0.1226708E+00
        -11   -1    0    0    0    0  0.00000000000E+00  0.00000000000E+00  0.45593999997E+02  0.45594000000E+02  0.51100000000E-03 0.  1.
         11   -1    0    0    0    0 -0.00000000000E+00 -0.00000000000E+00 -0.45593999997E+02  0.45594000000E+02  0.51100000000E-03 0. -1.
    9900012    2    1    2    0    0 -0.93364829659E+01  0.24373680261E+01 -0.16048803111E+02  0.72461688074E+02  0.70000153429E+02 0.  0.
        -12    1    1    2    0    0  0.93364829659E+01 -0.24373680261E+01  0.16048803111E+02  0.18726311926E+02  0.00000000000E+00 0.  1.
         11    1    3    3    0    0 -0.11461816158E+01  0.12745116192E+02 -0.21665494455E+02  0.25162380040E+02  0.51100000000E-03 0. -1.
        -11    1    3    3    0    0 -0.17665421927E+02  0.57014709113E+01  0.17264786419E+02  0.25350478354E+02  0.51100000000E-03 0.  1.
         12    1    3    3    0    0  0.94751205773E+01 -0.16009219077E+02 -0.11648095075E+02  0.21948829680E+02  0.00000000000E+00 0. -1.
</event>
<event>
 7    1  0.1830715E-013  0.7246151E+02  0.7816164E-02  0.1226708E+00
        -11   -1    0    0    0    0  0.00000000000E+00  0.00000000000E+00  0.45593999997E+02  0.45594000000E+02  0.51100000000E-03 0.  1.
         11   -1    0    0    0    0 -0.00000000000E+00 -0.00000000000E+00 -0.45593999997E+02  0.45594000000E+02  0.51100000000E-03 0. -1.
    9900012    2    1    2    0    0 -0.55243652301E+01  0.14075166865E+02 -0.11047742582E+02  0.72461506745E+02  0.69999917216E+02 0.  0.
        -12    1    1    2    0    0  0.55243652301E+01 -0.14075166865E+02  0.11047742582E+02  0.18726493255E+02  0.00000000000E+00 0.  1.
         11    1    3    3    0    0 -0.13283486550E+02  0.64254571746E+00 -0.33006311626E+02  0.35584835075E+02  0.51100000000E-03 0. -1.
        -11    1    3    3    0    0  0.15959537830E+02  0.11132452305E+02  0.91687325319E+01  0.21510555515E+02  0.51100000000E-03 0.  1.
        -12    1    3    3    0    0 -0.82004165105E+01  0.23001688420E+01  0.12789836513E+02  0.15366116154E+02  0.00000000000E+00 0.  1.
</event>
<event>
 7    1  0.1830715E-013  0.7246154E+02  0.7816164E-02  0.1226708E+00
        -11   -1    0    0    0    0  0.00000000000E+00  0.00000000000E+00  0.45593999997E+02  0.45594000000E+02  0.51100000000E-03 0. -1.
         11   -1    0    0    0    0 -0.00000000000E+00 -0.00000000000E+00 -0.45593999997E+02  0.45594000000E+02  0.51100000000E-03 0.  1.
    9900012    2    1    2    0    0  0.16439538791E+02 -0.65218981129E+01  0.61552304755E+01  0.72461536029E+02  0.69999955362E+02 0.  0.
        -12    1    1    2    0    0 -0.16439538791E+02  0.65218981129E+01 -0.61552304755E+01  0.18726463971E+02  0.00000000000E+00 0.  1.
         11    1    3    3    0    0  0.16452736664E+02  0.99538846523E+01  0.81437714372E+01  0.20882848869E+02  0.51100000000E-03 0. -1.
        -11    1    3    3    0    0 -0.17753453539E+02 -0.25811104973E+02 -0.32322098205E+01  0.31493577648E+02  0.51100000000E-03 0.  1.
        -12    1    3    3    0    0  0.17740255666E+02  0.93353222080E+01  0.12436688588E+01  0.20085109511E+02  0.00000000000E+00 0.  1.
</event>
<event>
 8    1  0.1830715E-013  0.7246216E+02  0.7816164E-02  0.1226706E+00
        -11   -1    0    0    0    0  0.00000000000E+00  0.00000000000E+00  0.45593999997E+02  0.45594000000E+02  0.51100000000E-03 0. -1.
         11   -1    0    0    0    0 -0.00000000000E+00 -0.00000000000E+00 -0.45593999997E+02  0.45594000000E+02  0.51100000000E-03 0.  1.
    9900012    2    1    2    0    0  0.78325265019E+01 -0.51136386981E+01  0.16222181336E+02  0.72462163852E+02  0.70000773215E+02 0.  0.
         24    2    3    3    0    0 -0.47618920418E+01 -0.26811723823E+01  0.71517299043E+00  0.52337463136E+02  0.52046462646E+02 0.  0.
        -12    1    1    2    0    0 -0.78325265019E+01  0.51136386981E+01 -0.16222181336E+02  0.18725836148E+02  0.00000000000E+00 0.  1.
         11    1    3    3    0    0  0.12594418544E+02 -0.24324663158E+01  0.15507008345E+02  0.20124700716E+02  0.51100000000E-03 0. -1.
        -11    1    4    4    0    0  0.55227027519E+01 -0.75689064870E+01 -0.23652392725E+02  0.25440602842E+02  0.51100000000E-03 0.  1.
         12    1    4    4    0    0 -0.10284594794E+02  0.48877341047E+01  0.24367565716E+02  0.26896860294E+02  0.00000000000E+00 0. -1.
</event>
<event>
 7    1  0.1830715E-013  0.7246157E+02  0.7816164E-02  0.1226708E+00
        -11   -1    0    0    0    0  0.00000000000E+00  0.00000000000E+00  0.45593999997E+02  0.45594000000E+02  0.51100000000E-03 0.  1.
         11   -1    0    0    0    0 -0.00000000000E+00 -0.00000000000E+00 -0.45593999997E+02  0.45594000000E+02  0.51100000000E-03 0. -1.
    9900012    2    1    2    0    0 -0.13864493851E+02  0.10845411454E+02  0.63899939077E+01  0.72461570509E+02  0.70000000280E+02 0.  0.
        -12    1    1    2    0    0  0.13864493851E+02 -0.10845411454E+02 -0.63899939077E+01  0.18726429491E+02  0.00000000000E+00 0.  1.
         11    1    3    3    0    0 -0.26330615117E+00  0.66985305288E+01 -0.18394031981E+02  0.19577539533E+02  0.51100000000E-03 0. -1.
        -11    1    3    3    0    0 -0.28119082133E+02 -0.36055598397E+01  0.81811841905E+01  0.29506179298E+02  0.51100000000E-03 0.  1.
        -12    1    3    3    0    0  0.14517894433E+02  0.77524407644E+01  0.16602841699E+02  0.23377851677E+02  0.00000000000E+00 0.  1.
</event>
<event>
 7    1  0.1830715E-013  0.7246157E+02  0.7816164E-02  0.1226708E+00
        -11   -1    0    0    0    0  0.00000000000E+00  0.00000000000E+00  0.45593999997E+02  0.45594000000E+02  0.51100000000E-03 0.  1.
         11   -1    0    0    0    0 -0.00000000000E+00 -0.00000000000E+00 -0.45593999997E+02  0.45594000000E+02  0.51100000000E-03 0. -1.
    9900012    2    1    2    0    0 -0.31110501129E+01  0.83826587963E+01 -0.16453926701E+02  0.72461566672E+02  0.69999995281E+02 0.  0.
        -12    1    1    2    0    0  0.31110501129E+01 -0.83826587963E+01  0.16453926701E+02  0.18726433328E+02  0.00000000000E+00 0.  1.
         11    1    3    3    0    0  0.15857213598E+02 -0.72193553965E+01 -0.22871603152E+02  0.28752052908E+02  0.51100000000E-03 0. -1.
        -11    1    3    3    0    0 -0.22605682849E+02  0.13821619627E+02  0.17604970718E+02  0.31811775499E+02  0.51100000000E-03 0.  1.
        -12    1    3    3    0    0  0.36374191381E+01  0.17803945659E+01 -0.11187294267E+02  0.11897738264E+02  0.00000000000E+00 0.  1.
</event>
<event>
 7    1  0.1830715E-013  0.7246159E+02  0.7816164E-02  0.1226708E+00
        -11   -1    0    0    0    0  0.00000000000E+00  0.00000000000E+00  0.45593999997E+02  0.45594000000E+02  0.51100000000E-03 0. -1.
         11   -1    0    0    0    0 -0.00000000000E+00 -0.00000000000E+00 -0.45593999997E+02  0.45594000000E+02  0.51100000000E-03 0.  1.
    9900012    2    1    2    0    0  0.17290252955E+02  0.24723265681E+01  0.67537517952E+01  0.72461590595E+02  0.70000026445E+02 0.  0.
        -12    1    1    2    0    0 -0.17290252955E+02 -0.24723265681E+01 -0.67537517952E+01  0.18726409405E+02  0.00000000000E+00 0.  1.
         11    1    3    3    0    0 -0.52430523458E+00 -0.17443904582E+01  0.21053004584E+02  0.21131653895E+02  0.51100000000E-03 0. -1.
        -11    1    3    3    0    0 -0.10150543594E+02 -0.86446109101E+01 -0.15600421898E+02  0.20521598298E+02  0.51100000000E-03 0.  1.
        -12    1    3    3    0    0  0.27965101783E+02  0.12861327936E+02  0.13011691089E+01  0.30808338402E+02  0.00000000000E+00 0.  1.
</event>
<event>
 7    1  0.1830715E-013  0.7246151E+02  0.7816164E-02  0.1226708E+00
        -11   -1    0    0    0    0  0.00000000000E+00  0.00000000000E+00  0.45593999997E+02  0.45594000000E+02  0.51100000000E-03 0. -1.
         11   -1    0    0    0    0 -0.00000000000E+00 -0.00000000000E+00 -0.45593999997E+02  0.45594000000E+02  0.51100000000E-03 0.  1.
    9900012    2    1    2    0    0  0.12174254913E+02  0.96950092691E+00  0.14196091617E+02  0.72461509888E+02  0.69999921309E+02 0.  0.
        -12    1    1    2    0    0 -0.12174254913E+02 -0.96950092691E+00 -0.14196091617E+02  0.18726490112E+02  0.00000000000E+00 0.  1.
         11    1    3    3    0    0  0.18197114834E+02  0.54024090243E+01  0.86323983050E-01  0.18982319765E+02  0.51100000000E-03 0. -1.
        -11    1    3    3    0    0 -0.92035734233E+01 -0.27016864147E+02  0.52968178774E+01  0.29028830358E+02  0.51100000000E-03 0.  1.
        -12    1    3    3    0    0  0.31807135019E+01  0.22583956049E+02  0.88129497567E+01  0.24450359765E+02  0.00000000000E+00 0.  1.
</event>
<event>
 7    1  0.1830715E-013  0.7246160E+02  0.7816164E-02  0.1226708E+00
        -11   -1    0    0    0    0  0.00000000000E+00  0.00000000000E+00  0.45593999997E+02  0.45594000000E+02  0.51100000000E-03 0.  1.
         11   -1    0    0    0    0 -0.00000000000E+00 -0.00000000000E+00 -0.45593999997E+02  0.45594000000E+02  0.51100000000E-03 0. -1.
    9900012    2    1    2    0    0  0.79310763246E+01  0.13738591609E+02 -0.99512312545E+01  0.72461604871E+02  0.70000045042E+02 0.  0.
        -12    1    1    2    0    0 -0.79310763246E+01 -0.13738591609E+02  0.99512312545E+01  0.18726395129E+02  0.00000000000E+00 0.  1.
         11    1    3    3    0    0 -0.11050223856E+02  0.22727382570E+02 -0.19244042640E+01  0.25344520075E+02  0.51100000000E-03 0. -1.
        -11    1    3    3    0    0  0.75152377265E+01 -0.22817271994E+02 -0.14456356186E+02  0.28037348908E+02  0.51100000000E-03 0.  1.
         12    1    3    3    0    0  0.11466062455E+02  0.13828481032E+02  0.64295291959E+01  0.19079735888E+02  0.00000000000E+00 0. -1.
</event>
<event>
 7    1  0.1830715E-013  0.7246157E+02  0.7816164E-02  0.1226708E+00
        -11   -1    0    0    0    0  0.00000000000E+00  0.00000000000E+00  0.45593999997E+02  0.45594000000E+02  0.51100000000E-03 0. -1.
         11   -1    0    0    0    0 -0.00000000000E+00 -0.00000000000E+00 -0.45593999997E+02  0.45594000000E+02  0.51100000000E-03 0.  1.
    9900012    2    1    2    0    0 -0.60975466135E+01 -0.17297244009E+02  0.37821152460E+01  0.72461571597E+02  0.70000001697E+02 0.  0.
        -12    1    1    2    0    0  0.60975466135E+01  0.17297244009E+02 -0.37821152460E+01  0.18726428403E+02  0.00000000000E+00 0.  1.
         11    1    3    3    0    0  0.11985634248E+02 -0.31040905817E+02 -0.72862740584E+01  0.34062927827E+02  0.51100000000E-03 0. -1.
        -11    1    3    3    0    0 -0.46379630295E+01  0.77157009769E+01 -0.95059784703E+01  0.13092225539E+02  0.51100000000E-03 0.  1.
         12    1    3    3    0    0 -0.13445217832E+02  0.60279608309E+01  0.20574367775E+02  0.25306418231E+02  0.00000000000E+00 0. -1.
</event>
<event>
 8    1  0.1830715E-013  0.7246181E+02  0.7816164E-02  0.1226707E+00
        -11   -1    0    0    0    0  0.00000000000E+00  0.00000000000E+00  0.45593999997E+02  0.45594000000E+02  0.51100000000E-03 0. -1.
         11   -1    0    0    0    0 -0.00000000000E+00 -0.00000000000E+00 -0.45593999997E+02  0.45594000000E+02  0.51100000000E-03 0.  1.
    9900012    2    1    2    0    0 -0.16151286982E+02  0.78430479240E+01 -0.53190930304E+01  0.72461809181E+02  0.70000311194E+02 0.  0.
        -24    2    3    3    0    0 -0.23602084530E+02  0.95320602225E+01  0.73811545448E+01  0.57640762141E+02  0.51186496769E+02 0.  0.
        -12    1    1    2    0    0  0.16151286982E+02 -0.78430479240E+01  0.53190930304E+01  0.18726190819E+02  0.00000000000E+00 0.  1.
         11    1    4    4    0    0 -0.28868152740E+02 -0.26622644859E+01  0.23094849666E+02  0.37065212480E+02  0.51100000000E-03 0. -1.
        -11    1    3    3    0    0  0.74507975476E+01 -0.16890122985E+01 -0.12700247575E+02  0.14821047040E+02  0.51100000000E-03 0.  1.
        -12    1    4    4    0    0  0.52660682099E+01  0.12194324708E+02 -0.15713695122E+02  0.20575549661E+02  0.00000000000E+00 0.  1.
</event>
<event>
 7    1  0.1830715E-013  0.7246157E+02  0.7816164E-02  0.1226708E+00
        -11   -1    0    0    0    0  0.00000000000E+00  0.00000000000E+00  0.45593999997E+02  0.45594000000E+02  0.51100000000E-03 0.  1.
         11   -1    0    0    0    0 -0.00000000000E+00 -0.00000000000E+00 -0.45593999997E+02  0.45594000000E+02  0.51100000000E-03 0. -1.
    9900012    2    1    2    0    0 -0.81372345239E+01 -0.64683834871E+01 -0.15576408164E+02  0.72461573167E+02  0.70000003742E+02 0.  0.
        -12    1    1    2    0    0  0.81372345239E+01  0.64683834871E+01  0.15576408164E+02  0.18726426833E+02  0.00000000000E+00 0.  1.
         11    1    3    3    0    0 -0.18579610812E+02  0.82525774906E+01 -0.17261948887E+02  0.26669867881E+02  0.51100000000E-03 0. -1.
        -11    1    3    3    0    0  0.12981230912E+02 -0.28721286446E+02  0.64872192179E+00  0.31525315089E+02  0.51100000000E-03 0.  1.
        -12    1    3    3    0    0 -0.25388546237E+01  0.14000325468E+02  0.10368188008E+01  0.14266390197E+02  0.00000000000E+00 0.  1.
</event>
<event>
 7    1  0.1830715E-013  0.7246157E+02  0.7816164E-02  0.1226708E+00
        -11   -1    0    0    0    0  0.00000000000E+00  0.00000000000E+00  0.45593999997E+02  0.45594000000E+02  0.51100000000E-03 0.  1.
         11   -1    0    0    0    0 -0.00000000000E+00 -0.00000000000E+00 -0.45593999997E+02  0.45594000000E+02  0.51100000000E-03 0. -1.
    9900012    2    1    2    0    0  0.14918674713E+02 -0.36634316289E+01 -0.10709416556E+02  0.72461569762E+02  0.69999999307E+02 0.  0.
        -12    1    1    2    0    0 -0.14918674713E+02  0.36634316289E+01  0.10709416556E+02  0.18726430238E+02  0.00000000000E+00 0.  1.
         11    1    3    3    0    0  0.17135115511E+02 -0.39650657382E+01 -0.32169577607E+02  0.36663546658E+02  0.51100000000E-03 0. -1.
        -11    1    3    3    0    0  0.11063174050E+02 -0.15435106008E+01  0.19183778840E+02  0.22198955288E+02  0.51100000000E-03 0.  1.
        -12    1    3    3    0    0 -0.13279614848E+02  0.18451447101E+01  0.22763822109E+01  0.13599067817E+02  0.00000000000E+00 0.  1.
</event>
<event>
 7    1  0.1830715E-013  0.7246134E+02  0.7816164E-02  0.1226709E+00
        -11   -1    0    0    0    0  0.00000000000E+00  0.00000000000E+00  0.45593999997E+02  0.45594000000E+02  0.51100000000E-03 0. -1.
         11   -1    0    0    0    0 -0.00000000000E+00 -0.00000000000E+00 -0.45593999997E+02  0.45594000000E+02  0.51100000000E-03 0.  1.
    9900012    2    1    2    0    0  0.20395453241E+01  0.23119710156E+01  0.18471139914E+02  0.72461335459E+02  0.69999694082E+02 0.  0.
        -12    1    1    2    0    0 -0.20395453241E+01 -0.23119710156E+01 -0.18471139914E+02  0.18726664541E+02  0.00000000000E+00 0.  1.
         11    1    3    3    0    0  0.89264958100E+01 -0.11425416488E+02  0.61408028170E+01  0.15745854339E+02  0.51100000000E-03 0. -1.
        -11    1    3    3    0    0 -0.15023014356E+02  0.29307090126E+02  0.18886759587E+02  0.37964538453E+02  0.51100000000E-03 0.  1.
        -12    1    3    3    0    0  0.81360638697E+01 -0.15569702622E+02 -0.65564224894E+01  0.18750942667E+02  0.00000000000E+00 0.  1.
</event>
<event>
 7    1  0.1830715E-013  0.7246162E+02  0.7816164E-02  0.1226708E+00
        -11   -1    0    0    0    0  0.00000000000E+00  0.00000000000E+00  0.45593999997E+02  0.45594000000E+02  0.51100000000E-03 0.  1.
         11   -1    0    0    0    0 -0.00000000000E+00 -0.00000000000E+00 -0.45593999997E+02  0.45594000000E+02  0.51100000000E-03 0. -1.
    9900012    2    1    2    0    0  0.15558568235E+02  0.92478913978E+01  0.48046724210E+01  0.72461617063E+02  0.70000060925E+02 0.  0.
        -12    1    1    2    0    0 -0.15558568235E+02 -0.92478913978E+01 -0.48046724210E+01  0.18726382937E+02  0.00000000000E+00 0.  1.
         11    1    3    3    0    0  0.26717859906E+02  0.11168719046E+02 -0.20143148974E+02  0.35275072982E+02  0.51100000000E-03 0. -1.
        -11    1    3    3    0    0 -0.16969094720E+02 -0.83271728991E+01  0.16364437594E+02  0.25001735982E+02  0.51100000000E-03 0.  1.
         12    1    3    3    0    0  0.58098030487E+01  0.64063452507E+01  0.85833838006E+01  0.12184808099E+02  0.00000000000E+00 0. -1.
</event>
<event>
 7    1  0.1830715E-013  0.7246158E+02  0.7816164E-02  0.1226708E+00
        -11   -1    0    0    0    0  0.00000000000E+00  0.00000000000E+00  0.45593999997E+02  0.45594000000E+02  0.51100000000E-03 0. -1.
         11   -1    0    0    0    0 -0.00000000000E+00 -0.00000000000E+00 -0.45593999997E+02  0.45594000000E+02  0.51100000000E-03 0.  1.
    9900012    2    1    2    0    0  0.73043145479E+01  0.14180445385E+02  0.98102361623E+01  0.72461580805E+02  0.70000013692E+02 0.  0.
        -12    1    1    2    0    0 -0.73043145479E+01 -0.14180445385E+02 -0.98102361623E+01  0.18726419195E+02  0.00000000000E+00 0.  1.
         11    1    3    3    0    0  0.17260974306E+02 -0.35161976703E+01 -0.66493321535E+01  0.18828661620E+02  0.51100000000E-03 0. -1.
        -11    1    3    3    0    0 -0.28629885832E+01  0.33539361387E+02  0.11654378707E+02  0.35621763140E+02  0.51100000000E-03 0.  1.
        -12    1    3    3    0    0 -0.70936711750E+01 -0.15842718332E+02  0.48051896084E+01  0.18011156045E+02  0.00000000000E+00 0.  1.
</event>
<event>
 7    1  0.1830715E-013  0.7246151E+02  0.7816164E-02  0.1226708E+00
        -11   -1    0    0    0    0  0.00000000000E+00  0.00000000000E+00  0.45593999997E+02  0.45594000000E+02  0.51100000000E-03 0. -1.
         11   -1    0    0    0    0 -0.00000000000E+00 -0.00000000000E+00 -0.45593999997E+02  0.45594000000E+02  0.51100000000E-03 0.  1.
    9900012    2    1    2    0    0  0.31627681908E+01  0.62982399571E+01  0.17349659456E+02  0.72461505069E+02  0.69999915031E+02 0.  0.
        -12    1    1    2    0    0 -0.31627681908E+01 -0.62982399571E+01 -0.17349659456E+02  0.18726494931E+02  0.00000000000E+00 0.  1.
         11    1    3    3    0    0  0.28428949784E+02 -0.11176437158E+02  0.37041378650E+01  0.30770742126E+02  0.51100000000E-03 0.  1.
        -11    1    3    3    0    0 -0.15603202794E+02  0.90095603183E+01 -0.53176528495E+01  0.18785886901E+02  0.51100000000E-03 0. -1.
         12    1    3    3    0    0 -0.96629787994E+01  0.84651167965E+01  0.18963174440E+02  0.22904876042E+02  0.00000000000E+00 0. -1.
</event>
<event>
 7    1  0.1830715E-013  0.7246157E+02  0.7816164E-02  0.1226708E+00
        -11   -1    0    0    0    0  0.00000000000E+00  0.00000000000E+00  0.45593999997E+02  0.45594000000E+02  0.51100000000E-03 0. -1.
         11   -1    0    0    0    0 -0.00000000000E+00 -0.00000000000E+00 -0.45593999997E+02  0.45594000000E+02  0.51100000000E-03 0.  1.
    9900012    2    1    2    0    0  0.16226670161E+02  0.66287963619E+01 -0.65903998833E+01  0.72461571180E+02  0.70000001154E+02 0.  0.
        -12    1    1    2    0    0 -0.16226670161E+02 -0.66287963619E+01  0.65903998833E+01  0.18726428820E+02  0.00000000000E+00 0.  1.
         11    1    3    3    0    0  0.11977037726E+02 -0.22840156334E+02  0.10510840802E+02  0.27849595126E+02  0.51100000000E-03 0. -1.
        -11    1    3    3    0    0 -0.78209023401E+01  0.26317136525E+02 -0.16690628733E+02  0.32129974728E+02  0.51100000000E-03 0.  1.
        -12    1    3    3    0    0  0.12070534775E+02  0.31518161708E+01 -0.41061195201E+00  0.12482001326E+02  0.00000000000E+00 0.  1.
</event>
<event>
 7    1  0.1830715E-013  0.7246162E+02  0.7816164E-02  0.1226708E+00
        -11   -1    0    0    0    0  0.00000000000E+00  0.00000000000E+00  0.45593999997E+02  0.45594000000E+02  0.51100000000E-03 0. -1.
         11   -1    0    0    0    0 -0.00000000000E+00 -0.00000000000E+00 -0.45593999997E+02  0.45594000000E+02  0.51100000000E-03 0.  1.
    9900012    2    1    2    0    0 -0.40432420431E+01  0.16088699941E+02  0.86880989471E+01  0.72461624608E+02  0.70000070753E+02 0.  0.
        -12    1    1    2    0    0  0.40432420431E+01 -0.16088699941E+02 -0.86880989471E+01  0.18726375392E+02  0.00000000000E+00 0.  1.
         11    1    3    3    0    0 -0.20495020000E+02  0.72374669993E+01 -0.17782465056E+02  0.28082785422E+02  0.51100000000E-03 0. -1.
        -11    1    3    3    0    0  0.23520753894E+02  0.12829691576E+02  0.16267362701E+02  0.31344121286E+02  0.51100000000E-03 0.  1.
         12    1    3    3    0    0 -0.70689759376E+01 -0.39784586346E+01  0.10203201302E+02  0.13034717900E+02  0.00000000000E+00 0. -1.
</event>
<event>
 7    1  0.1830715E-013  0.7246160E+02  0.7816164E-02  0.1226708E+00
        -11   -1    0    0    0    0  0.00000000000E+00  0.00000000000E+00  0.45593999997E+02  0.45594000000E+02  0.51100000000E-03 0. -1.
         11   -1    0    0    0    0 -0.00000000000E+00 -0.00000000000E+00 -0.45593999997E+02  0.45594000000E+02  0.51100000000E-03 0.  1.
    9900012    2    1    2    0    0  0.54056704203E+01  0.14877334479E+02  0.10006075765E+02  0.72461604027E+02  0.70000043944E+02 0.  0.
        -12    1    1    2    0    0 -0.54056704203E+01 -0.14877334479E+02 -0.10006075765E+02  0.18726395973E+02  0.00000000000E+00 0.  1.
         11    1    3    3    0    0  0.58466813049E+01  0.63737158878E+01  0.97576608518E+01  0.13039167230E+02  0.51100000000E-03 0. -1.
        -11    1    3    3    0    0 -0.26945223239E+02  0.13914936605E+02 -0.75846993510E+01  0.31260169235E+02  0.51100000000E-03 0.  1.
        -12    1    3    3    0    0  0.26504212354E+02 -0.54113180140E+01  0.78331142645E+01  0.28162267562E+02  0.00000000000E+00 0.  1.
</event>
<event>
 7    1  0.1830715E-013  0.7246158E+02  0.7816164E-02  0.1226708E+00
        -11   -1    0    0    0    0  0.00000000000E+00  0.00000000000E+00  0.45593999997E+02  0.45594000000E+02  0.51100000000E-03 0. -1.
         11   -1    0    0    0    0 -0.00000000000E+00 -0.00000000000E+00 -0.45593999997E+02  0.45594000000E+02  0.51100000000E-03 0.  1.
    9900012    2    1    2    0    0 -0.17258531921E+02 -0.61326072331E+01  0.39003664739E+01  0.72461584054E+02  0.70000017925E+02 0.  0.
        -12    1    1    2    0    0  0.17258531921E+02  0.61326072331E+01 -0.39003664739E+01  0.18726415946E+02  0.00000000000E+00 0.  1.
         11    1    3    3    0    0 -0.64395678769E+01  0.64283057591E+00  0.21275808542E+02  0.22238284443E+02  0.51100000000E-03 0. -1.
        -11    1    3    3    0    0  0.14800038661E+02 -0.14732075951E+01 -0.18860359302E+02  0.24019255572E+02  0.51100000000E-03 0.  1.
        -12    1    3    3    0    0 -0.25619002705E+02 -0.53022302139E+01  0.14849172338E+01  0.26204044039E+02  0.00000000000E+00 0.  1.
</event>
<event>
 7    1  0.1830715E-013  0.7246151E+02  0.7816164E-02  0.1226708E+00
        -11   -1    0    0    0    0  0.00000000000E+00  0.00000000000E+00  0.45593999997E+02  0.45594000000E+02  0.51100000000E-03 0.  1.
         11   -1    0    0    0    0 -0.00000000000E+00 -0.00000000000E+00 -0.45593999997E+02  0.45594000000E+02  0.51100000000E-03 0. -1.
    9900012    2    1    2    0    0  0.57119786092E+01 -0.52176060580E+01 -0.17053780625E+02  0.72461506836E+02  0.69999917334E+02 0.  0.
        -12    1    1    2    0    0 -0.57119786092E+01  0.52176060580E+01  0.17053780625E+02  0.18726493164E+02  0.00000000000E+00 0.  1.
         11    1    3    3    0    0  0.15207272392E+02 -0.99783065784E+01 -0.21202128201E+02  0.27934888156E+02  0.51100000000E-03 0. -1.
        -11    1    3    3    0    0  0.85848942883E+01  0.12844805231E+02  0.15345312059E+02  0.21775399739E+02  0.51100000000E-03 0.  1.
         12    1    3    3    0    0 -0.18080188071E+02 -0.80841047111E+01 -0.11196964483E+02  0.22751218941E+02  0.00000000000E+00 0. -1.
</event>
<event>
 7    1  0.1830715E-013  0.7246172E+02  0.7816164E-02  0.1226708E+00
        -11   -1    0    0    0    0  0.00000000000E+00  0.00000000000E+00  0.45593999997E+02  0.45594000000E+02  0.51100000000E-03 0.  1.
         11   -1    0    0    0    0 -0.00000000000E+00 -0.00000000000E+00 -0.45593999997E+02  0.45594000000E+02  0.51100000000E-03 0. -1.
    9900012    2    1    2    0    0 -0.10911285660E+02  0.14898542796E+02 -0.31065902164E+01  0.72461718069E+02  0.70000192503E+02 0.  0.
        -12    1    1    2    0    0  0.10911285660E+02 -0.14898542796E+02  0.31065902164E+01  0.18726281931E+02  0.00000000000E+00 0.  1.
         11    1    3    3    0    0 -0.30097377611E+02  0.77308629517E+01  0.18997741950E+02  0.36421594974E+02  0.51100000000E-03 0. -1.
        -11    1    3    3    0    0 -0.43614634262E+00 -0.32301382834E+01 -0.10479178661E+02  0.10974388485E+02  0.51100000000E-03 0.  1.
         12    1    3    3    0    0  0.19622238294E+02  0.10397818128E+02 -0.11625153505E+02  0.25065734609E+02  0.00000000000E+00 0. -1.
</event>
<event>
 7    1  0.1830715E-013  0.7246162E+02  0.7816164E-02  0.1226708E+00
        -11   -1    0    0    0    0  0.00000000000E+00  0.00000000000E+00  0.45593999997E+02  0.45594000000E+02  0.51100000000E-03 0. -1.
         11   -1    0    0    0    0 -0.00000000000E+00 -0.00000000000E+00 -0.45593999997E+02  0.45594000000E+02  0.51100000000E-03 0.  1.
    9900012    2    1    2    0    0 -0.15249187378E+02 -0.76978943595E+01  0.76734638154E+01  0.72461619138E+02  0.70000063628E+02 0.  0.
        -12    1    1    2    0    0  0.15249187378E+02  0.76978943595E+01 -0.76734638154E+01  0.18726380862E+02  0.00000000000E+00 0.  1.
         11    1    3    3    0    0  0.11481977421E+02  0.14162602558E+02  0.73134797752E+01  0.19644391144E+02  0.51100000000E-03 0. -1.
        -11    1    3    3    0    0 -0.33265562101E+01 -0.27721482327E+02 -0.42838366058E+01  0.28247085070E+02  0.51100000000E-03 0.  1.
        -12    1    3    3    0    0 -0.23404608589E+02  0.58609854090E+01  0.46438206459E+01  0.24570142925E+02  0.00000000000E+00 0.  1.
</event>
<event>
 7    1  0.1830715E-013  0.7246158E+02  0.7816164E-02  0.1226708E+00
        -11   -1    0    0    0    0  0.00000000000E+00  0.00000000000E+00  0.45593999997E+02  0.45594000000E+02  0.51100000000E-03 0. -1.
         11   -1    0    0    0    0 -0.00000000000E+00 -0.00000000000E+00 -0.45593999997E+02  0.45594000000E+02  0.51100000000E-03 0.  1.
    9900012    2    1    2    0    0  0.18202875605E+02 -0.43053863164E+01 -0.89322515514E+00  0.72461577950E+02  0.70000009973E+02 0.  0.
        -12    1    1    2    0    0 -0.18202875605E+02  0.43053863164E+01  0.89322515514E+00  0.18726422050E+02  0.00000000000E+00 0.  1.
         11    1    3    3    0    0  0.21538580516E+01 -0.58655259541E+01  0.89622503463E+01  0.10925448767E+02  0.51100000000E-03 0. -1.
        -11    1    3    3    0    0  0.36642686600E+02  0.10015876232E+02 -0.99712445652E+01  0.39273782303E+02  0.51100000000E-03 0.  1.
        -12    1    3    3    0    0 -0.20593669047E+02 -0.84557365941E+01  0.11576906381E+00  0.22262346880E+02  0.00000000000E+00 0.  1.
</event>
<event>
 7    1  0.1830715E-013  0.7246168E+02  0.7816164E-02  0.1226708E+00
        -11   -1    0    0    0    0  0.00000000000E+00  0.00000000000E+00  0.45593999997E+02  0.45594000000E+02  0.51100000000E-03 0.  1.
         11   -1    0    0    0    0 -0.00000000000E+00 -0.00000000000E+00 -0.45593999997E+02  0.45594000000E+02  0.51100000000E-03 0. -1.
    9900012    2    1    2    0    0 -0.13911736728E+02 -0.51422056477E+00  0.12524944189E+02  0.72461679792E+02  0.70000142641E+02 0.  0.
        -12    1    1    2    0    0  0.13911736728E+02  0.51422056477E+00 -0.12524944189E+02  0.18726320208E+02  0.00000000000E+00 0.  1.
         11    1    3    3    0    0 -0.25033345298E+02  0.10880395144E+02  0.71149096735E-01  0.27295721968E+02  0.51100000000E-03 0.  1.
        -11    1    3    3    0    0  0.15756936904E+02 -0.17202778808E+02  0.22672550939E+02  0.32530927218E+02  0.51100000000E-03 0. -1.
        -12    1    3    3    0    0 -0.46353283342E+01  0.58081630991E+01 -0.10218755847E+02  0.12635030606E+02  0.00000000000E+00 0.  1.
</event>
<event>
 7    1  0.1830715E-013  0.7246157E+02  0.7816164E-02  0.1226708E+00
        -11   -1    0    0    0    0  0.00000000000E+00  0.00000000000E+00  0.45593999997E+02  0.45594000000E+02  0.51100000000E-03 0.  1.
         11   -1    0    0    0    0 -0.00000000000E+00 -0.00000000000E+00 -0.45593999997E+02  0.45594000000E+02  0.51100000000E-03 0. -1.
    9900012    2    1    2    0    0  0.16426250616E+02  0.50311365022E+01 -0.74528637448E+01  0.72461568898E+02  0.69999998181E+02 0.  0.
        -12    1    1    2    0    0 -0.16426250616E+02 -0.50311365022E+01  0.74528637448E+01  0.18726431102E+02  0.00000000000E+00 0.  1.
         11    1    3    3    0    0  0.14900785532E+02  0.35620742124E+01 -0.18724987015E+02  0.24193943894E+02  0.51100000000E-03 0. -1.
        -11    1    3    3    0    0  0.51165463958E+01 -0.18484311984E+02  0.18593057514E+02  0.26712368381E+02  0.51100000000E-03 0.  1.
        -12    1    3    3    0    0 -0.35910813118E+01  0.19953374274E+02 -0.73209342446E+01  0.21555256623E+02  0.00000000000E+00 0.  1.
</event>
<event>
 7    1  0.1830715E-013  0.7246154E+02  0.7816164E-02  0.1226708E+00
        -11   -1    0    0    0    0  0.00000000000E+00  0.00000000000E+00  0.45593999997E+02  0.45594000000E+02  0.51100000000E-03 0. -1.
         11   -1    0    0    0    0 -0.00000000000E+00 -0.00000000000E+00 -0.45593999997E+02  0.45594000000E+02  0.51100000000E-03 0.  1.
    9900012    2    1    2    0    0 -0.13886732766E+02 -0.95698911920E+01 -0.81397978114E+01  0.72461535497E+02  0.69999954671E+02 0.  0.
        -12    1    1    2    0    0  0.13886732766E+02  0.95698911920E+01  0.81397978114E+01  0.18726464503E+02  0.00000000000E+00 0.  1.
         11    1    3    3    0    0 -0.14059111789E+01 -0.18988259306E+02  0.17446297235E+01  0.19119997668E+02  0.51100000000E-03 0. -1.
        -11    1    3    3    0    0 -0.12663288077E+02  0.23413450667E+02 -0.22228641552E+02  0.34679403723E+02  0.51100000000E-03 0.  1.
        -12    1    3    3    0    0  0.18246648982E+00 -0.13995082553E+02  0.12344214017E+02  0.18662134106E+02  0.00000000000E+00 0.  1.
</event>
<event>
 7    1  0.1830715E-013  0.7246155E+02  0.7816164E-02  0.1226708E+00
        -11   -1    0    0    0    0  0.00000000000E+00  0.00000000000E+00  0.45593999997E+02  0.45594000000E+02  0.51100000000E-03 0. -1.
         11   -1    0    0    0    0 -0.00000000000E+00 -0.00000000000E+00 -0.45593999997E+02  0.45594000000E+02  0.51100000000E-03 0.  1.
    9900012    2    1    2    0    0 -0.88651355453E+01 -0.85521753364E+00  0.16472941147E+02  0.72461553052E+02  0.69999977538E+02 0.  0.
        -12    1    1    2    0    0  0.88651355453E+01  0.85521753364E+00 -0.16472941147E+02  0.18726446948E+02  0.00000000000E+00 0.  1.
         11    1    3    3    0    0 -0.55869034834E+01  0.26736961989E+01 -0.20399128216E+02  0.21318690723E+02  0.51100000000E-03 0.  1.
        -11    1    3    3    0    0 -0.11728180196E+02 -0.11979580767E+02  0.35313692966E+02  0.39091143207E+02  0.51100000000E-03 0. -1.
         12    1    3    3    0    0  0.84499481342E+01  0.84506670347E+01  0.15583763973E+01  0.12051719122E+02  0.00000000000E+00 0. -1.
</event>
<event>
 7    1  0.1830715E-013  0.7246156E+02  0.7816164E-02  0.1226708E+00
        -11   -1    0    0    0    0  0.00000000000E+00  0.00000000000E+00  0.45593999997E+02  0.45594000000E+02  0.51100000000E-03 0.  1.
         11   -1    0    0    0    0 -0.00000000000E+00 -0.00000000000E+00 -0.45593999997E+02  0.45594000000E+02  0.51100000000E-03 0. -1.
    9900012    2    1    2    0    0  0.48026997117E+01 -0.18036580987E+02  0.15150409447E+01  0.72461560742E+02  0.69999987556E+02 0.  0.
        -12    1    1    2    0    0 -0.48026997117E+01  0.18036580987E+02 -0.15150409447E+01  0.18726439258E+02  0.00000000000E+00 0.  1.
         11    1    3    3    0    0 -0.12345904022E+02 -0.28341853431E+02 -0.21761939349E+01  0.30990608615E+02  0.51100000000E-03 0. -1.
        -11    1    3    3    0    0  0.23884726260E+02  0.11898544168E+00  0.11970604403E+02  0.26716842554E+02  0.51100000000E-03 0.  1.
         12    1    3    3    0    0 -0.67361225255E+01  0.10186287002E+02 -0.82793695237E+01  0.14754109572E+02  0.00000000000E+00 0. -1.
</event>
<event>
 7    1  0.1830715E-013  0.7246163E+02  0.7816164E-02  0.1226708E+00
        -11   -1    0    0    0    0  0.00000000000E+00  0.00000000000E+00  0.45593999997E+02  0.45594000000E+02  0.51100000000E-03 0. -1.
         11   -1    0    0    0    0 -0.00000000000E+00 -0.00000000000E+00 -0.45593999997E+02  0.45594000000E+02  0.51100000000E-03 0.  1.
    9900012    2    1    2    0    0 -0.15574130935E+02 -0.78496741745E+01  0.68195336074E+01  0.72461628818E+02  0.70000076237E+02 0.  0.
        -12    1    1    2    0    0  0.15574130935E+02  0.78496741745E+01 -0.68195336074E+01  0.18726371182E+02  0.00000000000E+00 0.  1.
         11    1    3    3    0    0  0.15749986249E+02 -0.73307502003E+01  0.22728023941E+02  0.28607080205E+02  0.51100000000E-03 0. -1.
        -11    1    3    3    0    0 -0.26314554244E+02  0.30484330816E+01  0.32778443037E+00  0.26492567867E+02  0.51100000000E-03 0.  1.
        -12    1    3    3    0    0 -0.50095629397E+01 -0.35673570558E+01 -0.16236274764E+02  0.17361980746E+02  0.00000000000E+00 0.  1.
</event>
<event>
 7    1  0.1830715E-013  0.7246157E+02  0.7816164E-02  0.1226708E+00
        -11   -1    0    0    0    0  0.00000000000E+00  0.00000000000E+00  0.45593999997E+02  0.45594000000E+02  0.51100000000E-03 0. -1.
         11   -1    0    0    0    0 -0.00000000000E+00 -0.00000000000E+00 -0.45593999997E+02  0.45594000000E+02  0.51100000000E-03 0.  1.
    9900012    2    1    2    0    0  0.29399941120E+01  0.84658510301E+01  0.16442776921E+02  0.72461571832E+02  0.70000002003E+02 0.  0.
        -12    1    1    2    0    0 -0.29399941120E+01 -0.84658510301E+01 -0.16442776921E+02  0.18726428168E+02  0.00000000000E+00 0.  1.
         11    1    3    3    0    0  0.19488215311E+02 -0.17933584099E+01  0.18045698024E+02  0.26620553860E+02  0.51100000000E-03 0. -1.
        -11    1    3    3    0    0 -0.22798410972E+02  0.22420546180E+02  0.65471727463E+00  0.31982449700E+02  0.51100000000E-03 0.  1.
        -12    1    3    3    0    0  0.62501897730E+01 -0.12161336740E+02 -0.22576383772E+01  0.13858568272E+02  0.00000000000E+00 0.  1.
</event>
<event>
 7    1  0.1830715E-013  0.7246162E+02  0.7816164E-02  0.1226708E+00
        -11   -1    0    0    0    0  0.00000000000E+00  0.00000000000E+00  0.45593999997E+02  0.45594000000E+02  0.51100000000E-03 0.  1.
         11   -1    0    0    0    0 -0.00000000000E+00 -0.00000000000E+00 -0.45593999997E+02  0.45594000000E+02  0.51100000000E-03 0. -1.
    9900012    2    1    2    0    0 -0.17307250926E+02  0.64784672808E+01 -0.30275424911E+01  0.72461615232E+02  0.70000058540E+02 0.  0.
        -12    1    1    2    0    0  0.17307250926E+02 -0.64784672808E+01  0.30275424911E+01  0.18726384768E+02  0.00000000000E+00 0.  1.
         11    1    3    3    0    0 -0.70550138679E+01 -0.23203058579E+02  0.57392645599E+01  0.24921763702E+02  0.51100000000E-03 0. -1.
        -11    1    3    3    0    0  0.81344047112E+01  0.18832406399E+02 -0.14869005961E+02  0.25336049600E+02  0.51100000000E-03 0.  1.
        -12    1    3    3    0    0 -0.18386641769E+02  0.10849119460E+02  0.61021989101E+01  0.22203801930E+02  0.00000000000E+00 0.  1.
</event>
<event>
 7    1  0.1830715E-013  0.7246128E+02  0.7816164E-02  0.1226709E+00
        -11   -1    0    0    0    0  0.00000000000E+00  0.00000000000E+00  0.45593999997E+02  0.45594000000E+02  0.51100000000E-03 0. -1.
         11   -1    0    0    0    0 -0.00000000000E+00 -0.00000000000E+00 -0.45593999997E+02  0.45594000000E+02  0.51100000000E-03 0.  1.
    9900012    2    1    2    0    0 -0.13259031414E+02 -0.13007911281E+02  0.23838114046E+01  0.72461275066E+02  0.69999615409E+02 0.  0.
        -12    1    1    2    0    0  0.13259031414E+02  0.13007911281E+02 -0.23838114046E+01  0.18726724934E+02  0.00000000000E+00 0.  1.
         11    1    3    3    0    0 -0.10314898310E+02 -0.24322840245E+02  0.18362892372E+02  0.32174423091E+02  0.51100000000E-03 0. -1.
        -11    1    3    3    0    0 -0.10874351919E+02  0.19717599830E+02 -0.26902447248E+01  0.22677581212E+02  0.51100000000E-03 0.  1.
        -12    1    3    3    0    0  0.79302188145E+01 -0.84026708655E+01 -0.13288836242E+02  0.17609270763E+02  0.00000000000E+00 0.  1.
</event>
<event>
 7    1  0.1830715E-013  0.7246156E+02  0.7816164E-02  0.1226708E+00
        -11   -1    0    0    0    0  0.00000000000E+00  0.00000000000E+00  0.45593999997E+02  0.45594000000E+02  0.51100000000E-03 0.  1.
         11   -1    0    0    0    0 -0.00000000000E+00 -0.00000000000E+00 -0.45593999997E+02  0.45594000000E+02  0.51100000000E-03 0. -1.
    9900012    2    1    2    0    0  0.17275791680E+02  0.59552162150E+01 -0.40941186989E+01  0.72461564508E+02  0.69999992462E+02 0.  0.
        -12    1    1    2    0    0 -0.17275791680E+02 -0.59552162150E+01  0.40941186989E+01  0.18726435492E+02  0.00000000000E+00 0.  1.
         11    1    3    3    0    0  0.13434408923E+02  0.22610598774E+02 -0.18663615970E+02  0.32249853974E+02  0.51100000000E-03 0. -1.
        -11    1    3    3    0    0  0.17585079709E+02 -0.51679342738E+01  0.12488483335E+02  0.22178926694E+02  0.51100000000E-03 0.  1.
         12    1    3    3    0    0 -0.13743696952E+02 -0.11487448285E+02  0.20810139368E+01  0.18032783840E+02  0.00000000000E+00 0. -1.
</event>
<event>
 7    1  0.1830715E-013  0.7246165E+02  0.7816164E-02  0.1226708E+00
        -11   -1    0    0    0    0  0.00000000000E+00  0.00000000000E+00  0.45593999997E+02  0.45594000000E+02  0.51100000000E-03 0. -1.
         11   -1    0    0    0    0 -0.00000000000E+00 -0.00000000000E+00 -0.45593999997E+02  0.45594000000E+02  0.51100000000E-03 0.  1.
    9900012    2    1    2    0    0  0.86362011876E+01 -0.10306932186E+02  0.13033012217E+02  0.72461648794E+02  0.70000102260E+02 0.  0.
        -12    1    1    2    0    0 -0.86362011876E+01  0.10306932186E+02 -0.13033012217E+02  0.18726351206E+02  0.00000000000E+00 0.  1.
         11    1    3    3    0    0  0.13110943578E+02  0.17034266782E+02  0.90019934144E+01  0.23304483947E+02  0.51100000000E-03 0. -1.
        -11    1    3    3    0    0 -0.13147518961E+02 -0.13651791140E+02 -0.14993060088E+02  0.24166516241E+02  0.51100000000E-03 0.  1.
        -12    1    3    3    0    0  0.86727765701E+01 -0.13689407829E+02  0.19024078890E+02  0.24990648607E+02  0.00000000000E+00 0.  1.
</event>
<event>
 7    1  0.1830715E-013  0.7246142E+02  0.7816164E-02  0.1226708E+00
        -11   -1    0    0    0    0  0.00000000000E+00  0.00000000000E+00  0.45593999997E+02  0.45594000000E+02  0.51100000000E-03 0.  1.
         11   -1    0    0    0    0 -0.00000000000E+00 -0.00000000000E+00 -0.45593999997E+02  0.45594000000E+02  0.51100000000E-03 0. -1.
    9900012    2    1    2    0    0  0.49428429456E+01 -0.33014410272E+00 -0.18059464271E+02  0.72461416188E+02  0.69999799248E+02 0.  0.
        -12    1    1    2    0    0 -0.49428429456E+01  0.33014410272E+00  0.18059464271E+02  0.18726583812E+02  0.00000000000E+00 0.  1.
         11    1    3    3    0    0  0.84485930735E+01  0.21830238456E+02 -0.36457442092E+02  0.43325317312E+02  0.51100000000E-03 0. -1.
        -11    1    3    3    0    0 -0.36986414810E+01 -0.18489152431E+02  0.14571333442E+02  0.23829655158E+02  0.51100000000E-03 0.  1.
         12    1    3    3    0    0  0.19289135306E+00 -0.36712301279E+01  0.38266443797E+01  0.53064437182E+01  0.00000000000E+00 0. -1.
</event>
<event>
 7    1  0.1830715E-013  0.7246156E+02  0.7816164E-02  0.1226708E+00
        -11   -1    0    0    0    0  0.00000000000E+00  0.00000000000E+00  0.45593999997E+02  0.45594000000E+02  0.51100000000E-03 0. -1.
         11   -1    0    0    0    0 -0.00000000000E+00 -0.00000000000E+00 -0.45593999997E+02  0.45594000000E+02  0.51100000000E-03 0.  1.
    9900012    2    1    2    0    0  0.70759434315E+01 -0.12286071429E+02  0.12233681103E+02  0.72461562006E+02  0.69999989203E+02 0.  0.
        -12    1    1    2    0    0 -0.70759434315E+01  0.12286071429E+02 -0.12233681103E+02  0.18726437994E+02  0.00000000000E+00 0.  1.
         11    1    3    3    0    0  0.91995367779E+01  0.11457983426E+01 -0.73499021958E+01  0.11830697077E+02  0.51100000000E-03 0.  1.
        -11    1    3    3    0    0  0.11446322853E+02 -0.29031125687E+02  0.24147084966E+02  0.39457651706E+02  0.51100000000E-03 0. -1.
        -12    1    3    3    0    0 -0.13569916199E+02  0.15599255915E+02 -0.45635016669E+01  0.21173213224E+02  0.00000000000E+00 0.  1.
</event>
<event>
 7    1  0.1830715E-013  0.7246161E+02  0.7816164E-02  0.1226708E+00
        -11   -1    0    0    0    0  0.00000000000E+00  0.00000000000E+00  0.45593999997E+02  0.45594000000E+02  0.51100000000E-03 0.  1.
         11   -1    0    0    0    0 -0.00000000000E+00 -0.00000000000E+00 -0.45593999997E+02  0.45594000000E+02  0.51100000000E-03 0. -1.
    9900012    2    1    2    0    0 -0.99517718961E+01 -0.15840321891E+02 -0.85103021799E+00  0.72461606490E+02  0.70000047151E+02 0.  0.
        -12    1    1    2    0    0  0.99517718961E+01  0.15840321891E+02  0.85103021799E+00  0.18726393510E+02  0.00000000000E+00 0.  1.
         11    1    3    3    0    0 -0.27164197628E+01 -0.52434495695E+01 -0.12833010395E+02  0.14126530210E+02  0.51100000000E-03 0. -1.
        -11    1    3    3    0    0 -0.76344169761E+01 -0.69856252286E+01  0.34246646982E+02  0.35775915253E+02  0.51100000000E-03 0.  1.
        -12    1    3    3    0    0  0.39906484283E+00 -0.36112470927E+01 -0.22264666804E+02  0.22559161027E+02  0.00000000000E+00 0.  1.
</event>
<event>
 7    1  0.1830715E-013  0.7246159E+02  0.7816164E-02  0.1226708E+00
        -11   -1    0    0    0    0  0.00000000000E+00  0.00000000000E+00  0.45593999997E+02  0.45594000000E+02  0.51100000000E-03 0.  1.
         11   -1    0    0    0    0 -0.00000000000E+00 -0.00000000000E+00 -0.45593999997E+02  0.45594000000E+02  0.51100000000E-03 0. -1.
    9900012    2    1    2    0    0 -0.38124399617E+01  0.17807724825E+02 -0.43621993205E+01  0.72461586974E+02  0.70000021729E+02 0.  0.
        -12    1    1    2    0    0  0.38124399617E+01 -0.17807724825E+02  0.43621993205E+01  0.18726413026E+02  0.00000000000E+00 0.  1.
         11    1    3    3    0    0 -0.21176159705E+02  0.11141787709E+02 -0.17050069209E+02  0.29381525377E+02  0.51100000000E-03 0. -1.
        -11    1    3    3    0    0  0.17504873450E+02  0.49393011639E+01  0.24850023454E+02  0.30795145014E+02  0.51100000000E-03 0.  1.
        -12    1    3    3    0    0 -0.14115370639E+00  0.17266359520E+01 -0.12162153566E+02  0.12284916583E+02  0.00000000000E+00 0.  1.
</event>
<event>
 7    1  0.1830715E-013  0.7246155E+02  0.7816164E-02  0.1226708E+00
        -11   -1    0    0    0    0  0.00000000000E+00  0.00000000000E+00  0.45593999997E+02  0.45594000000E+02  0.51100000000E-03 0.  1.
         11   -1    0    0    0    0 -0.00000000000E+00 -0.00000000000E+00 -0.45593999997E+02  0.45594000000E+02  0.51100000000E-03 0. -1.
    9900012    2    1    2    0    0 -0.27322596216E+01  0.16612634236E+02 -0.81996920762E+01  0.72461553219E+02  0.69999977756E+02 0.  0.
        -12    1    1    2    0    0  0.27322596216E+01 -0.16612634236E+02  0.81996920762E+01  0.18726446781E+02  0.00000000000E+00 0.  1.
         11    1    3    3    0    0 -0.12834413750E+01 -0.13449567976E+02 -0.22451020336E+02  0.26202794028E+02  0.51100000000E-03 0. -1.
        -11    1    3    3    0    0 -0.13169622634E+02  0.50978386945E+01  0.12098898683E+02  0.18595974545E+02  0.51100000000E-03 0.  1.
        -12    1    3    3    0    0  0.11720804387E+02  0.24964363517E+02  0.21524295767E+01  0.27662784646E+02  0.00000000000E+00 0.  1.
</event>
<event>
 7    1  0.1830715E-013  0.7246161E+02  0.7816164E-02  0.1226708E+00
        -11   -1    0    0    0    0  0.00000000000E+00  0.00000000000E+00  0.45593999997E+02  0.45594000000E+02  0.51100000000E-03 0.  1.
         11   -1    0    0    0    0 -0.00000000000E+00 -0.00000000000E+00 -0.45593999997E+02  0.45594000000E+02  0.51100000000E-03 0. -1.
    9900012    2    1    2    0    0  0.15170954025E+02 -0.18206783211E+01 -0.10826127431E+02  0.72461608176E+02  0.70000049348E+02 0.  0.
        -12    1    1    2    0    0 -0.15170954025E+02  0.18206783211E+01  0.10826127431E+02  0.18726391824E+02  0.00000000000E+00 0.  1.
         11    1    3    3    0    0  0.20565298266E+01  0.60449230134E+01 -0.15404772106E+02  0.16675653303E+02  0.51100000000E-03 0. -1.
        -11    1    3    3    0    0  0.10951340853E+02  0.17868072574E+02  0.17135300701E+02  0.27070619024E+02  0.51100000000E-03 0.  1.
        -12    1    3    3    0    0  0.21630833458E+01 -0.25733673908E+02 -0.12556656026E+02  0.28715335849E+02  0.00000000000E+00 0.  1.
</event>
<event>
 7    1  0.1959097E-013  0.7246159E+02  0.7816164E-02  0.1226708E+00
        -11   -1    0    0    0    0  0.00000000000E+00  0.00000000000E+00  0.45593999997E+02  0.45594000000E+02  0.51100000000E-03 0.  1.
         11   -1    0    0    0    0 -0.00000000000E+00 -0.00000000000E+00 -0.45593999997E+02  0.45594000000E+02  0.51100000000E-03 0. -1.
    9900012    2    1    2    0    0 -0.73305363681E+01  0.30011652593E+01  0.16968636516E+02  0.72461591333E+02  0.70000027407E+02 0.  0.
        -12    1    1    2    0    0  0.73305363681E+01 -0.30011652593E+01 -0.16968636516E+02  0.18726408667E+02  0.00000000000E+00 0.  1.
         11    1    3    3    0    0 -0.10265380433E+02 -0.70438382146E+01  0.29374081868E+02  0.31903454015E+02  0.51100000000E-03 0. -1.
        -11    1    3    3    0    0  0.74151579827E+01 -0.11563021924E+02 -0.12377820686E+02  0.18490497265E+02  0.51100000000E-03 0.  1.
         12    1    3    3    0    0 -0.44803139181E+01  0.21608025398E+02 -0.27624665794E-01  0.22067640053E+02  0.00000000000E+00 0. -1.
</event>
<event>
 7    1  0.1830715E-013  0.7246148E+02  0.7816164E-02  0.1226708E+00
        -11   -1    0    0    0    0  0.00000000000E+00  0.00000000000E+00  0.45593999997E+02  0.45594000000E+02  0.51100000000E-03 0. -1.
         11   -1    0    0    0    0 -0.00000000000E+00 -0.00000000000E+00 -0.45593999997E+02  0.45594000000E+02  0.51100000000E-03 0.  1.
    9900012    2    1    2    0    0 -0.16316098420E+02  0.42741453732E+01  0.81362878334E+01  0.72461479607E+02  0.69999881862E+02 0.  0.
        -12    1    1    2    0    0  0.16316098420E+02 -0.42741453732E+01 -0.81362878334E+01  0.18726520393E+02  0.00000000000E+00 0.  1.
         11    1    3    3    0    0  0.15128574482E+02 -0.40586540781E+01  0.68377487836E+00  0.15678456146E+02  0.51100000000E-03 0. -1.
        -11    1    3    3    0    0 -0.33395228568E+02  0.15327139505E+02 -0.98303052817E+01  0.38036790068E+02  0.51100000000E-03 0.  1.
        -12    1    3    3    0    0  0.19505556654E+01 -0.69943400534E+01  0.17282818237E+02  0.18746233392E+02  0.00000000000E+00 0.  1.
</event>
<event>
 7    1  0.1830715E-013  0.7246158E+02  0.7816164E-02  0.1226708E+00
        -11   -1    0    0    0    0  0.00000000000E+00  0.00000000000E+00  0.45593999997E+02  0.45594000000E+02  0.51100000000E-03 0.  1.
         11   -1    0    0    0    0 -0.00000000000E+00 -0.00000000000E+00 -0.45593999997E+02  0.45594000000E+02  0.51100000000E-03 0. -1.
    9900012    2    1    2    0    0 -0.67672055907E+01 -0.67305873532E-01 -0.17460786413E+02  0.72461583798E+02  0.70000017592E+02 0.  0.
        -12    1    1    2    0    0  0.67672055907E+01  0.67305873532E-01  0.17460786413E+02  0.18726416202E+02  0.00000000000E+00 0.  1.
         11    1    3    3    0    0  0.40035137783E+01  0.10236891536E+02 -0.13761408401E+02  0.17612451060E+02  0.51100000000E-03 0. -1.
        -11    1    3    3    0    0 -0.24504521321E+02 -0.20532494749E+02  0.93621297053E+01  0.33312225663E+02  0.51100000000E-03 0.  1.
        -12    1    3    3    0    0  0.13733801952E+02  0.10228297339E+02 -0.13061507718E+02  0.21536907075E+02  0.00000000000E+00 0.  1.
</event>
<event>
 7    1  0.1830715E-013  0.7246153E+02  0.7816164E-02  0.1226708E+00
        -11   -1    0    0    0    0  0.00000000000E+00  0.00000000000E+00  0.45593999997E+02  0.45594000000E+02  0.51100000000E-03 0.  1.
         11   -1    0    0    0    0 -0.00000000000E+00 -0.00000000000E+00 -0.45593999997E+02  0.45594000000E+02  0.51100000000E-03 0. -1.
    9900012    2    1    2    0    0  0.36825203116E+01 -0.85747729657E+01 -0.16235549074E+02  0.72461528336E+02  0.69999945342E+02 0.  0.
        -12    1    1    2    0    0 -0.36825203116E+01  0.85747729657E+01  0.16235549074E+02  0.18726471664E+02  0.00000000000E+00 0.  1.
         11    1    3    3    0    0 -0.15747269679E+02  0.19039887051E+01 -0.92825716271E+01  0.18378460534E+02  0.51100000000E-03 0. -1.
        -11    1    3    3    0    0  0.27805218829E+02  0.11287938785E+02 -0.67538931532E+01  0.30759759900E+02  0.51100000000E-03 0.  1.
        -12    1    3    3    0    0 -0.83754288385E+01 -0.21766700456E+02 -0.19908429314E+00  0.23323307902E+02  0.00000000000E+00 0.  1.
</event>
<event>
 7    1  0.1830715E-013  0.7246156E+02  0.7816164E-02  0.1226708E+00
        -11   -1    0    0    0    0  0.00000000000E+00  0.00000000000E+00  0.45593999997E+02  0.45594000000E+02  0.51100000000E-03 0. -1.
         11   -1    0    0    0    0 -0.00000000000E+00 -0.00000000000E+00 -0.45593999997E+02  0.45594000000E+02  0.51100000000E-03 0.  1.
    9900012    2    1    2    0    0 -0.79967175310E+01  0.11929589363E+02  0.12017355193E+02  0.72461563620E+02  0.69999991306E+02 0.  0.
        -12    1    1    2    0    0  0.79967175310E+01 -0.11929589363E+02 -0.12017355193E+02  0.18726436380E+02  0.00000000000E+00 0.  1.
         11    1    3    3    0    0 -0.54605204464E+01 -0.11105837216E+02 -0.11301985927E+02  0.16759826669E+02  0.51100000000E-03 0. -1.
        -11    1    3    3    0    0  0.16237241228E+02  0.25566290932E+02  0.79630485394E+01  0.31316024285E+02  0.51100000000E-03 0.  1.
         12    1    3    3    0    0 -0.18773438312E+02 -0.25308643530E+01  0.15356292581E+02  0.24385712667E+02  0.00000000000E+00 0. -1.
</event>
<event>
 7    1  0.1830715E-013  0.7246162E+02  0.7816164E-02  0.1226708E+00
        -11   -1    0    0    0    0  0.00000000000E+00  0.00000000000E+00  0.45593999997E+02  0.45594000000E+02  0.51100000000E-03 0.  1.
         11   -1    0    0    0    0 -0.00000000000E+00 -0.00000000000E+00 -0.45593999997E+02  0.45594000000E+02  0.51100000000E-03 0. -1.
    9900012    2    1    2    0    0  0.45403716508E+01 -0.17993272786E+02  0.25108650382E+01  0.72461620651E+02  0.70000065599E+02 0.  0.
        -12    1    1    2    0    0 -0.45403716508E+01  0.17993272786E+02 -0.25108650382E+01  0.18726379349E+02  0.00000000000E+00 0.  1.
         11    1    3    3    0    0  0.24637235005E+02  0.88776740284E+01 -0.10060575822E+02  0.28053905806E+02  0.51100000000E-03 0. -1.
        -11    1    3    3    0    0 -0.13967562829E+02 -0.30101736820E+02  0.15811597128E+02  0.36758862537E+02  0.51100000000E-03 0.  1.
        -12    1    3    3    0    0 -0.61293005251E+01  0.32307900060E+01 -0.32401562677E+01  0.76488523080E+01  0.00000000000E+00 0.  1.
</event>
<event>
 7    1  0.1830715E-013  0.7246163E+02  0.7816164E-02  0.1226708E+00
        -11   -1    0    0    0    0  0.00000000000E+00  0.00000000000E+00  0.45593999997E+02  0.45594000000E+02  0.51100000000E-03 0. -1.
         11   -1    0    0    0    0 -0.00000000000E+00 -0.00000000000E+00 -0.45593999997E+02  0.45594000000E+02  0.51100000000E-03 0.  1.
    9900012    2    1    2    0    0 -0.72837121423E+00  0.18107502395E+02  0.47185467308E+01  0.72461632204E+02  0.70000080648E+02 0.  0.
        -12    1    1    2    0    0  0.72837121423E+00 -0.18107502395E+02 -0.47185467308E+01  0.18726367796E+02  0.00000000000E+00 0.  1.
         11    1    3    3    0    0 -0.12839841124E+02  0.25439759977E+02  0.21970196028E+02  0.35982390437E+02  0.51100000000E-03 0. -1.
        -11    1    3    3    0    0  0.14402534585E+02 -0.16293744935E+02 -0.74133732474E+01  0.22975578984E+02  0.51100000000E-03 0.  1.
        -12    1    3    3    0    0 -0.22910646751E+01  0.89614873525E+01 -0.98382760498E+01  0.13503662783E+02  0.00000000000E+00 0.  1.
</event>
<event>
 7    1  0.1830715E-013  0.7246156E+02  0.7816164E-02  0.1226708E+00
        -11   -1    0    0    0    0  0.00000000000E+00  0.00000000000E+00  0.45593999997E+02  0.45594000000E+02  0.51100000000E-03 0. -1.
         11   -1    0    0    0    0 -0.00000000000E+00 -0.00000000000E+00 -0.45593999997E+02  0.45594000000E+02  0.51100000000E-03 0.  1.
    9900012    2    1    2    0    0  0.21255873142E+01  0.15163358887E+02 -0.10781192128E+02  0.72461556722E+02  0.69999982319E+02 0.  0.
        -12    1    1    2    0    0 -0.21255873142E+01 -0.15163358887E+02  0.10781192128E+02  0.18726443278E+02  0.00000000000E+00 0.  1.
         11    1    3    3    0    0  0.13868765310E+02  0.14059147993E+02  0.22000265779E+02  0.29563727575E+02  0.51100000000E-03 0. -1.
        -11    1    3    3    0    0  0.77732638948E+01  0.19604803796E+01 -0.78004540393E+01  0.11185445828E+02  0.51100000000E-03 0.  1.
         12    1    3    3    0    0 -0.19516441890E+02 -0.85626948602E+00 -0.24981003868E+02  0.31712383318E+02  0.00000000000E+00 0. -1.
</event>
<event>
 7    1  0.1830715E-013  0.7246158E+02  0.7816164E-02  0.1226708E+00
        -11   -1    0    0    0    0  0.00000000000E+00  0.00000000000E+00  0.45593999997E+02  0.45594000000E+02  0.51100000000E-03 0. -1.
         11   -1    0    0    0    0 -0.00000000000E+00 -0.00000000000E+00 -0.45593999997E+02  0.45594000000E+02  0.51100000000E-03 0.  1.
    9900012    2    1    2    0    0  0.17523859790E+02  0.31637955945E+01  0.57951280079E+01  0.72461580878E+02  0.70000013787E+02 0.  0.
        -12    1    1    2    0    0 -0.17523859790E+02 -0.31637955945E+01 -0.57951280079E+01  0.18726419122E+02  0.00000000000E+00 0.  1.
         11    1    3    3    0    0  0.16291455534E+02  0.34260545289E+01 -0.27352778825E+02  0.32020678986E+02  0.51100000000E-03 0. -1.
        -11    1    3    3    0    0 -0.37739393860E+01  0.10203385975E+02  0.20954368610E+02  0.23610109444E+02  0.51100000000E-03 0.  1.
        -12    1    3    3    0    0  0.50063436417E+01 -0.10465644910E+02  0.12193538222E+02  0.16830792448E+02  0.00000000000E+00 0.  1.
</event>
<event>
 7    1  0.1830715E-013  0.7246170E+02  0.7816164E-02  0.1226708E+00
        -11   -1    0    0    0    0  0.00000000000E+00  0.00000000000E+00  0.45593999997E+02  0.45594000000E+02  0.51100000000E-03 0.  1.
         11   -1    0    0    0    0 -0.00000000000E+00 -0.00000000000E+00 -0.45593999997E+02  0.45594000000E+02  0.51100000000E-03 0. -1.
    9900012    2    1    2    0    0 -0.53781974531E+01 -0.50556193914E+01 -0.17210174568E+02  0.72461697537E+02  0.70000165757E+02 0.  0.
        -12    1    1    2    0    0  0.53781974531E+01  0.50556193914E+01  0.17210174568E+02  0.18726302463E+02  0.00000000000E+00 0.  1.
         11    1    3    3    0    0  0.70022574653E+01 -0.22235136494E+02 -0.16570204560E+02  0.28600779428E+02  0.51100000000E-03 0. -1.
        -11    1    3    3    0    0 -0.21203861274E+02  0.19392651295E+02  0.94756187529E+01  0.30256668822E+02  0.51100000000E-03 0.  1.
         12    1    3    3    0    0  0.88234063556E+01 -0.22131341930E+01 -0.10115588761E+02  0.13604249287E+02  0.00000000000E+00 0. -1.
</event>
<event>
 7    1  0.1830715E-013  0.7246155E+02  0.7816164E-02  0.1226708E+00
        -11   -1    0    0    0    0  0.00000000000E+00  0.00000000000E+00  0.45593999997E+02  0.45594000000E+02  0.51100000000E-03 0. -1.
         11   -1    0    0    0    0 -0.00000000000E+00 -0.00000000000E+00 -0.45593999997E+02  0.45594000000E+02  0.51100000000E-03 0.  1.
    9900012    2    1    2    0    0  0.14761563000E+02 -0.63049809872E+01 -0.96448657701E+01  0.72461549104E+02  0.69999972395E+02 0.  0.
        -12    1    1    2    0    0 -0.14761563000E+02  0.63049809872E+01  0.96448657701E+01  0.18726450896E+02  0.00000000000E+00 0.  1.
         11    1    3    3    0    0  0.38859506079E+02  0.17668599846E+01 -0.45030816122E+01  0.39159427360E+02  0.51100000000E-03 0. -1.
        -11    1    3    3    0    0 -0.16857901466E+02 -0.41034655102E+00  0.60615885995E+01  0.17919265687E+02  0.51100000000E-03 0.  1.
        -12    1    3    3    0    0 -0.72400416130E+01 -0.76614944208E+01 -0.11203372757E+02  0.15382856057E+02  0.00000000000E+00 0.  1.
</event>
<event>
 7    1  0.1830715E-013  0.7246161E+02  0.7816164E-02  0.1226708E+00
        -11   -1    0    0    0    0  0.00000000000E+00  0.00000000000E+00  0.45593999997E+02  0.45594000000E+02  0.51100000000E-03 0. -1.
         11   -1    0    0    0    0 -0.00000000000E+00 -0.00000000000E+00 -0.45593999997E+02  0.45594000000E+02  0.51100000000E-03 0.  1.
    9900012    2    1    2    0    0  0.11158211433E+02  0.14338507028E+02  0.45364348578E+01  0.72461609333E+02  0.70000050856E+02 0.  0.
        -12    1    1    2    0    0 -0.11158211433E+02 -0.14338507028E+02 -0.45364348578E+01  0.18726390667E+02  0.00000000000E+00 0.  1.
         11    1    3    3    0    0 -0.20288326151E+02  0.40664344962E+01 -0.12728660594E+02  0.24293432616E+02  0.51100000000E-03 0. -1.
        -11    1    3    3    0    0  0.23107350757E+02 -0.73177914566E+01  0.15158260705E+02  0.28587979969E+02  0.51100000000E-03 0.  1.
        -12    1    3    3    0    0  0.83391868266E+01  0.17589863988E+02  0.21068347461E+01  0.19580196748E+02  0.00000000000E+00 0.  1.
</event>
<event>
 7    1  0.1830715E-013  0.7246157E+02  0.7816164E-02  0.1226708E+00
        -11   -1    0    0    0    0  0.00000000000E+00  0.00000000000E+00  0.45593999997E+02  0.45594000000E+02  0.51100000000E-03 0.  1.
         11   -1    0    0    0    0 -0.00000000000E+00 -0.00000000000E+00 -0.45593999997E+02  0.45594000000E+02  0.51100000000E-03 0. -1.
    9900012    2    1    2    0    0 -0.11503299073E+02 -0.22511875194E+01 -0.14604295285E+02  0.72461570133E+02  0.69999999790E+02 0.  0.
        -12    1    1    2    0    0  0.11503299073E+02  0.22511875194E+01  0.14604295285E+02  0.18726429867E+02  0.00000000000E+00 0.  1.
         11    1    3    3    0    0 -0.16242531177E+02 -0.19833361717E+02 -0.95977264049E+01  0.27373315627E+02  0.51100000000E-03 0. -1.
        -11    1    3    3    0    0 -0.81408314117E+01  0.27238185648E+02 -0.75553682828E+00  0.28438754009E+02  0.51100000000E-03 0.  1.
        -12    1    3    3    0    0  0.12880063515E+02 -0.96560114498E+01 -0.42510320514E+01  0.16649500496E+02  0.00000000000E+00 0.  1.
</event>
<event>
 7    1  0.1830715E-013  0.7246157E+02  0.7816164E-02  0.1226708E+00
        -11   -1    0    0    0    0  0.00000000000E+00  0.00000000000E+00  0.45593999997E+02  0.45594000000E+02  0.51100000000E-03 0.  1.
         11   -1    0    0    0    0 -0.00000000000E+00 -0.00000000000E+00 -0.45593999997E+02  0.45594000000E+02  0.51100000000E-03 0. -1.
    9900012    2    1    2    0    0 -0.17823780989E+02  0.28931686353E+01  0.49620097734E+01  0.72461571230E+02  0.70000001219E+02 0.  0.
        -12    1    1    2    0    0  0.17823780989E+02 -0.28931686353E+01 -0.49620097734E+01  0.18726428770E+02  0.00000000000E+00 0.  1.
         11    1    3    3    0    0 -0.19119629544E+02 -0.23308377187E+02  0.19391682892E+01  0.30209287561E+02  0.51100000000E-03 0. -1.
        -11    1    3    3    0    0  0.73881424936E+01 -0.93489932237E+00 -0.92310668793E+01  0.11860492496E+02  0.51100000000E-03 0.  1.
         12    1    3    3    0    0 -0.60922939382E+01  0.27136445145E+02  0.12253908363E+02  0.30391791173E+02  0.00000000000E+00 0. -1.
</event>
<event>
 7    1  0.1830715E-013  0.7246149E+02  0.7816164E-02  0.1226708E+00
        -11   -1    0    0    0    0  0.00000000000E+00  0.00000000000E+00  0.45593999997E+02  0.45594000000E+02  0.51100000000E-03 0. -1.
         11   -1    0    0    0    0 -0.00000000000E+00 -0.00000000000E+00 -0.45593999997E+02  0.45594000000E+02  0.51100000000E-03 0.  1.
    9900012    2    1    2    0    0 -0.97379509657E+01 -0.29762604402E+01  0.15716115334E+02  0.72461492146E+02  0.69999898197E+02 0.  0.
        -12    1    1    2    0    0  0.97379509657E+01  0.29762604402E+01 -0.15716115334E+02  0.18726507854E+02  0.00000000000E+00 0.  1.
         11    1    3    3    0    0  0.16223910304E+02 -0.96695678818E+00  0.98292801735E+01  0.18993815309E+02  0.51100000000E-03 0. -1.
        -11    1    3    3    0    0 -0.34900395796E+02 -0.10155299874E+01  0.17276165894E+02  0.38955549491E+02  0.51100000000E-03 0.  1.
        -12    1    3    3    0    0  0.89385345262E+01 -0.99377366457E+00 -0.11389330733E+02  0.14512127346E+02  0.00000000000E+00 0.  1.
</event>
<event>
 7    1  0.1830715E-013  0.7246200E+02  0.7816164E-02  0.1226707E+00
        -11   -1    0    0    0    0  0.00000000000E+00  0.00000000000E+00  0.45593999997E+02  0.45594000000E+02  0.51100000000E-03 0. -1.
         11   -1    0    0    0    0 -0.00000000000E+00 -0.00000000000E+00 -0.45593999997E+02  0.45594000000E+02  0.51100000000E-03 0.  1.
    9900012    2    1    2    0    0  0.63020553584E+01  0.13899051826E+02  0.10851894920E+02  0.72461997576E+02  0.70000556612E+02 0.  0.
        -12    1    1    2    0    0 -0.63020553584E+01 -0.13899051826E+02 -0.10851894920E+02  0.18726002424E+02  0.00000000000E+00 0.  1.
         11    1    3    3    0    0 -0.15615082248E+02  0.13890486202E+02  0.28093974480E+02  0.35014965413E+02  0.51100000000E-03 0. -1.
        -11    1    3    3    0    0  0.74885742927E+01  0.42084355038E+01 -0.20361466746E+02  0.22099298692E+02  0.51100000000E-03 0.  1.
        -12    1    3    3    0    0  0.14428563314E+02 -0.41998698800E+01  0.31193871873E+01  0.15347733472E+02  0.00000000000E+00 0.  1.
</event>
<event>
 7    1  0.1830715E-013  0.7246158E+02  0.7816164E-02  0.1226708E+00
        -11   -1    0    0    0    0  0.00000000000E+00  0.00000000000E+00  0.45593999997E+02  0.45594000000E+02  0.51100000000E-03 0.  1.
         11   -1    0    0    0    0 -0.00000000000E+00 -0.00000000000E+00 -0.45593999997E+02  0.45594000000E+02  0.51100000000E-03 0. -1.
    9900012    2    1    2    0    0 -0.70816765544E+00 -0.16408720513E+02  0.89961745292E+01  0.72461581056E+02  0.70000014019E+02 0.  0.
        -12    1    1    2    0    0  0.70816765544E+00  0.16408720513E+02 -0.89961745292E+01  0.18726418944E+02  0.00000000000E+00 0.  1.
         11    1    3    3    0    0  0.19331603059E+02 -0.30867310055E+01 -0.52524828435E+01  0.20268876669E+02  0.51100000000E-03 0. -1.
        -11    1    3    3    0    0 -0.16603791654E+02 -0.16331230659E+01  0.28757611490E+02  0.33246852589E+02  0.51100000000E-03 0.  1.
         12    1    3    3    0    0 -0.34359790600E+01 -0.11688866442E+02 -0.14508954117E+02  0.18945851798E+02  0.00000000000E+00 0. -1.
</event>
<event>
 7    1  0.1830715E-013  0.7246156E+02  0.7816164E-02  0.1226708E+00
        -11   -1    0    0    0    0  0.00000000000E+00  0.00000000000E+00  0.45593999997E+02  0.45594000000E+02  0.51100000000E-03 0. -1.
         11   -1    0    0    0    0 -0.00000000000E+00 -0.00000000000E+00 -0.45593999997E+02  0.45594000000E+02  0.51100000000E-03 0.  1.
    9900012    2    1    2    0    0 -0.37635875148E+01  0.46767202781E+01  0.17738186282E+02  0.72461559972E+02  0.69999986553E+02 0.  0.
        -12    1    1    2    0    0  0.37635875148E+01 -0.46767202781E+01 -0.17738186282E+02  0.18726440028E+02  0.00000000000E+00 0.  1.
         11    1    3    3    0    0  0.14533768595E+02 -0.10643979678E+02  0.29618597004E+02  0.34666785570E+02  0.51100000000E-03 0. -1.
        -11    1    3    3    0    0 -0.18691275153E+02  0.21945988864E+02 -0.73192270442E+01  0.29741574922E+02  0.51100000000E-03 0.  1.
         12    1    3    3    0    0  0.39391904262E+00 -0.66252889081E+01 -0.45611836779E+01  0.80531994805E+01  0.00000000000E+00 0. -1.
</event>
<event>
 7    1  0.1830715E-013  0.7246158E+02  0.7816164E-02  0.1226708E+00
        -11   -1    0    0    0    0  0.00000000000E+00  0.00000000000E+00  0.45593999997E+02  0.45594000000E+02  0.51100000000E-03 0. -1.
         11   -1    0    0    0    0 -0.00000000000E+00 -0.00000000000E+00 -0.45593999997E+02  0.45594000000E+02  0.51100000000E-03 0.  1.
    9900012    2    1    2    0    0  0.17147934200E+02  0.72593416838E+01 -0.19821571608E+01  0.72461584539E+02  0.70000018557E+02 0.  0.
        -12    1    1    2    0    0 -0.17147934200E+02 -0.72593416838E+01  0.19821571608E+01  0.18726415461E+02  0.00000000000E+00 0.  1.
         11    1    3    3    0    0  0.21110247933E+02 -0.18531480924E+02  0.66503810254E+01  0.28866692244E+02  0.51100000000E-03 0. -1.
        -11    1    3    3    0    0  0.12419398741E+02  0.17742735715E+02 -0.12403038790E+02  0.24957594180E+02  0.51100000000E-03 0.  1.
         12    1    3    3    0    0 -0.16381712475E+02  0.80480868924E+01  0.37705006037E+01  0.18637298116E+02  0.00000000000E+00 0. -1.
</event>
<event>
 7    1  0.1830715E-013  0.7246154E+02  0.7816164E-02  0.1226708E+00
        -11   -1    0    0    0    0  0.00000000000E+00  0.00000000000E+00  0.45593999997E+02  0.45594000000E+02  0.51100000000E-03 0.  1.
         11   -1    0    0    0    0 -0.00000000000E+00 -0.00000000000E+00 -0.45593999997E+02  0.45594000000E+02  0.51100000000E-03 0. -1.
    9900012    2    1    2    0    0 -0.79212624069E+01 -0.12792862970E+02 -0.11147943222E+02  0.72461537996E+02  0.69999957926E+02 0.  0.
        -12    1    1    2    0    0  0.79212624069E+01  0.12792862970E+02  0.11147943222E+02  0.18726462004E+02  0.00000000000E+00 0.  1.
         11    1    3    3    0    0  0.15997900001E+02 -0.16796307932E+00 -0.22531205298E+02  0.27633606867E+02  0.51100000000E-03 0. -1.
        -11    1    3    3    0    0 -0.92559966610E+00 -0.19262625826E+02  0.68807590658E+01  0.20475603386E+02  0.51100000000E-03 0.  1.
        -12    1    3    3    0    0 -0.22993562742E+02  0.66377259346E+01  0.45025030107E+01  0.24352327743E+02  0.00000000000E+00 0.  1.
</event>
<event>
 7    1  0.1830715E-013  0.7246152E+02  0.7816164E-02  0.1226708E+00
        -11   -1    0    0    0    0  0.00000000000E+00  0.00000000000E+00  0.45593999997E+02  0.45594000000E+02  0.51100000000E-03 0.  1.
         11   -1    0    0    0    0 -0.00000000000E+00 -0.00000000000E+00 -0.45593999997E+02  0.45594000000E+02  0.51100000000E-03 0. -1.
    9900012    2    1    2    0    0 -0.25423457248E+01 -0.14040400605E+02 -0.12127843629E+02  0.72461522435E+02  0.69999937654E+02 0.  0.
        -12    1    1    2    0    0  0.25423457248E+01  0.14040400605E+02  0.12127843629E+02  0.18726477565E+02  0.00000000000E+00 0.  1.
         11    1    3    3    0    0  0.10971146250E+02 -0.24823935826E+02  0.43951223404E+01  0.27493834592E+02  0.51100000000E-03 0. -1.
        -11    1    3    3    0    0 -0.12860951026E+02  0.10677954889E+02 -0.28463434257E+02  0.33008936242E+02  0.51100000000E-03 0.  1.
        -12    1    3    3    0    0 -0.65254094910E+00  0.10558033287E+00  0.11940468288E+02  0.11958751600E+02  0.00000000000E+00 0.  1.
</event>
<event>
 7    1  0.1830715E-013  0.7246191E+02  0.7816164E-02  0.1226707E+00
        -11   -1    0    0    0    0  0.00000000000E+00  0.00000000000E+00  0.45593999997E+02  0.45594000000E+02  0.51100000000E-03 0. -1.
         11   -1    0    0    0    0 -0.00000000000E+00 -0.00000000000E+00 -0.45593999997E+02  0.45594000000E+02  0.51100000000E-03 0.  1.
    9900012    2    1    2    0    0 -0.86955787175E+01 -0.37277691338E+01  0.16160357750E+02  0.72461908188E+02  0.70000440168E+02 0.  0.
        -12    1    1    2    0    0  0.86955787175E+01  0.37277691338E+01 -0.16160357750E+02  0.18726091812E+02  0.00000000000E+00 0.  1.
         11    1    3    3    0    0 -0.51271448921E+01  0.17425922180E+02  0.14896041708E+01  0.18225512323E+02  0.51100000000E-03 0. -1.
        -11    1    3    3    0    0  0.39882886528E+01 -0.27682475081E+02 -0.83123639118E+01  0.29177410218E+02  0.51100000000E-03 0.  1.
        -12    1    3    3    0    0 -0.75567224782E+01  0.65287837669E+01  0.22983117491E+02  0.25058985647E+02  0.00000000000E+00 0.  1.
</event>
<event>
 7    1  0.1830715E-013  0.7246157E+02  0.7816164E-02  0.1226708E+00
        -11   -1    0    0    0    0  0.00000000000E+00  0.00000000000E+00  0.45593999997E+02  0.45594000000E+02  0.51100000000E-03 0. -1.
         11   -1    0    0    0    0 -0.00000000000E+00 -0.00000000000E+00 -0.45593999997E+02  0.45594000000E+02  0.51100000000E-03 0.  1.
    9900012    2    1    2    0    0 -0.11206988229E+02  0.34604251646E+01  0.14598225917E+02  0.72461566079E+02  0.69999994508E+02 0.  0.
        -12    1    1    2    0    0  0.11206988229E+02 -0.34604251646E+01 -0.14598225917E+02  0.18726433921E+02  0.00000000000E+00 0.  1.
         11    1    3    3    0    0 -0.32868509083E+00  0.25849727149E+02  0.24581209283E+02  0.35672850708E+02  0.51100000000E-03 0. -1.
        -11    1    3    3    0    0  0.53174171391E+01 -0.10045899688E+02 -0.11751185779E+02  0.16348865191E+02  0.51100000000E-03 0.  1.
         12    1    3    3    0    0 -0.16195720277E+02 -0.12343402297E+02  0.17682024136E+01  0.20439850179E+02  0.00000000000E+00 0. -1.
</event>
<event>
 7    1  0.1830715E-013  0.7246152E+02  0.7816164E-02  0.1226708E+00
        -11   -1    0    0    0    0  0.00000000000E+00  0.00000000000E+00  0.45593999997E+02  0.45594000000E+02  0.51100000000E-03 0. -1.
         11   -1    0    0    0    0 -0.00000000000E+00 -0.00000000000E+00 -0.45593999997E+02  0.45594000000E+02  0.51100000000E-03 0.  1.
    9900012    2    1    2    0    0  0.43886674635E+00 -0.80182482621E+01  0.16917333441E+02  0.72461519285E+02  0.69999933551E+02 0.  0.
        -12    1    1    2    0    0 -0.43886674635E+00  0.80182482621E+01 -0.16917333441E+02  0.18726480715E+02  0.00000000000E+00 0.  1.
         11    1    3    3    0    0 -0.16642409893E+02 -0.24768133107E+02  0.14304685795E+02  0.33091604081E+02  0.51100000000E-03 0. -1.
        -11    1    3    3    0    0  0.11262821766E+01  0.22345672571E+02  0.16443625327E+01  0.22434382599E+02  0.51100000000E-03 0.  1.
         12    1    3    3    0    0  0.15954994463E+02 -0.55957877261E+01  0.96828511253E+00  0.16935532606E+02  0.00000000000E+00 0. -1.
</event>
<event>
 7    1  0.1830715E-013  0.7246158E+02  0.7816164E-02  0.1226708E+00
        -11   -1    0    0    0    0  0.00000000000E+00  0.00000000000E+00  0.45593999997E+02  0.45594000000E+02  0.51100000000E-03 0. -1.
         11   -1    0    0    0    0 -0.00000000000E+00 -0.00000000000E+00 -0.45593999997E+02  0.45594000000E+02  0.51100000000E-03 0.  1.
    9900012    2    1    2    0    0 -0.92702448055E+01  0.63374610290E+01  0.14985928733E+02  0.72461577196E+02  0.70000008991E+02 0.  0.
        -12    1    1    2    0    0  0.92702448055E+01 -0.63374610290E+01 -0.14985928733E+02  0.18726422804E+02  0.00000000000E+00 0.  1.
         11    1    3    3    0    0  0.17239309654E+02  0.24686913825E+02  0.44462354550E+01  0.30436926939E+02  0.51100000000E-03 0. -1.
        -11    1    3    3    0    0 -0.10452527808E+02 -0.80791781373E+00 -0.68857553517E+01  0.12542794577E+02  0.51100000000E-03 0.  1.
         12    1    3    3    0    0 -0.16057026651E+02 -0.17541534982E+02  0.17425448629E+02  0.29481855680E+02  0.00000000000E+00 0. -1.
</event>
<event>
 7    1  0.1830715E-013  0.7246144E+02  0.7816164E-02  0.1226708E+00
        -11   -1    0    0    0    0  0.00000000000E+00  0.00000000000E+00  0.45593999997E+02  0.45594000000E+02  0.51100000000E-03 0. -1.
         11   -1    0    0    0    0 -0.00000000000E+00 -0.00000000000E+00 -0.45593999997E+02  0.45594000000E+02  0.51100000000E-03 0.  1.
    9900012    2    1    2    0    0  0.88338019525E+01  0.61729815490E+01  0.15314777975E+02  0.72461436445E+02  0.69999825636E+02 0.  0.
        -12    1    1    2    0    0 -0.88338019525E+01 -0.61729815490E+01 -0.15314777975E+02  0.18726563555E+02  0.00000000000E+00 0.  1.
         11    1    3    3    0    0  0.62351622665E+01  0.29510825114E+02  0.72563071802E+01  0.31022895441E+02  0.51100000000E-03 0. -1.
        -11    1    3    3    0    0  0.14933874505E+02 -0.24030092901E+02  0.56799219854E+01  0.28857017979E+02  0.51100000000E-03 0.  1.
         12    1    3    3    0    0 -0.12335234819E+02  0.69224933619E+00  0.23785488097E+01  0.12581523025E+02  0.00000000000E+00 0. -1.
</event>
<event>
 7    1  0.1830715E-013  0.7246153E+02  0.7816164E-02  0.1226708E+00
        -11   -1    0    0    0    0  0.00000000000E+00  0.00000000000E+00  0.45593999997E+02  0.45594000000E+02  0.51100000000E-03 0.  1.
         11   -1    0    0    0    0 -0.00000000000E+00 -0.00000000000E+00 -0.45593999997E+02  0.45594000000E+02  0.51100000000E-03 0. -1.
    9900012    2    1    2    0    0  0.26302579249E+01 -0.46855971486E+01 -0.17939000176E+02  0.72461526634E+02  0.69999943124E+02 0.  0.
        -12    1    1    2    0    0 -0.26302579249E+01  0.46855971486E+01  0.17939000176E+02  0.18726473366E+02  0.00000000000E+00 0.  1.
         11    1    3    3    0    0  0.21787854518E+02 -0.76475874888E+01 -0.11656679581E+02  0.25866472083E+02  0.51100000000E-03 0. -1.
        -11    1    3    3    0    0 -0.17631875316E+02 -0.78566356468E+01  0.13803017663E+02  0.23730424516E+02  0.51100000000E-03 0.  1.
         12    1    3    3    0    0 -0.15257212768E+01  0.10818625987E+02 -0.20085338259E+02  0.22864630035E+02  0.00000000000E+00 0. -1.
</event>
<event>
 7    1  0.1830715E-013  0.7246151E+02  0.7816164E-02  0.1226708E+00
        -11   -1    0    0    0    0  0.00000000000E+00  0.00000000000E+00  0.45593999997E+02  0.45594000000E+02  0.51100000000E-03 0.  1.
         11   -1    0    0    0    0 -0.00000000000E+00 -0.00000000000E+00 -0.45593999997E+02  0.45594000000E+02  0.51100000000E-03 0. -1.
    9900012    2    1    2    0    0 -0.13551268287E+02  0.71280526175E+01 -0.10781256392E+02  0.72461508185E+02  0.69999919091E+02 0.  0.
        -12    1    1    2    0    0  0.13551268287E+02 -0.71280526175E+01  0.10781256392E+02  0.18726491815E+02  0.00000000000E+00 0.  1.
         11    1    3    3    0    0  0.17779836455E+02 -0.13097016898E+02 -0.64984988354E+01  0.23019229426E+02  0.51100000000E-03 0. -1.
        -11    1    3    3    0    0 -0.34784803415E+02  0.72738056074E+01 -0.55927267329E+01  0.35974565866E+02  0.51100000000E-03 0.  1.
        -12    1    3    3    0    0  0.34536986735E+01  0.12951263908E+02  0.13099691764E+01  0.13467712894E+02  0.00000000000E+00 0.  1.
</event>
<event>
 7    1  0.1830715E-013  0.7246184E+02  0.7816164E-02  0.1226707E+00
        -11   -1    0    0    0    0  0.00000000000E+00  0.00000000000E+00  0.45593999997E+02  0.45594000000E+02  0.51100000000E-03 0. -1.
         11   -1    0    0    0    0 -0.00000000000E+00 -0.00000000000E+00 -0.45593999997E+02  0.45594000000E+02  0.51100000000E-03 0.  1.
    9900012    2    1    2    0    0  0.79933783368E+01 -0.14113905382E+01  0.16875512321E+02  0.72461840848E+02  0.70000352446E+02 0.  0.
        -12    1    1    2    0    0 -0.79933783368E+01  0.14113905382E+01 -0.16875512321E+02  0.18726159152E+02  0.00000000000E+00 0.  1.
         11    1    3    3    0    0  0.15388733387E+02  0.65384159973E+01 -0.20499185261E+02  0.26453366433E+02  0.51100000000E-03 0.  1.
        -11    1    3    3    0    0 -0.33420570219E+01 -0.16366540149E+02  0.28976909108E+02  0.33446886900E+02  0.51100000000E-03 0. -1.
        -12    1    3    3    0    0 -0.40532980279E+01  0.84167336140E+01  0.83977884744E+01  0.12561587515E+02  0.00000000000E+00 0.  1.
</event>
<event>
 7    1  0.1830715E-013  0.7246156E+02  0.7816164E-02  0.1226708E+00
        -11   -1    0    0    0    0  0.00000000000E+00  0.00000000000E+00  0.45593999997E+02  0.45594000000E+02  0.51100000000E-03 0.  1.
         11   -1    0    0    0    0 -0.00000000000E+00 -0.00000000000E+00 -0.45593999997E+02  0.45594000000E+02  0.51100000000E-03 0. -1.
    9900012    2    1    2    0    0  0.21622771636E+01 -0.17103846549E+02 -0.73117995060E+01  0.72461563571E+02  0.69999991242E+02 0.  0.
        -12    1    1    2    0    0 -0.21622771636E+01  0.17103846549E+02  0.73117995060E+01  0.18726436429E+02  0.00000000000E+00 0.  1.
         11    1    3    3    0    0 -0.16240903617E+02 -0.26914071771E+02 -0.27012373757E+02  0.41446381577E+02  0.51100000000E-03 0. -1.
        -11    1    3    3    0    0  0.17832595023E+02  0.42565488116E+01  0.14343453682E+02  0.23277764429E+02  0.51100000000E-03 0.  1.
         12    1    3    3    0    0  0.57058575812E+00  0.55536764099E+01  0.53571205693E+01  0.77374175645E+01  0.00000000000E+00 0. -1.
</event>
<event>
 7    1  0.1830715E-013  0.7246157E+02  0.7816164E-02  0.1226708E+00
        -11   -1    0    0    0    0  0.00000000000E+00  0.00000000000E+00  0.45593999997E+02  0.45594000000E+02  0.51100000000E-03 0.  1.
         11   -1    0    0    0    0 -0.00000000000E+00 -0.00000000000E+00 -0.45593999997E+02  0.45594000000E+02  0.51100000000E-03 0. -1.
    9900012    2    1    2    0    0 -0.10840306027E+02 -0.14468259670E+02 -0.48822399462E+01  0.72461573766E+02  0.70000004522E+02 0.  0.
        -12    1    1    2    0    0  0.10840306027E+02  0.14468259670E+02  0.48822399462E+01  0.18726426234E+02  0.00000000000E+00 0.  1.
         11    1    3    3    0    0  0.90693643263E+01 -0.34433342976E+02 -0.50022884714E+01  0.35957354852E+02  0.51100000000E-03 0. -1.
        -11    1    3    3    0    0 -0.72320363478E+01 -0.12967976584E+01  0.76725053506E+01  0.10623152664E+02  0.51100000000E-03 0.  1.
         12    1    3    3    0    0 -0.12677634005E+02  0.21261880964E+02 -0.75524568254E+01  0.25881066249E+02  0.00000000000E+00 0. -1.
</event>
<event>
 7    1  0.1830715E-013  0.7246157E+02  0.7816164E-02  0.1226708E+00
        -11   -1    0    0    0    0  0.00000000000E+00  0.00000000000E+00  0.45593999997E+02  0.45594000000E+02  0.51100000000E-03 0.  1.
         11   -1    0    0    0    0 -0.00000000000E+00 -0.00000000000E+00 -0.45593999997E+02  0.45594000000E+02  0.51100000000E-03 0. -1.
    9900012    2    1    2    0    0  0.11700237976E+02 -0.88090860176E+01 -0.11669770074E+02  0.72461572184E+02  0.70000002462E+02 0.  0.
        -12    1    1    2    0    0 -0.11700237976E+02  0.88090860176E+01  0.11669770074E+02  0.18726427816E+02  0.00000000000E+00 0.  1.
         11    1    3    3    0    0  0.16618422627E+02  0.13042144631E+02 -0.27227094411E+02  0.34461343234E+02  0.51100000000E-03 0. -1.
        -11    1    3    3    0    0  0.91165947848E+01 -0.89937783546E+01  0.13891222059E+02  0.18893554459E+02  0.51100000000E-03 0.  1.
         12    1    3    3    0    0 -0.14034779435E+02 -0.12857452294E+02  0.16661022784E+01  0.19106674491E+02  0.00000000000E+00 0. -1.
</event>
<event>
 7    1  0.1830715E-013  0.7246157E+02  0.7816164E-02  0.1226708E+00
        -11   -1    0    0    0    0  0.00000000000E+00  0.00000000000E+00  0.45593999997E+02  0.45594000000E+02  0.51100000000E-03 0.  1.
         11   -1    0    0    0    0 -0.00000000000E+00 -0.00000000000E+00 -0.45593999997E+02  0.45594000000E+02  0.51100000000E-03 0. -1.
    9900012    2    1    2    0    0 -0.11655905889E+02 -0.45644731555E+01 -0.13927837999E+02  0.72461568717E+02  0.69999997945E+02 0.  0.
        -12    1    1    2    0    0  0.11655905889E+02  0.45644731555E+01  0.13927837999E+02  0.18726431283E+02  0.00000000000E+00 0.  1.
         11    1    3    3    0    0 -0.31528019052E+02 -0.96249409185E+01 -0.20275109975E+02  0.38700588597E+02  0.51100000000E-03 0. -1.
        -11    1    3    3    0    0  0.92236389475E+01 -0.95000556188E+01  0.82833047337E+01  0.15618569389E+02  0.51100000000E-03 0.  1.
         12    1    3    3    0    0  0.10648474215E+02  0.14560523382E+02 -0.19360327579E+01  0.18142410730E+02  0.00000000000E+00 0. -1.
</event>
<event>
 7    1  0.1830715E-013  0.7246158E+02  0.7816164E-02  0.1226708E+00
        -11   -1    0    0    0    0  0.00000000000E+00  0.00000000000E+00  0.45593999997E+02  0.45594000000E+02  0.51100000000E-03 0.  1.
         11   -1    0    0    0    0 -0.00000000000E+00 -0.00000000000E+00 -0.45593999997E+02  0.45594000000E+02  0.51100000000E-03 0. -1.
    9900012    2    1    2    0    0 -0.13021699339E+02 -0.60836161273E+01 -0.12004320350E+02  0.72461581604E+02  0.70000014733E+02 0.  0.
        -12    1    1    2    0    0  0.13021699339E+02  0.60836161273E+01  0.12004320350E+02  0.18726418396E+02  0.00000000000E+00 0.  1.
         11    1    3    3    0    0 -0.28179802871E+02  0.14287147922E+02 -0.19062091557E+02  0.36899691332E+02  0.51100000000E-03 0. -1.
        -11    1    3    3    0    0  0.14067555711E+02 -0.29600549464E+01  0.10472871021E+02  0.17785923554E+02  0.51100000000E-03 0.  1.
         12    1    3    3    0    0  0.10905478214E+01 -0.17410709103E+02 -0.34150998139E+01  0.17775966718E+02  0.00000000000E+00 0. -1.
</event>
<event>
 7    1  0.1830715E-013  0.7246157E+02  0.7816164E-02  0.1226708E+00
        -11   -1    0    0    0    0  0.00000000000E+00  0.00000000000E+00  0.45593999997E+02  0.45594000000E+02  0.51100000000E-03 0. -1.
         11   -1    0    0    0    0 -0.00000000000E+00 -0.00000000000E+00 -0.45593999997E+02  0.45594000000E+02  0.51100000000E-03 0.  1.
    9900012    2    1    2    0    0 -0.69078477884E+01  0.28189133593E+01  0.17175986129E+02  0.72461571267E+02  0.70000001266E+02 0.  0.
        -12    1    1    2    0    0  0.69078477884E+01 -0.28189133593E+01 -0.17175986129E+02  0.18726428733E+02  0.00000000000E+00 0.  1.
         11    1    3    3    0    0  0.18528033014E+02  0.66869566478E+01 -0.17983851402E+02  0.26672500972E+02  0.51100000000E-03 0.  1.
        -11    1    3    3    0    0 -0.18456570411E+02 -0.13264943680E+01  0.33357073971E+02  0.38145759434E+02  0.51100000000E-03 0. -1.
        -12    1    3    3    0    0 -0.69793103917E+01 -0.25415489205E+01  0.18027635605E+01  0.76433108608E+01  0.00000000000E+00 0.  1.
</event>
<event>
 7    1  0.1830715E-013  0.7246149E+02  0.7816164E-02  0.1226708E+00
        -11   -1    0    0    0    0  0.00000000000E+00  0.00000000000E+00  0.45593999997E+02  0.45594000000E+02  0.51100000000E-03 0.  1.
         11   -1    0    0    0    0 -0.00000000000E+00 -0.00000000000E+00 -0.45593999997E+02  0.45594000000E+02  0.51100000000E-03 0. -1.
    9900012    2    1    2    0    0  0.20687056731E+01  0.18390380705E+02 -0.28629285742E+01  0.72461494569E+02  0.69999901353E+02 0.  0.
        -12    1    1    2    0    0 -0.20687056731E+01 -0.18390380705E+02  0.28629285742E+01  0.18726505431E+02  0.00000000000E+00 0.  1.
         11    1    3    3    0    0  0.50971968294E+01  0.26403231177E+02  0.15783951727E+01  0.26937025888E+02  0.51100000000E-03 0. -1.
        -11    1    3    3    0    0 -0.13924646384E+02 -0.99397731694E+01  0.15262127633E+02  0.22926565546E+02  0.51100000000E-03 0.  1.
        -12    1    3    3    0    0  0.10896155228E+02  0.19269226979E+01 -0.19703451380E+02  0.22597903135E+02  0.00000000000E+00 0.  1.
</event>
<event>
 7    1  0.1830715E-013  0.7246155E+02  0.7816164E-02  0.1226708E+00
        -11   -1    0    0    0    0  0.00000000000E+00  0.00000000000E+00  0.45593999997E+02  0.45594000000E+02  0.51100000000E-03 0.  1.
         11   -1    0    0    0    0 -0.00000000000E+00 -0.00000000000E+00 -0.45593999997E+02  0.45594000000E+02  0.51100000000E-03 0. -1.
    9900012    2    1    2    0    0 -0.15529191768E+02 -0.99241915659E+01 -0.33218204529E+01  0.72461551689E+02  0.69999975764E+02 0.  0.
        -12    1    1    2    0    0  0.15529191768E+02  0.99241915659E+01  0.33218204529E+01  0.18726448311E+02  0.00000000000E+00 0.  1.
         11    1    3    3    0    0 -0.15529357654E+02  0.16474013616E+02 -0.23815808783E+02  0.32859501244E+02  0.51100000000E-03 0. -1.
        -11    1    3    3    0    0 -0.53641612443E+01 -0.25439440643E+02  0.10148906415E+02  0.27909490639E+02  0.51100000000E-03 0.  1.
         12    1    3    3    0    0  0.53643271306E+01 -0.95876453883E+00  0.10345081914E+02  0.11692559806E+02  0.00000000000E+00 0. -1.
</event>
<event>
 7    1  0.1830715E-013  0.7246157E+02  0.7816164E-02  0.1226708E+00
        -11   -1    0    0    0    0  0.00000000000E+00  0.00000000000E+00  0.45593999997E+02  0.45594000000E+02  0.51100000000E-03 0.  1.
         11   -1    0    0    0    0 -0.00000000000E+00 -0.00000000000E+00 -0.45593999997E+02  0.45594000000E+02  0.51100000000E-03 0. -1.
    9900012    2    1    2    0    0 -0.27545901289E+00 -0.45342963537E+01 -0.18167095516E+02  0.72461572669E+02  0.70000003094E+02 0.  0.
        -12    1    1    2    0    0  0.27545901289E+00  0.45342963537E+01  0.18167095516E+02  0.18726427331E+02  0.00000000000E+00 0.  1.
         11    1    3    3    0    0  0.13886470031E+02 -0.18312802154E+02  0.16593456194E+02  0.28346702831E+02  0.51100000000E-03 0. -1.
        -11    1    3    3    0    0 -0.18818610446E+01  0.83095065794E+01 -0.20693095634E+01  0.87676304047E+01  0.51100000000E-03 0.  1.
         12    1    3    3    0    0 -0.12280067999E+02  0.54689992205E+01 -0.32691242147E+02  0.35347239434E+02  0.00000000000E+00 0. -1.
</event>
<event>
 7    1  0.1830715E-013  0.7246159E+02  0.7816164E-02  0.1226708E+00
        -11   -1    0    0    0    0  0.00000000000E+00  0.00000000000E+00  0.45593999997E+02  0.45594000000E+02  0.51100000000E-03 0.  1.
         11   -1    0    0    0    0 -0.00000000000E+00 -0.00000000000E+00 -0.45593999997E+02  0.45594000000E+02  0.51100000000E-03 0. -1.
    9900012    2    1    2    0    0 -0.13247673251E+02 -0.64679577391E+01  0.11547435471E+02  0.72461585772E+02  0.70000020163E+02 0.  0.
        -12    1    1    2    0    0  0.13247673251E+02  0.64679577391E+01 -0.11547435471E+02  0.18726414228E+02  0.00000000000E+00 0.  1.
         11    1    3    3    0    0 -0.18872261741E+02 -0.57118195932E+01 -0.23628582259E+02  0.30774941854E+02  0.51100000000E-03 0. -1.
        -11    1    3    3    0    0  0.93118516797E+01 -0.86349451832E+01  0.14617539615E+02  0.19363504968E+02  0.51100000000E-03 0.  1.
        -12    1    3    3    0    0 -0.36872631900E+01  0.78788070373E+01  0.20558478115E+02  0.22323138950E+02  0.00000000000E+00 0.  1.
</event>
<event>
 7    1  0.1830715E-013  0.7246157E+02  0.7816164E-02  0.1226708E+00
        -11   -1    0    0    0    0  0.00000000000E+00  0.00000000000E+00  0.45593999997E+02  0.45594000000E+02  0.51100000000E-03 0. -1.
         11   -1    0    0    0    0 -0.00000000000E+00 -0.00000000000E+00 -0.45593999997E+02  0.45594000000E+02  0.51100000000E-03 0.  1.
    9900012    2    1    2    0    0  0.26045005109E+01  0.97083533536E+01  0.15800117365E+02  0.72461567972E+02  0.69999996975E+02 0.  0.
        -12    1    1    2    0    0 -0.26045005109E+01 -0.97083533536E+01 -0.15800117365E+02  0.18726432028E+02  0.00000000000E+00 0.  1.
         11    1    3    3    0    0 -0.78461873270E+01  0.27929852606E+02  0.24685429038E+02  0.38092121616E+02  0.51100000000E-03 0. -1.
        -11    1    3    3    0    0  0.14753071935E+02 -0.14383895421E+02  0.33206254071E+01  0.20870460760E+02  0.51100000000E-03 0.  1.
        -12    1    3    3    0    0 -0.43023840973E+01 -0.38376038317E+01 -0.12205937080E+02  0.13498985595E+02  0.00000000000E+00 0.  1.
</event>
<event>
 7    1  0.1830715E-013  0.7246154E+02  0.7816164E-02  0.1226708E+00
        -11   -1    0    0    0    0  0.00000000000E+00  0.00000000000E+00  0.45593999997E+02  0.45594000000E+02  0.51100000000E-03 0.  1.
         11   -1    0    0    0    0 -0.00000000000E+00 -0.00000000000E+00 -0.45593999997E+02  0.45594000000E+02  0.51100000000E-03 0. -1.
    9900012    2    1    2    0    0 -0.13185315205E+02 -0.66397359404E+01 -0.11521354128E+02  0.72461541943E+02  0.69999963067E+02 0.  0.
        -12    1    1    2    0    0  0.13185315205E+02  0.66397359404E+01  0.11521354128E+02  0.18726458057E+02  0.00000000000E+00 0.  1.
         11    1    3    3    0    0 -0.12909693262E+02 -0.24469429874E+02 -0.54748338621E+01  0.28202605989E+02  0.51100000000E-03 0.  1.
        -11    1    3    3    0    0 -0.51573201862E+01  0.10596638771E+02  0.16388904483E+02  0.20186205566E+02  0.51100000000E-03 0. -1.
         12    1    3    3    0    0  0.48816982437E+01  0.72330551624E+01 -0.22435424749E+02  0.24072730389E+02  0.00000000000E+00 0. -1.
</event>
<event>
 7    1  0.1830715E-013  0.7246162E+02  0.7816164E-02  0.1226708E+00
        -11   -1    0    0    0    0  0.00000000000E+00  0.00000000000E+00  0.45593999997E+02  0.45594000000E+02  0.51100000000E-03 0. -1.
         11   -1    0    0    0    0 -0.00000000000E+00 -0.00000000000E+00 -0.45593999997E+02  0.45594000000E+02  0.51100000000E-03 0.  1.
    9900012    2    1    2    0    0 -0.42615064488E+01 -0.24296903466E+01  0.18072452354E+02  0.72461618436E+02  0.70000062713E+02 0.  0.
        -12    1    1    2    0    0  0.42615064488E+01  0.24296903466E+01 -0.18072452354E+02  0.18726381564E+02  0.00000000000E+00 0.  1.
         11    1    3    3    0    0 -0.23836965893E+02 -0.59936760570E+01  0.14005621971E+02  0.28289265504E+02  0.51100000000E-03 0. -1.
        -11    1    3    3    0    0  0.21473998433E+01 -0.45353512020E+01 -0.15772233514E+02  0.16551256354E+02  0.51100000000E-03 0.  1.
         12    1    3    3    0    0  0.17428059601E+02  0.80993369123E+01  0.19839063897E+02  0.27621096578E+02  0.00000000000E+00 0. -1.
</event>
<event>
 7    1  0.1830715E-013  0.7246158E+02  0.7816164E-02  0.1226708E+00
        -11   -1    0    0    0    0  0.00000000000E+00  0.00000000000E+00  0.45593999997E+02  0.45594000000E+02  0.51100000000E-03 0.  1.
         11   -1    0    0    0    0 -0.00000000000E+00 -0.00000000000E+00 -0.45593999997E+02  0.45594000000E+02  0.51100000000E-03 0. -1.
    9900012    2    1    2    0    0 -0.13886734316E+01  0.16370489367E+02 -0.89865132930E+01  0.72461581304E+02  0.70000014342E+02 0.  0.
        -12    1    1    2    0    0  0.13886734316E+01 -0.16370489367E+02  0.89865132930E+01  0.18726418696E+02  0.00000000000E+00 0.  1.
         11    1    3    3    0    0  0.13574539250E+02 -0.10616276408E+02 -0.12406534340E+02  0.21234300912E+02  0.51100000000E-03 0. -1.
        -11    1    3    3    0    0  0.42088479378E+01  0.14270025393E+02  0.18484234717E+02  0.23727936257E+02  0.51100000000E-03 0.  1.
        -12    1    3    3    0    0 -0.19172060619E+02  0.12716740382E+02 -0.15064213670E+02  0.27499344135E+02  0.00000000000E+00 0.  1.
</event>
<event>
 7    1  0.1830715E-013  0.7246166E+02  0.7816164E-02  0.1226708E+00
        -11   -1    0    0    0    0  0.00000000000E+00  0.00000000000E+00  0.45593999997E+02  0.45594000000E+02  0.51100000000E-03 0. -1.
         11   -1    0    0    0    0 -0.00000000000E+00 -0.00000000000E+00 -0.45593999997E+02  0.45594000000E+02  0.51100000000E-03 0.  1.
    9900012    2    1    2    0    0 -0.16478714148E+02  0.88928438270E+01  0.21275421387E+00  0.72461656105E+02  0.70000111785E+02 0.  0.
        -12    1    1    2    0    0  0.16478714148E+02 -0.88928438270E+01 -0.21275421387E+00  0.18726343895E+02  0.00000000000E+00 0.  1.
         11    1    3    3    0    0 -0.53957167605E+01 -0.68210474919E+00  0.37713809660E+01  0.66183336951E+01  0.51100000000E-03 0. -1.
        -11    1    3    3    0    0 -0.69214962866E+01  0.34719951968E+02  0.10248503099E+02  0.36856668210E+02  0.51100000000E-03 0.  1.
        -12    1    3    3    0    0 -0.41615011009E+01 -0.25145003392E+02 -0.13807129852E+02  0.28986654200E+02  0.00000000000E+00 0.  1.
</event>
<event>
 7    1  0.1830715E-013  0.7246150E+02  0.7816164E-02  0.1226708E+00
        -11   -1    0    0    0    0  0.00000000000E+00  0.00000000000E+00  0.45593999997E+02  0.45594000000E+02  0.51100000000E-03 0.  1.
         11   -1    0    0    0    0 -0.00000000000E+00 -0.00000000000E+00 -0.45593999997E+02  0.45594000000E+02  0.51100000000E-03 0. -1.
    9900012    2    1    2    0    0 -0.17461804487E+01  0.18508539327E+02 -0.22509301840E+01  0.72461498435E+02  0.69999906390E+02 0.  0.
        -12    1    1    2    0    0  0.17461804487E+01 -0.18508539327E+02  0.22509301840E+01  0.18726501565E+02  0.00000000000E+00 0.  1.
         11    1    3    3    0    0 -0.19130882340E+02  0.89112191026E+01 -0.15020171717E+02  0.25903784351E+02  0.51100000000E-03 0. -1.
        -11    1    3    3    0    0  0.69253858809E+01 -0.12715216069E+02  0.16143660719E+02  0.21685374586E+02  0.51100000000E-03 0.  1.
        -12    1    3    3    0    0  0.10459316011E+02  0.22312536293E+02 -0.33744191856E+01  0.24872339498E+02  0.00000000000E+00 0.  1.
</event>
<event>
 7    1  0.1830715E-013  0.7246158E+02  0.7816164E-02  0.1226708E+00
        -11   -1    0    0    0    0  0.00000000000E+00  0.00000000000E+00  0.45593999997E+02  0.45594000000E+02  0.51100000000E-03 0.  1.
         11   -1    0    0    0    0 -0.00000000000E+00 -0.00000000000E+00 -0.45593999997E+02  0.45594000000E+02  0.51100000000E-03 0. -1.
    9900012    2    1    2    0    0 -0.11258442697E+02  0.18314645432E+01 -0.14851667882E+02  0.72461579274E+02  0.70000011698E+02 0.  0.
        -12    1    1    2    0    0  0.11258442697E+02 -0.18314645432E+01  0.14851667882E+02  0.18726420726E+02  0.00000000000E+00 0.  1.
         11    1    3    3    0    0 -0.82456159651E+01  0.11603742375E+02  0.19376377033E+01  0.14366330773E+02  0.51100000000E-03 0. -1.
        -11    1    3    3    0    0  0.23417051302E+01 -0.24561965588E+02  0.10326884166E+02  0.26747304038E+02  0.51100000000E-03 0.  1.
        -12    1    3    3    0    0 -0.53545318624E+01  0.14789687757E+02 -0.27116189751E+02  0.31347944463E+02  0.00000000000E+00 0.  1.
</event>
<event>
 7    1  0.1830715E-013  0.7246163E+02  0.7816164E-02  0.1226708E+00
        -11   -1    0    0    0    0  0.00000000000E+00  0.00000000000E+00  0.45593999997E+02  0.45594000000E+02  0.51100000000E-03 0.  1.
         11   -1    0    0    0    0 -0.00000000000E+00 -0.00000000000E+00 -0.45593999997E+02  0.45594000000E+02  0.51100000000E-03 0. -1.
    9900012    2    1    2    0    0 -0.13000385312E+02  0.86921867960E+01  0.10301111906E+02  0.72461627258E+02  0.70000074206E+02 0.  0.
        -12    1    1    2    0    0  0.13000385312E+02 -0.86921867960E+01 -0.10301111906E+02  0.18726372742E+02  0.00000000000E+00 0.  1.
         11    1    3    3    0    0 -0.21229054207E+02  0.62016182833E+01 -0.18127693623E+02  0.28596260039E+02  0.51100000000E-03 0. -1.
        -11    1    3    3    0    0 -0.34624076185E+01  0.90615571395E+01  0.28860621940E+02  0.30447259044E+02  0.51100000000E-03 0.  1.
         12    1    3    3    0    0  0.11691076513E+02 -0.65709886268E+01 -0.43181641077E+00  0.13418108175E+02  0.00000000000E+00 0. -1.
</event>
<event>
 7    1  0.1830715E-013  0.7246152E+02  0.7816164E-02  0.1226708E+00
        -11   -1    0    0    0    0  0.00000000000E+00  0.00000000000E+00  0.45593999997E+02  0.45594000000E+02  0.51100000000E-03 0. -1.
         11   -1    0    0    0    0 -0.00000000000E+00 -0.00000000000E+00 -0.45593999997E+02  0.45594000000E+02  0.51100000000E-03 0.  1.
    9900012    2    1    2    0    0 -0.68901611308E+01  0.11545100199E+02  0.13035240183E+02  0.72461517531E+02  0.69999931266E+02 0.  0.
        -12    1    1    2    0    0  0.68901611308E+01 -0.11545100199E+02 -0.13035240183E+02  0.18726482469E+02  0.00000000000E+00 0.  1.
         11    1    3    3    0    0 -0.75896871695E+01 -0.26159725493E+02  0.99297486352E+01  0.28991972982E+02  0.51100000000E-03 0. -1.
        -11    1    3    3    0    0  0.41822476540E+01  0.27850170920E+02 -0.69054791882E+01  0.28996704275E+02  0.51100000000E-03 0.  1.
        -12    1    3    3    0    0 -0.34827216154E+01  0.98546547719E+01  0.10010970736E+02  0.14472840274E+02  0.00000000000E+00 0.  1.
</event>
<event>
 8    1  0.1830715E-013  0.7246154E+02  0.7816164E-02  0.1226708E+00
        -11   -1    0    0    0    0  0.00000000000E+00  0.00000000000E+00  0.45593999997E+02  0.45594000000E+02  0.51100000000E-03 0. -1.
         11   -1    0    0    0    0 -0.00000000000E+00 -0.00000000000E+00 -0.45593999997E+02  0.45594000000E+02  0.51100000000E-03 0.  1.
    9900012    2    1    2    0    0 -0.10920448360E+02 -0.21808529330E+01  0.15055492384E+02  0.72461543773E+02  0.69999965451E+02 0.  0.
        -24    2    3    3    0    0 -0.25769837343E+02 -0.18323019012E+00  0.10328188419E+02  0.56750329534E+02  0.49495558753E+02 0.  0.
        -12    1    1    2    0    0  0.10920448360E+02  0.21808529330E+01 -0.15055492384E+02  0.18726456227E+02  0.00000000000E+00 0.  1.
         11    1    4    4    0    0 -0.28937547254E+02 -0.13594999748E+02  0.21901782362E+02  0.38754273702E+02  0.51100000000E-03 0.  1.
        -11    1    3    3    0    0  0.14849388984E+02 -0.19976227429E+01  0.47273039654E+01  0.15711214239E+02  0.51100000000E-03 0. -1.
        -12    1    4    4    0    0  0.31677099109E+01  0.13411769558E+02 -0.11573593944E+02  0.17996055833E+02  0.00000000000E+00 0.  1.
</event>
<event>
 7    1  0.1830715E-013  0.7246152E+02  0.7816164E-02  0.1226708E+00
        -11   -1    0    0    0    0  0.00000000000E+00  0.00000000000E+00  0.45593999997E+02  0.45594000000E+02  0.51100000000E-03 0. -1.
         11   -1    0    0    0    0 -0.00000000000E+00 -0.00000000000E+00 -0.45593999997E+02  0.45594000000E+02  0.51100000000E-03 0.  1.
    9900012    2    1    2    0    0  0.12986801168E+02  0.13491524573E+02  0.52035076059E-01  0.72461522821E+02  0.69999938157E+02 0.  0.
        -12    1    1    2    0    0 -0.12986801168E+02 -0.13491524573E+02 -0.52035076059E-01  0.18726477179E+02  0.00000000000E+00 0.  1.
         11    1    3    3    0    0  0.15447752686E+02  0.11258148021E+02  0.33309517962E+02  0.38404465197E+02  0.51100000000E-03 0. -1.
        -11    1    3    3    0    0  0.13816360124E+00 -0.15325559677E+01 -0.19457299748E+02  0.19518051407E+02  0.51100000000E-03 0.  1.
        -12    1    3    3    0    0 -0.25991151190E+01  0.37659325195E+01 -0.13800183138E+02  0.14539006218E+02  0.00000000000E+00 0.  1.
</event>
<event>
 7    1  0.1830715E-013  0.7246153E+02  0.7816164E-02  0.1226708E+00
        -11   -1    0    0    0    0  0.00000000000E+00  0.00000000000E+00  0.45593999997E+02  0.45594000000E+02  0.51100000000E-03 0.  1.
         11   -1    0    0    0    0 -0.00000000000E+00 -0.00000000000E+00 -0.45593999997E+02  0.45594000000E+02  0.51100000000E-03 0. -1.
    9900012    2    1    2    0    0  0.12402115444E+02  0.78830935583E+01 -0.11607118397E+02  0.72461525986E+02  0.69999942280E+02 0.  0.
        -12    1    1    2    0    0 -0.12402115444E+02 -0.78830935583E+01  0.11607118397E+02  0.18726474014E+02  0.00000000000E+00 0.  1.
         11    1    3    3    0    0 -0.25554345721E+02 -0.10964255342E+01 -0.18165547727E+02  0.31372182881E+02  0.51100000000E-03 0. -1.
        -11    1    3    3    0    0  0.25097554691E+02  0.63035629581E+01  0.96121542955E+01  0.27604631276E+02  0.51100000000E-03 0.  1.
         12    1    3    3    0    0  0.12858906474E+02  0.26759561343E+01 -0.30537249652E+01  0.13484711829E+02  0.00000000000E+00 0. -1.
</event>
<event>
 7    1  0.1830715E-013  0.7246152E+02  0.7816164E-02  0.1226708E+00
        -11   -1    0    0    0    0  0.00000000000E+00  0.00000000000E+00  0.45593999997E+02  0.45594000000E+02  0.51100000000E-03 0.  1.
         11   -1    0    0    0    0 -0.00000000000E+00 -0.00000000000E+00 -0.45593999997E+02  0.45594000000E+02  0.51100000000E-03 0. -1.
    9900012    2    1    2    0    0  0.19659563013E+01  0.16550978662E+02 -0.85370412912E+01  0.72461522679E+02  0.69999937973E+02 0.  0.
        -12    1    1    2    0    0 -0.19659563013E+01 -0.16550978662E+02  0.85370412912E+01  0.18726477321E+02  0.00000000000E+00 0.  1.
         11    1    3    3    0    0 -0.45578519751E+01  0.20006295812E+02 -0.27700850337E+01  0.20705053927E+02  0.51100000000E-03 0. -1.
        -11    1    3    3    0    0  0.20035398412E+02 -0.29357532581E+01 -0.22482129715E+02  0.30256932982E+02  0.51100000000E-03 0.  1.
        -12    1    3    3    0    0 -0.13511590136E+02 -0.51956389239E+00  0.16715173457E+02  0.21499535770E+02  0.00000000000E+00 0.  1.
</event>
<event>
 7    1  0.1830715E-013  0.7246156E+02  0.7816164E-02  0.1226708E+00
        -11   -1    0    0    0    0  0.00000000000E+00  0.00000000000E+00  0.45593999997E+02  0.45594000000E+02  0.51100000000E-03 0.  1.
         11   -1    0    0    0    0 -0.00000000000E+00 -0.00000000000E+00 -0.45593999997E+02  0.45594000000E+02  0.51100000000E-03 0. -1.
    9900012    2    1    2    0    0 -0.10000709844E+02 -0.10838309045E+02 -0.11541077379E+02  0.72461558603E+02  0.69999984769E+02 0.  0.
        -12    1    1    2    0    0  0.10000709844E+02  0.10838309045E+02  0.11541077379E+02  0.18726441397E+02  0.00000000000E+00 0.  1.
         11    1    3    3    0    0  0.72396117042E+01 -0.42264115234E+01 -0.55820744376E+01  0.10071449115E+02  0.51100000000E-03 0. -1.
        -11    1    3    3    0    0 -0.27168363506E+02  0.19945991005E+02 -0.44567730073E+01  0.33997431648E+02  0.51100000000E-03 0.  1.
        -12    1    3    3    0    0  0.99280419572E+01 -0.26557888527E+02 -0.15022299340E+01  0.28392677839E+02  0.00000000000E+00 0.  1.
</event>
<event>
 7    1  0.1830715E-013  0.7246154E+02  0.7816164E-02  0.1226708E+00
        -11   -1    0    0    0    0  0.00000000000E+00  0.00000000000E+00  0.45593999997E+02  0.45594000000E+02  0.51100000000E-03 0.  1.
         11   -1    0    0    0    0 -0.00000000000E+00 -0.00000000000E+00 -0.45593999997E+02  0.45594000000E+02  0.51100000000E-03 0. -1.
    9900012    2    1    2    0    0 -0.14028434102E+02 -0.25756097021E+01  0.12134647957E+02  0.72461537180E+02  0.69999956863E+02 0.  0.
        -12    1    1    2    0    0  0.14028434102E+02  0.25756097021E+01 -0.12134647957E+02  0.18726462820E+02  0.00000000000E+00 0.  1.
         11    1    3    3    0    0 -0.13988931425E+02  0.31296993207E+02  0.48373464071E+01  0.34620686110E+02  0.51100000000E-03 0. -1.
        -11    1    3    3    0    0  0.67310466408E+00 -0.50616223783E+01  0.74364210642E+01  0.90207233354E+01  0.51100000000E-03 0.  1.
         12    1    3    3    0    0 -0.71260734143E+00 -0.28810980531E+02 -0.13911951460E+00  0.28820127735E+02  0.00000000000E+00 0. -1.
</event>
<event>
 7    1  0.1830715E-013  0.7246156E+02  0.7816164E-02  0.1226708E+00
        -11   -1    0    0    0    0  0.00000000000E+00  0.00000000000E+00  0.45593999997E+02  0.45594000000E+02  0.51100000000E-03 0.  1.
         11   -1    0    0    0    0 -0.00000000000E+00 -0.00000000000E+00 -0.45593999997E+02  0.45594000000E+02  0.51100000000E-03 0. -1.
    9900012    2    1    2    0    0 -0.18135741798E+02  0.45171066960E+01  0.11705112610E+01  0.72461562002E+02  0.69999989198E+02 0.  0.
        -12    1    1    2    0    0  0.18135741798E+02 -0.45171066960E+01 -0.11705112610E+01  0.18726437998E+02  0.00000000000E+00 0.  1.
         11    1    3    3    0    0 -0.56130047821E+01 -0.16893211706E+02 -0.17069512858E+02  0.24662820072E+02  0.51100000000E-03 0. -1.
        -11    1    3    3    0    0 -0.18366485387E+02  0.12707912141E+02  0.26352509659E+02  0.34543792236E+02  0.51100000000E-03 0.  1.
         12    1    3    3    0    0  0.58437483710E+01  0.87024062612E+01 -0.81124855403E+01  0.13254949694E+02  0.00000000000E+00 0. -1.
</event>
<event>
 7    1  0.1830715E-013  0.7246156E+02  0.7816164E-02  0.1226708E+00
        -11   -1    0    0    0    0  0.00000000000E+00  0.00000000000E+00  0.45593999997E+02  0.45594000000E+02  0.51100000000E-03 0.  1.
         11   -1    0    0    0    0 -0.00000000000E+00 -0.00000000000E+00 -0.45593999997E+02  0.45594000000E+02  0.51100000000E-03 0. -1.
    9900012    2    1    2    0    0  0.42376441716E+01  0.16866188594E+02 -0.69464867087E+01  0.72461558175E+02  0.69999984213E+02 0.  0.
        -12    1    1    2    0    0 -0.42376441716E+01 -0.16866188594E+02  0.69464867087E+01  0.18726441825E+02  0.00000000000E+00 0.  1.
         11    1    3    3    0    0 -0.19317025613E+02 -0.13934490120E+01 -0.27533456259E+02  0.33662744875E+02  0.51100000000E-03 0. -1.
        -11    1    3    3    0    0  0.88721063891E+01  0.27942507278E+00  0.97340077059E+01  0.13173581762E+02  0.51100000000E-03 0.  1.
         12    1    3    3    0    0  0.14682563396E+02  0.17980212534E+02  0.10852961844E+02  0.25625231539E+02  0.00000000000E+00 0. -1.
</event>
<event>
 7    1  0.1830715E-013  0.7246159E+02  0.7816164E-02  0.1226708E+00
        -11   -1    0    0    0    0  0.00000000000E+00  0.00000000000E+00  0.45593999997E+02  0.45594000000E+02  0.51100000000E-03 0.  1.
         11   -1    0    0    0    0 -0.00000000000E+00 -0.00000000000E+00 -0.45593999997E+02  0.45594000000E+02  0.51100000000E-03 0. -1.
    9900012    2    1    2    0    0 -0.72176793978E+01  0.95658530875E+01 -0.14390204333E+02  0.72461590255E+02  0.70000026003E+02 0.  0.
        -12    1    1    2    0    0  0.72176793978E+01 -0.95658530875E+01  0.14390204333E+02  0.18726409745E+02  0.00000000000E+00 0.  1.
         11    1    3    3    0    0  0.87044367123E+01 -0.14641328603E+02  0.69700291818E+00  0.17047625497E+02  0.51100000000E-03 0. -1.
        -11    1    3    3    0    0 -0.13720275031E+02  0.15320272089E+02 -0.30913888979E+02  0.37129842659E+02  0.51100000000E-03 0.  1.
        -12    1    3    3    0    0 -0.22018410792E+01  0.88869096017E+01  0.15826681729E+02  0.18284122099E+02  0.00000000000E+00 0.  1.
</event>
<event>
 7    1  0.1830715E-013  0.7246165E+02  0.7816164E-02  0.1226708E+00
        -11   -1    0    0    0    0  0.00000000000E+00  0.00000000000E+00  0.45593999997E+02  0.45594000000E+02  0.51100000000E-03 0.  1.
         11   -1    0    0    0    0 -0.00000000000E+00 -0.00000000000E+00 -0.45593999997E+02  0.45594000000E+02  0.51100000000E-03 0. -1.
    9900012    2    1    2    0    0 -0.97414911108E+00  0.14821439700E+02 -0.11404036375E+02  0.72461652601E+02  0.70000107219E+02 0.  0.
        -12    1    1    2    0    0  0.97414911108E+00 -0.14821439700E+02  0.11404036375E+02  0.18726347399E+02  0.00000000000E+00 0.  1.
         11    1    3    3    0    0  0.15952876459E+02  0.35763225995E+01 -0.24947227670E+02  0.29826976369E+02  0.51100000000E-03 0. -1.
        -11    1    3    3    0    0 -0.24079414317E+02  0.16257376005E+02  0.34039693149E+01  0.29252478114E+02  0.51100000000E-03 0.  1.
        -12    1    3    3    0    0  0.71523887474E+01 -0.50122589042E+01  0.10139221980E+02  0.13382198118E+02  0.00000000000E+00 0.  1.
</event>
<event>
 7    1  0.1830715E-013  0.7246151E+02  0.7816164E-02  0.1226708E+00
        -11   -1    0    0    0    0  0.00000000000E+00  0.00000000000E+00  0.45593999997E+02  0.45594000000E+02  0.51100000000E-03 0. -1.
         11   -1    0    0    0    0 -0.00000000000E+00 -0.00000000000E+00 -0.45593999997E+02  0.45594000000E+02  0.51100000000E-03 0.  1.
    9900012    2    1    2    0    0 -0.18185378865E+02 -0.33504402634E+01  0.29577174671E+01  0.72461506814E+02  0.69999917305E+02 0.  0.
        -12    1    1    2    0    0  0.18185378865E+02  0.33504402634E+01 -0.29577174671E+01  0.18726493186E+02  0.00000000000E+00 0.  1.
         11    1    3    3    0    0  0.18817660987E+02 -0.99519712910E+01 -0.12064568187E+01  0.21321389165E+02  0.51100000000E-03 0. -1.
        -11    1    3    3    0    0 -0.34819429483E+02  0.79518015891E+01  0.15922806335E+02  0.39104470076E+02  0.51100000000E-03 0.  1.
         12    1    3    3    0    0 -0.21836103689E+01 -0.13502705615E+01 -0.11758632049E+02  0.12035647573E+02  0.00000000000E+00 0. -1.
</event>
<event>
 7    1  0.1830715E-013  0.7246164E+02  0.7816164E-02  0.1226708E+00
        -11   -1    0    0    0    0  0.00000000000E+00  0.00000000000E+00  0.45593999997E+02  0.45594000000E+02  0.51100000000E-03 0.  1.
         11   -1    0    0    0    0 -0.00000000000E+00 -0.00000000000E+00 -0.45593999997E+02  0.45594000000E+02  0.51100000000E-03 0. -1.
    9900012    2    1    2    0    0  0.18485602627E+02 -0.29569968976E+01  0.46377514481E+00  0.72461643640E+02  0.70000095546E+02 0.  0.
        -12    1    1    2    0    0 -0.18485602627E+02  0.29569968976E+01 -0.46377514481E+00  0.18726356360E+02  0.00000000000E+00 0.  1.
         11    1    3    3    0    0  0.10813140009E+02 -0.17564853954E+02 -0.79697042121E+01  0.22112536642E+02  0.51100000000E-03 0. -1.
        -11    1    3    3    0    0 -0.16994375373E+02  0.12960910398E+01  0.13652795818E+02  0.21837753552E+02  0.51100000000E-03 0.  1.
        -12    1    3    3    0    0  0.24666837991E+02  0.13311766017E+02 -0.52193164613E+01  0.28511353445E+02  0.00000000000E+00 0.  1.
</event>
<event>
 7    1  0.1830715E-013  0.7246155E+02  0.7816164E-02  0.1226708E+00
        -11   -1    0    0    0    0  0.00000000000E+00  0.00000000000E+00  0.45593999997E+02  0.45594000000E+02  0.51100000000E-03 0.  1.
         11   -1    0    0    0    0 -0.00000000000E+00 -0.00000000000E+00 -0.45593999997E+02  0.45594000000E+02  0.51100000000E-03 0. -1.
    9900012    2    1    2    0    0 -0.11534722380E+01  0.12147182107E+02 -0.14205476685E+02  0.72461545472E+02  0.69999967664E+02 0.  0.
        -12    1    1    2    0    0  0.11534722380E+01 -0.12147182107E+02  0.14205476685E+02  0.18726454528E+02  0.00000000000E+00 0.  1.
         11    1    3    3    0    0  0.19877037720E+02  0.40265262068E+01 -0.91082613300E+01  0.22232183126E+02  0.51100000000E-03 0. -1.
        -11    1    3    3    0    0 -0.19882354762E+02  0.25382150497E+02 -0.64348376819E+01  0.32878088919E+02  0.51100000000E-03 0.  1.
        -12    1    3    3    0    0 -0.11481551962E+01 -0.17261494596E+02  0.13376223273E+01  0.17351273427E+02  0.00000000000E+00 0.  1.
</event>
<event>
 7    1  0.1830715E-013  0.7246158E+02  0.7816164E-02  0.1226708E+00
        -11   -1    0    0    0    0  0.00000000000E+00  0.00000000000E+00  0.45593999997E+02  0.45594000000E+02  0.51100000000E-03 0.  1.
         11   -1    0    0    0    0 -0.00000000000E+00 -0.00000000000E+00 -0.45593999997E+02  0.45594000000E+02  0.51100000000E-03 0. -1.
    9900012    2    1    2    0    0 -0.98366534202E+01  0.12344456226E+01 -0.15886951823E+02  0.72461578966E+02  0.70000011297E+02 0.  0.
        -12    1    1    2    0    0  0.98366534202E+01 -0.12344456226E+01  0.15886951823E+02  0.18726421034E+02  0.00000000000E+00 0.  1.
         11    1    3    3    0    0  0.16674243197E+02 -0.47948341539E+01  0.12073196155E+01  0.17391907361E+02  0.51100000000E-03 0.  1.
        -11    1    3    3    0    0 -0.87764512769E+01  0.24770877507E+02 -0.11403903072E+02  0.28647364190E+02  0.51100000000E-03 0. -1.
        -12    1    3    3    0    0 -0.17734445340E+02 -0.18741597730E+02 -0.56903683667E+01  0.26422307415E+02  0.00000000000E+00 0.  1.
</event>
<event>
 7    1  0.1830715E-013  0.7246160E+02  0.7816164E-02  0.1226708E+00
        -11   -1    0    0    0    0  0.00000000000E+00  0.00000000000E+00  0.45593999997E+02  0.45594000000E+02  0.51100000000E-03 0. -1.
         11   -1    0    0    0    0 -0.00000000000E+00 -0.00000000000E+00 -0.45593999997E+02  0.45594000000E+02  0.51100000000E-03 0.  1.
    9900012    2    1    2    0    0  0.18216809704E+02  0.18576654231E+01  0.39210811148E+01  0.72461602757E+02  0.70000042288E+02 0.  0.
        -12    1    1    2    0    0 -0.18216809704E+02 -0.18576654231E+01 -0.39210811148E+01  0.18726397243E+02  0.00000000000E+00 0.  1.
         11    1    3    3    0    0  0.15143718513E+02  0.28938063055E+01  0.24251254013E+02  0.28737251901E+02  0.51100000000E-03 0. -1.
        -11    1    3    3    0    0  0.10771987230E+02  0.71662884545E+01 -0.27494968835E+02  0.30386916767E+02  0.51100000000E-03 0.  1.
        -12    1    3    3    0    0 -0.76988960392E+01 -0.82024293369E+01  0.71647959369E+01  0.13337434089E+02  0.00000000000E+00 0.  1.
</event>
<event>
 7    1  0.1830715E-013  0.7246162E+02  0.7816164E-02  0.1226708E+00
        -11   -1    0    0    0    0  0.00000000000E+00  0.00000000000E+00  0.45593999997E+02  0.45594000000E+02  0.51100000000E-03 0. -1.
         11   -1    0    0    0    0 -0.00000000000E+00 -0.00000000000E+00 -0.45593999997E+02  0.45594000000E+02  0.51100000000E-03 0.  1.
    9900012    2    1    2    0    0 -0.12134720700E+02  0.13558721858E+02 -0.44257192651E+01  0.72461618184E+02  0.70000062386E+02 0.  0.
        -12    1    1    2    0    0  0.12134720700E+02 -0.13558721858E+02  0.44257192651E+01  0.18726381816E+02  0.00000000000E+00 0.  1.
         11    1    3    3    0    0 -0.20543917638E+02  0.13880083713E+02  0.15038477157E+01  0.24838897600E+02  0.51100000000E-03 0. -1.
        -11    1    3    3    0    0  0.10098573402E+02  0.86044579500E+00 -0.25761709699E+02  0.27683699872E+02  0.51100000000E-03 0.  1.
         12    1    3    3    0    0 -0.16893764634E+01 -0.11818076496E+01  0.19832142718E+02  0.19939020712E+02  0.00000000000E+00 0. -1.
</event>
<event>
 7    1  0.1830715E-013  0.7246154E+02  0.7816164E-02  0.1226708E+00
        -11   -1    0    0    0    0  0.00000000000E+00  0.00000000000E+00  0.45593999997E+02  0.45594000000E+02  0.51100000000E-03 0.  1.
         11   -1    0    0    0    0 -0.00000000000E+00 -0.00000000000E+00 -0.45593999997E+02  0.45594000000E+02  0.51100000000E-03 0. -1.
    9900012    2    1    2    0    0  0.74729285996E+01 -0.40630741849E+01 -0.16683136610E+02  0.72461540622E+02  0.69999961346E+02 0.  0.
        -12    1    1    2    0    0 -0.74729285996E+01  0.40630741849E+01  0.16683136610E+02  0.18726459378E+02  0.00000000000E+00 0.  1.
         11    1    3    3    0    0  0.33560082460E+01 -0.37309382097E+01 -0.15899231380E+02  0.16672379854E+02  0.51100000000E-03 0. -1.
        -11    1    3    3    0    0 -0.11525329193E+02  0.12743448094E+02  0.20208717818E+02  0.26525854528E+02  0.51100000000E-03 0.  1.
        -12    1    3    3    0    0  0.15642249547E+02 -0.13075584069E+02 -0.20992623048E+02  0.29263306240E+02  0.00000000000E+00 0.  1.
</event>
<event>
 7    1  0.1830715E-013  0.7246158E+02  0.7816164E-02  0.1226708E+00
        -11   -1    0    0    0    0  0.00000000000E+00  0.00000000000E+00  0.45593999997E+02  0.45594000000E+02  0.51100000000E-03 0. -1.
         11   -1    0    0    0    0 -0.00000000000E+00 -0.00000000000E+00 -0.45593999997E+02  0.45594000000E+02  0.51100000000E-03 0.  1.
    9900012    2    1    2    0    0 -0.11445779437E+02 -0.80596651919E+01  0.12438432868E+02  0.72461583307E+02  0.70000016952E+02 0.  0.
        -12    1    1    2    0    0  0.11445779437E+02  0.80596651919E+01 -0.12438432868E+02  0.18726416693E+02  0.00000000000E+00 0.  1.
         11    1    3    3    0    0  0.18468056587E+02  0.32533498730E+01  0.21466206303E+02  0.28503533339E+02  0.51100000000E-03 0. -1.
        -11    1    3    3    0    0 -0.11473619529E+02  0.60782118179E+01 -0.12915771178E+02  0.18314086092E+02  0.51100000000E-03 0.  1.
         12    1    3    3    0    0 -0.18440216495E+02 -0.17391226883E+02  0.38879977431E+01  0.25643963877E+02  0.00000000000E+00 0. -1.
</event>
<event>
 7    1  0.1830715E-013  0.7246157E+02  0.7816164E-02  0.1226708E+00
        -11   -1    0    0    0    0  0.00000000000E+00  0.00000000000E+00  0.45593999997E+02  0.45594000000E+02  0.51100000000E-03 0. -1.
         11   -1    0    0    0    0 -0.00000000000E+00 -0.00000000000E+00 -0.45593999997E+02  0.45594000000E+02  0.51100000000E-03 0.  1.
    9900012    2    1    2    0    0 -0.15984599016E+02 -0.67800072443E+01  0.70145007902E+01  0.72461571476E+02  0.70000001540E+02 0.  0.
        -12    1    1    2    0    0  0.15984599016E+02  0.67800072443E+01 -0.70145007902E+01  0.18726428524E+02  0.00000000000E+00 0.  1.
         11    1    3    3    0    0 -0.19773931553E+02 -0.33042652913E+02  0.18930061548E+02  0.42908886155E+02  0.51100000000E-03 0. -1.
        -11    1    3    3    0    0  0.29628148046E+01  0.22609087056E+02 -0.80805749417E+01  0.24191832935E+02  0.51100000000E-03 0.  1.
         12    1    3    3    0    0  0.82651773312E+00  0.36535586129E+01 -0.38349858156E+01  0.53608523862E+01  0.00000000000E+00 0. -1.
</event>
<event>
 7    1  0.1830715E-013  0.7246142E+02  0.7816164E-02  0.1226708E+00
        -11   -1    0    0    0    0  0.00000000000E+00  0.00000000000E+00  0.45593999997E+02  0.45594000000E+02  0.51100000000E-03 0.  1.
         11   -1    0    0    0    0 -0.00000000000E+00 -0.00000000000E+00 -0.45593999997E+02  0.45594000000E+02  0.51100000000E-03 0. -1.
    9900012    2    1    2    0    0 -0.11593386216E+02 -0.13109477746E+02  0.66648241999E+01  0.72461417494E+02  0.69999800949E+02 0.  0.
        -12    1    1    2    0    0  0.11593386216E+02  0.13109477746E+02 -0.66648241999E+01  0.18726582506E+02  0.00000000000E+00 0.  1.
         11    1    3    3    0    0  0.87296818682E+01  0.11787113924E+02 -0.14194223467E+02  0.20411256215E+02  0.51100000000E-03 0. -1.
        -11    1    3    3    0    0 -0.21632572639E+02  0.10524317871E+01  0.83279864505E+01  0.23204119682E+02  0.51100000000E-03 0.  1.
         12    1    3    3    0    0  0.13095045546E+01 -0.25949023457E+02  0.12531061217E+02  0.28846041596E+02  0.00000000000E+00 0. -1.
</event>
<event>
 7    1  0.1830715E-013  0.7246161E+02  0.7816164E-02  0.1226708E+00
        -11   -1    0    0    0    0  0.00000000000E+00  0.00000000000E+00  0.45593999997E+02  0.45594000000E+02  0.51100000000E-03 0.  1.
         11   -1    0    0    0    0 -0.00000000000E+00 -0.00000000000E+00 -0.45593999997E+02  0.45594000000E+02  0.51100000000E-03 0. -1.
    9900012    2    1    2    0    0 -0.71609690117E+01  0.11896142759E+02 -0.12565025762E+02  0.72461613212E+02  0.70000055909E+02 0.  0.
        -12    1    1    2    0    0  0.71609690117E+01 -0.11896142759E+02  0.12565025762E+02  0.18726386788E+02  0.00000000000E+00 0.  1.
         11    1    3    3    0    0 -0.14730651193E+02  0.91566500101E+01  0.14144130167E+02  0.22380633199E+02  0.51100000000E-03 0. -1.
        -11    1    3    3    0    0  0.24657279467E+02 -0.62522358346E+00 -0.18472851071E+02  0.30815881655E+02  0.51100000000E-03 0.  1.
         12    1    3    3    0    0 -0.17087597286E+02  0.33647163321E+01 -0.82363048581E+01  0.19265098357E+02  0.00000000000E+00 0. -1.
</event>
<event>
 7    1  0.1830715E-013  0.7246142E+02  0.7816164E-02  0.1226708E+00
        -11   -1    0    0    0    0  0.00000000000E+00  0.00000000000E+00  0.45593999997E+02  0.45594000000E+02  0.51100000000E-03 0.  1.
         11   -1    0    0    0    0 -0.00000000000E+00 -0.00000000000E+00 -0.45593999997E+02  0.45594000000E+02  0.51100000000E-03 0. -1.
    9900012    2    1    2    0    0 -0.88123865598E+01  0.48070777298E+01 -0.15808812817E+02  0.72461422206E+02  0.69999807087E+02 0.  0.
        -12    1    1    2    0    0  0.88123865598E+01 -0.48070777298E+01  0.15808812817E+02  0.18726577794E+02  0.00000000000E+00 0.  1.
         11    1    3    3    0    0  0.71687709798E+00  0.20861058318E+02 -0.23817613902E+02  0.31669802639E+02  0.51100000000E-03 0. -1.
        -11    1    3    3    0    0  0.56707044317E+01 -0.22172258697E+02  0.84619833089E+01  0.24400227586E+02  0.51100000000E-03 0.  1.
        -12    1    3    3    0    0 -0.15199968089E+02  0.61182781093E+01 -0.45318222380E+00  0.16391391981E+02  0.00000000000E+00 0.  1.
</event>
<event>
 7    1  0.1830715E-013  0.7246161E+02  0.7816164E-02  0.1226708E+00
        -11   -1    0    0    0    0  0.00000000000E+00  0.00000000000E+00  0.45593999997E+02  0.45594000000E+02  0.51100000000E-03 0.  1.
         11   -1    0    0    0    0 -0.00000000000E+00 -0.00000000000E+00 -0.45593999997E+02  0.45594000000E+02  0.51100000000E-03 0. -1.
    9900012    2    1    2    0    0 -0.28775710090E+01  0.99170232841E+01 -0.15622100955E+02  0.72461606755E+02  0.70000047496E+02 0.  0.
        -12    1    1    2    0    0  0.28775710090E+01 -0.99170232841E+01  0.15622100955E+02  0.18726393245E+02  0.00000000000E+00 0.  1.
         11    1    3    3    0    0  0.11944459725E+02  0.31543091983E+01 -0.34675771563E+01  0.12831362992E+02  0.51100000000E-03 0. -1.
        -11    1    3    3    0    0 -0.27022707603E+02  0.17865876988E+02  0.82134678345E+01  0.33419714854E+02  0.51100000000E-03 0.  1.
        -12    1    3    3    0    0  0.12200676870E+02 -0.11103162902E+02 -0.20367991633E+02  0.26210528909E+02  0.00000000000E+00 0.  1.
</event>
<event>
 7    1  0.1830715E-013  0.7246160E+02  0.7816164E-02  0.1226708E+00
        -11   -1    0    0    0    0  0.00000000000E+00  0.00000000000E+00  0.45593999997E+02  0.45594000000E+02  0.51100000000E-03 0.  1.
         11   -1    0    0    0    0 -0.00000000000E+00 -0.00000000000E+00 -0.45593999997E+02  0.45594000000E+02  0.51100000000E-03 0. -1.
    9900012    2    1    2    0    0 -0.52430677063E+01  0.16601378163E+02 -0.68980156720E+01  0.72461597887E+02  0.70000035945E+02 0.  0.
        -12    1    1    2    0    0  0.52430677063E+01 -0.16601378163E+02  0.68980156720E+01  0.18726402113E+02  0.00000000000E+00 0.  1.
         11    1    3    3    0    0  0.11280808995E+02 -0.48213610223E+01 -0.23316913595E+02  0.26347307899E+02  0.51100000000E-03 0. -1.
        -11    1    3    3    0    0 -0.61309016877E+01 -0.26409358786E+01  0.18648728165E+02  0.19807512722E+02  0.51100000000E-03 0.  1.
         12    1    3    3    0    0 -0.10392975013E+02  0.24063675064E+02 -0.22298302417E+01  0.26306777266E+02  0.00000000000E+00 0. -1.
</event>
<event>
 7    1  0.1830715E-013  0.7246156E+02  0.7816164E-02  0.1226708E+00
        -11   -1    0    0    0    0  0.00000000000E+00  0.00000000000E+00  0.45593999997E+02  0.45594000000E+02  0.51100000000E-03 0. -1.
         11   -1    0    0    0    0 -0.00000000000E+00 -0.00000000000E+00 -0.45593999997E+02  0.45594000000E+02  0.51100000000E-03 0.  1.
    9900012    2    1    2    0    0 -0.86348373447E-01 -0.65636169397E+01  0.17538273845E+02  0.72461559526E+02  0.69999985972E+02 0.  0.
        -12    1    1    2    0    0  0.86348373447E-01  0.65636169397E+01 -0.17538273845E+02  0.18726440474E+02  0.00000000000E+00 0.  1.
         11    1    3    3    0    0 -0.24944114418E+02  0.20549863131E+02  0.13809616415E+02  0.35145571906E+02  0.51100000000E-03 0. -1.
        -11    1    3    3    0    0  0.66242993938E+01 -0.47250633710E+01 -0.40941824595E+00  0.81470970216E+01  0.51100000000E-03 0.  1.
         12    1    3    3    0    0  0.18233466651E+02 -0.22388416699E+02  0.41380756755E+01  0.29168890598E+02  0.00000000000E+00 0. -1.
</event>
<event>
 7    1  0.1830715E-013  0.7246158E+02  0.7816164E-02  0.1226708E+00
        -11   -1    0    0    0    0  0.00000000000E+00  0.00000000000E+00  0.45593999997E+02  0.45594000000E+02  0.51100000000E-03 0. -1.
         11   -1    0    0    0    0 -0.00000000000E+00 -0.00000000000E+00 -0.45593999997E+02  0.45594000000E+02  0.51100000000E-03 0.  1.
    9900012    2    1    2    0    0  0.95619988467E+01 -0.16090576629E+02  0.58335311767E+00  0.72461580720E+02  0.70000013581E+02 0.  0.
        -12    1    1    2    0    0 -0.95619988467E+01  0.16090576629E+02 -0.58335311767E+00  0.18726419280E+02  0.00000000000E+00 0.  1.
         11    1    3    3    0    0 -0.12805112786E+02 -0.18752379965E+02  0.12471915661E+02  0.25906974897E+02  0.51100000000E-03 0. -1.
        -11    1    3    3    0    0  0.73539725068E+01 -0.11536370712E+02 -0.20104264930E+02  0.24317693753E+02  0.51100000000E-03 0.  1.
        -12    1    3    3    0    0  0.15013139125E+02  0.14198174048E+02  0.82157023870E+01  0.22236912070E+02  0.00000000000E+00 0.  1.
</event>
<event>
 7    1  0.1830715E-013  0.7246169E+02  0.7816164E-02  0.1226708E+00
        -11   -1    0    0    0    0  0.00000000000E+00  0.00000000000E+00  0.45593999997E+02  0.45594000000E+02  0.51100000000E-03 0. -1.
         11   -1    0    0    0    0 -0.00000000000E+00 -0.00000000000E+00 -0.45593999997E+02  0.45594000000E+02  0.51100000000E-03 0.  1.
    9900012    2    1    2    0    0 -0.18258596793E+02  0.41298586119E+01  0.49268506061E+00  0.72461686225E+02  0.70000151021E+02 0.  0.
        -12    1    1    2    0    0  0.18258596793E+02 -0.41298586119E+01 -0.49268506061E+00  0.18726313775E+02  0.00000000000E+00 0.  1.
         11    1    3    3    0    0 -0.24607292662E+02 -0.16221599076E+02 -0.21021666577E+02  0.36201789938E+02  0.51100000000E-03 0. -1.
        -11    1    3    3    0    0  0.68424806002E+01  0.24117264268E+02  0.20344976024E+02  0.32285910645E+02  0.51100000000E-03 0.  1.
        -12    1    3    3    0    0 -0.49378473171E+00 -0.37658065796E+01  0.11693756143E+01  0.39739856421E+01  0.00000000000E+00 0.  1.
</event>
<event>
 7    1  0.1830715E-013  0.7246164E+02  0.7816164E-02  0.1226708E+00
        -11   -1    0    0    0    0  0.00000000000E+00  0.00000000000E+00  0.45593999997E+02  0.45594000000E+02  0.51100000000E-03 0. -1.
         11   -1    0    0    0    0 -0.00000000000E+00 -0.00000000000E+00 -0.45593999997E+02  0.45594000000E+02  0.51100000000E-03 0.  1.
    9900012    2    1    2    0    0  0.11710447502E+02  0.42647492596E+01  0.13976904194E+02  0.72461641096E+02  0.70000092233E+02 0.  0.
        -12    1    1    2    0    0 -0.11710447502E+02 -0.42647492596E+01 -0.13976904194E+02  0.18726358904E+02  0.00000000000E+00 0.  1.
         11    1    3    3    0    0 -0.67019453834E+01 -0.10340906643E+02  0.12718258277E+02  0.17708882404E+02  0.51100000000E-03 0. -1.
        -11    1    3    3    0    0  0.61624905209E+01  0.60913485357E+01 -0.23945201423E+02  0.25464749907E+02  0.51100000000E-03 0.  1.
        -12    1    3    3    0    0  0.12249902365E+02  0.85143073674E+01  0.25203847339E+02  0.29288008785E+02  0.00000000000E+00 0.  1.
</event>
<event>
 7    1  0.1830715E-013  0.7246156E+02  0.7816164E-02  0.1226708E+00
        -11   -1    0    0    0    0  0.00000000000E+00  0.00000000000E+00  0.45593999997E+02  0.45594000000E+02  0.51100000000E-03 0.  1.
         11   -1    0    0    0    0 -0.00000000000E+00 -0.00000000000E+00 -0.45593999997E+02  0.45594000000E+02  0.51100000000E-03 0. -1.
    9900012    2    1    2    0    0  0.17861374790E+02  0.50146076523E+01 -0.25504225052E+01  0.72461557352E+02  0.69999983140E+02 0.  0.
        -12    1    1    2    0    0 -0.17861374790E+02 -0.50146076523E+01  0.25504225052E+01  0.18726442648E+02  0.00000000000E+00 0.  1.
         11    1    3    3    0    0 -0.17109368858E+02  0.35253085735E+01 -0.30895134714E+01  0.17739881539E+02  0.51100000000E-03 0. -1.
        -11    1    3    3    0    0  0.24555481636E+02 -0.12034315005E+02 -0.15385865540E+02  0.31377081998E+02  0.51100000000E-03 0.  1.
        -12    1    3    3    0    0  0.10415262012E+02  0.13523614084E+02  0.15924956506E+02  0.23344593815E+02  0.00000000000E+00 0.  1.
</event>
<event>
 7    1  0.1830715E-013  0.7246154E+02  0.7816164E-02  0.1226708E+00
        -11   -1    0    0    0    0  0.00000000000E+00  0.00000000000E+00  0.45593999997E+02  0.45594000000E+02  0.51100000000E-03 0. -1.
         11   -1    0    0    0    0 -0.00000000000E+00 -0.00000000000E+00 -0.45593999997E+02  0.45594000000E+02  0.51100000000E-03 0.  1.
    9900012    2    1    2    0    0  0.13554935426E+02  0.14572654659E+01  0.12838235862E+02  0.72461542858E+02  0.69999964259E+02 0.  0.
        -12    1    1    2    0    0 -0.13554935426E+02 -0.14572654659E+01 -0.12838235862E+02  0.18726457142E+02  0.00000000000E+00 0.  1.
         11    1    3    3    0    0  0.62992729434E+01 -0.17561162097E+02 -0.45060510905E+01  0.19193221473E+02  0.51100000000E-03 0. -1.
        -11    1    3    3    0    0 -0.14223796202E+02 -0.38156020721E+01  0.16207349830E+02  0.21898707413E+02  0.51100000000E-03 0.  1.
         12    1    3    3    0    0  0.21479458684E+02  0.22834029635E+02  0.11369371223E+01  0.31369613972E+02  0.00000000000E+00 0. -1.
</event>
<event>
 7    1  0.1830715E-013  0.7246155E+02  0.7816164E-02  0.1226708E+00
        -11   -1    0    0    0    0  0.00000000000E+00  0.00000000000E+00  0.45593999997E+02  0.45594000000E+02  0.51100000000E-03 0. -1.
         11   -1    0    0    0    0 -0.00000000000E+00 -0.00000000000E+00 -0.45593999997E+02  0.45594000000E+02  0.51100000000E-03 0.  1.
    9900012    2    1    2    0    0 -0.12643408756E+02  0.92650368360E+01  0.10246136990E+02  0.72461547700E+02  0.69999970566E+02 0.  0.
        -12    1    1    2    0    0  0.12643408756E+02 -0.92650368360E+01 -0.10246136990E+02  0.18726452300E+02  0.00000000000E+00 0.  1.
         11    1    3    3    0    0 -0.35001142465E+02 -0.28444507473E+01  0.14530920045E+02  0.38004190710E+02  0.51100000000E-03 0. -1.
        -11    1    3    3    0    0 -0.37360027113E+01  0.64925414484E+01 -0.63594485391E+00  0.75176616602E+01  0.51100000000E-03 0.  1.
         12    1    3    3    0    0  0.26093736420E+02  0.56169461348E+01 -0.36488382010E+01  0.26939695330E+02  0.00000000000E+00 0. -1.
</event>
<event>
 7    1  0.1830715E-013  0.7246165E+02  0.7816164E-02  0.1226708E+00
        -11   -1    0    0    0    0  0.00000000000E+00  0.00000000000E+00  0.45593999997E+02  0.45594000000E+02  0.51100000000E-03 0.  1.
         11   -1    0    0    0    0 -0.00000000000E+00 -0.00000000000E+00 -0.45593999997E+02  0.45594000000E+02  0.51100000000E-03 0. -1.
    9900012    2    1    2    0    0  0.14241252870E+01 -0.62162021619E+01 -0.17607016798E+02  0.72461645772E+02  0.70000098324E+02 0.  0.
        -12    1    1    2    0    0 -0.14241252870E+01  0.62162021619E+01  0.17607016798E+02  0.18726354228E+02  0.00000000000E+00 0.  1.
         11    1    3    3    0    0 -0.34741200348E+01 -0.23305013110E+02 -0.79719522345E+01  0.24874588816E+02  0.51100000000E-03 0. -1.
        -11    1    3    3    0    0  0.22113240383E+02  0.18865405482E+02 -0.37533866951E+01  0.29308477207E+02  0.51100000000E-03 0.  1.
        -12    1    3    3    0    0 -0.17214995061E+02 -0.17765945344E+01 -0.58816778683E+01  0.18278579749E+02  0.00000000000E+00 0.  1.
</event>
<event>
 7    1  0.1830715E-013  0.7246157E+02  0.7816164E-02  0.1226708E+00
        -11   -1    0    0    0    0  0.00000000000E+00  0.00000000000E+00  0.45593999997E+02  0.45594000000E+02  0.51100000000E-03 0. -1.
         11   -1    0    0    0    0 -0.00000000000E+00 -0.00000000000E+00 -0.45593999997E+02  0.45594000000E+02  0.51100000000E-03 0.  1.
    9900012    2    1    2    0    0  0.16724371821E+02  0.64783350285E+01 -0.53856965454E+01  0.72461570420E+02  0.70000000163E+02 0.  0.
        -12    1    1    2    0    0 -0.16724371821E+02 -0.64783350285E+01  0.53856965454E+01  0.18726429580E+02  0.00000000000E+00 0.  1.
         11    1    3    3    0    0  0.21312545611E+02  0.32575613779E+02 -0.14322957980E+02  0.41479420669E+02  0.51100000000E-03 0. -1.
        -11    1    3    3    0    0  0.19896256605E+01 -0.71850677466E+01 -0.25720154022E+01  0.78866388457E+01  0.51100000000E-03 0.  1.
         12    1    3    3    0    0 -0.65777994504E+01 -0.18912211003E+02  0.11509276837E+02  0.23095510905E+02  0.00000000000E+00 0. -1.
</event>
<event>
 7    1  0.1830715E-013  0.7246153E+02  0.7816164E-02  0.1226708E+00
        -11   -1    0    0    0    0  0.00000000000E+00  0.00000000000E+00  0.45593999997E+02  0.45594000000E+02  0.51100000000E-03 0.  1.
         11   -1    0    0    0    0 -0.00000000000E+00 -0.00000000000E+00 -0.45593999997E+02  0.45594000000E+02  0.51100000000E-03 0. -1.
    9900012    2    1    2    0    0 -0.18512394035E-02  0.99091808221E+01 -0.15889899838E+02  0.72461527165E+02  0.69999943816E+02 0.  0.
        -12    1    1    2    0    0  0.18512394035E-02 -0.99091808221E+01  0.15889899838E+02  0.18726472835E+02  0.00000000000E+00 0.  1.
         11    1    3    3    0    0  0.14481959513E+02  0.21670466603E+02 -0.32377142616E+02  0.41564595972E+02  0.51100000000E-03 0. -1.
        -11    1    3    3    0    0 -0.13838889314E+02 -0.12222646887E+02  0.20044516171E+02  0.27252350048E+02  0.51100000000E-03 0.  1.
        -12    1    3    3    0    0 -0.64492143791E+00  0.46136110578E+00 -0.35572733927E+01  0.36445811448E+01  0.00000000000E+00 0.  1.
</event>
<event>
 7    1  0.1830715E-013  0.7246156E+02  0.7816164E-02  0.1226708E+00
        -11   -1    0    0    0    0  0.00000000000E+00  0.00000000000E+00  0.45593999997E+02  0.45594000000E+02  0.51100000000E-03 0.  1.
         11   -1    0    0    0    0 -0.00000000000E+00 -0.00000000000E+00 -0.45593999997E+02  0.45594000000E+02  0.51100000000E-03 0. -1.
    9900012    2    1    2    0    0 -0.60311618208E+01  0.60556083727E+01 -0.16662365397E+02  0.72461555428E+02  0.69999980634E+02 0.  0.
        -12    1    1    2    0    0  0.60311618208E+01 -0.60556083727E+01  0.16662365397E+02  0.18726444572E+02  0.00000000000E+00 0.  1.
         11    1    3    3    0    0 -0.13419768760E+02 -0.24974351245E+02 -0.52378781506E+01  0.28831298643E+02  0.51100000000E-03 0. -1.
        -11    1    3    3    0    0 -0.15003149309E+01  0.26948206128E+02  0.19504553801E+01  0.27060322150E+02  0.51100000000E-03 0.  1.
        -12    1    3    3    0    0  0.88889218700E+01  0.40817534890E+01 -0.13374942626E+02  0.16569934635E+02  0.00000000000E+00 0.  1.
</event>
<event>
 7    1  0.1830715E-013  0.7246173E+02  0.7816164E-02  0.1226708E+00
        -11   -1    0    0    0    0  0.00000000000E+00  0.00000000000E+00  0.45593999997E+02  0.45594000000E+02  0.51100000000E-03 0.  1.
         11   -1    0    0    0    0 -0.00000000000E+00 -0.00000000000E+00 -0.45593999997E+02  0.45594000000E+02  0.51100000000E-03 0. -1.
    9900012    2    1    2    0    0 -0.52138251282E+01 -0.12086784954E+02 -0.13319117041E+02  0.72461729102E+02  0.70000206876E+02 0.  0.
        -12    1    1    2    0    0  0.52138251282E+01  0.12086784954E+02  0.13319117041E+02  0.18726270898E+02  0.00000000000E+00 0.  1.
         11    1    3    3    0    0  0.26146733823E+02 -0.11336946686E+02  0.74095700799E+01  0.29446218412E+02  0.51100000000E-03 0. -1.
        -11    1    3    3    0    0 -0.22989852654E+02 -0.26390625728E+01 -0.30198046602E+01  0.23337034875E+02  0.51100000000E-03 0.  1.
        -12    1    3    3    0    0 -0.83707062971E+01  0.18892243049E+01 -0.17708882461E+02  0.19678475815E+02  0.00000000000E+00 0.  1.
</event>
<event>
 7    1  0.1830715E-013  0.7246167E+02  0.7816164E-02  0.1226708E+00
        -11   -1    0    0    0    0  0.00000000000E+00  0.00000000000E+00  0.45593999997E+02  0.45594000000E+02  0.51100000000E-03 0. -1.
         11   -1    0    0    0    0 -0.00000000000E+00 -0.00000000000E+00 -0.45593999997E+02  0.45594000000E+02  0.51100000000E-03 0.  1.
    9900012    2    1    2    0    0 -0.11996552419E+01  0.11057363633E+02  0.15065554742E+02  0.72461670864E+02  0.70000131011E+02 0.  0.
        -12    1    1    2    0    0  0.11996552419E+01 -0.11057363633E+02 -0.15065554742E+02  0.18726329136E+02  0.00000000000E+00 0.  1.
         11    1    3    3    0    0 -0.26121898590E+02 -0.42654031142E+01 -0.51593054839E+01  0.26966009772E+02  0.51100000000E-03 0. -1.
        -11    1    3    3    0    0  0.16545428904E+02  0.13354160757E+02 -0.22969023277E+01  0.21385990454E+02  0.51100000000E-03 0.  1.
         12    1    3    3    0    0  0.83768144447E+01  0.19686059909E+01  0.22521762553E+02  0.24109670638E+02  0.00000000000E+00 0. -1.
</event>
<event>
 7    1  0.1830715E-013  0.7246155E+02  0.7816164E-02  0.1226708E+00
        -11   -1    0    0    0    0  0.00000000000E+00  0.00000000000E+00  0.45593999997E+02  0.45594000000E+02  0.51100000000E-03 0.  1.
         11   -1    0    0    0    0 -0.00000000000E+00 -0.00000000000E+00 -0.45593999997E+02  0.45594000000E+02  0.51100000000E-03 0. -1.
    9900012    2    1    2    0    0 -0.11795113291E+02  0.30484798836E+01 -0.14221881153E+02  0.72461552642E+02  0.69999977004E+02 0.  0.
        -12    1    1    2    0    0  0.11795113291E+02 -0.30484798836E+01  0.14221881153E+02  0.18726447358E+02  0.00000000000E+00 0.  1.
         11    1    3    3    0    0 -0.26948637957E+02  0.18517670793E+02 -0.17100310063E+02  0.36899238798E+02  0.51100000000E-03 0. -1.
        -11    1    3    3    0    0 -0.17316853654E+01 -0.17823195269E+02  0.44190912155E+01  0.18444332225E+02  0.51100000000E-03 0.  1.
         12    1    3    3    0    0  0.16885210032E+02  0.23540043592E+01 -0.15406623053E+01  0.17117981619E+02  0.00000000000E+00 0. -1.
</event>
<event>
 7    1  0.1830715E-013  0.7246166E+02  0.7816164E-02  0.1226708E+00
        -11   -1    0    0    0    0  0.00000000000E+00  0.00000000000E+00  0.45593999997E+02  0.45594000000E+02  0.51100000000E-03 0.  1.
         11   -1    0    0    0    0 -0.00000000000E+00 -0.00000000000E+00 -0.45593999997E+02  0.45594000000E+02  0.51100000000E-03 0. -1.
    9900012    2    1    2    0    0  0.68112400177E+01 -0.23192681305E+01 -0.17288837100E+02  0.72461658032E+02  0.70000114294E+02 0.  0.
        -12    1    1    2    0    0 -0.68112400177E+01  0.23192681305E+01  0.17288837100E+02  0.18726341968E+02  0.00000000000E+00 0.  1.
         11    1    3    3    0    0 -0.19897061794E+02 -0.46365979627E+01 -0.13097209802E+02  0.24267839079E+02  0.51100000000E-03 0. -1.
        -11    1    3    3    0    0  0.53282485920E+01  0.19525465917E+02 -0.45583787147E+01  0.20746394123E+02  0.51100000000E-03 0.  1.
        -12    1    3    3    0    0  0.21380053220E+02 -0.17208136085E+02  0.36675141716E+00  0.27447424830E+02  0.00000000000E+00 0.  1.
</event>
<event>
 7    1  0.1830715E-013  0.7246155E+02  0.7816164E-02  0.1226708E+00
        -11   -1    0    0    0    0  0.00000000000E+00  0.00000000000E+00  0.45593999997E+02  0.45594000000E+02  0.51100000000E-03 0. -1.
         11   -1    0    0    0    0 -0.00000000000E+00 -0.00000000000E+00 -0.45593999997E+02  0.45594000000E+02  0.51100000000E-03 0.  1.
    9900012    2    1    2    0    0  0.58994870222E+01  0.73663943768E+01  0.16174427693E+02  0.72461552808E+02  0.69999977221E+02 0.  0.
        -12    1    1    2    0    0 -0.58994870222E+01 -0.73663943768E+01 -0.16174427693E+02  0.18726447192E+02  0.00000000000E+00 0.  1.
         11    1    3    3    0    0  0.50567952992E-01  0.11422689848E+02  0.30298569838E+02  0.32380298562E+02  0.51100000000E-03 0. -1.
        -11    1    3    3    0    0  0.34512740517E+00  0.10655461731E+02 -0.20517839608E+02  0.23122277570E+02  0.51100000000E-03 0.  1.
        -12    1    3    3    0    0  0.55037916640E+01 -0.14711757202E+02  0.63936974626E+01  0.16958976676E+02  0.00000000000E+00 0.  1.
</event>
<event>
 7    1  0.1830715E-013  0.7246162E+02  0.7816164E-02  0.1226708E+00
        -11   -1    0    0    0    0  0.00000000000E+00  0.00000000000E+00  0.45593999997E+02  0.45594000000E+02  0.51100000000E-03 0.  1.
         11   -1    0    0    0    0 -0.00000000000E+00 -0.00000000000E+00 -0.45593999997E+02  0.45594000000E+02  0.51100000000E-03 0. -1.
    9900012    2    1    2    0    0 -0.83080426963E+01 -0.15693391777E+02 -0.59473801876E+01  0.72461616206E+02  0.70000059808E+02 0.  0.
        -12    1    1    2    0    0  0.83080426963E+01  0.15693391777E+02  0.59473801876E+01  0.18726383794E+02  0.00000000000E+00 0.  1.
         11    1    3    3    0    0 -0.27312118045E+02 -0.25390480459E+02 -0.56861655950E+01  0.37722152238E+02  0.51100000000E-03 0. -1.
        -11    1    3    3    0    0  0.21031894785E+02 -0.32590394399E+01  0.22011689033E+01  0.21396426830E+02  0.51100000000E-03 0.  1.
         12    1    3    3    0    0 -0.20278194361E+01  0.12956128122E+02 -0.24623834959E+01  0.13343037137E+02  0.00000000000E+00 0. -1.
</event>
<event>
 7    1  0.1830715E-013  0.7246159E+02  0.7816164E-02  0.1226708E+00
        -11   -1    0    0    0    0  0.00000000000E+00  0.00000000000E+00  0.45593999997E+02  0.45594000000E+02  0.51100000000E-03 0.  1.
         11   -1    0    0    0    0 -0.00000000000E+00 -0.00000000000E+00 -0.45593999997E+02  0.45594000000E+02  0.51100000000E-03 0. -1.
    9900012    2    1    2    0    0 -0.15183538744E+02 -0.99568152164E+01  0.45826394132E+01  0.72461585446E+02  0.70000019738E+02 0.  0.
        -12    1    1    2    0    0  0.15183538744E+02  0.99568152164E+01 -0.45826394132E+01  0.18726414554E+02  0.00000000000E+00 0.  1.
         11    1    3    3    0    0 -0.22886858005E+02 -0.17048787395E+02 -0.10119748407E+02  0.30280005434E+02  0.51100000000E-03 0. -1.
        -11    1    3    3    0    0  0.14507651329E+02  0.75401192993E+01 -0.81960513663E+01  0.18289357681E+02  0.51100000000E-03 0.  1.
        -12    1    3    3    0    0 -0.68043320679E+01 -0.44814712047E+00  0.22898439186E+02  0.23892222331E+02  0.00000000000E+00 0.  1.
</event>
<event>
 7    1  0.1830715E-013  0.7246149E+02  0.7816164E-02  0.1226708E+00
        -11   -1    0    0    0    0  0.00000000000E+00  0.00000000000E+00  0.45593999997E+02  0.45594000000E+02  0.51100000000E-03 0.  1.
         11   -1    0    0    0    0 -0.00000000000E+00 -0.00000000000E+00 -0.45593999997E+02  0.45594000000E+02  0.51100000000E-03 0. -1.
    9900012    2    1    2    0    0  0.10384181041E+02  0.15331050919E+02  0.27945878710E+01  0.72461493131E+02  0.69999899480E+02 0.  0.
        -12    1    1    2    0    0 -0.10384181041E+02 -0.15331050919E+02 -0.27945878710E+01  0.18726506869E+02  0.00000000000E+00 0.  1.
         11    1    3    3    0    0  0.11618295590E+02  0.12660056366E+02 -0.29646553818E+02  0.34266309593E+02  0.51100000000E-03 0. -1.
        -11    1    3    3    0    0  0.45040256981E+01  0.90663469073E+01  0.24443033327E+02  0.26456507181E+02  0.51100000000E-03 0.  1.
         12    1    3    3    0    0 -0.57381402468E+01 -0.63953523545E+01  0.79981083616E+01  0.11738676356E+02  0.00000000000E+00 0. -1.
</event>
<event>
 7    1  0.1830715E-013  0.7246161E+02  0.7816164E-02  0.1226708E+00
        -11   -1    0    0    0    0  0.00000000000E+00  0.00000000000E+00  0.45593999997E+02  0.45594000000E+02  0.51100000000E-03 0.  1.
         11   -1    0    0    0    0 -0.00000000000E+00 -0.00000000000E+00 -0.45593999997E+02  0.45594000000E+02  0.51100000000E-03 0. -1.
    9900012    2    1    2    0    0 -0.12296397657E+02  0.34384431680E+01 -0.13698659092E+02  0.72461613598E+02  0.70000056411E+02 0.  0.
        -12    1    1    2    0    0  0.12296397657E+02 -0.34384431680E+01  0.13698659092E+02  0.18726386402E+02  0.00000000000E+00 0.  1.
         11    1    3    3    0    0 -0.29789515647E+02  0.12851881732E+02 -0.25700506127E+01  0.32545218803E+02  0.51100000000E-03 0. -1.
        -11    1    3    3    0    0  0.19569548585E+02  0.64025864003E+01 -0.22015565283E+00  0.20591474284E+02  0.51100000000E-03 0.  1.
         12    1    3    3    0    0 -0.20764305951E+01 -0.15816024965E+02 -0.10908452826E+02  0.19324920511E+02  0.00000000000E+00 0. -1.
</event>
<event>
 7    1  0.1830715E-013  0.7246154E+02  0.7816164E-02  0.1226708E+00
        -11   -1    0    0    0    0  0.00000000000E+00  0.00000000000E+00  0.45593999997E+02  0.45594000000E+02  0.51100000000E-03 0.  1.
         11   -1    0    0    0    0 -0.00000000000E+00 -0.00000000000E+00 -0.45593999997E+02  0.45594000000E+02  0.51100000000E-03 0. -1.
    9900012    2    1    2    0    0 -0.17363258987E+02 -0.70054188183E+01 -0.34865301535E+00  0.72461542396E+02  0.69999963658E+02 0.  0.
        -12    1    1    2    0    0  0.17363258987E+02  0.70054188183E+01  0.34865301535E+00  0.18726457604E+02  0.00000000000E+00 0.  1.
         11    1    3    3    0    0 -0.80092908144E+01  0.21689586443E+02 -0.19915840811E+01  0.23206751320E+02  0.51100000000E-03 0. -1.
        -11    1    3    3    0    0  0.14265503525E+01 -0.53482154342E+01  0.17963788331E+02  0.18797237714E+02  0.51100000000E-03 0.  1.
         12    1    3    3    0    0 -0.10780518525E+02 -0.23346789827E+02 -0.16320857265E+02  0.30457553362E+02  0.00000000000E+00 0. -1.
</event>
<event>
 7    1  0.1830715E-013  0.7246158E+02  0.7816164E-02  0.1226708E+00
        -11   -1    0    0    0    0  0.00000000000E+00  0.00000000000E+00  0.45593999997E+02  0.45594000000E+02  0.51100000000E-03 0.  1.
         11   -1    0    0    0    0 -0.00000000000E+00 -0.00000000000E+00 -0.45593999997E+02  0.45594000000E+02  0.51100000000E-03 0. -1.
    9900012    2    1    2    0    0  0.18175359718E+02 -0.32806905034E+01  0.30939167566E+01  0.72461576104E+02  0.70000007568E+02 0.  0.
        -12    1    1    2    0    0 -0.18175359718E+02  0.32806905034E+01 -0.30939167566E+01  0.18726423896E+02  0.00000000000E+00 0.  1.
         11    1    3    3    0    0 -0.11863982796E+02  0.10227947547E+02 -0.19869689558E+02  0.25301572327E+02  0.51100000000E-03 0. -1.
        -11    1    3    3    0    0  0.78940253356E+01 -0.11567336323E+02  0.20453640534E+02  0.24788511794E+02  0.51100000000E-03 0.  1.
         12    1    3    3    0    0  0.22145317178E+02 -0.19413017274E+01  0.25099657812E+01  0.22371491983E+02  0.00000000000E+00 0. -1.
</event>
<event>
 7    1  0.1830715E-013  0.7246148E+02  0.7816164E-02  0.1226708E+00
        -11   -1    0    0    0    0  0.00000000000E+00  0.00000000000E+00  0.45593999997E+02  0.45594000000E+02  0.51100000000E-03 0. -1.
         11   -1    0    0    0    0 -0.00000000000E+00 -0.00000000000E+00 -0.45593999997E+02  0.45594000000E+02  0.51100000000E-03 0.  1.
    9900012    2    1    2    0    0 -0.18191889765E+02 -0.44388298574E+01  0.18595351342E+00  0.72461477567E+02  0.69999879205E+02 0.  0.
        -12    1    1    2    0    0  0.18191889765E+02  0.44388298574E+01 -0.18595351342E+00  0.18726522433E+02  0.00000000000E+00 0.  1.
         11    1    3    3    0    0  0.12229377291E+02 -0.27261153203E+01  0.20582147651E+02  0.24095936916E+02  0.51100000000E-03 0. -1.
        -11    1    3    3    0    0 -0.41633549038E+01 -0.98991794348E+01 -0.17734497164E+02  0.20732575032E+02  0.51100000000E-03 0.  1.
         12    1    3    3    0    0 -0.26257912152E+02  0.81864648977E+01 -0.26616969739E+01  0.27632965619E+02  0.00000000000E+00 0. -1.
</event>
<event>
 7    1  0.1830715E-013  0.7246155E+02  0.7816164E-02  0.1226708E+00
        -11   -1    0    0    0    0  0.00000000000E+00  0.00000000000E+00  0.45593999997E+02  0.45594000000E+02  0.51100000000E-03 0.  1.
         11   -1    0    0    0    0 -0.00000000000E+00 -0.00000000000E+00 -0.45593999997E+02  0.45594000000E+02  0.51100000000E-03 0. -1.
    9900012    2    1    2    0    0  0.10591740967E+02 -0.27901604700E+01 -0.15189143108E+02  0.72461547038E+02  0.69999969705E+02 0.  0.
        -12    1    1    2    0    0 -0.10591740967E+02  0.27901604700E+01  0.15189143108E+02  0.18726452962E+02  0.00000000000E+00 0.  1.
         11    1    3    3    0    0  0.53153090456E+01  0.17253533656E+01 -0.21523759339E+02  0.22237391278E+02  0.51100000000E-03 0. -1.
        -11    1    3    3    0    0  0.11531610470E+01  0.14908698971E+02  0.20828375216E+02  0.25640208653E+02  0.51100000000E-03 0.  1.
        -12    1    3    3    0    0  0.41232708742E+01 -0.19424212807E+02 -0.14493758985E+02  0.24583947107E+02  0.00000000000E+00 0.  1.
</event>
<event>
 7    1  0.1830715E-013  0.7246154E+02  0.7816164E-02  0.1226708E+00
        -11   -1    0    0    0    0  0.00000000000E+00  0.00000000000E+00  0.45593999997E+02  0.45594000000E+02  0.51100000000E-03 0.  1.
         11   -1    0    0    0    0 -0.00000000000E+00 -0.00000000000E+00 -0.45593999997E+02  0.45594000000E+02  0.51100000000E-03 0. -1.
    9900012    2    1    2    0    0  0.10757715423E+02  0.12496033124E+02  0.88769839348E+01  0.72461544683E+02  0.69999966636E+02 0.  0.
        -12    1    1    2    0    0 -0.10757715423E+02 -0.12496033124E+02 -0.88769839348E+01  0.18726455317E+02  0.00000000000E+00 0.  1.
         11    1    3    3    0    0 -0.28390189495E+01 -0.14309145892E+01 -0.67432550716E+01  0.74551347660E+01  0.51100000000E-03 0. -1.
        -11    1    3    3    0    0 -0.47482796104E+01  0.28700618175E+02  0.26232777373E+02  0.39171804297E+02  0.51100000000E-03 0.  1.
        -12    1    3    3    0    0  0.18345013983E+02 -0.14773670462E+02 -0.10612538367E+02  0.25834605620E+02  0.00000000000E+00 0.  1.
</event>
<event>
 7    1  0.1830715E-013  0.7246157E+02  0.7816164E-02  0.1226708E+00
        -11   -1    0    0    0    0  0.00000000000E+00  0.00000000000E+00  0.45593999997E+02  0.45594000000E+02  0.51100000000E-03 0.  1.
         11   -1    0    0    0    0 -0.00000000000E+00 -0.00000000000E+00 -0.45593999997E+02  0.45594000000E+02  0.51100000000E-03 0. -1.
    9900012    2    1    2    0    0  0.10593129316E+01  0.71825585172E+01 -0.17261749173E+02  0.72461567472E+02  0.69999996323E+02 0.  0.
        -12    1    1    2    0    0 -0.10593129316E+01 -0.71825585172E+01  0.17261749173E+02  0.18726432528E+02  0.00000000000E+00 0.  1.
         11    1    3    3    0    0 -0.89343869186E+01  0.59580712437E+01  0.12617117916E+02  0.16568450360E+02  0.51100000000E-03 0.  1.
        -11    1    3    3    0    0  0.17924124272E+02 -0.18569923046E+02 -0.18194702004E+02  0.31577895024E+02  0.51100000000E-03 0. -1.
         12    1    3    3    0    0 -0.79304244219E+01  0.19794410320E+02 -0.11684165085E+02  0.24315222087E+02  0.00000000000E+00 0. -1.
</event>
<event>
 7    1  0.1830715E-013  0.7246157E+02  0.7816164E-02  0.1226708E+00
        -11   -1    0    0    0    0  0.00000000000E+00  0.00000000000E+00  0.45593999997E+02  0.45594000000E+02  0.51100000000E-03 0. -1.
         11   -1    0    0    0    0 -0.00000000000E+00 -0.00000000000E+00 -0.45593999997E+02  0.45594000000E+02  0.51100000000E-03 0.  1.
    9900012    2    1    2    0    0 -0.60230890816E+01  0.74497020907E+01  0.16090483647E+02  0.72461566081E+02  0.69999994512E+02 0.  0.
        -12    1    1    2    0    0  0.60230890816E+01 -0.74497020907E+01 -0.16090483647E+02  0.18726433919E+02  0.00000000000E+00 0.  1.
         11    1    3    3    0    0 -0.31588020195E+01  0.41087245098E+01 -0.11383972988E+02  0.12508176868E+02  0.51100000000E-03 0.  1.
        -11    1    3    3    0    0 -0.13840470559E+02 -0.21151765852E+02  0.19588469229E+02  0.31979117420E+02  0.51100000000E-03 0. -1.
        -12    1    3    3    0    0  0.10976183497E+02  0.24492743433E+02  0.78859874059E+01  0.27974271794E+02  0.00000000000E+00 0.  1.
</event>
<event>
 7    1  0.1830715E-013  0.7246157E+02  0.7816164E-02  0.1226708E+00
        -11   -1    0    0    0    0  0.00000000000E+00  0.00000000000E+00  0.45593999997E+02  0.45594000000E+02  0.51100000000E-03 0. -1.
         11   -1    0    0    0    0 -0.00000000000E+00 -0.00000000000E+00 -0.45593999997E+02  0.45594000000E+02  0.51100000000E-03 0.  1.
    9900012    2    1    2    0    0  0.88013169286E+01 -0.16324533892E+02  0.25933858608E+01  0.72461568501E+02  0.69999997664E+02 0.  0.
        -12    1    1    2    0    0 -0.88013169286E+01  0.16324533892E+02 -0.25933858608E+01  0.18726431499E+02  0.00000000000E+00 0.  1.
         11    1    3    3    0    0  0.22626354755E+02 -0.53446684943E+01 -0.18200607166E+01  0.23320163638E+02  0.51100000000E-03 0. -1.
        -11    1    3    3    0    0 -0.83233512945E+01  0.18812559688E+01  0.23772304427E+02  0.25257469367E+02  0.51100000000E-03 0.  1.
        -12    1    3    3    0    0 -0.55016865323E+01 -0.12861121367E+02 -0.19358857850E+02  0.23883935496E+02  0.00000000000E+00 0.  1.
</event>
<event>
 7    1  0.1830715E-013  0.7246156E+02  0.7816164E-02  0.1226708E+00
        -11   -1    0    0    0    0  0.00000000000E+00  0.00000000000E+00  0.45593999997E+02  0.45594000000E+02  0.51100000000E-03 0. -1.
         11   -1    0    0    0    0 -0.00000000000E+00 -0.00000000000E+00 -0.45593999997E+02  0.45594000000E+02  0.51100000000E-03 0.  1.
    9900012    2    1    2    0    0  0.17136341592E+02 -0.75413428402E+01 -0.39192362123E+00  0.72461557222E+02  0.69999982971E+02 0.  0.
        -12    1    1    2    0    0 -0.17136341592E+02  0.75413428402E+01  0.39192362123E+00  0.18726442778E+02  0.00000000000E+00 0.  1.
         11    1    3    3    0    0  0.13207864565E+02 -0.26477277982E+02 -0.69655476618E+01  0.30397578690E+02  0.51100000000E-03 0. -1.
        -11    1    3    3    0    0  0.19155645911E+01  0.29205420160E+02  0.10190785601E+02  0.30991580564E+02  0.51100000000E-03 0.  1.
        -12    1    3    3    0    0  0.20129124366E+01 -0.10269485018E+02 -0.36171615609E+01  0.11072397968E+02  0.00000000000E+00 0.  1.
</event>
<event>
 7    1  0.1830715E-013  0.7246158E+02  0.7816164E-02  0.1226708E+00
        -11   -1    0    0    0    0  0.00000000000E+00  0.00000000000E+00  0.45593999997E+02  0.45594000000E+02  0.51100000000E-03 0.  1.
         11   -1    0    0    0    0 -0.00000000000E+00 -0.00000000000E+00 -0.45593999997E+02  0.45594000000E+02  0.51100000000E-03 0. -1.
    9900012    2    1    2    0    0  0.11481210668E+02 -0.14764688249E+02 -0.92979713753E+00  0.72461581757E+02  0.70000014932E+02 0.  0.
        -12    1    1    2    0    0 -0.11481210668E+02  0.14764688249E+02  0.92979713753E+00  0.18726418243E+02  0.00000000000E+00 0.  1.
         11    1    3    3    0    0  0.10816062162E+02  0.34692469902E+01  0.25073436799E+02  0.27526352983E+02  0.51100000000E-03 0.  1.
        -11    1    3    3    0    0  0.15814424405E+02 -0.12972713040E+02 -0.16615860537E+02  0.26352876968E+02  0.51100000000E-03 0. -1.
        -12    1    3    3    0    0 -0.15149275898E+02 -0.52612221994E+01 -0.93873734002E+01  0.18582351805E+02  0.00000000000E+00 0.  1.
</event>
<event>
 7    1  0.1830715E-013  0.7246160E+02  0.7816164E-02  0.1226708E+00
        -11   -1    0    0    0    0  0.00000000000E+00  0.00000000000E+00  0.45593999997E+02  0.45594000000E+02  0.51100000000E-03 0. -1.
         11   -1    0    0    0    0 -0.00000000000E+00 -0.00000000000E+00 -0.45593999997E+02  0.45594000000E+02  0.51100000000E-03 0.  1.
    9900012    2    1    2    0    0 -0.10895210065E+02 -0.30893250043E+01  0.14914037835E+02  0.72461600029E+02  0.70000038735E+02 0.  0.
        -12    1    1    2    0    0  0.10895210065E+02  0.30893250043E+01 -0.14914037835E+02  0.18726399971E+02  0.00000000000E+00 0.  1.
         11    1    3    3    0    0 -0.11239603733E+02  0.72960955269E+00  0.40192817407E+02  0.41741149883E+02  0.51100000000E-03 0. -1.
        -11    1    3    3    0    0  0.31914338405E+01 -0.10065382789E+02 -0.14392361520E+02  0.17850413190E+02  0.51100000000E-03 0.  1.
         12    1    3    3    0    0 -0.28470401728E+01  0.62464482321E+01 -0.10886418052E+02  0.12870036956E+02  0.00000000000E+00 0. -1.
</event>
<event>
 7    1  0.1830715E-013  0.7246160E+02  0.7816164E-02  0.1226708E+00
        -11   -1    0    0    0    0  0.00000000000E+00  0.00000000000E+00  0.45593999997E+02  0.45594000000E+02  0.51100000000E-03 0.  1.
         11   -1    0    0    0    0 -0.00000000000E+00 -0.00000000000E+00 -0.45593999997E+02  0.45594000000E+02  0.51100000000E-03 0. -1.
    9900012    2    1    2    0    0  0.14310791294E+01  0.16661209599E+02 -0.84281830083E+01  0.72461597206E+02  0.70000035058E+02 0.  0.
        -12    1    1    2    0    0 -0.14310791294E+01 -0.16661209599E+02  0.84281830083E+01  0.18726402794E+02  0.00000000000E+00 0.  1.
         11    1    3    3    0    0 -0.23923672712E+02 -0.18837407475E+01 -0.22683327226E+02  0.33021567642E+02  0.51100000000E-03 0. -1.
        -11    1    3    3    0    0  0.69870197691E+01 -0.36412248035E+01  0.19354890992E+01  0.81131425254E+01  0.51100000000E-03 0.  1.
         12    1    3    3    0    0  0.18367732073E+02  0.22186175150E+02  0.12319655119E+02  0.31326887038E+02  0.00000000000E+00 0. -1.
</event>
<event>
 7    1  0.1830715E-013  0.7246153E+02  0.7816164E-02  0.1226708E+00
        -11   -1    0    0    0    0  0.00000000000E+00  0.00000000000E+00  0.45593999997E+02  0.45594000000E+02  0.51100000000E-03 0.  1.
         11   -1    0    0    0    0 -0.00000000000E+00 -0.00000000000E+00 -0.45593999997E+02  0.45594000000E+02  0.51100000000E-03 0. -1.
    9900012    2    1    2    0    0  0.18139835016E+01  0.10020188568E+02 -0.15715782779E+02  0.72461533611E+02  0.69999952213E+02 0.  0.
        -12    1    1    2    0    0 -0.18139835016E+01 -0.10020188568E+02  0.15715782779E+02  0.18726466389E+02  0.00000000000E+00 0.  1.
         11    1    3    3    0    0 -0.10819908467E+00 -0.16083258066E+02 -0.15363273318E+02  0.22242146128E+02  0.51100000000E-03 0. -1.
        -11    1    3    3    0    0 -0.19288135413E+01  0.35097785965E+02 -0.99315245462E+01  0.36526840562E+02  0.51100000000E-03 0.  1.
        -12    1    3    3    0    0  0.38509961276E+01 -0.89943393316E+01  0.95790150857E+01  0.13692546922E+02  0.00000000000E+00 0.  1.
</event>
<event>
 7    1  0.1830715E-013  0.7246162E+02  0.7816164E-02  0.1226708E+00
        -11   -1    0    0    0    0  0.00000000000E+00  0.00000000000E+00  0.45593999997E+02  0.45594000000E+02  0.51100000000E-03 0.  1.
         11   -1    0    0    0    0 -0.00000000000E+00 -0.00000000000E+00 -0.45593999997E+02  0.45594000000E+02  0.51100000000E-03 0. -1.
    9900012    2    1    2    0    0 -0.16296352491E+02 -0.14720960322E+01  0.91070993387E+01  0.72461616751E+02  0.70000060518E+02 0.  0.
        -12    1    1    2    0    0  0.16296352491E+02  0.14720960322E+01 -0.91070993387E+01  0.18726383249E+02  0.00000000000E+00 0.  1.
         11    1    3    3    0    0  0.10298196436E+02  0.53535082336E+01  0.20520845130E+02  0.23575792359E+02  0.51100000000E-03 0.  1.
        -11    1    3    3    0    0 -0.32053377008E+02 -0.14413713026E+02 -0.13794076785E+01  0.35172103528E+02  0.51100000000E-03 0. -1.
        -12    1    3    3    0    0  0.54588280804E+01  0.75881087601E+01 -0.10034338112E+02  0.13713720864E+02  0.00000000000E+00 0.  1.
</event>
<event>
 7    1  0.1830715E-013  0.7246107E+02  0.7816164E-02  0.1226709E+00
        -11   -1    0    0    0    0  0.00000000000E+00  0.00000000000E+00  0.45593999997E+02  0.45594000000E+02  0.51100000000E-03 0.  1.
         11   -1    0    0    0    0 -0.00000000000E+00 -0.00000000000E+00 -0.45593999997E+02  0.45594000000E+02  0.51100000000E-03 0. -1.
    9900012    2    1    2    0    0  0.16321630579E+02 -0.76087331525E+01 -0.51390171251E+01  0.72461069072E+02  0.69999347062E+02 0.  0.
        -12    1    1    2    0    0 -0.16321630579E+02  0.76087331525E+01  0.51390171251E+01  0.18726930928E+02  0.00000000000E+00 0.  1.
         11    1    3    3    0    0  0.13707768147E+02 -0.26282557419E+01 -0.87746536191E+01  0.16486515163E+02  0.51100000000E-03 0. -1.
        -11    1    3    3    0    0 -0.13643969200E+02  0.13256680287E+02 -0.15820449594E+02  0.24742354241E+02  0.51100000000E-03 0.  1.
        -12    1    3    3    0    0  0.16257831633E+02 -0.18237157697E+02  0.19456086088E+02  0.31232199669E+02  0.00000000000E+00 0.  1.
</event>
<event>
 7    1  0.1830715E-013  0.7246160E+02  0.7816164E-02  0.1226708E+00
        -11   -1    0    0    0    0  0.00000000000E+00  0.00000000000E+00  0.45593999997E+02  0.45594000000E+02  0.51100000000E-03 0. -1.
         11   -1    0    0    0    0 -0.00000000000E+00 -0.00000000000E+00 -0.45593999997E+02  0.45594000000E+02  0.51100000000E-03 0.  1.
    9900012    2    1    2    0    0  0.15618159812E+01 -0.17214501584E+02 -0.72041439636E+01  0.72461600875E+02  0.70000039836E+02 0.  0.
        -12    1    1    2    0    0 -0.15618159812E+01  0.17214501584E+02  0.72041439636E+01  0.18726399125E+02  0.00000000000E+00 0.  1.
         11    1    3    3    0    0 -0.24202559145E+01  0.47385272691E+01  0.26949042500E+02  0.27469295064E+02  0.51100000000E-03 0. -1.
        -11    1    3    3    0    0 -0.12413885790E+01 -0.11608360940E+02 -0.34480785295E+01  0.12173098830E+02  0.51100000000E-03 0.  1.
         12    1    3    3    0    0  0.52234604746E+01 -0.10344667914E+02 -0.30705107935E+02  0.32819206981E+02  0.00000000000E+00 0. -1.
</event>
<event>
 7    1  0.1830715E-013  0.7246161E+02  0.7816164E-02  0.1226708E+00
        -11   -1    0    0    0    0  0.00000000000E+00  0.00000000000E+00  0.45593999997E+02  0.45594000000E+02  0.51100000000E-03 0.  1.
         11   -1    0    0    0    0 -0.00000000000E+00 -0.00000000000E+00 -0.45593999997E+02  0.45594000000E+02  0.51100000000E-03 0. -1.
    9900012    2    1    2    0    0  0.41739111671E+00  0.16391848908E+02 -0.90449390989E+01  0.72461605545E+02  0.70000045921E+02 0.  0.
        -12    1    1    2    0    0 -0.41739111671E+00 -0.16391848908E+02  0.90449390989E+01  0.18726394455E+02  0.00000000000E+00 0.  1.
         11    1    3    3    0    0 -0.95601355808E+01 -0.13821470643E+02 -0.48867849628E-01  0.16805702347E+02  0.51100000000E-03 0. -1.
        -11    1    3    3    0    0 -0.18287183381E+00  0.29954065222E+02  0.12047391971E+02  0.32286516055E+02  0.51100000000E-03 0.  1.
        -12    1    3    3    0    0  0.10160398531E+02  0.25925432920E+00 -0.21043463220E+02  0.23369387143E+02  0.00000000000E+00 0.  1.
</event>
<event>
 7    1  0.1830715E-013  0.7246134E+02  0.7816164E-02  0.1226709E+00
        -11   -1    0    0    0    0  0.00000000000E+00  0.00000000000E+00  0.45593999997E+02  0.45594000000E+02  0.51100000000E-03 0.  1.
         11   -1    0    0    0    0 -0.00000000000E+00 -0.00000000000E+00 -0.45593999997E+02  0.45594000000E+02  0.51100000000E-03 0. -1.
    9900012    2    1    2    0    0  0.58092577921E+01 -0.16494869655E+02 -0.66977223742E+01  0.72461342903E+02  0.69999703780E+02 0.  0.
        -12    1    1    2    0    0 -0.58092577921E+01  0.16494869655E+02  0.66977223742E+01  0.18726657097E+02  0.00000000000E+00 0.  1.
         11    1    3    3    0    0  0.30051768904E+02 -0.97219153997E+01  0.74570871701E+01  0.32453545301E+02  0.51100000000E-03 0. -1.
        -11    1    3    3    0    0 -0.84024873810E+01  0.10002245339E+02 -0.24156677769E+00  0.13065414681E+02  0.51100000000E-03 0.  1.
         12    1    3    3    0    0 -0.15840023731E+02 -0.16775199594E+02 -0.13913242767E+02  0.26942382921E+02  0.00000000000E+00 0. -1.
</event>
<event>
 7    1  0.1830715E-013  0.7246159E+02  0.7816164E-02  0.1226708E+00
        -11   -1    0    0    0    0  0.00000000000E+00  0.00000000000E+00  0.45593999997E+02  0.45594000000E+02  0.51100000000E-03 0.  1.
         11   -1    0    0    0    0 -0.00000000000E+00 -0.00000000000E+00 -0.45593999997E+02  0.45594000000E+02  0.51100000000E-03 0. -1.
    9900012    2    1    2    0    0 -0.14161443007E+01 -0.18211767082E+02 -0.41236312909E+01  0.72461594580E+02  0.70000031636E+02 0.  0.
        -12    1    1    2    0    0  0.14161443007E+01  0.18211767082E+02  0.41236312909E+01  0.18726405420E+02  0.00000000000E+00 0.  1.
         11    1    3    3    0    0  0.56107908374E+01 -0.10970265808E+02  0.21038390984E+02  0.24381173089E+02  0.51100000000E-03 0. -1.
        -11    1    3    3    0    0  0.16467645300E+02 -0.35871510083E+00 -0.94397722388E+01  0.18984765430E+02  0.51100000000E-03 0.  1.
         12    1    3    3    0    0 -0.23494580438E+02 -0.68827861731E+01 -0.15722250036E+02  0.29095656061E+02  0.00000000000E+00 0. -1.
</event>
<event>
 7    1  0.1830715E-013  0.7246157E+02  0.7816164E-02  0.1226708E+00
        -11   -1    0    0    0    0  0.00000000000E+00  0.00000000000E+00  0.45593999997E+02  0.45594000000E+02  0.51100000000E-03 0.  1.
         11   -1    0    0    0    0 -0.00000000000E+00 -0.00000000000E+00 -0.45593999997E+02  0.45594000000E+02  0.51100000000E-03 0. -1.
    9900012    2    1    2    0    0 -0.59760969092E+01  0.12388471380E+02  0.12707914018E+02  0.72461573857E+02  0.70000004640E+02 0.  0.
        -12    1    1    2    0    0  0.59760969092E+01 -0.12388471380E+02 -0.12707914018E+02  0.18726426143E+02  0.00000000000E+00 0.  1.
         11    1    3    3    0    0  0.70854861084E+01  0.28080226701E+02 -0.16638579992E+02  0.33399784271E+02  0.51100000000E-03 0.  1.
        -11    1    3    3    0    0 -0.58222738685E+01 -0.17029088999E+02  0.17424371766E+02  0.25049899737E+02  0.51100000000E-03 0. -1.
        -12    1    3    3    0    0 -0.72393091490E+01  0.13373336781E+01  0.11922122244E+02  0.14011889849E+02  0.00000000000E+00 0.  1.
</event>
<event>
 7    1  0.1830715E-013  0.7246154E+02  0.7816164E-02  0.1226708E+00
        -11   -1    0    0    0    0  0.00000000000E+00  0.00000000000E+00  0.45593999997E+02  0.45594000000E+02  0.51100000000E-03 0.  1.
         11   -1    0    0    0    0 -0.00000000000E+00 -0.00000000000E+00 -0.45593999997E+02  0.45594000000E+02  0.51100000000E-03 0. -1.
    9900012    2    1    2    0    0 -0.17709307848E+02 -0.35500360829E+01 -0.49454807072E+01  0.72461544914E+02  0.69999966938E+02 0.  0.
        -12    1    1    2    0    0  0.17709307848E+02  0.35500360829E+01  0.49454807072E+01  0.18726455086E+02  0.00000000000E+00 0.  1.
         11    1    3    3    0    0 -0.27759901812E+02 -0.71105257346E+01 -0.31652589235E+01  0.28830376154E+02  0.51100000000E-03 0. -1.
        -11    1    3    3    0    0  0.14837403796E+02  0.53114872972E+01 -0.19569438150E+02  0.25126148899E+02  0.51100000000E-03 0.  1.
        -12    1    3    3    0    0 -0.47868098324E+01 -0.17509976454E+01  0.17789216367E+02  0.18505019861E+02  0.00000000000E+00 0.  1.
</event>
<event>
 7    1  0.1830715E-013  0.7246155E+02  0.7816164E-02  0.1226708E+00
        -11   -1    0    0    0    0  0.00000000000E+00  0.00000000000E+00  0.45593999997E+02  0.45594000000E+02  0.51100000000E-03 0. -1.
         11   -1    0    0    0    0 -0.00000000000E+00 -0.00000000000E+00 -0.45593999997E+02  0.45594000000E+02  0.51100000000E-03 0.  1.
    9900012    2    1    2    0    0  0.13825051680E+02 -0.11799775216E+02  0.45070075927E+01  0.72461551684E+02  0.69999975756E+02 0.  0.
        -12    1    1    2    0    0 -0.13825051680E+02  0.11799775216E+02 -0.45070075927E+01  0.18726448316E+02  0.00000000000E+00 0.  1.
         11    1    3    3    0    0 -0.10734932614E+02  0.53743317858E-01  0.14188851760E+02  0.17792278693E+02  0.51100000000E-03 0. -1.
        -11    1    3    3    0    0  0.20274245700E+02 -0.18079905720E+02 -0.25424089438E+02  0.37206348296E+02  0.51100000000E-03 0.  1.
        -12    1    3    3    0    0  0.42857385946E+01  0.62263871856E+01  0.15742245271E+02  0.17462924694E+02  0.00000000000E+00 0.  1.
</event>
<event>
 7    1  0.1830715E-013  0.7246158E+02  0.7816164E-02  0.1226708E+00
        -11   -1    0    0    0    0  0.00000000000E+00  0.00000000000E+00  0.45593999997E+02  0.45594000000E+02  0.51100000000E-03 0.  1.
         11   -1    0    0    0    0 -0.00000000000E+00 -0.00000000000E+00 -0.45593999997E+02  0.45594000000E+02  0.51100000000E-03 0. -1.
    9900012    2    1    2    0    0 -0.29710217371E+01  0.43715296030E+01 -0.17965013788E+02  0.72461575845E+02  0.70000007230E+02 0.  0.
        -12    1    1    2    0    0  0.29710217371E+01 -0.43715296030E+01  0.17965013788E+02  0.18726424155E+02  0.00000000000E+00 0.  1.
         11    1    3    3    0    0 -0.36675334409E+01  0.11082217979E+02 -0.10432202694E+02  0.15655580800E+02  0.51100000000E-03 0. -1.
        -11    1    3    3    0    0  0.28299488119E+02 -0.32758853243E+01 -0.37957931957E+01  0.28740224402E+02  0.51100000000E-03 0.  1.
        -12    1    3    3    0    0 -0.27602976415E+02 -0.34348030521E+01 -0.37370178985E+01  0.28065770642E+02  0.00000000000E+00 0.  1.
</event>
<event>
 7    1  0.1830715E-013  0.7246156E+02  0.7816164E-02  0.1226708E+00
        -11   -1    0    0    0    0  0.00000000000E+00  0.00000000000E+00  0.45593999997E+02  0.45594000000E+02  0.51100000000E-03 0.  1.
         11   -1    0    0    0    0 -0.00000000000E+00 -0.00000000000E+00 -0.45593999997E+02  0.45594000000E+02  0.51100000000E-03 0. -1.
    9900012    2    1    2    0    0 -0.44084870722E+01 -0.89399551606E+01 -0.15853136650E+02  0.72461561519E+02  0.69999988569E+02 0.  0.
        -12    1    1    2    0    0  0.44084870722E+01  0.89399551606E+01  0.15853136650E+02  0.18726438481E+02  0.00000000000E+00 0.  1.
         11    1    3    3    0    0 -0.31585759944E+00 -0.12757609771E+02  0.10285213873E+02  0.16390301942E+02  0.51100000000E-03 0.  1.
        -11    1    3    3    0    0 -0.56398937312E+01 -0.39538550603E+01 -0.39738521322E+02  0.40331023397E+02  0.51100000000E-03 0. -1.
        -12    1    3    3    0    0  0.15472642585E+01  0.77715096704E+01  0.13600170799E+02  0.15740236180E+02  0.00000000000E+00 0.  1.
</event>
<event>
 7    1  0.1830715E-013  0.7246168E+02  0.7816164E-02  0.1226708E+00
        -11   -1    0    0    0    0  0.00000000000E+00  0.00000000000E+00  0.45593999997E+02  0.45594000000E+02  0.51100000000E-03 0. -1.
         11   -1    0    0    0    0 -0.00000000000E+00 -0.00000000000E+00 -0.45593999997E+02  0.45594000000E+02  0.51100000000E-03 0.  1.
    9900012    2    1    2    0    0  0.43387197915E+01 -0.14713847340E+02  0.10740261616E+02  0.72461681286E+02  0.70000144587E+02 0.  0.
        -12    1    1    2    0    0 -0.43387197915E+01  0.14713847340E+02 -0.10740261616E+02  0.18726318714E+02  0.00000000000E+00 0.  1.
         11    1    3    3    0    0 -0.58536304900E+01  0.91241680521E+01  0.33170393627E+02  0.34896854388E+02  0.51100000000E-03 0. -1.
        -11    1    3    3    0    0  0.63702244080E+01 -0.50391289797E+01 -0.14873220756E+02  0.16946541706E+02  0.51100000000E-03 0.  1.
         12    1    3    3    0    0  0.38221258736E+01 -0.18798886413E+02 -0.75569112540E+01  0.20618285192E+02  0.00000000000E+00 0. -1.
</event>
<event>
 7    1  0.1830715E-013  0.7246154E+02  0.7816164E-02  0.1226708E+00
        -11   -1    0    0    0    0  0.00000000000E+00  0.00000000000E+00  0.45593999997E+02  0.45594000000E+02  0.51100000000E-03 0.  1.
         11   -1    0    0    0    0 -0.00000000000E+00 -0.00000000000E+00 -0.45593999997E+02  0.45594000000E+02  0.51100000000E-03 0. -1.
    9900012    2    1    2    0    0  0.10022399898E+02  0.76632268719E+01 -0.13838593716E+02  0.72461542197E+02  0.69999963399E+02 0.  0.
        -12    1    1    2    0    0 -0.10022399898E+02 -0.76632268719E+01  0.13838593716E+02  0.18726457803E+02  0.00000000000E+00 0.  1.
         11    1    3    3    0    0 -0.15103775666E+02 -0.28051155483E+00 -0.19322802323E+02  0.24526993619E+02  0.51100000000E-03 0. -1.
        -11    1    3    3    0    0  0.11479981094E+02  0.21733040499E+02  0.12154422583E+02  0.27419792191E+02  0.51100000000E-03 0.  1.
        -12    1    3    3    0    0  0.13646194470E+02 -0.13789302072E+02 -0.66702139751E+01  0.20514756387E+02  0.00000000000E+00 0.  1.
</event>
<event>
 7    1  0.1830715E-013  0.7246159E+02  0.7816164E-02  0.1226708E+00
        -11   -1    0    0    0    0  0.00000000000E+00  0.00000000000E+00  0.45593999997E+02  0.45594000000E+02  0.51100000000E-03 0. -1.
         11   -1    0    0    0    0 -0.00000000000E+00 -0.00000000000E+00 -0.45593999997E+02  0.45594000000E+02  0.51100000000E-03 0.  1.
    9900012    2    1    2    0    0 -0.17975482079E+00 -0.18674803781E+02  0.13776049855E+01  0.72461590745E+02  0.70000026641E+02 0.  0.
        -12    1    1    2    0    0  0.17975482079E+00  0.18674803781E+02 -0.13776049855E+01  0.18726409255E+02  0.00000000000E+00 0.  1.
         11    1    3    3    0    0 -0.16848558657E+01  0.14804659149E+02 -0.14382727474E+01  0.14969478968E+02  0.51100000000E-03 0.  1.
        -11    1    3    3    0    0 -0.19698682085E+02 -0.15713990221E+02  0.12570681075E+02  0.28160070801E+02  0.51100000000E-03 0. -1.
        -12    1    3    3    0    0  0.21203783130E+02 -0.17765472710E+02 -0.97548033423E+01  0.29332040977E+02  0.00000000000E+00 0.  1.
</event>
<event>
 7    1  0.1830715E-013  0.7246161E+02  0.7816164E-02  0.1226708E+00
        -11   -1    0    0    0    0  0.00000000000E+00  0.00000000000E+00  0.45593999997E+02  0.45594000000E+02  0.51100000000E-03 0. -1.
         11   -1    0    0    0    0 -0.00000000000E+00 -0.00000000000E+00 -0.45593999997E+02  0.45594000000E+02  0.51100000000E-03 0.  1.
    9900012    2    1    2    0    0 -0.12531693706E+02 -0.10438499746E+02  0.92017512688E+01  0.72461605512E+02  0.70000045878E+02 0.  0.
        -12    1    1    2    0    0  0.12531693706E+02  0.10438499746E+02 -0.92017512688E+01  0.18726394488E+02  0.00000000000E+00 0.  1.
         11    1    3    3    0    0  0.10099538882E+01 -0.16834022400E+02 -0.13143988704E+02  0.21381505006E+02  0.51100000000E-03 0. -1.
        -11    1    3    3    0    0 -0.22149453061E+02 -0.81113419290E+01  0.24576767900E+02  0.34064786210E+02  0.51100000000E-03 0.  1.
        -12    1    3    3    0    0  0.86078054670E+01  0.14506864583E+02 -0.22310279274E+01  0.17015314296E+02  0.00000000000E+00 0.  1.
</event>
<event>
 7    1  0.1830715E-013  0.7246160E+02  0.7816164E-02  0.1226708E+00
        -11   -1    0    0    0    0  0.00000000000E+00  0.00000000000E+00  0.45593999997E+02  0.45594000000E+02  0.51100000000E-03 0.  1.
         11   -1    0    0    0    0 -0.00000000000E+00 -0.00000000000E+00 -0.45593999997E+02  0.45594000000E+02  0.51100000000E-03 0. -1.
    9900012    2    1    2    0    0  0.52042126468E+01  0.50884634014E+01 -0.17254033855E+02  0.72461602233E+02  0.70000041606E+02 0.  0.
        -12    1    1    2    0    0 -0.52042126468E+01 -0.50884634014E+01  0.17254033855E+02  0.18726397767E+02  0.00000000000E+00 0.  1.
         11    1    3    3    0    0  0.24552048751E+01 -0.16256718636E+02 -0.30301124701E+02  0.34474151044E+02  0.51100000000E-03 0. -1.
        -11    1    3    3    0    0 -0.12576196037E+02  0.12658383495E+02  0.44732725224E+01  0.18395802423E+02  0.51100000000E-03 0.  1.
         12    1    3    3    0    0  0.15325203809E+02  0.86867985427E+01  0.85738183240E+01  0.19591648766E+02  0.00000000000E+00 0. -1.
</event>
<event>
 7    1  0.1830715E-013  0.7246146E+02  0.7816164E-02  0.1226708E+00
        -11   -1    0    0    0    0  0.00000000000E+00  0.00000000000E+00  0.45593999997E+02  0.45594000000E+02  0.51100000000E-03 0. -1.
         11   -1    0    0    0    0 -0.00000000000E+00 -0.00000000000E+00 -0.45593999997E+02  0.45594000000E+02  0.51100000000E-03 0.  1.
    9900012    2    1    2    0    0 -0.17125498554E+02 -0.74333058435E+01 -0.14650648422E+01  0.72461463976E+02  0.69999861500E+02 0.  0.
        -12    1    1    2    0    0  0.17125498554E+02  0.74333058435E+01  0.14650648422E+01  0.18726536024E+02  0.00000000000E+00 0.  1.
         11    1    3    3    0    0 -0.27110667885E+02  0.50896848080E+01  0.14338253941E+02  0.31088241040E+02  0.51100000000E-03 0. -1.
        -11    1    3    3    0    0 -0.12142936296E+00 -0.19397729830E+02  0.22955655112E+01  0.19533465871E+02  0.51100000000E-03 0.  1.
         12    1    3    3    0    0  0.10106598694E+02  0.68747391784E+01 -0.18098884295E+02  0.21839757065E+02  0.00000000000E+00 0. -1.
</event>
<event>
 7    1  0.1830715E-013  0.7246155E+02  0.7816164E-02  0.1226708E+00
        -11   -1    0    0    0    0  0.00000000000E+00  0.00000000000E+00  0.45593999997E+02  0.45594000000E+02  0.51100000000E-03 0. -1.
         11   -1    0    0    0    0 -0.00000000000E+00 -0.00000000000E+00 -0.45593999997E+02  0.45594000000E+02  0.51100000000E-03 0.  1.
    9900012    2    1    2    0    0  0.76537572657E+01  0.91542700417E+01  0.14432583053E+02  0.72461545081E+02  0.69999967154E+02 0.  0.
        -12    1    1    2    0    0 -0.76537572657E+01 -0.91542700417E+01 -0.14432583053E+02  0.18726454919E+02  0.00000000000E+00 0.  1.
         11    1    3    3    0    0 -0.85421447294E+01 -0.20817894320E+02 -0.32379873660E+01  0.22734060855E+02  0.51100000000E-03 0. -1.
        -11    1    3    3    0    0  0.23218372174E+02  0.12708991381E+02  0.43607346825E+01  0.26825869521E+02  0.51100000000E-03 0.  1.
         12    1    3    3    0    0 -0.70224701787E+01  0.17263172981E+02  0.13309835736E+02  0.22901614705E+02  0.00000000000E+00 0. -1.
</event>
<event>
 7    1  0.1830715E-013  0.7246156E+02  0.7816164E-02  0.1226708E+00
        -11   -1    0    0    0    0  0.00000000000E+00  0.00000000000E+00  0.45593999997E+02  0.45594000000E+02  0.51100000000E-03 0. -1.
         11   -1    0    0    0    0 -0.00000000000E+00 -0.00000000000E+00 -0.45593999997E+02  0.45594000000E+02  0.51100000000E-03 0.  1.
    9900012    2    1    2    0    0  0.87695708365E+00 -0.16549599705E+02  0.87190132669E+01  0.72461561565E+02  0.69999988628E+02 0.  0.
        -12    1    1    2    0    0 -0.87695708365E+00  0.16549599705E+02 -0.87190132669E+01  0.18726438435E+02  0.00000000000E+00 0.  1.
         11    1    3    3    0    0 -0.23030362458E+02 -0.24205155559E+02  0.66531047831E+01  0.34066860056E+02  0.51100000000E-03 0. -1.
        -11    1    3    3    0    0  0.66443997696E+01  0.65823636421E+01 -0.12617755524E+02  0.15706155295E+02  0.51100000000E-03 0.  1.
         12    1    3    3    0    0  0.17262919772E+02  0.10731922117E+01  0.14683664008E+02  0.22688546214E+02  0.00000000000E+00 0. -1.
</event>
<event>
 7    1  0.1830715E-013  0.7246157E+02  0.7816164E-02  0.1226708E+00
        -11   -1    0    0    0    0  0.00000000000E+00  0.00000000000E+00  0.45593999997E+02  0.45594000000E+02  0.51100000000E-03 0.  1.
         11   -1    0    0    0    0 -0.00000000000E+00 -0.00000000000E+00 -0.45593999997E+02  0.45594000000E+02  0.51100000000E-03 0. -1.
    9900012    2    1    2    0    0 -0.16048342139E+01 -0.12248948686E+02 -0.14073629910E+02  0.72461566927E+02  0.69999995614E+02 0.  0.
        -12    1    1    2    0    0  0.16048342139E+01  0.12248948686E+02  0.14073629910E+02  0.18726433073E+02  0.00000000000E+00 0.  1.
         11    1    3    3    0    0  0.17196967810E+02  0.20195807751E+02  0.10714448677E+00  0.26525795611E+02  0.51100000000E-03 0. -1.
        -11    1    3    3    0    0 -0.15990688235E+02 -0.62731017860E+01 -0.35053825326E+01  0.17531161490E+02  0.51100000000E-03 0.  1.
         12    1    3    3    0    0 -0.28111137889E+01 -0.26171654652E+02 -0.10675391864E+02  0.28404609826E+02  0.00000000000E+00 0. -1.
</event>
<event>
 7    1  0.1830715E-013  0.7246156E+02  0.7816164E-02  0.1226708E+00
        -11   -1    0    0    0    0  0.00000000000E+00  0.00000000000E+00  0.45593999997E+02  0.45594000000E+02  0.51100000000E-03 0. -1.
         11   -1    0    0    0    0 -0.00000000000E+00 -0.00000000000E+00 -0.45593999997E+02  0.45594000000E+02  0.51100000000E-03 0.  1.
    9900012    2    1    2    0    0 -0.94019689390E+01 -0.14808024156E+02  0.65578174832E+01  0.72461559616E+02  0.69999986089E+02 0.  0.
        -12    1    1    2    0    0  0.94019689390E+01  0.14808024156E+02 -0.65578174832E+01  0.18726440384E+02  0.00000000000E+00 0.  1.
         11    1    3    3    0    0  0.11800484609E+02 -0.78596292148E+01  0.21899725351E+02  0.26088755798E+02  0.51100000000E-03 0. -1.
        -11    1    3    3    0    0 -0.51884258298E+00  0.12625232767E+02 -0.12467403719E+02  0.17751108579E+02  0.51100000000E-03 0.  1.
         12    1    3    3    0    0 -0.20683610965E+02 -0.19573627708E+02 -0.28745041486E+01  0.28621695238E+02  0.00000000000E+00 0. -1.
</event>
<event>
 7    1  0.1830715E-013  0.7246159E+02  0.7816164E-02  0.1226708E+00
        -11   -1    0    0    0    0  0.00000000000E+00  0.00000000000E+00  0.45593999997E+02  0.45594000000E+02  0.51100000000E-03 0.  1.
         11   -1    0    0    0    0 -0.00000000000E+00 -0.00000000000E+00 -0.45593999997E+02  0.45594000000E+02  0.51100000000E-03 0. -1.
    9900012    2    1    2    0    0  0.64030445196E+01  0.45895944783E+01 -0.16988669511E+02  0.72461594890E+02  0.70000032040E+02 0.  0.
        -12    1    1    2    0    0 -0.64030445196E+01 -0.45895944783E+01  0.16988669511E+02  0.18726405110E+02  0.00000000000E+00 0.  1.
         11    1    3    3    0    0 -0.77761908480E+01 -0.11166323899E+02  0.19463755856E+02  0.23748552078E+02  0.51100000000E-03 0.  1.
        -11    1    3    3    0    0  0.88334767192E+01  0.11367969812E+02 -0.38819573596E+02  0.41403144120E+02  0.51100000000E-03 0. -1.
         12    1    3    3    0    0  0.53457586484E+01  0.43879485656E+01  0.23671482298E+01  0.73098986917E+01  0.00000000000E+00 0. -1.
</event>
<event>
 7    1  0.1830715E-013  0.7246153E+02  0.7816164E-02  0.1226708E+00
        -11   -1    0    0    0    0  0.00000000000E+00  0.00000000000E+00  0.45593999997E+02  0.45594000000E+02  0.51100000000E-03 0.  1.
         11   -1    0    0    0    0 -0.00000000000E+00 -0.00000000000E+00 -0.45593999997E+02  0.45594000000E+02  0.51100000000E-03 0. -1.
    9900012    2    1    2    0    0  0.45943591650E+00 -0.18599777003E+02  0.21255564018E+01  0.72461527403E+02  0.69999944126E+02 0.  0.
        -12    1    1    2    0    0 -0.45943591650E+00  0.18599777003E+02 -0.21255564018E+01  0.18726472597E+02  0.00000000000E+00 0.  1.
         11    1    3    3    0    0  0.57611691220E+01 -0.27382695266E+02 -0.24278988739E+02  0.37046894123E+02  0.51100000000E-03 0. -1.
        -11    1    3    3    0    0  0.52506608562E+01  0.10652684120E+02  0.18935824289E+02  0.22352059417E+02  0.51100000000E-03 0.  1.
         12    1    3    3    0    0 -0.10552394062E+02 -0.18697658568E+01  0.74687208515E+01  0.13062573864E+02  0.00000000000E+00 0. -1.
</event>
<event>
 7    1  0.1830715E-013  0.7246224E+02  0.7816164E-02  0.1226706E+00
        -11   -1    0    0    0    0  0.00000000000E+00  0.00000000000E+00  0.45593999997E+02  0.45594000000E+02  0.51100000000E-03 0.  1.
         11   -1    0    0    0    0 -0.00000000000E+00 -0.00000000000E+00 -0.45593999997E+02  0.45594000000E+02  0.51100000000E-03 0. -1.
    9900012    2    1    2    0    0  0.64678813455E+00  0.78099288841E+01 -0.17007075779E+02  0.72462243657E+02  0.70000877174E+02 0.  0.
        -12    1    1    2    0    0 -0.64678813455E+00 -0.78099288841E+01  0.17007075779E+02  0.18725756343E+02  0.00000000000E+00 0.  1.
         11    1    3    3    0    0 -0.21624616186E+02 -0.79211481608E+01 -0.16944328755E+02  0.28591587759E+02  0.51100000000E-03 0. -1.
        -11    1    3    3    0    0  0.22539787342E+02  0.93617350708E+01 -0.14288681812E+02  0.28281628757E+02  0.51100000000E-03 0.  1.
        -12    1    3    3    0    0 -0.26838302219E+00  0.63693419741E+01  0.14225934787E+02  0.15589027141E+02  0.00000000000E+00 0.  1.
</event>
<event>
 7    1  0.1830715E-013  0.7246151E+02  0.7816164E-02  0.1226708E+00
        -11   -1    0    0    0    0  0.00000000000E+00  0.00000000000E+00  0.45593999997E+02  0.45594000000E+02  0.51100000000E-03 0.  1.
         11   -1    0    0    0    0 -0.00000000000E+00 -0.00000000000E+00 -0.45593999997E+02  0.45594000000E+02  0.51100000000E-03 0. -1.
    9900012    2    1    2    0    0 -0.68123518356E+01 -0.14923716999E+02 -0.90308371095E+01  0.72461508457E+02  0.69999919446E+02 0.  0.
        -12    1    1    2    0    0  0.68123518356E+01  0.14923716999E+02  0.90308371095E+01  0.18726491543E+02  0.00000000000E+00 0.  1.
         11    1    3    3    0    0 -0.34377864317E+00 -0.17072724736E+02 -0.18510728456E+02  0.25184185155E+02  0.51100000000E-03 0. -1.
        -11    1    3    3    0    0  0.17957943574E+02  0.93507370978E+01  0.43034871193E+00  0.20251153596E+02  0.51100000000E-03 0.  1.
        -12    1    3    3    0    0 -0.24426516766E+02 -0.72017293609E+01  0.90495426347E+01  0.27026169707E+02  0.00000000000E+00 0.  1.
</event>
<event>
 7    1  0.1830715E-013  0.7246163E+02  0.7816164E-02  0.1226708E+00
        -11   -1    0    0    0    0  0.00000000000E+00  0.00000000000E+00  0.45593999997E+02  0.45594000000E+02  0.51100000000E-03 0. -1.
         11   -1    0    0    0    0 -0.00000000000E+00 -0.00000000000E+00 -0.45593999997E+02  0.45594000000E+02  0.51100000000E-03 0.  1.
    9900012    2    1    2    0    0 -0.13814494030E+02 -0.80487921586E+01  0.97495375934E+01  0.72461633994E+02  0.70000082980E+02 0.  0.
        -12    1    1    2    0    0  0.13814494030E+02  0.80487921586E+01 -0.97495375934E+01  0.18726366006E+02  0.00000000000E+00 0.  1.
         11    1    3    3    0    0 -0.26774836175E+02 -0.17413479262E+02  0.62624931715E+01  0.32547502718E+02  0.51100000000E-03 0. -1.
        -11    1    3    3    0    0  0.25721658966E+02  0.57549830807E+01  0.72520238851E+00  0.26367584057E+02  0.51100000000E-03 0.  1.
        -12    1    3    3    0    0 -0.12761316821E+02  0.36097040223E+01  0.27618420334E+01  0.13546547219E+02  0.00000000000E+00 0.  1.
</event>
<event>
 7    1  0.1830715E-013  0.7246147E+02  0.7816164E-02  0.1226708E+00
        -11   -1    0    0    0    0  0.00000000000E+00  0.00000000000E+00  0.45593999997E+02  0.45594000000E+02  0.51100000000E-03 0. -1.
         11   -1    0    0    0    0 -0.00000000000E+00 -0.00000000000E+00 -0.45593999997E+02  0.45594000000E+02  0.51100000000E-03 0.  1.
    9900012    2    1    2    0    0 -0.79991143054E+01 -0.10359836295E+02  0.13392947472E+02  0.72461465892E+02  0.69999863996E+02 0.  0.
        -12    1    1    2    0    0  0.79991143054E+01  0.10359836295E+02 -0.13392947472E+02  0.18726534108E+02  0.00000000000E+00 0.  1.
         11    1    3    3    0    0  0.61569251131E+00 -0.16256686905E+02  0.39150470830E+02  0.42395970480E+02  0.51100000000E-03 0. -1.
        -11    1    3    3    0    0 -0.10245100505E+02  0.96405918711E+00 -0.17859694727E+02  0.20612136970E+02  0.51100000000E-03 0.  1.
        -12    1    3    3    0    0  0.16302936887E+01  0.49327914235E+01 -0.78978286316E+01  0.94533584420E+01  0.00000000000E+00 0.  1.
</event>
<event>
 7    1  0.1830715E-013  0.7246162E+02  0.7816164E-02  0.1226708E+00
        -11   -1    0    0    0    0  0.00000000000E+00  0.00000000000E+00  0.45593999997E+02  0.45594000000E+02  0.51100000000E-03 0. -1.
         11   -1    0    0    0    0 -0.00000000000E+00 -0.00000000000E+00 -0.45593999997E+02  0.45594000000E+02  0.51100000000E-03 0.  1.
    9900012    2    1    2    0    0 -0.14140609270E+02 -0.12214117050E+02  0.12392500580E+01  0.72461622172E+02  0.70000067581E+02 0.  0.
        -12    1    1    2    0    0  0.14140609270E+02  0.12214117050E+02 -0.12392500580E+01  0.18726377828E+02  0.00000000000E+00 0.  1.
         11    1    3    3    0    0 -0.23069509210E+02 -0.27317601562E+02  0.59856678411E+01  0.36253025117E+02  0.51100000000E-03 0. -1.
        -11    1    3    3    0    0  0.20727285051E+02  0.89360444125E+01 -0.34282394299E+01  0.22830375844E+02  0.51100000000E-03 0.  1.
        -12    1    3    3    0    0 -0.11798385111E+02  0.61674401001E+01 -0.13181783531E+01  0.13378221212E+02  0.00000000000E+00 0.  1.
</event>
<event>
 7    1  0.1830715E-013  0.7246161E+02  0.7816164E-02  0.1226708E+00
        -11   -1    0    0    0    0  0.00000000000E+00  0.00000000000E+00  0.45593999997E+02  0.45594000000E+02  0.51100000000E-03 0. -1.
         11   -1    0    0    0    0 -0.00000000000E+00 -0.00000000000E+00 -0.45593999997E+02  0.45594000000E+02  0.51100000000E-03 0.  1.
    9900012    2    1    2    0    0 -0.17290233879E+01  0.18348880724E+02  0.33176453149E+01  0.72461609100E+02  0.70000050552E+02 0.  0.
        -12    1    1    2    0    0  0.17290233879E+01 -0.18348880724E+02 -0.33176453149E+01  0.18726390900E+02  0.00000000000E+00 0.  1.
         11    1    3    3    0    0  0.22574943740E+02  0.16545233035E+02  0.14558917709E+02  0.31548928764E+02  0.51100000000E-03 0. -1.
        -11    1    3    3    0    0 -0.16640370494E+02  0.14467362257E+02 -0.13624878531E+02  0.25919950156E+02  0.51100000000E-03 0.  1.
         12    1    3    3    0    0 -0.76635966338E+01 -0.12663714568E+02  0.23836061372E+01  0.14992730180E+02  0.00000000000E+00 0. -1.
</event>
<event>
 7    1  0.1830715E-013  0.7246160E+02  0.7816164E-02  0.1226708E+00
        -11   -1    0    0    0    0  0.00000000000E+00  0.00000000000E+00  0.45593999997E+02  0.45594000000E+02  0.51100000000E-03 0. -1.
         11   -1    0    0    0    0 -0.00000000000E+00 -0.00000000000E+00 -0.45593999997E+02  0.45594000000E+02  0.51100000000E-03 0.  1.
    9900012    2    1    2    0    0  0.10171596494E+02 -0.12780132332E+02 -0.91588776088E+01  0.72461596268E+02  0.70000033836E+02 0.  0.
        -12    1    1    2    0    0 -0.10171596494E+02  0.12780132332E+02  0.91588776088E+01  0.18726403732E+02  0.00000000000E+00 0.  1.
         11    1    3    3    0    0 -0.10262389924E+02  0.22174617088E+02 -0.69646791860E+01  0.25407421089E+02  0.51100000000E-03 0. -1.
        -11    1    3    3    0    0  0.11554901922E+02 -0.31303113280E+02 -0.98319294184E+01  0.34786024433E+02  0.51100000000E-03 0.  1.
         12    1    3    3    0    0  0.88790844963E+01 -0.36516361398E+01  0.76377309956E+01  0.12268150747E+02  0.00000000000E+00 0. -1.
</event>
<event>
 8    1  0.1830715E-013  0.7246157E+02  0.7816164E-02  0.1226708E+00
        -11   -1    0    0    0    0  0.00000000000E+00  0.00000000000E+00  0.45593999997E+02  0.45594000000E+02  0.51100000000E-03 0. -1.
         11   -1    0    0    0    0 -0.00000000000E+00 -0.00000000000E+00 -0.45593999997E+02  0.45594000000E+02  0.51100000000E-03 0.  1.
    9900012    2    1    2    0    0  0.30121956131E+01  0.18173655570E+02 -0.33651281428E+01  0.72461570372E+02  0.70000000101E+02 0.  0.
        -24    2    3    3    0    0  0.12964102567E+02  0.54162945282E+01  0.69810013594E+01  0.53256542157E+02  0.50893228438E+02 0.  0.
        -12    1    1    2    0    0 -0.30121956131E+01 -0.18173655570E+02  0.33651281428E+01  0.18726429628E+02  0.00000000000E+00 0.  1.
         11    1    4    4    0    0 -0.30522291976E+01  0.14601697809E+02  0.23926452945E+02  0.28195759128E+02  0.51100000000E-03 0. -1.
        -11    1    3    3    0    0 -0.99519069537E+01  0.12757361042E+02 -0.10346129502E+02  0.19205028214E+02  0.51100000000E-03 0.  1.
        -12    1    4    4    0    0  0.16016331764E+02 -0.91854032812E+01 -0.16945451586E+02  0.25060783030E+02  0.00000000000E+00 0.  1.
</event>
<event>
 7    1  0.1830715E-013  0.7246169E+02  0.7816164E-02  0.1226708E+00
        -11   -1    0    0    0    0  0.00000000000E+00  0.00000000000E+00  0.45593999997E+02  0.45594000000E+02  0.51100000000E-03 0. -1.
         11   -1    0    0    0    0 -0.00000000000E+00 -0.00000000000E+00 -0.45593999997E+02  0.45594000000E+02  0.51100000000E-03 0.  1.
    9900012    2    1    2    0    0 -0.16888861929E+02  0.61424256551E+00  0.80662090318E+01  0.72461690184E+02  0.70000156179E+02 0.  0.
        -12    1    1    2    0    0  0.16888861929E+02 -0.61424256551E+00 -0.80662090318E+01  0.18726309816E+02  0.00000000000E+00 0.  1.
         11    1    3    3    0    0 -0.82731911863E+01 -0.15344796583E+02 -0.12214000859E+02  0.21285917688E+02  0.51100000000E-03 0. -1.
        -11    1    3    3    0    0 -0.16042006645E+02  0.27707809273E+02  0.89510285169E+01  0.33244391763E+02  0.51100000000E-03 0.  1.
         12    1    3    3    0    0  0.74263359033E+01 -0.11748770124E+02  0.11329181374E+02  0.17931380733E+02  0.00000000000E+00 0. -1.
</event>
<event>
 8    1  0.1830715E-013  0.7246158E+02  0.7816164E-02  0.1226708E+00
        -11   -1    0    0    0    0  0.00000000000E+00  0.00000000000E+00  0.45593999997E+02  0.45594000000E+02  0.51100000000E-03 0. -1.
         11   -1    0    0    0    0 -0.00000000000E+00 -0.00000000000E+00 -0.45593999997E+02  0.45594000000E+02  0.51100000000E-03 0.  1.
    9900012    2    1    2    0    0 -0.78269271782E+01 -0.17012293077E+02 -0.80665026877E-02  0.72461575625E+02  0.70000006944E+02 0.  0.
         24    2    3    3    0    0  0.97466768952E+01 -0.67799925894E+01 -0.73118465864E+01  0.50854244990E+02  0.48905266822E+02 0.  0.
        -12    1    1    2    0    0  0.78269271782E+01  0.17012293077E+02  0.80665026877E-02  0.18726424375E+02  0.00000000000E+00 0.  1.
         11    1    3    3    0    0 -0.17573604073E+02 -0.10232300488E+02  0.73037800837E+01  0.21607330635E+02  0.51100000000E-03 0. -1.
        -11    1    4    4    0    0  0.29340543928E+02 -0.55873590355E+01  0.10974177767E+00  0.29868012028E+02  0.51100000000E-03 0.  1.
         12    1    4    4    0    0 -0.19593867033E+02 -0.11926335538E+01 -0.74215883641E+01  0.20986232962E+02  0.00000000000E+00 0. -1.
</event>
<event>
 7    1  0.1830715E-013  0.7246152E+02  0.7816164E-02  0.1226708E+00
        -11   -1    0    0    0    0  0.00000000000E+00  0.00000000000E+00  0.45593999997E+02  0.45594000000E+02  0.51100000000E-03 0.  1.
         11   -1    0    0    0    0 -0.00000000000E+00 -0.00000000000E+00 -0.45593999997E+02  0.45594000000E+02  0.51100000000E-03 0. -1.
    9900012    2    1    2    0    0 -0.17283123455E+02  0.27409642262E+01  0.66679730242E+01  0.72461518603E+02  0.69999932663E+02 0.  0.
        -12    1    1    2    0    0  0.17283123455E+02 -0.27409642262E+01 -0.66679730242E+01  0.18726481397E+02  0.00000000000E+00 0.  1.
         11    1    3    3    0    0 -0.15915588422E+02  0.62315825520E+00 -0.22925686236E+02  0.27915611594E+02  0.51100000000E-03 0. -1.
        -11    1    3    3    0    0  0.10396776809E+01 -0.15009618580E+02  0.19105772241E+02  0.24318719391E+02  0.51100000000E-03 0.  1.
        -12    1    3    3    0    0 -0.24072127138E+01  0.17127424551E+02  0.10487887019E+02  0.20227187618E+02  0.00000000000E+00 0.  1.
</event>
<event>
 7    1  0.1830715E-013  0.7246167E+02  0.7816164E-02  0.1226708E+00
        -11   -1    0    0    0    0  0.00000000000E+00  0.00000000000E+00  0.45593999997E+02  0.45594000000E+02  0.51100000000E-03 0.  1.
         11   -1    0    0    0    0 -0.00000000000E+00 -0.00000000000E+00 -0.45593999997E+02  0.45594000000E+02  0.51100000000E-03 0. -1.
    9900012    2    1    2    0    0 -0.57791386910E+01  0.15524773662E+02 -0.87325974276E+01  0.72461673636E+02  0.70000134622E+02 0.  0.
        -12    1    1    2    0    0  0.57791386910E+01 -0.15524773662E+02  0.87325974276E+01  0.18726326364E+02  0.00000000000E+00 0.  1.
         11    1    3    3    0    0 -0.21531510135E+02 -0.15248778102E+02 -0.11392402789E+02  0.28738789185E+02  0.51100000000E-03 0. -1.
        -11    1    3    3    0    0  0.10218420177E+02  0.25226629655E+02  0.13472656843E+02  0.30369580790E+02  0.51100000000E-03 0.  1.
        -12    1    3    3    0    0  0.55339512668E+01  0.55469221085E+01 -0.10812851482E+02  0.13353303661E+02  0.00000000000E+00 0.  1.
</event>
<event>
 7    1  0.1830715E-013  0.7246159E+02  0.7816164E-02  0.1226708E+00
        -11   -1    0    0    0    0  0.00000000000E+00  0.00000000000E+00  0.45593999997E+02  0.45594000000E+02  0.51100000000E-03 0. -1.
         11   -1    0    0    0    0 -0.00000000000E+00 -0.00000000000E+00 -0.45593999997E+02  0.45594000000E+02  0.51100000000E-03 0.  1.
    9900012    2    1    2    0    0  0.12696230576E+02 -0.13752907278E+02 -0.58456609416E+00  0.72461589587E+02  0.70000025132E+02 0.  0.
        -12    1    1    2    0    0 -0.12696230576E+02  0.13752907278E+02  0.58456609416E+00  0.18726410413E+02  0.00000000000E+00 0.  1.
         11    1    3    3    0    0  0.20110839519E+02 -0.28609197163E+02  0.91336666903E+01  0.36143545702E+02  0.51100000000E-03 0. -1.
        -11    1    3    3    0    0  0.78619203863E+01  0.13736829810E+02  0.33561109745E+01  0.16179424172E+02  0.51100000000E-03 0.  1.
         12    1    3    3    0    0 -0.15276529329E+02  0.11194600744E+01 -0.13074343759E+02  0.20138619713E+02  0.00000000000E+00 0. -1.
</event>
<event>
 7    1  0.2462458E-013  0.7246159E+02  0.7816164E-02  0.1226708E+00
        -11   -1    0    0    0    0  0.00000000000E+00  0.00000000000E+00  0.45593999997E+02  0.45594000000E+02  0.51100000000E-03 0.  1.
         11   -1    0    0    0    0 -0.00000000000E+00 -0.00000000000E+00 -0.45593999997E+02  0.45594000000E+02  0.51100000000E-03 0. -1.
    9900012    2    1    2    0    0 -0.23354657314E+01  0.15647628953E+02  0.10018765156E+02  0.72461592249E+02  0.70000028600E+02 0.  0.
        -12    1    1    2    0    0  0.23354657314E+01 -0.15647628953E+02 -0.10018765156E+02  0.18726407751E+02  0.00000000000E+00 0.  1.
         11    1    3    3    0    0  0.73397634034E+01  0.27909479854E+02  0.10904237437E+01  0.28879061909E+02  0.51100000000E-03 0. -1.
        -11    1    3    3    0    0  0.84865572742E+01 -0.15850302299E+02 -0.68679248169E+01  0.19246353652E+02  0.51100000000E-03 0.  1.
         12    1    3    3    0    0 -0.18161786409E+02  0.35884513977E+01  0.15796266229E+02  0.24336176688E+02  0.00000000000E+00 0. -1.
</event>
<event>
 7    1  0.1830715E-013  0.7246157E+02  0.7816164E-02  0.1226708E+00
        -11   -1    0    0    0    0  0.00000000000E+00  0.00000000000E+00  0.45593999997E+02  0.45594000000E+02  0.51100000000E-03 0. -1.
         11   -1    0    0    0    0 -0.00000000000E+00 -0.00000000000E+00 -0.45593999997E+02  0.45594000000E+02  0.51100000000E-03 0.  1.
    9900012    2    1    2    0    0  0.13160056052E+01 -0.11399531920E+02  0.14798583209E+02  0.72461567778E+02  0.69999996722E+02 0.  0.
        -12    1    1    2    0    0 -0.13160056052E+01  0.11399531920E+02 -0.14798583209E+02  0.18726432222E+02  0.00000000000E+00 0.  1.
         11    1    3    3    0    0  0.19347158636E+02  0.93815804031E+01 -0.11650358109E+02  0.24455212992E+02  0.51100000000E-03 0.  1.
        -11    1    3    3    0    0 -0.68381884996E+01 -0.11590149766E+02  0.30185359457E+02  0.33049180314E+02  0.51100000000E-03 0. -1.
        -12    1    3    3    0    0 -0.11192964531E+02 -0.91909625570E+01 -0.37364181388E+01  0.14957174473E+02  0.00000000000E+00 0.  1.
</event>
<event>
 7    1  0.1830715E-013  0.7246159E+02  0.7816164E-02  0.1226708E+00
        -11   -1    0    0    0    0  0.00000000000E+00  0.00000000000E+00  0.45593999997E+02  0.45594000000E+02  0.51100000000E-03 0.  1.
         11   -1    0    0    0    0 -0.00000000000E+00 -0.00000000000E+00 -0.45593999997E+02  0.45594000000E+02  0.51100000000E-03 0. -1.
    9900012    2    1    2    0    0  0.11662792963E+02  0.12996633411E+02  0.67635330551E+01  0.72461585525E+02  0.70000019840E+02 0.  0.
        -12    1    1    2    0    0 -0.11662792963E+02 -0.12996633411E+02 -0.67635330551E+01  0.18726414475E+02  0.00000000000E+00 0.  1.
         11    1    3    3    0    0  0.30913107509E+02  0.29543205220E+02  0.14682889142E+02  0.45210711390E+02  0.51100000000E-03 0. -1.
        -11    1    3    3    0    0 -0.14505384092E+02 -0.13211124994E+02 -0.85789825567E+01  0.21413522205E+02  0.51100000000E-03 0.  1.
         12    1    3    3    0    0 -0.47449304542E+01 -0.33354468149E+01  0.65962646962E+00  0.58373519296E+01  0.00000000000E+00 0. -1.
</event>
<event>
 7    1  0.1830715E-013  0.7246160E+02  0.7816164E-02  0.1226708E+00
        -11   -1    0    0    0    0  0.00000000000E+00  0.00000000000E+00  0.45593999997E+02  0.45594000000E+02  0.51100000000E-03 0. -1.
         11   -1    0    0    0    0 -0.00000000000E+00 -0.00000000000E+00 -0.45593999997E+02  0.45594000000E+02  0.51100000000E-03 0.  1.
    9900012    2    1    2    0    0 -0.64714922538E+01 -0.13423269164E+02 -0.11340805331E+02  0.72461595311E+02  0.70000032588E+02 0.  0.
        -12    1    1    2    0    0  0.64714922538E+01  0.13423269164E+02  0.11340805331E+02  0.18726404689E+02  0.00000000000E+00 0.  1.
         11    1    3    3    0    0  0.18831997207E+02 -0.12394630185E+02 -0.15269703583E+02  0.27229300836E+02  0.51100000000E-03 0.  1.
        -11    1    3    3    0    0 -0.34291994097E+02 -0.35251530035E+01  0.74368635943E+01  0.35265769568E+02  0.51100000000E-03 0. -1.
         12    1    3    3    0    0  0.89885046358E+01  0.24965140248E+01 -0.35079653421E+01  0.99665249062E+01  0.00000000000E+00 0. -1.
</event>
<event>
 7    1  0.1830715E-013  0.7246155E+02  0.7816164E-02  0.1226708E+00
        -11   -1    0    0    0    0  0.00000000000E+00  0.00000000000E+00  0.45593999997E+02  0.45594000000E+02  0.51100000000E-03 0. -1.
         11   -1    0    0    0    0 -0.00000000000E+00 -0.00000000000E+00 -0.45593999997E+02  0.45594000000E+02  0.51100000000E-03 0.  1.
    9900012    2    1    2    0    0 -0.21372267747E+01  0.18227470701E+02 -0.37244517761E+01  0.72461548989E+02  0.69999972245E+02 0.  0.
        -12    1    1    2    0    0  0.21372267747E+01 -0.18227470701E+02  0.37244517761E+01  0.18726451011E+02  0.00000000000E+00 0.  1.
         11    1    3    3    0    0  0.75423898880E+01 -0.28941092965E+01  0.21249893641E+02  0.22733708318E+02  0.51100000000E-03 0. -1.
        -11    1    3    3    0    0  0.58535984423E+01  0.15173317219E+02 -0.28417382482E+02  0.32742049379E+02  0.51100000000E-03 0.  1.
        -12    1    3    3    0    0 -0.15533215105E+02  0.59482627785E+01  0.34430370643E+01  0.16985791292E+02  0.00000000000E+00 0.  1.
</event>
<event>
 7    1  0.1830715E-013  0.7246156E+02  0.7816164E-02  0.1226708E+00
        -11   -1    0    0    0    0  0.00000000000E+00  0.00000000000E+00  0.45593999997E+02  0.45594000000E+02  0.51100000000E-03 0.  1.
         11   -1    0    0    0    0 -0.00000000000E+00 -0.00000000000E+00 -0.45593999997E+02  0.45594000000E+02  0.51100000000E-03 0. -1.
    9900012    2    1    2    0    0  0.11755381695E+02 -0.62656097010E+01 -0.13161786857E+02  0.72461561551E+02  0.69999988610E+02 0.  0.
        -12    1    1    2    0    0 -0.11755381695E+02  0.62656097010E+01  0.13161786857E+02  0.18726438449E+02  0.00000000000E+00 0.  1.
         11    1    3    3    0    0 -0.10436413458E+02  0.70024836149E+01  0.91424968381E+01  0.15541517022E+02  0.51100000000E-03 0. -1.
        -11    1    3    3    0    0  0.52750400229E+01 -0.28871953247E+02 -0.12844457705E+02  0.32037412903E+02  0.51100000000E-03 0.  1.
         12    1    3    3    0    0  0.16916755130E+02  0.15603859931E+02 -0.94598259905E+01  0.24882631626E+02  0.00000000000E+00 0. -1.
</event>
<event>
 7    1  0.1830715E-013  0.7246168E+02  0.7816164E-02  0.1226708E+00
        -11   -1    0    0    0    0  0.00000000000E+00  0.00000000000E+00  0.45593999997E+02  0.45594000000E+02  0.51100000000E-03 0. -1.
         11   -1    0    0    0    0 -0.00000000000E+00 -0.00000000000E+00 -0.45593999997E+02  0.45594000000E+02  0.51100000000E-03 0.  1.
    9900012    2    1    2    0    0 -0.16468778355E+02  0.35704653668E+01  0.81673926731E+01  0.72461676642E+02  0.70000138537E+02 0.  0.
        -12    1    1    2    0    0  0.16468778355E+02 -0.35704653668E+01 -0.81673926731E+01  0.18726323358E+02  0.00000000000E+00 0.  1.
         11    1    3    3    0    0 -0.48910661304E+00 -0.28727776007E+02  0.56154908446E+01  0.29275554260E+02  0.51100000000E-03 0. -1.
        -11    1    3    3    0    0  0.21296215876E+01  0.11879906267E+02 -0.73757098629E+01  0.14144559281E+02  0.51100000000E-03 0.  1.
         12    1    3    3    0    0 -0.18109293329E+02  0.20418335107E+02  0.99276116913E+01  0.29041563100E+02  0.00000000000E+00 0. -1.
</event>
<event>
 7    1  0.1830715E-013  0.7246153E+02  0.7816164E-02  0.1226708E+00
        -11   -1    0    0    0    0  0.00000000000E+00  0.00000000000E+00  0.45593999997E+02  0.45594000000E+02  0.51100000000E-03 0.  1.
         11   -1    0    0    0    0 -0.00000000000E+00 -0.00000000000E+00 -0.45593999997E+02  0.45594000000E+02  0.51100000000E-03 0. -1.
    9900012    2    1    2    0    0  0.21999104229E+01 -0.48545584332E+01 -0.17951997355E+02  0.72461533369E+02  0.69999951897E+02 0.  0.
        -12    1    1    2    0    0 -0.21999104229E+01  0.48545584332E+01  0.17951997355E+02  0.18726466631E+02  0.00000000000E+00 0.  1.
         11    1    3    3    0    0 -0.10423632150E+02 -0.20704018965E+02 -0.35425624395E+02  0.42335367868E+02  0.51100000000E-03 0. -1.
        -11    1    3    3    0    0  0.37586226712E+01  0.11338653990E+02  0.16156301657E+02  0.20092745014E+02  0.51100000000E-03 0.  1.
         12    1    3    3    0    0  0.88649199015E+01  0.45108065411E+01  0.13173253822E+01  0.10033420487E+02  0.00000000000E+00 0. -1.
</event>
<event>
 7    1  0.1830715E-013  0.7246157E+02  0.7816164E-02  0.1226708E+00
        -11   -1    0    0    0    0  0.00000000000E+00  0.00000000000E+00  0.45593999997E+02  0.45594000000E+02  0.51100000000E-03 0. -1.
         11   -1    0    0    0    0 -0.00000000000E+00 -0.00000000000E+00 -0.45593999997E+02  0.45594000000E+02  0.51100000000E-03 0.  1.
    9900012    2    1    2    0    0 -0.86977131949E+01 -0.21122036060E+00  0.16582657215E+02  0.72461565498E+02  0.69999993752E+02 0.  0.
        -12    1    1    2    0    0  0.86977131949E+01  0.21122036060E+00 -0.16582657215E+02  0.18726434502E+02  0.00000000000E+00 0.  1.
         11    1    3    3    0    0 -0.17273750115E+02 -0.59312312318E+00  0.25271127139E+01  0.17467699820E+02  0.51100000000E-03 0. -1.
        -11    1    3    3    0    0  0.84041263965E+01  0.25087415345E+02 -0.22274816700E+00  0.26458597207E+02  0.51100000000E-03 0.  1.
        -12    1    3    3    0    0  0.17191052376E+00 -0.24705512582E+02  0.14278292668E+02  0.28535268470E+02  0.00000000000E+00 0.  1.
</event>
<event>
 7    1  0.1830715E-013  0.7246172E+02  0.7816164E-02  0.1226708E+00
        -11   -1    0    0    0    0  0.00000000000E+00  0.00000000000E+00  0.45593999997E+02  0.45594000000E+02  0.51100000000E-03 0.  1.
         11   -1    0    0    0    0 -0.00000000000E+00 -0.00000000000E+00 -0.45593999997E+02  0.45594000000E+02  0.51100000000E-03 0. -1.
    9900012    2    1    2    0    0 -0.11922393803E+02  0.79152363404E+01 -0.12078039516E+02  0.72461722237E+02  0.70000197933E+02 0.  0.
        -12    1    1    2    0    0  0.11922393803E+02 -0.79152363404E+01  0.12078039516E+02  0.18726277763E+02  0.00000000000E+00 0.  1.
         11    1    3    3    0    0 -0.27751792662E+02  0.14932337090E+02 -0.14833676724E+02  0.34830656789E+02  0.51100000000E-03 0. -1.
        -11    1    3    3    0    0  0.21248009200E+02  0.68419235662E+01  0.40777163136E+01  0.22691795514E+02  0.51100000000E-03 0.  1.
        -12    1    3    3    0    0 -0.54186103407E+01 -0.13859024316E+02 -0.13220791054E+01  0.14939269935E+02  0.00000000000E+00 0.  1.
</event>
<event>
 7    1  0.1830715E-013  0.7246145E+02  0.7816164E-02  0.1226708E+00
        -11   -1    0    0    0    0  0.00000000000E+00  0.00000000000E+00  0.45593999997E+02  0.45594000000E+02  0.51100000000E-03 0.  1.
         11   -1    0    0    0    0 -0.00000000000E+00 -0.00000000000E+00 -0.45593999997E+02  0.45594000000E+02  0.51100000000E-03 0. -1.
    9900012    2    1    2    0    0  0.23065485940E+01 -0.16211903547E+02 -0.90850345456E+01  0.72461445706E+02  0.69999837700E+02 0.  0.
        -12    1    1    2    0    0 -0.23065485940E+01  0.16211903547E+02  0.90850345456E+01  0.18726554294E+02  0.00000000000E+00 0.  1.
         11    1    3    3    0    0 -0.12871522891E+02  0.21441915804E+01 -0.31868909354E+02  0.34436913955E+02  0.51100000000E-03 0. -1.
        -11    1    3    3    0    0  0.73830030274E+01 -0.20544447885E+01  0.17646794243E+02  0.19238992292E+02  0.51100000000E-03 0.  1.
         12    1    3    3    0    0  0.77950684572E+01 -0.16301650339E+02  0.51370805650E+01  0.18785539459E+02  0.00000000000E+00 0. -1.
</event>
<event>
 7    1  0.1830715E-013  0.7246154E+02  0.7816164E-02  0.1226708E+00
        -11   -1    0    0    0    0  0.00000000000E+00  0.00000000000E+00  0.45593999997E+02  0.45594000000E+02  0.51100000000E-03 0.  1.
         11   -1    0    0    0    0 -0.00000000000E+00 -0.00000000000E+00 -0.45593999997E+02  0.45594000000E+02  0.51100000000E-03 0. -1.
    9900012    2    1    2    0    0  0.24009612569E+01  0.27545459165E+01 -0.18366494105E+02  0.72461541609E+02  0.69999962632E+02 0.  0.
        -12    1    1    2    0    0 -0.24009612569E+01 -0.27545459165E+01  0.18366494105E+02  0.18726458391E+02  0.00000000000E+00 0.  1.
         11    1    3    3    0    0  0.18270869760E+02  0.26672433882E+02 -0.86112438526E+01  0.33457389796E+02  0.51100000000E-03 0. -1.
        -11    1    3    3    0    0 -0.17320585617E+02 -0.49087883599E+01 -0.10138986578E+01  0.18031275052E+02  0.51100000000E-03 0.  1.
         12    1    3    3    0    0  0.14506771139E+01 -0.19009099606E+02 -0.87413515948E+01  0.20972876761E+02  0.00000000000E+00 0. -1.
</event>
<event>
 7    1  0.1830715E-013  0.7246146E+02  0.7816164E-02  0.1226708E+00
        -11   -1    0    0    0    0  0.00000000000E+00  0.00000000000E+00  0.45593999997E+02  0.45594000000E+02  0.51100000000E-03 0. -1.
         11   -1    0    0    0    0 -0.00000000000E+00 -0.00000000000E+00 -0.45593999997E+02  0.45594000000E+02  0.51100000000E-03 0.  1.
    9900012    2    1    2    0    0  0.68250103762E+01  0.12343709968E+02  0.12318086834E+02  0.72461462529E+02  0.69999859616E+02 0.  0.
        -12    1    1    2    0    0 -0.68250103762E+01 -0.12343709968E+02 -0.12318086834E+02  0.18726537471E+02  0.00000000000E+00 0.  1.
         11    1    3    3    0    0 -0.29192166474E+02  0.59482996622E-01  0.10062778086E+02  0.30877914838E+02  0.51100000000E-03 0. -1.
        -11    1    3    3    0    0  0.26073423419E+02  0.11462197834E+02 -0.54231345617E+01  0.28993374704E+02  0.51100000000E-03 0.  1.
        -12    1    3    3    0    0  0.99437534307E+01  0.82202913684E+00  0.76784433092E+01  0.12590172987E+02  0.00000000000E+00 0.  1.
</event>
<event>
 7    1  0.1830715E-013  0.7246150E+02  0.7816164E-02  0.1226708E+00
        -11   -1    0    0    0    0  0.00000000000E+00  0.00000000000E+00  0.45593999997E+02  0.45594000000E+02  0.51100000000E-03 0. -1.
         11   -1    0    0    0    0 -0.00000000000E+00 -0.00000000000E+00 -0.45593999997E+02  0.45594000000E+02  0.51100000000E-03 0.  1.
    9900012    2    1    2    0    0 -0.15579387889E+02  0.61662528601E+01  0.83631245259E+01  0.72461498641E+02  0.69999906658E+02 0.  0.
        -12    1    1    2    0    0  0.15579387889E+02 -0.61662528601E+01 -0.83631245259E+01  0.18726501359E+02  0.00000000000E+00 0.  1.
         11    1    3    3    0    0 -0.18343907223E+02  0.25600110729E+02  0.20179142649E+02  0.37404042560E+02  0.51100000000E-03 0. -1.
        -11    1    3    3    0    0 -0.43626566895E+01 -0.23631673091E+02 -0.11831990409E+02  0.26785905692E+02  0.51100000000E-03 0.  1.
         12    1    3    3    0    0  0.71271760240E+01  0.41978152218E+01  0.15972286577E-01  0.82715503884E+01  0.00000000000E+00 0. -1.
</event>
<event>
 7    1  0.1830715E-013  0.7246173E+02  0.7816164E-02  0.1226708E+00
        -11   -1    0    0    0    0  0.00000000000E+00  0.00000000000E+00  0.45593999997E+02  0.45594000000E+02  0.51100000000E-03 0. -1.
         11   -1    0    0    0    0 -0.00000000000E+00 -0.00000000000E+00 -0.45593999997E+02  0.45594000000E+02  0.51100000000E-03 0.  1.
    9900012    2    1    2    0    0  0.17813794191E+02  0.22190072234E+00 -0.57699847305E+01  0.72461728956E+02  0.70000206686E+02 0.  0.
        -12    1    1    2    0    0 -0.17813794191E+02 -0.22190072234E+00  0.57699847305E+01  0.18726271044E+02  0.00000000000E+00 0.  1.
         11    1    3    3    0    0  0.28846983948E+02  0.16891938060E+01 -0.25399203165E+02  0.38472345656E+02  0.51100000000E-03 0. -1.
        -11    1    3    3    0    0 -0.10052745951E+02  0.11195219671E+02  0.10458410252E+02  0.18324000379E+02  0.51100000000E-03 0.  1.
         12    1    3    3    0    0 -0.98044380509E+00 -0.12662512755E+02  0.91708081827E+01  0.15665382921E+02  0.00000000000E+00 0. -1.
</event>
<event>
 7    1  0.1830715E-013  0.7246157E+02  0.7816164E-02  0.1226708E+00
        -11   -1    0    0    0    0  0.00000000000E+00  0.00000000000E+00  0.45593999997E+02  0.45594000000E+02  0.51100000000E-03 0. -1.
         11   -1    0    0    0    0 -0.00000000000E+00 -0.00000000000E+00 -0.45593999997E+02  0.45594000000E+02  0.51100000000E-03 0.  1.
    9900012    2    1    2    0    0  0.87749583897E+01  0.56169944283E+01  0.15560483360E+02  0.72461570453E+02  0.70000000207E+02 0.  0.
        -12    1    1    2    0    0 -0.87749583897E+01 -0.56169944283E+01 -0.15560483360E+02  0.18726429547E+02  0.00000000000E+00 0.  1.
         11    1    3    3    0    0 -0.10303824004E+02  0.57418061357E+01  0.16605724100E+02  0.20368780031E+02  0.51100000000E-03 0. -1.
        -11    1    3    3    0    0  0.16064047915E+02  0.22529789477E+02 -0.68648939695E+01  0.28509153245E+02  0.51100000000E-03 0.  1.
        -12    1    3    3    0    0  0.30147344783E+01 -0.22654601184E+02  0.58196532298E+01  0.23583637177E+02  0.00000000000E+00 0.  1.
</event>
<event>
 7    1  0.1830715E-013  0.7246160E+02  0.7816164E-02  0.1226708E+00
        -11   -1    0    0    0    0  0.00000000000E+00  0.00000000000E+00  0.45593999997E+02  0.45594000000E+02  0.51100000000E-03 0.  1.
         11   -1    0    0    0    0 -0.00000000000E+00 -0.00000000000E+00 -0.45593999997E+02  0.45594000000E+02  0.51100000000E-03 0. -1.
    9900012    2    1    2    0    0  0.49686523554E+01 -0.18052609551E+02  0.30610799551E+00  0.72461603658E+02  0.70000043463E+02 0.  0.
        -12    1    1    2    0    0 -0.49686523554E+01  0.18052609551E+02 -0.30610799551E+00  0.18726396342E+02  0.00000000000E+00 0.  1.
         11    1    3    3    0    0  0.46845890722E+01 -0.20299095566E+02 -0.93262022749E+00  0.20853499378E+02  0.51100000000E-03 0. -1.
        -11    1    3    3    0    0 -0.13474876007E+02  0.73000866594E+01 -0.20373638326E+02  0.25494091228E+02  0.51100000000E-03 0.  1.
        -12    1    3    3    0    0  0.13758939290E+02 -0.50536006449E+01  0.21612366549E+02  0.26114013052E+02  0.00000000000E+00 0.  1.
</event>
<event>
 7    1  0.1830715E-013  0.7246156E+02  0.7816164E-02  0.1226708E+00
        -11   -1    0    0    0    0  0.00000000000E+00  0.00000000000E+00  0.45593999997E+02  0.45594000000E+02  0.51100000000E-03 0. -1.
         11   -1    0    0    0    0 -0.00000000000E+00 -0.00000000000E+00 -0.45593999997E+02  0.45594000000E+02  0.51100000000E-03 0.  1.
    9900012    2    1    2    0    0  0.15115038273E+02 -0.10162877815E+02  0.43509672009E+01  0.72461564593E+02  0.69999992573E+02 0.  0.
        -12    1    1    2    0    0 -0.15115038273E+02  0.10162877815E+02 -0.43509672009E+01  0.18726435407E+02  0.00000000000E+00 0.  1.
         11    1    3    3    0    0  0.10062464338E+02 -0.36115681699E+02  0.31612687674E+01  0.37624317583E+02  0.51100000000E-03 0. -1.
        -11    1    3    3    0    0 -0.68986521970E+01  0.67568473906E+01 -0.56817234804E+01  0.11203944429E+02  0.51100000000E-03 0.  1.
         12    1    3    3    0    0  0.11951226132E+02  0.19195956493E+02  0.68714219139E+01  0.23633302581E+02  0.00000000000E+00 0. -1.
</event>
<event>
 7    1  0.1830715E-013  0.7246163E+02  0.7816164E-02  0.1226708E+00
        -11   -1    0    0    0    0  0.00000000000E+00  0.00000000000E+00  0.45593999997E+02  0.45594000000E+02  0.51100000000E-03 0. -1.
         11   -1    0    0    0    0 -0.00000000000E+00 -0.00000000000E+00 -0.45593999997E+02  0.45594000000E+02  0.51100000000E-03 0.  1.
    9900012    2    1    2    0    0 -0.25980151199E+01 -0.14381217950E+02  0.11709302173E+02  0.72461631701E+02  0.70000079994E+02 0.  0.
        -12    1    1    2    0    0  0.25980151199E+01  0.14381217950E+02 -0.11709302173E+02  0.18726368299E+02  0.00000000000E+00 0.  1.
         11    1    3    3    0    0  0.62204563662E+01 -0.77962758137E+01 -0.10581385556E+02  0.14541035538E+02  0.51100000000E-03 0. -1.
        -11    1    3    3    0    0 -0.30084825022E+02 -0.10174260826E+02  0.15274446385E+02  0.35240899429E+02  0.51100000000E-03 0.  1.
        -12    1    3    3    0    0  0.21266353536E+02  0.35893186895E+01  0.70162413441E+01  0.22679696734E+02  0.00000000000E+00 0.  1.
</event>
<event>
 7    1  0.1830715E-013  0.7246164E+02  0.7816164E-02  0.1226708E+00
        -11   -1    0    0    0    0  0.00000000000E+00  0.00000000000E+00  0.45593999997E+02  0.45594000000E+02  0.51100000000E-03 0.  1.
         11   -1    0    0    0    0 -0.00000000000E+00 -0.00000000000E+00 -0.45593999997E+02  0.45594000000E+02  0.51100000000E-03 0. -1.
    9900012    2    1    2    0    0  0.98008568645E+01 -0.11280874509E+02 -0.11285460111E+02  0.72461640640E+02  0.70000091638E+02 0.  0.
        -12    1    1    2    0    0 -0.98008568645E+01  0.11280874509E+02  0.11285460111E+02  0.18726359360E+02  0.00000000000E+00 0.  1.
         11    1    3    3    0    0  0.33018850941E+01  0.32419984960E+01  0.90483080521E+00  0.47150523295E+01  0.51100000000E-03 0. -1.
        -11    1    3    3    0    0 -0.14433302041E+02 -0.26658690546E+02 -0.25956066676E+02  0.39908938686E+02  0.51100000000E-03 0.  1.
        -12    1    3    3    0    0  0.20932273812E+02  0.12135817542E+02  0.13765775760E+02  0.27837649624E+02  0.00000000000E+00 0.  1.
</event>
<event>
 7    1  0.1830715E-013  0.7246160E+02  0.7816164E-02  0.1226708E+00
        -11   -1    0    0    0    0  0.00000000000E+00  0.00000000000E+00  0.45593999997E+02  0.45594000000E+02  0.51100000000E-03 0.  1.
         11   -1    0    0    0    0 -0.00000000000E+00 -0.00000000000E+00 -0.45593999997E+02  0.45594000000E+02  0.51100000000E-03 0. -1.
    9900012    2    1    2    0    0  0.17165756677E+02 -0.63091825478E+01 -0.40260531209E+01  0.72461599106E+02  0.70000037533E+02 0.  0.
        -12    1    1    2    0    0 -0.17165756677E+02  0.63091825478E+01  0.40260531209E+01  0.18726400894E+02  0.00000000000E+00 0.  1.
         11    1    3    3    0    0  0.17768135207E+02 -0.22010805578E+01 -0.29651812041E+02  0.34637859950E+02  0.51100000000E-03 0. -1.
        -11    1    3    3    0    0 -0.98530383761E+01 -0.89133631734E+01  0.40966372674E+01  0.13903698985E+02  0.51100000000E-03 0.  1.
         12    1    3    3    0    0  0.92506598459E+01  0.48052611835E+01  0.21529121653E+02  0.23920040171E+02  0.00000000000E+00 0. -1.
</event>
<event>
 7    1  0.1830715E-013  0.7246133E+02  0.7816164E-02  0.1226709E+00
        -11   -1    0    0    0    0  0.00000000000E+00  0.00000000000E+00  0.45593999997E+02  0.45594000000E+02  0.51100000000E-03 0.  1.
         11   -1    0    0    0    0 -0.00000000000E+00 -0.00000000000E+00 -0.45593999997E+02  0.45594000000E+02  0.51100000000E-03 0. -1.
    9900012    2    1    2    0    0 -0.16844761089E+02 -0.67999801346E+01  0.45500034437E+01  0.72461328183E+02  0.69999684605E+02 0.  0.
        -12    1    1    2    0    0  0.16844761089E+02  0.67999801346E+01 -0.45500034437E+01  0.18726671817E+02  0.00000000000E+00 0.  1.
         11    1    3    3    0    0 -0.23499953885E+02 -0.93805498106E+00  0.13124023674E+02  0.26932652625E+02  0.51100000000E-03 0. -1.
        -11    1    3    3    0    0 -0.26110450963E+01  0.17427896978E+02 -0.10286185129E+02  0.20404772832E+02  0.51100000000E-03 0.  1.
        -12    1    3    3    0    0  0.92662378921E+01 -0.23289822131E+02  0.17121648991E+01  0.25123902727E+02  0.00000000000E+00 0.  1.
</event>
<event>
 7    1  0.1830715E-013  0.7246153E+02  0.7816164E-02  0.1226708E+00
        -11   -1    0    0    0    0  0.00000000000E+00  0.00000000000E+00  0.45593999997E+02  0.45594000000E+02  0.51100000000E-03 0.  1.
         11   -1    0    0    0    0 -0.00000000000E+00 -0.00000000000E+00 -0.45593999997E+02  0.45594000000E+02  0.51100000000E-03 0. -1.
    9900012    2    1    2    0    0 -0.13556581034E+02  0.82004661627E+01 -0.99826008144E+01  0.72461525328E+02  0.69999941423E+02 0.  0.
        -12    1    1    2    0    0  0.13556581034E+02 -0.82004661627E+01  0.99826008144E+01  0.18726474672E+02  0.00000000000E+00 0.  1.
         11    1    3    3    0    0 -0.63363927162E+01 -0.28737237745E+02 -0.69367324516E+01  0.30234036503E+02  0.51100000000E-03 0. -1.
        -11    1    3    3    0    0 -0.20592611892E+01  0.24677611521E+02  0.67975927336E+01  0.25679414601E+02  0.51100000000E-03 0.  1.
        -12    1    3    3    0    0 -0.51609271290E+01  0.12260092387E+02 -0.98434610964E+01  0.16548074224E+02  0.00000000000E+00 0.  1.
</event>
<event>
 7    1  0.1830715E-013  0.7246159E+02  0.7816164E-02  0.1226708E+00
        -11   -1    0    0    0    0  0.00000000000E+00  0.00000000000E+00  0.45593999997E+02  0.45594000000E+02  0.51100000000E-03 0.  1.
         11   -1    0    0    0    0 -0.00000000000E+00 -0.00000000000E+00 -0.45593999997E+02  0.45594000000E+02  0.51100000000E-03 0. -1.
    9900012    2    1    2    0    0  0.24890033417E+01  0.10001651752E+02 -0.15634901114E+02  0.72461593291E+02  0.70000029957E+02 0.  0.
        -12    1    1    2    0    0 -0.24890033417E+01 -0.10001651752E+02  0.15634901114E+02  0.18726406709E+02  0.00000000000E+00 0.  1.
         11    1    3    3    0    0  0.90370389405E+01  0.15400155030E+01 -0.29341372094E+02  0.30740133981E+02  0.51100000000E-03 0. -1.
        -11    1    3    3    0    0 -0.21054764941E+02  0.67240096141E+01  0.15508192857E+02  0.27000360701E+02  0.51100000000E-03 0.  1.
        -12    1    3    3    0    0  0.14506729342E+02  0.17376266351E+01 -0.18017218761E+01  0.14721098609E+02  0.00000000000E+00 0.  1.
</event>
<event>
 7    1  0.1830715E-013  0.7246162E+02  0.7816164E-02  0.1226708E+00
        -11   -1    0    0    0    0  0.00000000000E+00  0.00000000000E+00  0.45593999997E+02  0.45594000000E+02  0.51100000000E-03 0.  1.
         11   -1    0    0    0    0 -0.00000000000E+00 -0.00000000000E+00 -0.45593999997E+02  0.45594000000E+02  0.51100000000E-03 0. -1.
    9900012    2    1    2    0    0 -0.72122089737E+00 -0.81786688728E-01 -0.18712305539E+02  0.72461622154E+02  0.70000067557E+02 0.  0.
        -12    1    1    2    0    0  0.72122089737E+00  0.81786688728E-01  0.18712305539E+02  0.18726377846E+02  0.00000000000E+00 0.  1.
         11    1    3    3    0    0  0.12050493346E+02  0.91606244707E+01 -0.24348178142E+02  0.28669935641E+02  0.51100000000E-03 0. -1.
        -11    1    3    3    0    0  0.46135479604E+01 -0.16168066583E+02  0.15297238755E+02  0.22730963807E+02  0.51100000000E-03 0.  1.
        -12    1    3    3    0    0 -0.17385262204E+02  0.69256554239E+01 -0.96613661520E+01  0.21060722705E+02  0.00000000000E+00 0.  1.
</event>
<event>
 8    1  0.1830715E-013  0.7246151E+02  0.7816164E-02  0.1226708E+00
        -11   -1    0    0    0    0  0.00000000000E+00  0.00000000000E+00  0.45593999997E+02  0.45594000000E+02  0.51100000000E-03 0. -1.
         11   -1    0    0    0    0 -0.00000000000E+00 -0.00000000000E+00 -0.45593999997E+02  0.45594000000E+02  0.51100000000E-03 0.  1.
    9900012    2    1    2    0    0 -0.14152780341E+01 -0.14006103802E+02  0.12349397883E+02  0.72461505835E+02  0.69999916030E+02 0.  0.
        -24    2    3    3    0    0 -0.16371360868E+02 -0.84748885368E+01  0.14178904298E+02  0.56410778437E+02  0.51393476283E+02 0.  0.
        -12    1    1    2    0    0  0.14152780341E+01  0.14006103802E+02 -0.12349397883E+02  0.18726494165E+02  0.00000000000E+00 0.  1.
         11    1    4    4    0    0 -0.24228191004E+02 -0.16699422042E+02  0.26530415893E+02  0.39619930636E+02  0.51100000000E-03 0. -1.
        -11    1    3    3    0    0  0.14956082834E+02 -0.55312152648E+01 -0.18295064149E+01  0.16050727398E+02  0.51100000000E-03 0.  1.
        -12    1    4    4    0    0  0.78568301369E+01  0.82245335056E+01 -0.12351511595E+02  0.16790847801E+02  0.00000000000E+00 0.  1.
</event>
<event>
 7    1  0.1830715E-013  0.7246150E+02  0.7816164E-02  0.1226708E+00
        -11   -1    0    0    0    0  0.00000000000E+00  0.00000000000E+00  0.45593999997E+02  0.45594000000E+02  0.51100000000E-03 0.  1.
         11   -1    0    0    0    0 -0.00000000000E+00 -0.00000000000E+00 -0.45593999997E+02  0.45594000000E+02  0.51100000000E-03 0. -1.
    9900012    2    1    2    0    0  0.99222916326E+01 -0.13776113388E+02 -0.79024425067E+01  0.72461500890E+02  0.69999909589E+02 0.  0.
        -12    1    1    2    0    0 -0.99222916326E+01  0.13776113388E+02  0.79024425067E+01  0.18726499110E+02  0.00000000000E+00 0.  1.
         11    1    3    3    0    0  0.29735895035E+02 -0.14598741544E+02 -0.15005846903E+02  0.36366497628E+02  0.51100000000E-03 0. -1.
        -11    1    3    3    0    0 -0.25460395069E+01 -0.11408189139E+02  0.91382582478E+01  0.14837009829E+02  0.51100000000E-03 0.  1.
         12    1    3    3    0    0 -0.17267563896E+02  0.12230817295E+02 -0.20348538515E+01  0.21257993433E+02  0.00000000000E+00 0. -1.
</event>
<event>
 7    1  0.1830715E-013  0.7246154E+02  0.7816164E-02  0.1226708E+00
        -11   -1    0    0    0    0  0.00000000000E+00  0.00000000000E+00  0.45593999997E+02  0.45594000000E+02  0.51100000000E-03 0.  1.
         11   -1    0    0    0    0 -0.00000000000E+00 -0.00000000000E+00 -0.45593999997E+02  0.45594000000E+02  0.51100000000E-03 0. -1.
    9900012    2    1    2    0    0  0.55200423486E+01  0.83597030614E+01 -0.15821659214E+02  0.72461537358E+02  0.69999957094E+02 0.  0.
        -12    1    1    2    0    0 -0.55200423486E+01 -0.83597030614E+01  0.15821659214E+02  0.18726462642E+02  0.00000000000E+00 0.  1.
         11    1    3    3    0    0 -0.72031235443E+01 -0.44354434452E+01 -0.32487284402E+02  0.33570549525E+02  0.51100000000E-03 0. -1.
        -11    1    3    3    0    0  0.17606589747E+02 -0.19778171917E+01  0.15052765727E+02  0.23248430477E+02  0.51100000000E-03 0.  1.
         12    1    3    3    0    0 -0.48834238541E+01  0.14772963698E+02  0.16128594608E+01  0.15642557355E+02  0.00000000000E+00 0. -1.
</event>
<event>
 7    1  0.1830715E-013  0.7246158E+02  0.7816164E-02  0.1226708E+00
        -11   -1    0    0    0    0  0.00000000000E+00  0.00000000000E+00  0.45593999997E+02  0.45594000000E+02  0.51100000000E-03 0.  1.
         11   -1    0    0    0    0 -0.00000000000E+00 -0.00000000000E+00 -0.45593999997E+02  0.45594000000E+02  0.51100000000E-03 0. -1.
    9900012    2    1    2    0    0  0.50412688742E+01  0.39457416707E+01 -0.17598173701E+02  0.72461575173E+02  0.70000006355E+02 0.  0.
        -12    1    1    2    0    0 -0.50412688742E+01 -0.39457416707E+01  0.17598173701E+02  0.18726424827E+02  0.00000000000E+00 0.  1.
         11    1    3    3    0    0  0.29202200415E+02  0.19286657963E+01  0.51669275148E+01  0.29718435373E+02  0.51100000000E-03 0. -1.
        -11    1    3    3    0    0 -0.17495968396E+02  0.62792501424E+01  0.56978369187E-01  0.18588736892E+02  0.51100000000E-03 0.  1.
         12    1    3    3    0    0 -0.66649631447E+01 -0.42621742680E+01 -0.22822079585E+02  0.24154402907E+02  0.00000000000E+00 0. -1.
</event>
<event>
 7    1  0.1830715E-013  0.7246155E+02  0.7816164E-02  0.1226708E+00
        -11   -1    0    0    0    0  0.00000000000E+00  0.00000000000E+00  0.45593999997E+02  0.45594000000E+02  0.51100000000E-03 0.  1.
         11   -1    0    0    0    0 -0.00000000000E+00 -0.00000000000E+00 -0.45593999997E+02  0.45594000000E+02  0.51100000000E-03 0. -1.
    9900012    2    1    2    0    0 -0.19128022263E+01 -0.16704320996E+02 -0.82454069182E+01  0.72461551123E+02  0.69999975025E+02 0.  0.
        -12    1    1    2    0    0  0.19128022263E+01  0.16704320996E+02  0.82454069182E+01  0.18726448877E+02  0.00000000000E+00 0.  1.
         11    1    3    3    0    0  0.86910771712E+01 -0.66531269815E+01 -0.16691862228E+02  0.19960390425E+02  0.51100000000E-03 0. -1.
        -11    1    3    3    0    0 -0.12731296978E+02 -0.28348009891E+02  0.12742551343E+02  0.33586726582E+02  0.51100000000E-03 0.  1.
        -12    1    3    3    0    0  0.21274175806E+01  0.18296815876E+02 -0.42960960326E+01  0.18914434115E+02  0.00000000000E+00 0.  1.
</event>
<event>
 7    1  0.1830715E-013  0.7246156E+02  0.7816164E-02  0.1226708E+00
        -11   -1    0    0    0    0  0.00000000000E+00  0.00000000000E+00  0.45593999997E+02  0.45594000000E+02  0.51100000000E-03 0.  1.
         11   -1    0    0    0    0 -0.00000000000E+00 -0.00000000000E+00 -0.45593999997E+02  0.45594000000E+02  0.51100000000E-03 0. -1.
    9900012    2    1    2    0    0  0.52766821674E+01 -0.51388565828E+01 -0.17217097792E+02  0.72461556716E+02  0.69999982312E+02 0.  0.
        -12    1    1    2    0    0 -0.52766821674E+01  0.51388565828E+01  0.17217097792E+02  0.18726443284E+02  0.00000000000E+00 0.  1.
         11    1    3    3    0    0 -0.16938472682E+02 -0.96292396086E+00 -0.24084752666E+01  0.17135922290E+02  0.51100000000E-03 0. -1.
        -11    1    3    3    0    0  0.13043278154E+02  0.19030890014E+02 -0.19166662490E+02  0.29994379990E+02  0.51100000000E-03 0.  1.
        -12    1    3    3    0    0  0.91718766954E+01 -0.23206822636E+02  0.43580399644E+01  0.25331254436E+02  0.00000000000E+00 0.  1.
</event>
<event>
 7    1  0.1830715E-013  0.7246175E+02  0.7816164E-02  0.1226708E+00
        -11   -1    0    0    0    0  0.00000000000E+00  0.00000000000E+00  0.45593999997E+02  0.45594000000E+02  0.51100000000E-03 0. -1.
         11   -1    0    0    0    0 -0.00000000000E+00 -0.00000000000E+00 -0.45593999997E+02  0.45594000000E+02  0.51100000000E-03 0.  1.
    9900012    2    1    2    0    0  0.21020921428E+01  0.12900678022E+02  0.13409926348E+02  0.72461750790E+02  0.70000235129E+02 0.  0.
        -12    1    1    2    0    0 -0.21020921428E+01 -0.12900678022E+02 -0.13409926348E+02  0.18726249210E+02  0.00000000000E+00 0.  1.
         11    1    3    3    0    0 -0.60462361132E+01  0.32340724886E+02 -0.12770351954E+01  0.32925829927E+02  0.51100000000E-03 0. -1.
        -11    1    3    3    0    0  0.10026706596E+02 -0.15903974108E+02 -0.49931854480E+01  0.19452586943E+02  0.51100000000E-03 0.  1.
         12    1    3    3    0    0 -0.18783783404E+01 -0.35360727551E+01  0.19680146991E+02  0.20083333919E+02  0.00000000000E+00 0. -1.
</event>
<event>
 7    1  0.1830715E-013  0.7246156E+02  0.7816164E-02  0.1226708E+00
        -11   -1    0    0    0    0  0.00000000000E+00  0.00000000000E+00  0.45593999997E+02  0.45594000000E+02  0.51100000000E-03 0.  1.
         11   -1    0    0    0    0 -0.00000000000E+00 -0.00000000000E+00 -0.45593999997E+02  0.45594000000E+02  0.51100000000E-03 0. -1.
    9900012    2    1    2    0    0  0.84125192483E+01  0.95626748103E+01 -0.13728233513E+02  0.72461558133E+02  0.69999984157E+02 0.  0.
        -12    1    1    2    0    0 -0.84125192483E+01 -0.95626748103E+01  0.13728233513E+02  0.18726441867E+02  0.00000000000E+00 0.  1.
         11    1    3    3    0    0 -0.37429178820E+01  0.15329466078E+02 -0.16027746364E+02  0.22492012322E+02  0.51100000000E-03 0. -1.
        -11    1    3    3    0    0  0.20923210623E+02 -0.60596211756E+01  0.20407116130E+02  0.29848787925E+02  0.51100000000E-03 0.  1.
        -12    1    3    3    0    0 -0.87677734929E+01  0.29282990754E+00 -0.18107603279E+02  0.20120757886E+02  0.00000000000E+00 0.  1.
</event>
<event>
 7    1  0.1830715E-013  0.7246156E+02  0.7816164E-02  0.1226708E+00
        -11   -1    0    0    0    0  0.00000000000E+00  0.00000000000E+00  0.45593999997E+02  0.45594000000E+02  0.51100000000E-03 0. -1.
         11   -1    0    0    0    0 -0.00000000000E+00 -0.00000000000E+00 -0.45593999997E+02  0.45594000000E+02  0.51100000000E-03 0.  1.
    9900012    2    1    2    0    0 -0.12082479879E+02 -0.12316296691E+02  0.72802542674E+01  0.72461559163E+02  0.69999985500E+02 0.  0.
        -12    1    1    2    0    0  0.12082479879E+02  0.12316296691E+02 -0.72802542674E+01  0.18726440837E+02  0.00000000000E+00 0.  1.
         11    1    3    3    0    0  0.35518651914E+01  0.67568819074E+01  0.21339641012E+02  0.22663880476E+02  0.51100000000E-03 0. -1.
        -11    1    3    3    0    0 -0.12349637515E+02 -0.31987629438E+02 -0.11918689465E+02  0.36301200292E+02  0.51100000000E-03 0.  1.
        -12    1    3    3    0    0 -0.32847075558E+01  0.12914450840E+02 -0.21406972800E+01  0.13496478395E+02  0.00000000000E+00 0.  1.
</event>
<event>
 7    1  0.1830715E-013  0.7246159E+02  0.7816164E-02  0.1226708E+00
        -11   -1    0    0    0    0  0.00000000000E+00  0.00000000000E+00  0.45593999997E+02  0.45594000000E+02  0.51100000000E-03 0.  1.
         11   -1    0    0    0    0 -0.00000000000E+00 -0.00000000000E+00 -0.45593999997E+02  0.45594000000E+02  0.51100000000E-03 0. -1.
    9900012    2    1    2    0    0 -0.14686763474E+02 -0.10869977047E+02 -0.41013348530E+01  0.72461591644E+02  0.70000027811E+02 0.  0.
        -12    1    1    2    0    0  0.14686763474E+02  0.10869977047E+02  0.41013348530E+01  0.18726408356E+02  0.00000000000E+00 0.  1.
         11    1    3    3    0    0 -0.68349967561E+01  0.18316268626E+02 -0.20361464413E+02  0.28227506272E+02  0.51100000000E-03 0. -1.
        -11    1    3    3    0    0  0.75153720536E+01  0.27190316241E+00  0.54743952662E+01  0.93018144588E+01  0.51100000000E-03 0.  1.
         12    1    3    3    0    0 -0.15367138772E+02 -0.29458148835E+02  0.10785734294E+02  0.34932270913E+02  0.00000000000E+00 0. -1.
</event>
<event>
 7    1  0.1830715E-013  0.7246163E+02  0.7816164E-02  0.1226708E+00
        -11   -1    0    0    0    0  0.00000000000E+00  0.00000000000E+00  0.45593999997E+02  0.45594000000E+02  0.51100000000E-03 0.  1.
         11   -1    0    0    0    0 -0.00000000000E+00 -0.00000000000E+00 -0.45593999997E+02  0.45594000000E+02  0.51100000000E-03 0. -1.
    9900012    2    1    2    0    0 -0.69042796129E+01  0.15933799923E+02  0.70087057811E+01  0.72461627855E+02  0.70000074984E+02 0.  0.
        -12    1    1    2    0    0  0.69042796129E+01 -0.15933799923E+02 -0.70087057811E+01  0.18726372145E+02  0.00000000000E+00 0.  1.
         11    1    3    3    0    0  0.48632044685E+01  0.14650190765E+02 -0.26761657665E+02  0.30894419697E+02  0.51100000000E-03 0. -1.
        -11    1    3    3    0    0 -0.14374064469E+02 -0.55818870169E+01  0.28896683915E+02  0.32753465978E+02  0.51100000000E-03 0.  1.
        -12    1    3    3    0    0  0.26065803878E+01  0.68654961756E+01  0.48736795309E+01  0.88137421805E+01  0.00000000000E+00 0.  1.
</event>
<event>
 7    1  0.1830715E-013  0.7246161E+02  0.7816164E-02  0.1226708E+00
        -11   -1    0    0    0    0  0.00000000000E+00  0.00000000000E+00  0.45593999997E+02  0.45594000000E+02  0.51100000000E-03 0. -1.
         11   -1    0    0    0    0 -0.00000000000E+00 -0.00000000000E+00 -0.45593999997E+02  0.45594000000E+02  0.51100000000E-03 0.  1.
    9900012    2    1    2    0    0 -0.69697173776E+01 -0.68442338955E+01  0.15976768917E+02  0.72461611053E+02  0.70000053096E+02 0.  0.
        -12    1    1    2    0    0  0.69697173776E+01  0.68442338955E+01 -0.15976768917E+02  0.18726388947E+02  0.00000000000E+00 0.  1.
         11    1    3    3    0    0  0.15675377124E+02 -0.45792110949E+01  0.16977042430E+02  0.23556455424E+02  0.51100000000E-03 0. -1.
        -11    1    3    3    0    0 -0.15321345688E+02  0.15197667003E+02 -0.14190355200E+02  0.25827870547E+02  0.51100000000E-03 0.  1.
         12    1    3    3    0    0 -0.73237488130E+01 -0.17462689804E+02  0.13190081687E+02  0.23077285082E+02  0.00000000000E+00 0. -1.
</event>
<event>
 7    1  0.1830715E-013  0.7246143E+02  0.7816164E-02  0.1226708E+00
        -11   -1    0    0    0    0  0.00000000000E+00  0.00000000000E+00  0.45593999997E+02  0.45594000000E+02  0.51100000000E-03 0.  1.
         11   -1    0    0    0    0 -0.00000000000E+00 -0.00000000000E+00 -0.45593999997E+02  0.45594000000E+02  0.51100000000E-03 0. -1.
    9900012    2    1    2    0    0  0.12442275032E+02  0.84412957985E+01  0.11163281426E+02  0.72461427037E+02  0.69999813381E+02 0.  0.
        -12    1    1    2    0    0 -0.12442275032E+02 -0.84412957985E+01 -0.11163281426E+02  0.18726572963E+02  0.00000000000E+00 0.  1.
         11    1    3    3    0    0 -0.21891731855E+02  0.17092190896E+02 -0.52656841190E+01  0.28268681305E+02  0.51100000000E-03 0. -1.
        -11    1    3    3    0    0  0.14801497420E+02  0.66183369223E+01  0.71579896712E+01  0.17723530288E+02  0.51100000000E-03 0.  1.
         12    1    3    3    0    0  0.19532509467E+02 -0.15269232019E+02  0.92709758739E+01  0.26469215444E+02  0.00000000000E+00 0. -1.
</event>
<event>
 7    1  0.1830715E-013  0.7246159E+02  0.7816164E-02  0.1226708E+00
        -11   -1    0    0    0    0  0.00000000000E+00  0.00000000000E+00  0.45593999997E+02  0.45594000000E+02  0.51100000000E-03 0.  1.
         11   -1    0    0    0    0 -0.00000000000E+00 -0.00000000000E+00 -0.45593999997E+02  0.45594000000E+02  0.51100000000E-03 0. -1.
    9900012    2    1    2    0    0 -0.11113802559E+02  0.15019927354E+02  0.12503866933E+01  0.72461593727E+02  0.70000030525E+02 0.  0.
        -12    1    1    2    0    0  0.11113802559E+02 -0.15019927354E+02 -0.12503866933E+01  0.18726406273E+02  0.00000000000E+00 0.  1.
         11    1    3    3    0    0  0.66436286978E+01  0.18564830254E+02 -0.25029918934E+02  0.31863577432E+02  0.51100000000E-03 0. -1.
        -11    1    3    3    0    0 -0.30351382022E+01  0.53861500092E+00  0.25084471844E+02  0.25273165571E+02  0.51100000000E-03 0.  1.
        -12    1    3    3    0    0 -0.14722293055E+02 -0.40835179016E+01  0.11958337833E+01  0.15324850723E+02  0.00000000000E+00 0.  1.
</event>
<event>
 7    1  0.1830715E-013  0.7246150E+02  0.7816164E-02  0.1226708E+00
        -11   -1    0    0    0    0  0.00000000000E+00  0.00000000000E+00  0.45593999997E+02  0.45594000000E+02  0.51100000000E-03 0.  1.
         11   -1    0    0    0    0 -0.00000000000E+00 -0.00000000000E+00 -0.45593999997E+02  0.45594000000E+02  0.51100000000E-03 0. -1.
    9900012    2    1    2    0    0  0.17925337777E+02  0.54187330837E+01  0.35368673127E-01  0.72461503969E+02  0.69999913599E+02 0.  0.
        -12    1    1    2    0    0 -0.17925337777E+02 -0.54187330837E+01 -0.35368673127E-01  0.18726496031E+02  0.00000000000E+00 0.  1.
         11    1    3    3    0    0  0.14463618514E+02  0.22479317537E+02  0.12087596597E+02  0.29336427342E+02  0.51100000000E-03 0. -1.
        -11    1    3    3    0    0  0.60554128869E+01 -0.27107586769E+02 -0.75537762714E+00  0.27785965545E+02  0.51100000000E-03 0.  1.
         12    1    3    3    0    0 -0.25936936234E+01  0.10047002315E+02 -0.11296850297E+02  0.15339111081E+02  0.00000000000E+00 0. -1.
</event>
<event>
 7    1  0.1830715E-013  0.7246162E+02  0.7816164E-02  0.1226708E+00
        -11   -1    0    0    0    0  0.00000000000E+00  0.00000000000E+00  0.45593999997E+02  0.45594000000E+02  0.51100000000E-03 0.  1.
         11   -1    0    0    0    0 -0.00000000000E+00 -0.00000000000E+00 -0.45593999997E+02  0.45594000000E+02  0.51100000000E-03 0. -1.
    9900012    2    1    2    0    0 -0.90093732288E+01  0.14532108529E+02 -0.76371778823E+01  0.72461615665E+02  0.70000059103E+02 0.  0.
        -12    1    1    2    0    0  0.90093732288E+01 -0.14532108529E+02  0.76371778823E+01  0.18726384335E+02  0.00000000000E+00 0.  1.
         11    1    3    3    0    0  0.78170835408E+01 -0.10684418563E+02 -0.60008561256E+01  0.14535262970E+02  0.51100000000E-03 0. -1.
        -11    1    3    3    0    0 -0.31222319848E+02  0.27920801166E+02 -0.67206848266E+01  0.42421362534E+02  0.51100000000E-03 0.  1.
        -12    1    3    3    0    0  0.14395863079E+02 -0.27042740743E+01  0.50843630699E+01  0.15504990161E+02  0.00000000000E+00 0.  1.
</event>
<event>
 7    1  0.1830715E-013  0.7246163E+02  0.7816164E-02  0.1226708E+00
        -11   -1    0    0    0    0  0.00000000000E+00  0.00000000000E+00  0.45593999997E+02  0.45594000000E+02  0.51100000000E-03 0.  1.
         11   -1    0    0    0    0 -0.00000000000E+00 -0.00000000000E+00 -0.45593999997E+02  0.45594000000E+02  0.51100000000E-03 0. -1.
    9900012    2    1    2    0    0 -0.12254927645E+02  0.13158439427E+02  0.52296402185E+01  0.72461630449E+02  0.70000078362E+02 0.  0.
        -12    1    1    2    0    0  0.12254927645E+02 -0.13158439427E+02 -0.52296402185E+01  0.18726369551E+02  0.00000000000E+00 0.  1.
         11    1    3    3    0    0 -0.16154030656E+02 -0.18962028127E+02 -0.37579514294E+01  0.25191931573E+02  0.51100000000E-03 0. -1.
        -11    1    3    3    0    0  0.13836457260E+02  0.28567220949E+01  0.82401392272E+01  0.16355681135E+02  0.51100000000E-03 0.  1.
         12    1    3    3    0    0 -0.99373542493E+01  0.29263745459E+02  0.74745242061E+00  0.30914017741E+02  0.00000000000E+00 0. -1.
</event>
<event>
 7    1  0.1830715E-013  0.7246158E+02  0.7816164E-02  0.1226708E+00
        -11   -1    0    0    0    0  0.00000000000E+00  0.00000000000E+00  0.45593999997E+02  0.45594000000E+02  0.51100000000E-03 0.  1.
         11   -1    0    0    0    0 -0.00000000000E+00 -0.00000000000E+00 -0.45593999997E+02  0.45594000000E+02  0.51100000000E-03 0. -1.
    9900012    2    1    2    0    0 -0.12638942136E+02  0.66812719566E+01 -0.12095305304E+02  0.72461583801E+02  0.70000017595E+02 0.  0.
        -12    1    1    2    0    0  0.12638942136E+02 -0.66812719566E+01  0.12095305304E+02  0.18726416199E+02  0.00000000000E+00 0.  1.
         11    1    3    3    0    0 -0.35716382864E+00 -0.56236878037E+01 -0.34579835832E+01  0.66114356411E+01  0.51100000000E-03 0. -1.
        -11    1    3    3    0    0  0.16116149569E+02  0.28386825842E+02 -0.39934596705E+01  0.32886013421E+02  0.51100000000E-03 0.  1.
        -12    1    3    3    0    0 -0.28397927876E+02 -0.16081866082E+02 -0.46438620498E+01  0.32964134739E+02  0.00000000000E+00 0.  1.
</event>
<event>
 7    1  0.1830715E-013  0.7246163E+02  0.7816164E-02  0.1226708E+00
        -11   -1    0    0    0    0  0.00000000000E+00  0.00000000000E+00  0.45593999997E+02  0.45594000000E+02  0.51100000000E-03 0. -1.
         11   -1    0    0    0    0 -0.00000000000E+00 -0.00000000000E+00 -0.45593999997E+02  0.45594000000E+02  0.51100000000E-03 0.  1.
    9900012    2    1    2    0    0  0.36501559988E+01  0.17821627195E+02  0.44433174589E+01  0.72461625424E+02  0.70000071817E+02 0.  0.
        -12    1    1    2    0    0 -0.36501559988E+01 -0.17821627195E+02 -0.44433174589E+01  0.18726374576E+02  0.00000000000E+00 0.  1.
         11    1    3    3    0    0  0.61409702146E+01  0.27580992034E+02  0.18564327307E+02  0.33809124291E+02  0.51100000000E-03 0. -1.
        -11    1    3    3    0    0  0.77396528577E+01 -0.65340612935E+01 -0.22738783256E+02  0.24892738852E+02  0.51100000000E-03 0.  1.
        -12    1    3    3    0    0 -0.10230467074E+02 -0.32253035446E+01  0.86177734085E+01  0.13759762281E+02  0.00000000000E+00 0.  1.
</event>
<event>
 7    1  0.1830715E-013  0.7246156E+02  0.7816164E-02  0.1226708E+00
        -11   -1    0    0    0    0  0.00000000000E+00  0.00000000000E+00  0.45593999997E+02  0.45594000000E+02  0.51100000000E-03 0.  1.
         11   -1    0    0    0    0 -0.00000000000E+00 -0.00000000000E+00 -0.45593999997E+02  0.45594000000E+02  0.51100000000E-03 0. -1.
    9900012    2    1    2    0    0 -0.17566494123E+02 -0.54042436326E+01 -0.35905334511E+01  0.72461561591E+02  0.69999988663E+02 0.  0.
        -12    1    1    2    0    0  0.17566494123E+02  0.54042436326E+01  0.35905334511E+01  0.18726438409E+02  0.00000000000E+00 0.  1.
         11    1    3    3    0    0 -0.31002434029E+02 -0.37051080282E+01 -0.33825384016E+01  0.31405736857E+02  0.51100000000E-03 0.  1.
        -11    1    3    3    0    0  0.80424668939E+01 -0.15887026456E+02  0.12087808119E+02  0.21521942030E+02  0.51100000000E-03 0. -1.
         12    1    3    3    0    0  0.53934730126E+01  0.14187890851E+02 -0.12295803169E+02  0.19533882705E+02  0.00000000000E+00 0. -1.
</event>
<event>
 7    1  0.1830715E-013  0.7246162E+02  0.7816164E-02  0.1226708E+00
        -11   -1    0    0    0    0  0.00000000000E+00  0.00000000000E+00  0.45593999997E+02  0.45594000000E+02  0.51100000000E-03 0.  1.
         11   -1    0    0    0    0 -0.00000000000E+00 -0.00000000000E+00 -0.45593999997E+02  0.45594000000E+02  0.51100000000E-03 0. -1.
    9900012    2    1    2    0    0 -0.13925931000E+01  0.13385149738E+02 -0.13022119942E+02  0.72461624033E+02  0.70000070005E+02 0.  0.
        -12    1    1    2    0    0  0.13925931000E+01 -0.13385149738E+02  0.13022119942E+02  0.18726375967E+02  0.00000000000E+00 0.  1.
         11    1    3    3    0    0  0.17860794668E+02  0.17632400913E+02  0.43680412683E+01  0.25475269045E+02  0.51100000000E-03 0. -1.
        -11    1    3    3    0    0 -0.22787071502E+02 -0.69456481523E+01  0.48460315688E+01  0.24310011891E+02  0.51100000000E-03 0.  1.
         12    1    3    3    0    0  0.35336837343E+01  0.26983969773E+01 -0.22236192779E+02  0.22676343098E+02  0.00000000000E+00 0. -1.
</event>
<event>
 7    1  0.1830715E-013  0.7246154E+02  0.7816164E-02  0.1226708E+00
        -11   -1    0    0    0    0  0.00000000000E+00  0.00000000000E+00  0.45593999997E+02  0.45594000000E+02  0.51100000000E-03 0. -1.
         11   -1    0    0    0    0 -0.00000000000E+00 -0.00000000000E+00 -0.45593999997E+02  0.45594000000E+02  0.51100000000E-03 0.  1.
    9900012    2    1    2    0    0  0.24397867998E+01 -0.76134984859E+01  0.16934058869E+02  0.72461540948E+02  0.69999961772E+02 0.  0.
        -12    1    1    2    0    0 -0.24397867998E+01  0.76134984859E+01 -0.16934058869E+02  0.18726459052E+02  0.00000000000E+00 0.  1.
         11    1    3    3    0    0 -0.16503773929E+02 -0.13517252843E+02  0.24304967219E+02  0.32339172996E+02  0.51100000000E-03 0. -1.
        -11    1    3    3    0    0  0.10560328219E+02  0.12799912863E+02 -0.18310511445E+02  0.24710992110E+02  0.51100000000E-03 0.  1.
         12    1    3    3    0    0  0.83832325105E+01 -0.68961585061E+01  0.10939603096E+02  0.15411375842E+02  0.00000000000E+00 0. -1.
</event>
<event>
 7    1  0.1830715E-013  0.7246155E+02  0.7816164E-02  0.1226708E+00
        -11   -1    0    0    0    0  0.00000000000E+00  0.00000000000E+00  0.45593999997E+02  0.45594000000E+02  0.51100000000E-03 0. -1.
         11   -1    0    0    0    0 -0.00000000000E+00 -0.00000000000E+00 -0.45593999997E+02  0.45594000000E+02  0.51100000000E-03 0.  1.
    9900012    2    1    2    0    0 -0.71186747307E+00  0.14869351097E+02  0.11361135827E+02  0.72461554405E+02  0.69999979301E+02 0.  0.
        -12    1    1    2    0    0  0.71186747307E+00 -0.14869351097E+02 -0.11361135827E+02  0.18726445595E+02  0.00000000000E+00 0.  1.
         11    1    3    3    0    0 -0.26501150675E+02  0.10271801545E+02  0.22721070010E+02  0.36387744046E+02  0.51100000000E-03 0. -1.
        -11    1    3    3    0    0  0.13126535445E+02  0.55963358459E+00  0.58058107338E+01  0.14364071884E+02  0.51100000000E-03 0.  1.
         12    1    3    3    0    0  0.12662747756E+02  0.40379159674E+01 -0.17165744917E+02  0.21709738475E+02  0.00000000000E+00 0. -1.
</event>
<event>
 7    1  0.1830715E-013  0.7246168E+02  0.7816164E-02  0.1226708E+00
        -11   -1    0    0    0    0  0.00000000000E+00  0.00000000000E+00  0.45593999997E+02  0.45594000000E+02  0.51100000000E-03 0.  1.
         11   -1    0    0    0    0 -0.00000000000E+00 -0.00000000000E+00 -0.45593999997E+02  0.45594000000E+02  0.51100000000E-03 0. -1.
    9900012    2    1    2    0    0  0.13170869489E+02  0.63682534112E+01 -0.11689679517E+02  0.72461679971E+02  0.70000142874E+02 0.  0.
        -12    1    1    2    0    0 -0.13170869489E+02 -0.63682534112E+01  0.11689679517E+02  0.18726320029E+02  0.00000000000E+00 0.  1.
         11    1    3    3    0    0  0.18575021506E+02  0.61344282659E+01 -0.34124886431E+02  0.39334088375E+02  0.51100000000E-03 0. -1.
        -11    1    3    3    0    0 -0.12492725043E+02 -0.68763163507E+01  0.11883913770E+02  0.18562847635E+02  0.51100000000E-03 0.  1.
         12    1    3    3    0    0  0.70885730267E+01  0.71101414960E+01  0.10551293144E+02  0.14564743962E+02  0.00000000000E+00 0. -1.
</event>
<event>
 7    1  0.1830715E-013  0.7246164E+02  0.7816164E-02  0.1226708E+00
        -11   -1    0    0    0    0  0.00000000000E+00  0.00000000000E+00  0.45593999997E+02  0.45594000000E+02  0.51100000000E-03 0. -1.
         11   -1    0    0    0    0 -0.00000000000E+00 -0.00000000000E+00 -0.45593999997E+02  0.45594000000E+02  0.51100000000E-03 0.  1.
    9900012    2    1    2    0    0 -0.39945850446E+01  0.18054258298E+02  0.29603595231E+01  0.72461636741E+02  0.70000086560E+02 0.  0.
        -12    1    1    2    0    0  0.39945850446E+01 -0.18054258298E+02 -0.29603595231E+01  0.18726363259E+02  0.00000000000E+00 0.  1.
         11    1    3    3    0    0 -0.17730303047E+01  0.30702899726E+02  0.23580659567E+02  0.38753828120E+02  0.51100000000E-03 0. -1.
        -11    1    3    3    0    0  0.79612055457E+01 -0.54241979413E+01 -0.36524348147E-01  0.96334859390E+01  0.51100000000E-03 0.  1.
         12    1    3    3    0    0 -0.10182760286E+02 -0.72244434867E+01 -0.20583775696E+02  0.24074322683E+02  0.00000000000E+00 0. -1.
</event>
<event>
 7    1  0.1830715E-013  0.7246155E+02  0.7816164E-02  0.1226708E+00
        -11   -1    0    0    0    0  0.00000000000E+00  0.00000000000E+00  0.45593999997E+02  0.45594000000E+02  0.51100000000E-03 0.  1.
         11   -1    0    0    0    0 -0.00000000000E+00 -0.00000000000E+00 -0.45593999997E+02  0.45594000000E+02  0.51100000000E-03 0. -1.
    9900012    2    1    2    0    0  0.12543817998E+02 -0.13875525523E+02 -0.89574695539E+00  0.72461549693E+02  0.69999973163E+02 0.  0.
        -12    1    1    2    0    0 -0.12543817998E+02  0.13875525523E+02  0.89574695539E+00  0.18726450307E+02  0.00000000000E+00 0.  1.
         11    1    3    3    0    0  0.80716439536E+01  0.19792884760E+02 -0.84864227020E+01  0.22998458509E+02  0.51100000000E-03 0. -1.
        -11    1    3    3    0    0  0.19311724192E+02 -0.16114930774E+02  0.82423257096E+01  0.26468275700E+02  0.51100000000E-03 0.  1.
         12    1    3    3    0    0 -0.14839550149E+02 -0.17553479509E+02 -0.65164996294E+00  0.22994815484E+02  0.00000000000E+00 0. -1.
</event>
<event>
 7    1  0.1830715E-013  0.7246168E+02  0.7816164E-02  0.1226708E+00
        -11   -1    0    0    0    0  0.00000000000E+00  0.00000000000E+00  0.45593999997E+02  0.45594000000E+02  0.51100000000E-03 0.  1.
         11   -1    0    0    0    0 -0.00000000000E+00 -0.00000000000E+00 -0.45593999997E+02  0.45594000000E+02  0.51100000000E-03 0. -1.
    9900012    2    1    2    0    0  0.15950348006E+02  0.21159820370E+01 -0.95804095845E+01  0.72461675500E+02  0.70000137050E+02 0.  0.
        -12    1    1    2    0    0 -0.15950348006E+02 -0.21159820370E+01  0.95804095845E+01  0.18726324500E+02  0.00000000000E+00 0.  1.
         11    1    3    3    0    0 -0.21444840547E+02 -0.41883988729E+01 -0.14766699421E+02  0.26371941211E+02  0.51100000000E-03 0. -1.
        -11    1    3    3    0    0  0.21019189965E+02  0.15730166257E+02  0.68183982075E+01  0.27124436061E+02  0.51100000000E-03 0.  1.
         12    1    3    3    0    0  0.16375998587E+02 -0.94257853469E+01 -0.16321083710E+01  0.18965298228E+02  0.00000000000E+00 0. -1.
</event>
<event>
 7    1  0.1830715E-013  0.7246157E+02  0.7816164E-02  0.1226708E+00
        -11   -1    0    0    0    0  0.00000000000E+00  0.00000000000E+00  0.45593999997E+02  0.45594000000E+02  0.51100000000E-03 0.  1.
         11   -1    0    0    0    0 -0.00000000000E+00 -0.00000000000E+00 -0.45593999997E+02  0.45594000000E+02  0.51100000000E-03 0. -1.
    9900012    2    1    2    0    0  0.78672148789E+01 -0.16742477508E+02 -0.29112541597E+01  0.72461574184E+02  0.70000005067E+02 0.  0.
        -12    1    1    2    0    0 -0.78672148789E+01  0.16742477508E+02  0.29112541597E+01  0.18726425816E+02  0.00000000000E+00 0.  1.
         11    1    3    3    0    0 -0.35271658375E+00 -0.83955833283E+01  0.17022196401E+00  0.84047132128E+01  0.51100000000E-03 0. -1.
        -11    1    3    3    0    0  0.10079980666E+01  0.25343838856E+02 -0.12587461917E+02  0.28315550954E+02  0.51100000000E-03 0.  1.
        -12    1    3    3    0    0  0.72119333961E+01 -0.33690733036E+02  0.95059857933E+01  0.35741310017E+02  0.00000000000E+00 0.  1.
</event>
<event>
 7    1  0.1830715E-013  0.7246154E+02  0.7816164E-02  0.1226708E+00
        -11   -1    0    0    0    0  0.00000000000E+00  0.00000000000E+00  0.45593999997E+02  0.45594000000E+02  0.51100000000E-03 0.  1.
         11   -1    0    0    0    0 -0.00000000000E+00 -0.00000000000E+00 -0.45593999997E+02  0.45594000000E+02  0.51100000000E-03 0. -1.
    9900012    2    1    2    0    0  0.17199505081E+02  0.25505042680E+01 -0.69535839646E+01  0.72461538054E+02  0.69999958001E+02 0.  0.
        -12    1    1    2    0    0 -0.17199505081E+02 -0.25505042680E+01  0.69535839646E+01  0.18726461946E+02  0.00000000000E+00 0.  1.
         11    1    3    3    0    0  0.85348389587E+01  0.33203383620E+02  0.49984992305E+01  0.34645247216E+02  0.51100000000E-03 0.  1.
        -11    1    3    3    0    0  0.12696280333E+02 -0.23377081796E+02 -0.12673490933E+02  0.29466945214E+02  0.51100000000E-03 0. -1.
        -12    1    3    3    0    0 -0.40316142103E+01 -0.72757975559E+01  0.72140773749E+00  0.83493456234E+01  0.00000000000E+00 0.  1.
</event>
<event>
 7    1  0.1830715E-013  0.7246155E+02  0.7816164E-02  0.1226708E+00
        -11   -1    0    0    0    0  0.00000000000E+00  0.00000000000E+00  0.45593999997E+02  0.45594000000E+02  0.51100000000E-03 0.  1.
         11   -1    0    0    0    0 -0.00000000000E+00 -0.00000000000E+00 -0.45593999997E+02  0.45594000000E+02  0.51100000000E-03 0. -1.
    9900012    2    1    2    0    0  0.77421688102E+01 -0.16639741018E+02  0.37226179948E+01  0.72461546952E+02  0.69999969593E+02 0.  0.
        -12    1    1    2    0    0 -0.77421688102E+01  0.16639741018E+02 -0.37226179948E+01  0.18726453048E+02  0.00000000000E+00 0.  1.
         11    1    3    3    0    0  0.24693372960E+01 -0.75246240827E+01 -0.22948968418E+02  0.24277000350E+02  0.51100000000E-03 0. -1.
        -11    1    3    3    0    0 -0.89775128289E+01  0.78306936973E+01  0.22775883125E+02  0.25703236232E+02  0.51100000000E-03 0.  1.
        -12    1    3    3    0    0  0.14250344343E+02 -0.16945810632E+02  0.38957032876E+01  0.22481310371E+02  0.00000000000E+00 0.  1.
</event>
<event>
 7    1  0.1830715E-013  0.7246124E+02  0.7816164E-02  0.1226709E+00
        -11   -1    0    0    0    0  0.00000000000E+00  0.00000000000E+00  0.45593999997E+02  0.45594000000E+02  0.51100000000E-03 0. -1.
         11   -1    0    0    0    0 -0.00000000000E+00 -0.00000000000E+00 -0.45593999997E+02  0.45594000000E+02  0.51100000000E-03 0.  1.
    9900012    2    1    2    0    0  0.78837911401E+01 -0.41990603476E+01  0.16459203619E+02  0.72461236951E+02  0.69999565757E+02 0.  0.
        -12    1    1    2    0    0 -0.78837911401E+01  0.41990603476E+01 -0.16459203619E+02  0.18726763049E+02  0.00000000000E+00 0.  1.
         11    1    3    3    0    0  0.67554948077E+00 -0.63539102009E+01  0.66010023241E+01  0.91870438056E+01  0.51100000000E-03 0. -1.
        -11    1    3    3    0    0  0.12745656584E+02  0.24750328051E+02 -0.12941619882E+02  0.30700423871E+02  0.51100000000E-03 0.  1.
        -12    1    3    3    0    0 -0.55374149252E+01 -0.22595478198E+02  0.22799821177E+02  0.32573769274E+02  0.00000000000E+00 0.  1.
</event>
<event>
 7    1  0.1830715E-013  0.7246156E+02  0.7816164E-02  0.1226708E+00
        -11   -1    0    0    0    0  0.00000000000E+00  0.00000000000E+00  0.45593999997E+02  0.45594000000E+02  0.51100000000E-03 0.  1.
         11   -1    0    0    0    0 -0.00000000000E+00 -0.00000000000E+00 -0.45593999997E+02  0.45594000000E+02  0.51100000000E-03 0. -1.
    9900012    2    1    2    0    0  0.17838771468E+02  0.50332707578E+01 -0.26691117763E+01  0.72461555071E+02  0.69999980168E+02 0.  0.
        -12    1    1    2    0    0 -0.17838771468E+02 -0.50332707578E+01  0.26691117763E+01  0.18726444929E+02  0.00000000000E+00 0.  1.
         11    1    3    3    0    0 -0.57976059205E+01  0.40015714995E+00 -0.31968492509E+02  0.32492412557E+02  0.51100000000E-03 0. -1.
        -11    1    3    3    0    0  0.70501553337E+01 -0.10661311589E+01  0.18013482726E+01  0.73543308151E+01  0.51100000000E-03 0.  1.
         12    1    3    3    0    0  0.16586222055E+02  0.56992447667E+01  0.27498032461E+02  0.32614811699E+02  0.00000000000E+00 0. -1.
</event>
<event>
 7    1  0.1830715E-013  0.7246159E+02  0.7816164E-02  0.1226708E+00
        -11   -1    0    0    0    0  0.00000000000E+00  0.00000000000E+00  0.45593999997E+02  0.45594000000E+02  0.51100000000E-03 0. -1.
         11   -1    0    0    0    0 -0.00000000000E+00 -0.00000000000E+00 -0.45593999997E+02  0.45594000000E+02  0.51100000000E-03 0.  1.
    9900012    2    1    2    0    0 -0.12870242843E+02 -0.13468122280E+02  0.19091852975E+01  0.72461589317E+02  0.70000024780E+02 0.  0.
        -12    1    1    2    0    0  0.12870242843E+02  0.13468122280E+02 -0.19091852975E+01  0.18726410683E+02  0.00000000000E+00 0.  1.
         11    1    3    3    0    0 -0.18037039768E+02  0.94929780330E+01 -0.13092338532E+02  0.24225209267E+02  0.51100000000E-03 0. -1.
        -11    1    3    3    0    0  0.96357024635E+01 -0.14206590625E+02 -0.11034535966E+02  0.20406738186E+02  0.51100000000E-03 0.  1.
         12    1    3    3    0    0 -0.44689055386E+01 -0.87545096875E+01  0.26036059796E+02  0.27829641864E+02  0.00000000000E+00 0. -1.
</event>
<event>
 7    1  0.1830715E-013  0.7246158E+02  0.7816164E-02  0.1226708E+00
        -11   -1    0    0    0    0  0.00000000000E+00  0.00000000000E+00  0.45593999997E+02  0.45594000000E+02  0.51100000000E-03 0.  1.
         11   -1    0    0    0    0 -0.00000000000E+00 -0.00000000000E+00 -0.45593999997E+02  0.45594000000E+02  0.51100000000E-03 0. -1.
    9900012    2    1    2    0    0  0.10660019662E+01  0.44706024624E+01 -0.18153678232E+02  0.72461583367E+02  0.70000017029E+02 0.  0.
        -12    1    1    2    0    0 -0.10660019662E+01 -0.44706024624E+01  0.18153678232E+02  0.18726416633E+02  0.00000000000E+00 0.  1.
         11    1    3    3    0    0 -0.19360008751E+02 -0.10042705889E+02  0.29748034502E+01  0.22011709071E+02  0.51100000000E-03 0. -1.
        -11    1    3    3    0    0  0.18212703575E+02  0.92968381331E+01  0.71094608127E+01  0.21648976975E+02  0.51100000000E-03 0.  1.
         12    1    3    3    0    0  0.22133071425E+01  0.52164702185E+01 -0.28237942495E+02  0.28800897320E+02  0.00000000000E+00 0. -1.
</event>
<event>
 7    1  0.1830715E-013  0.7246156E+02  0.7816164E-02  0.1226708E+00
        -11   -1    0    0    0    0  0.00000000000E+00  0.00000000000E+00  0.45593999997E+02  0.45594000000E+02  0.51100000000E-03 0. -1.
         11   -1    0    0    0    0 -0.00000000000E+00 -0.00000000000E+00 -0.45593999997E+02  0.45594000000E+02  0.51100000000E-03 0.  1.
    9900012    2    1    2    0    0  0.87934028583E+01  0.14762657637E+02  0.74444367960E+01  0.72461557905E+02  0.69999983860E+02 0.  0.
        -12    1    1    2    0    0 -0.87934028583E+01 -0.14762657637E+02 -0.74444367960E+01  0.18726442095E+02  0.00000000000E+00 0.  1.
         11    1    3    3    0    0 -0.11157461649E+02  0.44816984950E+01  0.23379288701E+02  0.26290030663E+02  0.51100000000E-03 0. -1.
        -11    1    3    3    0    0  0.24068682849E+02  0.18905667295E+01  0.37009197679E+01  0.24424834575E+02  0.51100000000E-03 0.  1.
         12    1    3    3    0    0 -0.41178183413E+01  0.83903924128E+01 -0.19635771673E+02  0.21746692666E+02  0.00000000000E+00 0. -1.
</event>
<event>
 7    1  0.1830715E-013  0.7246152E+02  0.7816164E-02  0.1226708E+00
        -11   -1    0    0    0    0  0.00000000000E+00  0.00000000000E+00  0.45593999997E+02  0.45594000000E+02  0.51100000000E-03 0. -1.
         11   -1    0    0    0    0 -0.00000000000E+00 -0.00000000000E+00 -0.45593999997E+02  0.45594000000E+02  0.51100000000E-03 0.  1.
    9900012    2    1    2    0    0 -0.16713127171E+02  0.19263904219E+01  0.82244348619E+01  0.72461523324E+02  0.69999938812E+02 0.  0.
        -12    1    1    2    0    0  0.16713127171E+02 -0.19263904219E+01 -0.82244348619E+01  0.18726476676E+02  0.00000000000E+00 0.  1.
         11    1    3    3    0    0 -0.20325679946E+02 -0.95355218154E+01  0.14379693776E+02  0.26661489736E+02  0.51100000000E-03 0. -1.
        -11    1    3    3    0    0  0.21835159029E+02  0.47110672835E+01 -0.12195665610E+02  0.25450001664E+02  0.51100000000E-03 0.  1.
        -12    1    3    3    0    0 -0.18222606254E+02  0.67508449538E+01  0.60404066960E+01  0.20350031924E+02  0.00000000000E+00 0.  1.
</event>
<event>
 7    1  0.1830715E-013  0.7246158E+02  0.7816164E-02  0.1226708E+00
        -11   -1    0    0    0    0  0.00000000000E+00  0.00000000000E+00  0.45593999997E+02  0.45594000000E+02  0.51100000000E-03 0. -1.
         11   -1    0    0    0    0 -0.00000000000E+00 -0.00000000000E+00 -0.45593999997E+02  0.45594000000E+02  0.51100000000E-03 0.  1.
    9900012    2    1    2    0    0  0.11761770448E+02  0.14520632627E+02 -0.12210189673E+01  0.72461577403E+02  0.70000009261E+02 0.  0.
        -12    1    1    2    0    0 -0.11761770448E+02 -0.14520632627E+02  0.12210189673E+01  0.18726422597E+02  0.00000000000E+00 0.  1.
         11    1    3    3    0    0  0.32085050732E+02  0.10379126915E+02 -0.15244777078E+02  0.37007836797E+02  0.51100000000E-03 0. -1.
        -11    1    3    3    0    0 -0.78188152124E+01 -0.34051663426E+01 -0.61741297132E+01  0.10528480760E+02  0.51100000000E-03 0.  1.
         12    1    3    3    0    0 -0.12504465072E+02  0.75466720543E+01  0.20197887824E+02  0.24925259846E+02  0.00000000000E+00 0. -1.
</event>
<event>
 7    1  0.1830715E-013  0.7246177E+02  0.7816164E-02  0.1226707E+00
        -11   -1    0    0    0    0  0.00000000000E+00  0.00000000000E+00  0.45593999997E+02  0.45594000000E+02  0.51100000000E-03 0.  1.
         11   -1    0    0    0    0 -0.00000000000E+00 -0.00000000000E+00 -0.45593999997E+02  0.45594000000E+02  0.51100000000E-03 0. -1.
    9900012    2    1    2    0    0  0.14502222125E+02  0.73661926025E+01 -0.92788172140E+01  0.72461770030E+02  0.70000260192E+02 0.  0.
        -12    1    1    2    0    0 -0.14502222125E+02 -0.73661926025E+01  0.92788172140E+01  0.18726229970E+02  0.00000000000E+00 0.  1.
         11    1    3    3    0    0  0.29270132419E+02  0.28689496478E+02 -0.36888678601E+01  0.41151374295E+02  0.51100000000E-03 0. -1.
        -11    1    3    3    0    0 -0.86607914516E+01 -0.11253857320E+02  0.54092653849E+01  0.15196011497E+02  0.51100000000E-03 0.  1.
         12    1    3    3    0    0 -0.61071188430E+01 -0.10069446555E+02 -0.10999214739E+02  0.16114384238E+02  0.00000000000E+00 0. -1.
</event>
<event>
 7    1  0.1830715E-013  0.7246159E+02  0.7816164E-02  0.1226708E+00
        -11   -1    0    0    0    0  0.00000000000E+00  0.00000000000E+00  0.45593999997E+02  0.45594000000E+02  0.51100000000E-03 0.  1.
         11   -1    0    0    0    0 -0.00000000000E+00 -0.00000000000E+00 -0.45593999997E+02  0.45594000000E+02  0.51100000000E-03 0. -1.
    9900012    2    1    2    0    0 -0.37091448144E-01 -0.16108689158E+02 -0.95491997307E+01  0.72461589301E+02  0.70000024760E+02 0.  0.
        -12    1    1    2    0    0  0.37091448144E-01  0.16108689158E+02  0.95491997307E+01  0.18726410699E+02  0.00000000000E+00 0.  1.
         11    1    3    3    0    0 -0.27284574300E+02  0.40952009966E+01  0.33346833929E+01  0.27790983781E+02  0.51100000000E-03 0. -1.
        -11    1    3    3    0    0  0.66186397299E+01 -0.19111555419E+02  0.18497554488E+00  0.20226026763E+02  0.51100000000E-03 0.  1.
         12    1    3    3    0    0  0.20628843122E+02 -0.10923347353E+01 -0.13068858668E+02  0.24444578757E+02  0.00000000000E+00 0. -1.
</event>
<event>
 7    1  0.1830715E-013  0.7246158E+02  0.7816164E-02  0.1226708E+00
        -11   -1    0    0    0    0  0.00000000000E+00  0.00000000000E+00  0.45593999997E+02  0.45594000000E+02  0.51100000000E-03 0. -1.
         11   -1    0    0    0    0 -0.00000000000E+00 -0.00000000000E+00 -0.45593999997E+02  0.45594000000E+02  0.51100000000E-03 0.  1.
    9900012    2    1    2    0    0  0.13188790506E+02  0.12608919397E+02 -0.42130371673E+01  0.72461582149E+02  0.70000015443E+02 0.  0.
        -12    1    1    2    0    0 -0.13188790506E+02 -0.12608919397E+02  0.42130371673E+01  0.18726417851E+02  0.00000000000E+00 0.  1.
         11    1    3    3    0    0 -0.11836398370E+02  0.36261468382E+01  0.93932354605E+01  0.15539695619E+02  0.51100000000E-03 0. -1.
        -11    1    3    3    0    0  0.29635411315E+02 -0.50934294495E+01  0.76370068711E+01  0.31024578991E+02  0.51100000000E-03 0.  1.
        -12    1    3    3    0    0 -0.46102224393E+01  0.14076202008E+02 -0.21243279499E+02  0.25897307539E+02  0.00000000000E+00 0.  1.
</event>
<event>
 7    1  0.1830715E-013  0.7246157E+02  0.7816164E-02  0.1226708E+00
        -11   -1    0    0    0    0  0.00000000000E+00  0.00000000000E+00  0.45593999997E+02  0.45594000000E+02  0.51100000000E-03 0. -1.
         11   -1    0    0    0    0 -0.00000000000E+00 -0.00000000000E+00 -0.45593999997E+02  0.45594000000E+02  0.51100000000E-03 0.  1.
    9900012    2    1    2    0    0 -0.12771435101E+02 -0.25932894301E+01  0.13447844127E+02  0.72461569046E+02  0.69999998374E+02 0.  0.
        -12    1    1    2    0    0  0.12771435101E+02  0.25932894301E+01 -0.13447844127E+02  0.18726430954E+02  0.00000000000E+00 0.  1.
         11    1    3    3    0    0 -0.60999363410E+01  0.15271301944E+02 -0.88284767187E+01  0.18664508776E+02  0.51100000000E-03 0. -1.
        -11    1    3    3    0    0  0.23843130961E+01 -0.24219447266E+02  0.31210261438E+02  0.39577101891E+02  0.51100000000E-03 0.  1.
        -12    1    3    3    0    0 -0.90558118560E+01  0.63548558924E+01 -0.89339405921E+01  0.14219958379E+02  0.00000000000E+00 0.  1.
</event>
<event>
 7    1  0.1830715E-013  0.7246150E+02  0.7816164E-02  0.1226708E+00
        -11   -1    0    0    0    0  0.00000000000E+00  0.00000000000E+00  0.45593999997E+02  0.45594000000E+02  0.51100000000E-03 0. -1.
         11   -1    0    0    0    0 -0.00000000000E+00 -0.00000000000E+00 -0.45593999997E+02  0.45594000000E+02  0.51100000000E-03 0.  1.
    9900012    2    1    2    0    0 -0.59460509167E+01  0.32471091438E+01  0.17458022658E+02  0.72461500209E+02  0.69999908701E+02 0.  0.
        -12    1    1    2    0    0  0.59460509167E+01 -0.32471091438E+01 -0.17458022658E+02  0.18726499791E+02  0.00000000000E+00 0.  1.
         11    1    3    3    0    0  0.30638717168E+01 -0.14661488172E+02  0.38206247033E+02  0.41037347111E+02  0.51100000000E-03 0.  1.
        -11    1    3    3    0    0 -0.11240803166E+02  0.89524021606E+01 -0.12524191617E+02  0.19061913235E+02  0.51100000000E-03 0. -1.
        -12    1    3    3    0    0  0.22308805327E+01  0.89561951554E+01 -0.82240327579E+01  0.12362239862E+02  0.00000000000E+00 0.  1.
</event>
<event>
 7    1  0.1830715E-013  0.7246159E+02  0.7816164E-02  0.1226708E+00
        -11   -1    0    0    0    0  0.00000000000E+00  0.00000000000E+00  0.45593999997E+02  0.45594000000E+02  0.51100000000E-03 0.  1.
         11   -1    0    0    0    0 -0.00000000000E+00 -0.00000000000E+00 -0.45593999997E+02  0.45594000000E+02  0.51100000000E-03 0. -1.
    9900012    2    1    2    0    0  0.82349317622E+00 -0.18405992719E+02  0.33495700824E+01  0.72461592744E+02  0.70000029245E+02 0.  0.
        -12    1    1    2    0    0 -0.82349317622E+00  0.18405992719E+02 -0.33495700824E+01  0.18726407256E+02  0.00000000000E+00 0.  1.
         11    1    3    3    0    0  0.94960273512E+01 -0.14139884731E+02 -0.10511501164E+02  0.20015057647E+02  0.51100000000E-03 0. -1.
        -11    1    3    3    0    0  0.56962550224E+01  0.19593080348E+02  0.13731344843E+02  0.24594429252E+02  0.51100000000E-03 0.  1.
        -12    1    3    3    0    0 -0.14368789197E+02 -0.23859188336E+02  0.12972640323E+00  0.27852105845E+02  0.00000000000E+00 0.  1.
</event>
<event>
 7    1  0.1830715E-013  0.7246158E+02  0.7816164E-02  0.1226708E+00
        -11   -1    0    0    0    0  0.00000000000E+00  0.00000000000E+00  0.45593999997E+02  0.45594000000E+02  0.51100000000E-03 0. -1.
         11   -1    0    0    0    0 -0.00000000000E+00 -0.00000000000E+00 -0.45593999997E+02  0.45594000000E+02  0.51100000000E-03 0.  1.
    9900012    2    1    2    0    0 -0.21237265932E+01 -0.10925656311E+02  0.15059833677E+02  0.72461580939E+02  0.70000013867E+02 0.  0.
        -12    1    1    2    0    0  0.21237265932E+01  0.10925656311E+02 -0.15059833677E+02  0.18726419061E+02  0.00000000000E+00 0.  1.
         11    1    3    3    0    0 -0.68381902152E+01 -0.97654050976E+01  0.91264508668E+01  0.15013863188E+02  0.51100000000E-03 0. -1.
        -11    1    3    3    0    0 -0.10045901281E+01  0.25885588492E+02  0.12900287040E+02  0.28939424647E+02  0.51100000000E-03 0.  1.
        -12    1    3    3    0    0  0.57190537500E+01 -0.27045839706E+02 -0.69669042297E+01  0.28508293104E+02  0.00000000000E+00 0.  1.
</event>
<event>
 7    1  0.1830715E-013  0.7246144E+02  0.7816164E-02  0.1226708E+00
        -11   -1    0    0    0    0  0.00000000000E+00  0.00000000000E+00  0.45593999997E+02  0.45594000000E+02  0.51100000000E-03 0.  1.
         11   -1    0    0    0    0 -0.00000000000E+00 -0.00000000000E+00 -0.45593999997E+02  0.45594000000E+02  0.51100000000E-03 0. -1.
    9900012    2    1    2    0    0  0.18573309948E+02  0.10204288860E+01 -0.21621860194E+01  0.72461436890E+02  0.69999826216E+02 0.  0.
        -12    1    1    2    0    0 -0.18573309948E+02 -0.10204288860E+01  0.21621860194E+01  0.18726563110E+02  0.00000000000E+00 0.  1.
         11    1    3    3    0    0  0.77330564212E+01  0.28796979569E+02  0.43571700203E+01  0.30133886652E+02  0.51100000000E-03 0. -1.
        -11    1    3    3    0    0  0.16214430887E+02 -0.93803698256E+01 -0.12180020162E+02  0.22343947692E+02  0.51100000000E-03 0.  1.
        -12    1    3    3    0    0 -0.53741773601E+01 -0.18396180857E+02  0.56606641225E+01  0.19983602546E+02  0.00000000000E+00 0.  1.
</event>
<event>
 7    1  0.1830715E-013  0.7246155E+02  0.7816164E-02  0.1226708E+00
        -11   -1    0    0    0    0  0.00000000000E+00  0.00000000000E+00  0.45593999997E+02  0.45594000000E+02  0.51100000000E-03 0.  1.
         11   -1    0    0    0    0 -0.00000000000E+00 -0.00000000000E+00 -0.45593999997E+02  0.45594000000E+02  0.51100000000E-03 0. -1.
    9900012    2    1    2    0    0 -0.13141740250E+02  0.47789296169E+01 -0.12455379375E+02  0.72461548642E+02  0.69999971794E+02 0.  0.
        -12    1    1    2    0    0  0.13141740250E+02 -0.47789296169E+01  0.12455379375E+02  0.18726451358E+02  0.00000000000E+00 0.  1.
         11    1    3    3    0    0 -0.11131708283E+01  0.84300254255E+00 -0.49044034776E+01  0.50993113567E+01  0.51100000000E-03 0. -1.
        -11    1    3    3    0    0 -0.58340376423E+01 -0.29158949956E+02  0.72110108692E+01  0.30598677026E+02  0.51100000000E-03 0.  1.
        -12    1    3    3    0    0 -0.61945317796E+01  0.33094877030E+02 -0.14761986767E+02  0.36763560259E+02  0.00000000000E+00 0.  1.
</event>
<event>
 7    1  0.1830715E-013  0.7246161E+02  0.7816164E-02  0.1226708E+00
        -11   -1    0    0    0    0  0.00000000000E+00  0.00000000000E+00  0.45593999997E+02  0.45594000000E+02  0.51100000000E-03 0. -1.
         11   -1    0    0    0    0 -0.00000000000E+00 -0.00000000000E+00 -0.45593999997E+02  0.45594000000E+02  0.51100000000E-03 0.  1.
    9900012    2    1    2    0    0 -0.58397096305E+01 -0.17333087125E+02  0.40174007231E+01  0.72461611496E+02  0.70000053673E+02 0.  0.
        -12    1    1    2    0    0  0.58397096305E+01  0.17333087125E+02 -0.40174007231E+01  0.18726388504E+02  0.00000000000E+00 0.  1.
         11    1    3    3    0    0 -0.24108099040E+02 -0.17813489874E+02  0.30616167558E+01  0.30131285373E+02  0.51100000000E-03 0.  1.
        -11    1    3    3    0    0  0.44440949214E+01  0.18826999854E+02  0.17680896311E+00  0.19345210385E+02  0.51100000000E-03 0. -1.
        -12    1    3    3    0    0  0.13824294488E+02 -0.18346597105E+02  0.77897500421E+00  0.22985115738E+02  0.00000000000E+00 0.  1.
</event>
<event>
 7    1  0.1830715E-013  0.7246146E+02  0.7816164E-02  0.1226708E+00
        -11   -1    0    0    0    0  0.00000000000E+00  0.00000000000E+00  0.45593999997E+02  0.45594000000E+02  0.51100000000E-03 0.  1.
         11   -1    0    0    0    0 -0.00000000000E+00 -0.00000000000E+00 -0.45593999997E+02  0.45594000000E+02  0.51100000000E-03 0. -1.
    9900012    2    1    2    0    0  0.57403328220E+01  0.86925446859E+00 -0.17803828998E+02  0.72461458642E+02  0.69999854552E+02 0.  0.
        -12    1    1    2    0    0 -0.57403328220E+01 -0.86925446859E+00  0.17803828998E+02  0.18726541358E+02  0.00000000000E+00 0.  1.
         11    1    3    3    0    0  0.14376677798E+02 -0.10004707998E+02 -0.29122235534E+02  0.33983637966E+02  0.51100000000E-03 0. -1.
        -11    1    3    3    0    0 -0.18581675226E+02  0.14357743342E+02  0.66310472541E+00  0.23491767840E+02  0.51100000000E-03 0.  1.
        -12    1    3    3    0    0  0.99453302499E+01 -0.34837808753E+01  0.10655301810E+02  0.14986052837E+02  0.00000000000E+00 0.  1.
</event>
<event>
 7    1  0.1830715E-013  0.7246160E+02  0.7816164E-02  0.1226708E+00
        -11   -1    0    0    0    0  0.00000000000E+00  0.00000000000E+00  0.45593999997E+02  0.45594000000E+02  0.51100000000E-03 0.  1.
         11   -1    0    0    0    0 -0.00000000000E+00 -0.00000000000E+00 -0.45593999997E+02  0.45594000000E+02  0.51100000000E-03 0. -1.
    9900012    2    1    2    0    0  0.44757340438E+01  0.15606989358E+02 -0.93310161904E+01  0.72461596843E+02  0.70000034585E+02 0.  0.
        -12    1    1    2    0    0 -0.44757340438E+01 -0.15606989358E+02  0.93310161904E+01  0.18726403157E+02  0.00000000000E+00 0.  1.
         11    1    3    3    0    0  0.19115400824E+02  0.31304906751E+02 -0.37627324965E+01  0.36872128925E+02  0.51100000000E-03 0. -1.
        -11    1    3    3    0    0 -0.21672938293E+02 -0.97579383046E+01  0.17447896994E+01  0.23832287040E+02  0.51100000000E-03 0.  1.
        -12    1    3    3    0    0  0.70332715124E+01 -0.59399790891E+01 -0.73130733933E+01  0.11757180878E+02  0.00000000000E+00 0.  1.
</event>
<event>
 7    1  0.1830715E-013  0.7246142E+02  0.7816164E-02  0.1226708E+00
        -11   -1    0    0    0    0  0.00000000000E+00  0.00000000000E+00  0.45593999997E+02  0.45594000000E+02  0.51100000000E-03 0.  1.
         11   -1    0    0    0    0 -0.00000000000E+00 -0.00000000000E+00 -0.45593999997E+02  0.45594000000E+02  0.51100000000E-03 0. -1.
    9900012    2    1    2    0    0 -0.39350915735E+01 -0.13068022048E+02  0.12822894958E+02  0.72461420466E+02  0.69999804820E+02 0.  0.
        -12    1    1    2    0    0  0.39350915735E+01  0.13068022048E+02 -0.12822894958E+02  0.18726579534E+02  0.00000000000E+00 0.  1.
         11    1    3    3    0    0  0.10051642843E+02  0.56995469679E+01 -0.82447903200E+00  0.11584477779E+02  0.51100000000E-03 0. -1.
        -11    1    3    3    0    0  0.74214962502E+01 -0.22146851910E+02  0.26780321106E+02  0.35535155198E+02  0.51100000000E-03 0.  1.
        -12    1    3    3    0    0 -0.21408230667E+02  0.33792828941E+01 -0.13132947116E+02  0.25341787489E+02  0.00000000000E+00 0.  1.
</event>
<event>
 8    1  0.1830715E-013  0.7246156E+02  0.7816164E-02  0.1226708E+00
        -11   -1    0    0    0    0  0.00000000000E+00  0.00000000000E+00  0.45593999997E+02  0.45594000000E+02  0.51100000000E-03 0.  1.
         11   -1    0    0    0    0 -0.00000000000E+00 -0.00000000000E+00 -0.45593999997E+02  0.45594000000E+02  0.51100000000E-03 0. -1.
    9900012    2    1    2    0    0 -0.33636349566E+01 -0.16167183004E+02 -0.88310740889E+01  0.72461555704E+02  0.69999980994E+02 0.  0.
         24    2    3    3    0    0 -0.70426687775E+01 -0.12746904942E+01  0.77295813664E+01  0.49887744941E+02  0.48762861358E+02 0.  0.
        -12    1    1    2    0    0  0.33636349566E+01  0.16167183004E+02  0.88310740889E+01  0.18726444296E+02  0.00000000000E+00 0.  1.
         11    1    3    3    0    0  0.36790338209E+01 -0.14892492510E+02 -0.16560655455E+02  0.22573810763E+02  0.51100000000E-03 0. -1.
        -11    1    4    4    0    0 -0.49202512567E+00  0.54148747923E+01  0.27489412579E+02  0.28021969273E+02  0.51100000000E-03 0.  1.
         12    1    4    4    0    0 -0.65506436518E+01 -0.66895652865E+01 -0.19759831213E+02  0.21865775667E+02  0.00000000000E+00 0. -1.
</event>
<event>
 7    1  0.2082623E-013  0.7246157E+02  0.7816164E-02  0.1226708E+00
        -11   -1    0    0    0    0  0.00000000000E+00  0.00000000000E+00  0.45593999997E+02  0.45594000000E+02  0.51100000000E-03 0. -1.
         11   -1    0    0    0    0 -0.00000000000E+00 -0.00000000000E+00 -0.45593999997E+02  0.45594000000E+02  0.51100000000E-03 0.  1.
    9900012    2    1    2    0    0 -0.29898803872E+01  0.14537256494E+02  0.11419630207E+02  0.72461570410E+02  0.70000000151E+02 0.  0.
        -12    1    1    2    0    0  0.29898803872E+01 -0.14537256494E+02 -0.11419630207E+02  0.18726429590E+02  0.00000000000E+00 0.  1.
         11    1    3    3    0    0 -0.21475379312E+02  0.15261590825E+02  0.23128909711E+02  0.35057874091E+02  0.51100000000E-03 0. -1.
        -11    1    3    3    0    0  0.15251145528E+02 -0.11984090432E+02  0.18502349391E+01  0.19484333014E+02  0.51100000000E-03 0.  1.
        -12    1    3    3    0    0  0.32343533964E+01  0.11259756101E+02 -0.13559514443E+02  0.17919363306E+02  0.00000000000E+00 0.  1.
</event>
<event>
 7    1  0.1830715E-013  0.7246155E+02  0.7816164E-02  0.1226708E+00
        -11   -1    0    0    0    0  0.00000000000E+00  0.00000000000E+00  0.45593999997E+02  0.45594000000E+02  0.51100000000E-03 0. -1.
         11   -1    0    0    0    0 -0.00000000000E+00 -0.00000000000E+00 -0.45593999997E+02  0.45594000000E+02  0.51100000000E-03 0.  1.
    9900012    2    1    2    0    0 -0.13919723625E+02 -0.33909971140E+01 -0.12059120053E+02  0.72461549624E+02  0.69999973074E+02 0.  0.
        -12    1    1    2    0    0  0.13919723625E+02  0.33909971140E+01  0.12059120053E+02  0.18726450376E+02  0.00000000000E+00 0.  1.
         11    1    3    3    0    0 -0.18440939081E+02 -0.13568625826E+02  0.12917039641E+02  0.26287368722E+02  0.51100000000E-03 0. -1.
        -11    1    3    3    0    0 -0.66631089762E+01  0.21701145956E+02 -0.13193130094E+02  0.26256340929E+02  0.51100000000E-03 0.  1.
        -12    1    3    3    0    0  0.11184324432E+02 -0.11523517244E+02 -0.11783029599E+02  0.19917839973E+02  0.00000000000E+00 0.  1.
</event>
<event>
 7    1  0.1830715E-013  0.7246167E+02  0.7816164E-02  0.1226708E+00
        -11   -1    0    0    0    0  0.00000000000E+00  0.00000000000E+00  0.45593999997E+02  0.45594000000E+02  0.51100000000E-03 0. -1.
         11   -1    0    0    0    0 -0.00000000000E+00 -0.00000000000E+00 -0.45593999997E+02  0.45594000000E+02  0.51100000000E-03 0.  1.
    9900012    2    1    2    0    0  0.14849240555E+02 -0.22595677805E+01  0.11183470318E+02  0.72461665602E+02  0.70000124156E+02 0.  0.
        -12    1    1    2    0    0 -0.14849240555E+02  0.22595677805E+01 -0.11183470318E+02  0.18726334398E+02  0.00000000000E+00 0.  1.
         11    1    3    3    0    0  0.28381998417E+02 -0.17107550738E+02  0.23156710170E+02  0.40428199967E+02  0.51100000000E-03 0. -1.
        -11    1    3    3    0    0 -0.81129225065E+01 -0.31041676267E+01  0.16668295373E+01  0.88449810186E+01  0.51100000000E-03 0.  1.
         12    1    3    3    0    0 -0.54198353555E+01  0.17952150584E+02 -0.13640069389E+02  0.23188484617E+02  0.00000000000E+00 0. -1.
</event>
<event>
 7    1  0.1830715E-013  0.7246158E+02  0.7816164E-02  0.1226708E+00
        -11   -1    0    0    0    0  0.00000000000E+00  0.00000000000E+00  0.45593999997E+02  0.45594000000E+02  0.51100000000E-03 0. -1.
         11   -1    0    0    0    0 -0.00000000000E+00 -0.00000000000E+00 -0.45593999997E+02  0.45594000000E+02  0.51100000000E-03 0.  1.
    9900012    2    1    2    0    0 -0.94665247438E+00  0.17219614881E+02 -0.72984643856E+01  0.72461578293E+02  0.70000010420E+02 0.  0.
        -12    1    1    2    0    0  0.94665247438E+00 -0.17219614881E+02  0.72984643856E+01  0.18726421707E+02  0.00000000000E+00 0.  1.
         11    1    3    3    0    0 -0.88907521143E+00  0.92733889076E+01  0.24380402902E+02  0.26099621501E+02  0.51100000000E-03 0. -1.
        -11    1    3    3    0    0  0.15161296717E+02 -0.22438777335E+01 -0.11887270449E+02  0.19396058992E+02  0.51100000000E-03 0.  1.
         12    1    3    3    0    0 -0.15218873980E+02  0.10190103707E+02 -0.19791596838E+02  0.26965897800E+02  0.00000000000E+00 0. -1.
</event>
<event>
 7    1  0.1830715E-013  0.7246183E+02  0.7816164E-02  0.1226707E+00
        -11   -1    0    0    0    0  0.00000000000E+00  0.00000000000E+00  0.45593999997E+02  0.45594000000E+02  0.51100000000E-03 0.  1.
         11   -1    0    0    0    0 -0.00000000000E+00 -0.00000000000E+00 -0.45593999997E+02  0.45594000000E+02  0.51100000000E-03 0. -1.
    9900012    2    1    2    0    0 -0.27674210796E+01  0.17923081601E+02 -0.46662585106E+01  0.72461830024E+02  0.70000338345E+02 0.  0.
        -12    1    1    2    0    0  0.27674210796E+01 -0.17923081601E+02  0.46662585106E+01  0.18726169976E+02  0.00000000000E+00 0.  1.
         11    1    3    3    0    0 -0.18439525784E+02 -0.14220895871E+02 -0.56305411086E+01  0.23957315875E+02  0.51100000000E-03 0. -1.
        -11    1    3    3    0    0  0.23655554282E+02  0.24979729697E+02 -0.70456933248E+01  0.35117145937E+02  0.51100000000E-03 0.  1.
        -12    1    3    3    0    0 -0.79834495776E+01  0.71642477754E+01  0.80099759228E+01  0.13387368212E+02  0.00000000000E+00 0.  1.
</event>
<event>
 7    1  0.1830715E-013  0.7246159E+02  0.7816164E-02  0.1226708E+00
        -11   -1    0    0    0    0  0.00000000000E+00  0.00000000000E+00  0.45593999997E+02  0.45594000000E+02  0.51100000000E-03 0.  1.
         11   -1    0    0    0    0 -0.00000000000E+00 -0.00000000000E+00 -0.45593999997E+02  0.45594000000E+02  0.51100000000E-03 0. -1.
    9900012    2    1    2    0    0 -0.14700116461E+00  0.16009620216E+02 -0.97133356268E+01  0.72461589832E+02  0.70000025451E+02 0.  0.
        -12    1    1    2    0    0  0.14700116461E+00 -0.16009620216E+02  0.97133356268E+01  0.18726410168E+02  0.00000000000E+00 0.  1.
         11    1    3    3    0    0  0.20155720504E+02  0.22673192440E+02 -0.56809905428E+00  0.30342205939E+02  0.51100000000E-03 0. -1.
        -11    1    3    3    0    0 -0.25288562314E+02 -0.14879144009E+02 -0.12565845430E+02  0.31918658838E+02  0.51100000000E-03 0.  1.
        -12    1    3    3    0    0  0.49858406460E+01  0.82155717842E+01  0.34206088576E+01  0.10200725055E+02  0.00000000000E+00 0.  1.
</event>
<event>
 7    1  0.1830715E-013  0.7246156E+02  0.7816164E-02  0.1226708E+00
        -11   -1    0    0    0    0  0.00000000000E+00  0.00000000000E+00  0.45593999997E+02  0.45594000000E+02  0.51100000000E-03 0. -1.
         11   -1    0    0    0    0 -0.00000000000E+00 -0.00000000000E+00 -0.45593999997E+02  0.45594000000E+02  0.51100000000E-03 0.  1.
    9900012    2    1    2    0    0  0.45788054464E+01 -0.15045250423E+02  0.10166345572E+02  0.72461558750E+02  0.69999984962E+02 0.  0.
        -12    1    1    2    0    0 -0.45788054464E+01  0.15045250423E+02 -0.10166345572E+02  0.18726441250E+02  0.00000000000E+00 0.  1.
         11    1    3    3    0    0  0.73761783653E+01 -0.29961512931E-01  0.10116655265E+02  0.12520208424E+02  0.51100000000E-03 0. -1.
        -11    1    3    3    0    0 -0.24699234528E+01  0.20794296145E+02 -0.93259813895E+01  0.22923289536E+02  0.51100000000E-03 0.  1.
        -12    1    3    3    0    0 -0.32744946609E+00 -0.35809585054E+02  0.93756716959E+01  0.37018060790E+02  0.00000000000E+00 0.  1.
</event>
<event>
 7    1  0.1830715E-013  0.7246154E+02  0.7816164E-02  0.1226708E+00
        -11   -1    0    0    0    0  0.00000000000E+00  0.00000000000E+00  0.45593999997E+02  0.45594000000E+02  0.51100000000E-03 0. -1.
         11   -1    0    0    0    0 -0.00000000000E+00 -0.00000000000E+00 -0.45593999997E+02  0.45594000000E+02  0.51100000000E-03 0.  1.
    9900012    2    1    2    0    0 -0.12807103420E+02  0.12409170203E+02  0.57158458404E+01  0.72461540196E+02  0.69999960791E+02 0.  0.
        -12    1    1    2    0    0  0.12807103420E+02 -0.12409170203E+02 -0.57158458404E+01  0.18726459804E+02  0.00000000000E+00 0.  1.
         11    1    3    3    0    0 -0.81229651878E+01 -0.10810215869E+02  0.21025007721E+02  0.24997885521E+02  0.51100000000E-03 0. -1.
        -11    1    3    3    0    0  0.60259515502E+01  0.43237784277E+00 -0.20828824955E+02  0.21687300246E+02  0.51100000000E-03 0.  1.
         12    1    3    3    0    0 -0.10710089782E+02  0.22787008230E+02  0.55196630749E+01  0.25776354429E+02  0.00000000000E+00 0. -1.
</event>
<event>
 7    1  0.1830715E-013  0.7246164E+02  0.7816164E-02  0.1226708E+00
        -11   -1    0    0    0    0  0.00000000000E+00  0.00000000000E+00  0.45593999997E+02  0.45594000000E+02  0.51100000000E-03 0. -1.
         11   -1    0    0    0    0 -0.00000000000E+00 -0.00000000000E+00 -0.45593999997E+02  0.45594000000E+02  0.51100000000E-03 0.  1.
    9900012    2    1    2    0    0  0.14165180254E+02 -0.11263927997E+02  0.48112509228E+01  0.72461640476E+02  0.70000091425E+02 0.  0.
        -12    1    1    2    0    0 -0.14165180254E+02  0.11263927997E+02 -0.48112509228E+01  0.18726359524E+02  0.00000000000E+00 0.  1.
         11    1    3    3    0    0  0.14588199774E+02 -0.19294656350E+02 -0.74071029008E+00  0.24200165047E+02  0.51100000000E-03 0. -1.
        -11    1    3    3    0    0 -0.22719564771E+02  0.10505270300E+02 -0.46515783231E+00  0.25035089365E+02  0.51100000000E-03 0.  1.
        -12    1    3    3    0    0  0.22296545252E+02 -0.24745419466E+01  0.60171190452E+01  0.23226386064E+02  0.00000000000E+00 0.  1.
</event>
<event>
 7    1  0.1830715E-013  0.7246154E+02  0.7816164E-02  0.1226708E+00
        -11   -1    0    0    0    0  0.00000000000E+00  0.00000000000E+00  0.45593999997E+02  0.45594000000E+02  0.51100000000E-03 0.  1.
         11   -1    0    0    0    0 -0.00000000000E+00 -0.00000000000E+00 -0.45593999997E+02  0.45594000000E+02  0.51100000000E-03 0. -1.
    9900012    2    1    2    0    0 -0.74810749919E+01 -0.47208361137E+01 -0.16505381047E+02  0.72461537970E+02  0.69999957892E+02 0.  0.
        -12    1    1    2    0    0  0.74810749919E+01  0.47208361137E+01  0.16505381047E+02  0.18726462030E+02  0.00000000000E+00 0.  1.
         11    1    3    3    0    0 -0.15071644725E+02 -0.19383408520E+02 -0.34396815463E+02  0.42261234185E+02  0.51100000000E-03 0. -1.
        -11    1    3    3    0    0 -0.20724484180E+01  0.14518676668E+02  0.10726488214E+02  0.18169880690E+02  0.51100000000E-03 0.  1.
        -12    1    3    3    0    0  0.96630181508E+01  0.14389573798E+00  0.71649462023E+01  0.12030423095E+02  0.00000000000E+00 0.  1.
</event>
<event>
 7    1  0.1830715E-013  0.7246175E+02  0.7816164E-02  0.1226708E+00
        -11   -1    0    0    0    0  0.00000000000E+00  0.00000000000E+00  0.45593999997E+02  0.45594000000E+02  0.51100000000E-03 0.  1.
         11   -1    0    0    0    0 -0.00000000000E+00 -0.00000000000E+00 -0.45593999997E+02  0.45594000000E+02  0.51100000000E-03 0. -1.
    9900012    2    1    2    0    0  0.12260501664E+02 -0.12096233576E+02 -0.73507601388E+01  0.72461749911E+02  0.70000233984E+02 0.  0.
        -12    1    1    2    0    0 -0.12260501664E+02  0.12096233576E+02  0.73507601388E+01  0.18726250089E+02  0.00000000000E+00 0.  1.
         11    1    3    3    0    0  0.30439804735E+02  0.90626376345E+01 -0.41871909201E+01  0.32035069553E+02  0.51100000000E-03 0. -1.
        -11    1    3    3    0    0 -0.23708998299E+02 -0.67562763609E+01  0.12146767622E+00  0.24653166637E+02  0.51100000000E-03 0.  1.
         12    1    3    3    0    0  0.55296952282E+01 -0.14402594849E+02 -0.32850368949E+01  0.15773513721E+02  0.00000000000E+00 0. -1.
</event>
<event>
 7    1  0.1830715E-013  0.7246157E+02  0.7816164E-02  0.1226708E+00
        -11   -1    0    0    0    0  0.00000000000E+00  0.00000000000E+00  0.45593999997E+02  0.45594000000E+02  0.51100000000E-03 0. -1.
         11   -1    0    0    0    0 -0.00000000000E+00 -0.00000000000E+00 -0.45593999997E+02  0.45594000000E+02  0.51100000000E-03 0.  1.
    9900012    2    1    2    0    0 -0.62685238178E+01 -0.16911729620E+02 -0.50376927334E+01  0.72461565805E+02  0.69999994152E+02 0.  0.
        -12    1    1    2    0    0  0.62685238178E+01  0.16911729620E+02  0.50376927334E+01  0.18726434195E+02  0.00000000000E+00 0.  1.
         11    1    3    3    0    0  0.13932003779E+01 -0.34313782769E+02  0.15094390076E+02  0.37512895213E+02  0.51100000000E-03 0. -1.
        -11    1    3    3    0    0  0.71645936734E+01  0.60139273746E+01 -0.99659797141E+01  0.13668192159E+02  0.51100000000E-03 0.  1.
         12    1    3    3    0    0 -0.14826317869E+02  0.11388125774E+02 -0.10166103095E+02  0.21280478433E+02  0.00000000000E+00 0. -1.
</event>
<event>
 7    1  0.1830715E-013  0.7246156E+02  0.7816164E-02  0.1226708E+00
        -11   -1    0    0    0    0  0.00000000000E+00  0.00000000000E+00  0.45593999997E+02  0.45594000000E+02  0.51100000000E-03 0. -1.
         11   -1    0    0    0    0 -0.00000000000E+00 -0.00000000000E+00 -0.45593999997E+02  0.45594000000E+02  0.51100000000E-03 0.  1.
    9900012    2    1    2    0    0 -0.70451586916E+00 -0.15438676177E+02 -0.10574989778E+02  0.72461562178E+02  0.69999989426E+02 0.  0.
        -12    1    1    2    0    0  0.70451586916E+00  0.15438676177E+02  0.10574989778E+02  0.18726437822E+02  0.00000000000E+00 0.  1.
         11    1    3    3    0    0 -0.12281374765E+02 -0.17745734102E+01 -0.63178732487E+01  0.13924683104E+02  0.51100000000E-03 0. -1.
        -11    1    3    3    0    0  0.28810164405E+02 -0.17759781935E+02  0.10549280504E+02  0.35450285567E+02  0.51100000000E-03 0.  1.
        -12    1    3    3    0    0 -0.17233305509E+02  0.40956791677E+01 -0.14806397033E+02  0.23086593506E+02  0.00000000000E+00 0.  1.
</event>
<event>
 7    1  0.1830715E-013  0.7246155E+02  0.7816164E-02  0.1226708E+00
        -11   -1    0    0    0    0  0.00000000000E+00  0.00000000000E+00  0.45593999997E+02  0.45594000000E+02  0.51100000000E-03 0. -1.
         11   -1    0    0    0    0 -0.00000000000E+00 -0.00000000000E+00 -0.45593999997E+02  0.45594000000E+02  0.51100000000E-03 0.  1.
    9900012    2    1    2    0    0 -0.14303327721E+02 -0.83514794687E+01  0.87376996060E+01  0.72461553791E+02  0.69999978501E+02 0.  0.
        -12    1    1    2    0    0  0.14303327721E+02  0.83514794687E+01 -0.87376996060E+01  0.18726446209E+02  0.00000000000E+00 0.  1.
         11    1    3    3    0    0 -0.38876689202E+01 -0.22444011607E+00  0.47618731373E+01  0.61514046392E+01  0.51100000000E-03 0. -1.
        -11    1    3    3    0    0  0.10140742777E+02  0.24286789409E+02 -0.52429510098E+01  0.26836008262E+02  0.51100000000E-03 0.  1.
        -12    1    3    3    0    0 -0.20556401578E+02 -0.32413828762E+02  0.92187774785E+01  0.39474140890E+02  0.00000000000E+00 0.  1.
</event>
<event>
 7    1  0.1830715E-013  0.7246179E+02  0.7816164E-02  0.1226707E+00
        -11   -1    0    0    0    0  0.00000000000E+00  0.00000000000E+00  0.45593999997E+02  0.45594000000E+02  0.51100000000E-03 0.  1.
         11   -1    0    0    0    0 -0.00000000000E+00 -0.00000000000E+00 -0.45593999997E+02  0.45594000000E+02  0.51100000000E-03 0. -1.
    9900012    2    1    2    0    0 -0.35899397238E+01 -0.18353507721E+02  0.96543148047E+00  0.72461789202E+02  0.70000285168E+02 0.  0.
        -12    1    1    2    0    0  0.35899397238E+01  0.18353507721E+02 -0.96543148047E+00  0.18726210798E+02  0.00000000000E+00 0.  1.
         11    1    3    3    0    0  0.12733648839E+01 -0.21956767882E+02  0.17294739839E+02  0.27979083979E+02  0.51100000000E-03 0. -1.
        -11    1    3    3    0    0  0.16817627368E+02  0.26839438342E+01 -0.15078341639E+02  0.22746264125E+02  0.51100000000E-03 0.  1.
         12    1    3    3    0    0 -0.21680931976E+02  0.91931632684E+00 -0.12509667190E+01  0.21736441097E+02  0.00000000000E+00 0. -1.
</event>
<event>
 7    1  0.1830715E-013  0.7246162E+02  0.7816164E-02  0.1226708E+00
        -11   -1    0    0    0    0  0.00000000000E+00  0.00000000000E+00  0.45593999997E+02  0.45594000000E+02  0.51100000000E-03 0. -1.
         11   -1    0    0    0    0 -0.00000000000E+00 -0.00000000000E+00 -0.45593999997E+02  0.45594000000E+02  0.51100000000E-03 0.  1.
    9900012    2    1    2    0    0 -0.95734570477E+01  0.36989874023E+01  0.15663457608E+02  0.72461615088E+02  0.70000058352E+02 0.  0.
        -12    1    1    2    0    0  0.95734570477E+01 -0.36989874023E+01 -0.15663457608E+02  0.18726384912E+02  0.00000000000E+00 0.  1.
         11    1    3    3    0    0 -0.17023546013E+02  0.69132120707E+00  0.17046599566E+02  0.24101153518E+02  0.51100000000E-03 0. -1.
        -11    1    3    3    0    0  0.27000767241E+02 -0.37511040532E+01  0.22697878417E+01  0.27354417382E+02  0.51100000000E-03 0.  1.
        -12    1    3    3    0    0 -0.19550678275E+02  0.67587702484E+01 -0.36529297998E+01  0.21006044188E+02  0.00000000000E+00 0.  1.
</event>
<event>
 7    1  0.1830715E-013  0.7246146E+02  0.7816164E-02  0.1226708E+00
        -11   -1    0    0    0    0  0.00000000000E+00  0.00000000000E+00  0.45593999997E+02  0.45594000000E+02  0.51100000000E-03 0. -1.
         11   -1    0    0    0    0 -0.00000000000E+00 -0.00000000000E+00 -0.45593999997E+02  0.45594000000E+02  0.51100000000E-03 0.  1.
    9900012    2    1    2    0    0  0.12552843193E+01  0.25515625236E+01  0.18509381834E+02  0.72461456648E+02  0.69999851955E+02 0.  0.
        -12    1    1    2    0    0 -0.12552843193E+01 -0.25515625236E+01 -0.18509381834E+02  0.18726543352E+02  0.00000000000E+00 0.  1.
         11    1    3    3    0    0  0.15495217359E+02 -0.19101431042E+02  0.31970116838E+02  0.40336767344E+02  0.51100000000E-03 0. -1.
        -11    1    3    3    0    0  0.23521715426E+01  0.45981121870E+01 -0.98411444407E+00  0.52577398329E+01  0.51100000000E-03 0.  1.
         12    1    3    3    0    0 -0.16592104582E+02  0.17054881378E+02 -0.12476620560E+02  0.26866949471E+02  0.00000000000E+00 0. -1.
</event>
<event>
 7    1  0.1830715E-013  0.7246159E+02  0.7816164E-02  0.1226708E+00
        -11   -1    0    0    0    0  0.00000000000E+00  0.00000000000E+00  0.45593999997E+02  0.45594000000E+02  0.51100000000E-03 0.  1.
         11   -1    0    0    0    0 -0.00000000000E+00 -0.00000000000E+00 -0.45593999997E+02  0.45594000000E+02  0.51100000000E-03 0. -1.
    9900012    2    1    2    0    0  0.75184575671E+01 -0.12430352839E+01 -0.17105735260E+02  0.72461587645E+02  0.70000022602E+02 0.  0.
        -12    1    1    2    0    0 -0.75184575671E+01  0.12430352839E+01  0.17105735260E+02  0.18726412355E+02  0.00000000000E+00 0.  1.
         11    1    3    3    0    0 -0.17948684160E+02  0.15968732820E+01  0.35252386954E+01  0.18361170319E+02  0.51100000000E-03 0. -1.
        -11    1    3    3    0    0  0.22959231874E+02  0.17730982599E+02 -0.14834347006E+02  0.32581772872E+02  0.51100000000E-03 0.  1.
        -12    1    3    3    0    0  0.25079098531E+01 -0.20570891165E+02 -0.57966269497E+01  0.21518644454E+02  0.00000000000E+00 0.  1.
</event>
<event>
 7    1  0.1830715E-013  0.7246104E+02  0.7816164E-02  0.1226709E+00
        -11   -1    0    0    0    0  0.00000000000E+00  0.00000000000E+00  0.45593999997E+02  0.45594000000E+02  0.51100000000E-03 0. -1.
         11   -1    0    0    0    0 -0.00000000000E+00 -0.00000000000E+00 -0.45593999997E+02  0.45594000000E+02  0.51100000000E-03 0.  1.
    9900012    2    1    2    0    0  0.53717911149E+01  0.12542576528E+02 -0.12826793509E+02  0.72461040891E+02  0.69999310351E+02 0.  0.
        -12    1    1    2    0    0 -0.53717911149E+01 -0.12542576528E+02  0.12826793509E+02  0.18726959109E+02  0.00000000000E+00 0.  1.
         11    1    3    3    0    0 -0.99483340438E+01 -0.89028466549E+01 -0.14129246177E+02  0.19438766077E+02  0.51100000000E-03 0. -1.
        -11    1    3    3    0    0  0.22821881276E+02  0.24799238078E+02 -0.13328145915E+02  0.36241963909E+02  0.51100000000E-03 0.  1.
        -12    1    3    3    0    0 -0.75017561170E+01 -0.33538148947E+01  0.14630598583E+02  0.16780310905E+02  0.00000000000E+00 0.  1.
</event>
<event>
 7    1  0.1830715E-013  0.7246156E+02  0.7816164E-02  0.1226708E+00
        -11   -1    0    0    0    0  0.00000000000E+00  0.00000000000E+00  0.45593999997E+02  0.45594000000E+02  0.51100000000E-03 0. -1.
         11   -1    0    0    0    0 -0.00000000000E+00 -0.00000000000E+00 -0.45593999997E+02  0.45594000000E+02  0.51100000000E-03 0.  1.
    9900012    2    1    2    0    0 -0.16359422880E+02  0.39019399300E+01  0.82355174171E+01  0.72461558819E+02  0.69999985052E+02 0.  0.
        -12    1    1    2    0    0  0.16359422880E+02 -0.39019399300E+01 -0.82355174171E+01  0.18726441181E+02  0.00000000000E+00 0.  1.
         11    1    3    3    0    0 -0.19174183898E+02 -0.78011623007E+01 -0.20394519496E+01  0.20800644844E+02  0.51100000000E-03 0.  1.
        -11    1    3    3    0    0 -0.84851850214E+01  0.28846557523E+02  0.52672218536E+01  0.30526478213E+02  0.51100000000E-03 0. -1.
        -12    1    3    3    0    0  0.11299946040E+02 -0.17143455292E+02  0.50077475132E+01  0.21134435763E+02  0.00000000000E+00 0.  1.
</event>
<event>
 7    1  0.1830715E-013  0.7246157E+02  0.7816164E-02  0.1226708E+00
        -11   -1    0    0    0    0  0.00000000000E+00  0.00000000000E+00  0.45593999997E+02  0.45594000000E+02  0.51100000000E-03 0.  1.
         11   -1    0    0    0    0 -0.00000000000E+00 -0.00000000000E+00 -0.45593999997E+02  0.45594000000E+02  0.51100000000E-03 0. -1.
    9900012    2    1    2    0    0  0.63372389722E+01 -0.16881822322E+02 -0.50520024911E+01  0.72461568095E+02  0.69999997135E+02 0.  0.
        -12    1    1    2    0    0 -0.63372389722E+01  0.16881822322E+02  0.50520024911E+01  0.18726431905E+02  0.00000000000E+00 0.  1.
         11    1    3    3    0    0  0.11074264228E+02  0.19433019295E+00 -0.96359743500E+01  0.14680909180E+02  0.51100000000E-03 0. -1.
        -11    1    3    3    0    0 -0.21033474412E+02  0.57397507149E+01  0.16472936940E+02  0.27325984627E+02  0.51100000000E-03 0.  1.
        -12    1    3    3    0    0  0.16296449156E+02 -0.22815903230E+02 -0.11888965081E+02  0.30454674288E+02  0.00000000000E+00 0.  1.
</event>
<event>
 7    1  0.1830715E-013  0.7246160E+02  0.7816164E-02  0.1226708E+00
        -11   -1    0    0    0    0  0.00000000000E+00  0.00000000000E+00  0.45593999997E+02  0.45594000000E+02  0.51100000000E-03 0.  1.
         11   -1    0    0    0    0 -0.00000000000E+00 -0.00000000000E+00 -0.45593999997E+02  0.45594000000E+02  0.51100000000E-03 0. -1.
    9900012    2    1    2    0    0  0.10675996288E+02  0.75337625844E+01 -0.13414308226E+02  0.72461597767E+02  0.70000035788E+02 0.  0.
        -12    1    1    2    0    0 -0.10675996288E+02 -0.75337625844E+01  0.13414308226E+02  0.18726402233E+02  0.00000000000E+00 0.  1.
         11    1    3    3    0    0  0.16038962696E+02  0.88763638547E+01 -0.35623342697E+01  0.18674270678E+02  0.51100000000E-03 0. -1.
        -11    1    3    3    0    0 -0.24922475185E+02  0.13412964505E+02 -0.66955170007E+01  0.29083798485E+02  0.51100000000E-03 0.  1.
        -12    1    3    3    0    0  0.19559508777E+02 -0.14755565776E+02 -0.31564569558E+01  0.24703528604E+02  0.00000000000E+00 0.  1.
</event>
<event>
 7    1  0.1830715E-013  0.7246157E+02  0.7816164E-02  0.1226708E+00
        -11   -1    0    0    0    0  0.00000000000E+00  0.00000000000E+00  0.45593999997E+02  0.45594000000E+02  0.51100000000E-03 0.  1.
         11   -1    0    0    0    0 -0.00000000000E+00 -0.00000000000E+00 -0.45593999997E+02  0.45594000000E+02  0.51100000000E-03 0. -1.
    9900012    2    1    2    0    0  0.11253389232E+02 -0.84777270972E+01 -0.12335661397E+02  0.72461570334E+02  0.70000000051E+02 0.  0.
        -12    1    1    2    0    0 -0.11253389232E+02  0.84777270972E+01  0.12335661397E+02  0.18726429666E+02  0.00000000000E+00 0.  1.
         11    1    3    3    0    0  0.79193102133E+01  0.23508358087E+02 -0.14724314990E+02  0.28847249893E+02  0.51100000000E-03 0. -1.
        -11    1    3    3    0    0  0.12848693823E+02 -0.13335000171E+02  0.10350015693E+02  0.21214004517E+02  0.51100000000E-03 0.  1.
         12    1    3    3    0    0 -0.95146148038E+01 -0.18651085013E+02 -0.79613620996E+01  0.22400315924E+02  0.00000000000E+00 0. -1.
</event>
<event>
 7    1  0.1830715E-013  0.7246172E+02  0.7816164E-02  0.1226708E+00
        -11   -1    0    0    0    0  0.00000000000E+00  0.00000000000E+00  0.45593999997E+02  0.45594000000E+02  0.51100000000E-03 0. -1.
         11   -1    0    0    0    0 -0.00000000000E+00 -0.00000000000E+00 -0.45593999997E+02  0.45594000000E+02  0.51100000000E-03 0.  1.
    9900012    2    1    2    0    0  0.33585138324E+01  0.11584255366E+02  0.14324772093E+02  0.72461716784E+02  0.70000190830E+02 0.  0.
        -12    1    1    2    0    0 -0.33585138324E+01 -0.11584255366E+02 -0.14324772093E+02  0.18726283216E+02  0.00000000000E+00 0.  1.
         11    1    3    3    0    0  0.21680491435E+02  0.20802769818E+01 -0.32033414932E+01  0.22014373899E+02  0.51100000000E-03 0. -1.
        -11    1    3    3    0    0 -0.28409258974E+02 -0.47594435267E+01  0.15898998783E+02  0.32901617904E+02  0.51100000000E-03 0.  1.
        -12    1    3    3    0    0  0.10087281372E+02  0.14263421911E+02  0.16291148036E+01  0.17545724982E+02  0.00000000000E+00 0.  1.
</event>
<event>
 7    1  0.1830715E-013  0.7246156E+02  0.7816164E-02  0.1226708E+00
        -11   -1    0    0    0    0  0.00000000000E+00  0.00000000000E+00  0.45593999997E+02  0.45594000000E+02  0.51100000000E-03 0. -1.
         11   -1    0    0    0    0 -0.00000000000E+00 -0.00000000000E+00 -0.45593999997E+02  0.45594000000E+02  0.51100000000E-03 0.  1.
    9900012    2    1    2    0    0 -0.17618273096E+01 -0.14234580471E+02  0.12039606465E+02  0.72461563059E+02  0.69999990575E+02 0.  0.
        -12    1    1    2    0    0  0.17618273096E+01  0.14234580471E+02 -0.12039606465E+02  0.18726436941E+02  0.00000000000E+00 0.  1.
         11    1    3    3    0    0  0.18843053436E+01  0.12985980620E+02  0.21866923354E+02  0.25501933976E+02  0.51100000000E-03 0. -1.
        -11    1    3    3    0    0 -0.12226695455E+02 -0.31901147669E+02 -0.16295729092E+01  0.34202789542E+02  0.51100000000E-03 0.  1.
        -12    1    3    3    0    0  0.85805628022E+01  0.46805865769E+01 -0.81977439799E+01  0.12756839541E+02  0.00000000000E+00 0.  1.
</event>
<event>
 7    1  0.1830715E-013  0.7246156E+02  0.7816164E-02  0.1226708E+00
        -11   -1    0    0    0    0  0.00000000000E+00  0.00000000000E+00  0.45593999997E+02  0.45594000000E+02  0.51100000000E-03 0. -1.
         11   -1    0    0    0    0 -0.00000000000E+00 -0.00000000000E+00 -0.45593999997E+02  0.45594000000E+02  0.51100000000E-03 0.  1.
    9900012    2    1    2    0    0  0.44883426776E+01  0.33314450724E+01  0.17872762675E+02  0.72461564356E+02  0.69999992265E+02 0.  0.
        -12    1    1    2    0    0 -0.44883426776E+01 -0.33314450724E+01 -0.17872762675E+02  0.18726435644E+02  0.00000000000E+00 0.  1.
         11    1    3    3    0    0 -0.22264905780E+02 -0.53341549838E+01 -0.10770987165E+02  0.25302043466E+02  0.51100000000E-03 0.  1.
        -11    1    3    3    0    0  0.25923340257E+02  0.15613607083E+02  0.25095159776E+02  0.39313755108E+02  0.51100000000E-03 0. -1.
        -12    1    3    3    0    0  0.82990820029E+00 -0.69480070270E+01  0.35485900650E+01  0.78457657828E+01  0.00000000000E+00 0.  1.
</event>
<event>
 7    1  0.1830715E-013  0.7246151E+02  0.7816164E-02  0.1226708E+00
        -11   -1    0    0    0    0  0.00000000000E+00  0.00000000000E+00  0.45593999997E+02  0.45594000000E+02  0.51100000000E-03 0. -1.
         11   -1    0    0    0    0 -0.00000000000E+00 -0.00000000000E+00 -0.45593999997E+02  0.45594000000E+02  0.51100000000E-03 0.  1.
    9900012    2    1    2    0    0  0.13163497315E+02  0.13011864317E+02  0.28451894382E+01  0.72461511340E+02  0.69999923202E+02 0.  0.
        -12    1    1    2    0    0 -0.13163497315E+02 -0.13011864317E+02 -0.28451894382E+01  0.18726488660E+02  0.00000000000E+00 0.  1.
         11    1    3    3    0    0  0.20885103427E+02 -0.22579204202E+02  0.59109202803E+01  0.31320073218E+02  0.51100000000E-03 0. -1.
        -11    1    3    3    0    0  0.22056116787E+01  0.22891221868E+02  0.43383893476E+01  0.23402871274E+02  0.51100000000E-03 0.  1.
         12    1    3    3    0    0 -0.99272177911E+01  0.12699846652E+02 -0.74041201897E+01  0.17738566848E+02  0.00000000000E+00 0. -1.
</event>
<event>
 7    1  0.1830715E-013  0.7246168E+02  0.7816164E-02  0.1226708E+00
        -11   -1    0    0    0    0  0.00000000000E+00  0.00000000000E+00  0.45593999997E+02  0.45594000000E+02  0.51100000000E-03 0. -1.
         11   -1    0    0    0    0 -0.00000000000E+00 -0.00000000000E+00 -0.45593999997E+02  0.45594000000E+02  0.51100000000E-03 0.  1.
    9900012    2    1    2    0    0 -0.16745820316E+02  0.83672465727E+01  0.49164895795E+00  0.72461680768E+02  0.70000143913E+02 0.  0.
        -12    1    1    2    0    0  0.16745820316E+02 -0.83672465727E+01 -0.49164895795E+00  0.18726319232E+02  0.00000000000E+00 0.  1.
         11    1    3    3    0    0 -0.21134472416E+02  0.31936896270E+02 -0.77743464104E+01  0.39077765162E+02  0.51100000000E-03 0. -1.
        -11    1    3    3    0    0  0.11705885493E+02 -0.13994686088E+02 -0.86350864747E+00  0.18265394639E+02  0.51100000000E-03 0.  1.
         12    1    3    3    0    0 -0.73172333936E+01 -0.95749636097E+01  0.91295040158E+01  0.15118520967E+02  0.00000000000E+00 0. -1.
</event>
<event>
 7    1  0.1830715E-013  0.7246149E+02  0.7816164E-02  0.1226708E+00
        -11   -1    0    0    0    0  0.00000000000E+00  0.00000000000E+00  0.45593999997E+02  0.45594000000E+02  0.51100000000E-03 0. -1.
         11   -1    0    0    0    0 -0.00000000000E+00 -0.00000000000E+00 -0.45593999997E+02  0.45594000000E+02  0.51100000000E-03 0.  1.
    9900012    2    1    2    0    0 -0.23124638125E+01  0.26087861880E+01  0.18399156176E+02  0.72461489320E+02  0.69999894516E+02 0.  0.
        -12    1    1    2    0    0  0.23124638125E+01 -0.26087861880E+01 -0.18399156176E+02  0.18726510680E+02  0.00000000000E+00 0.  1.
         11    1    3    3    0    0 -0.74851138233E+01  0.11188714819E+02  0.19564418794E+02  0.23748278912E+02  0.51100000000E-03 0. -1.
        -11    1    3    3    0    0 -0.10084888678E+02 -0.72421043844E+01 -0.20549056888E+02  0.24008681656E+02  0.51100000000E-03 0.  1.
        -12    1    3    3    0    0  0.15257538689E+02 -0.13378242467E+01  0.19383794271E+02  0.24704528753E+02  0.00000000000E+00 0.  1.
</event>
<event>
 7    1  0.2149441E-013  0.7246152E+02  0.7816164E-02  0.1226708E+00
        -11   -1    0    0    0    0  0.00000000000E+00  0.00000000000E+00  0.45593999997E+02  0.45594000000E+02  0.51100000000E-03 0. -1.
         11   -1    0    0    0    0 -0.00000000000E+00 -0.00000000000E+00 -0.45593999997E+02  0.45594000000E+02  0.51100000000E-03 0.  1.
    9900012    2    1    2    0    0  0.14367283540E+02 -0.65418277404E+00  0.11993095686E+02  0.72461517801E+02  0.69999931618E+02 0.  0.
        -12    1    1    2    0    0 -0.14367283540E+02  0.65418277404E+00 -0.11993095686E+02  0.18726482199E+02  0.00000000000E+00 0.  1.
         11    1    3    3    0    0  0.19064507494E+02 -0.69955579054E+01  0.25964961248E+02  0.32963199014E+02  0.51100000000E-03 0. -1.
        -11    1    3    3    0    0  0.11753009003E+02 -0.50663221574E+01 -0.14669165555E+02  0.19467543738E+02  0.51100000000E-03 0.  1.
         12    1    3    3    0    0 -0.16450232957E+02  0.11407697289E+02  0.69729999405E+00  0.20030775049E+02  0.00000000000E+00 0. -1.
</event>
<event>
 7    1  0.1830715E-013  0.7246155E+02  0.7816164E-02  0.1226708E+00
        -11   -1    0    0    0    0  0.00000000000E+00  0.00000000000E+00  0.45593999997E+02  0.45594000000E+02  0.51100000000E-03 0.  1.
         11   -1    0    0    0    0 -0.00000000000E+00 -0.00000000000E+00 -0.45593999997E+02  0.45594000000E+02  0.51100000000E-03 0. -1.
    9900012    2    1    2    0    0  0.38110737871E+01  0.63484455558E+01 -0.17200376081E+02  0.72461548609E+02  0.69999971751E+02 0.  0.
        -12    1    1    2    0    0 -0.38110737871E+01 -0.63484455558E+01  0.17200376081E+02  0.18726451391E+02  0.00000000000E+00 0.  1.
         11    1    3    3    0    0 -0.20121084937E+02 -0.13548151328E+02  0.39645768271E+01  0.24579022217E+02  0.51100000000E-03 0.  1.
        -11    1    3    3    0    0  0.24990156637E+02  0.12872305134E+02 -0.28697624843E+01  0.28256675409E+02  0.51100000000E-03 0. -1.
         12    1    3    3    0    0 -0.10579979126E+01  0.70242917498E+01 -0.18295190424E+02  0.19625850983E+02  0.00000000000E+00 0. -1.
</event>
<event>
 7    1  0.1830715E-013  0.7246160E+02  0.7816164E-02  0.1226708E+00
        -11   -1    0    0    0    0  0.00000000000E+00  0.00000000000E+00  0.45593999997E+02  0.45594000000E+02  0.51100000000E-03 0. -1.
         11   -1    0    0    0    0 -0.00000000000E+00 -0.00000000000E+00 -0.45593999997E+02  0.45594000000E+02  0.51100000000E-03 0.  1.
    9900012    2    1    2    0    0 -0.69202583296E+01  0.96099028782E+01  0.14506478227E+02  0.72461598338E+02  0.70000036532E+02 0.  0.
        -12    1    1    2    0    0  0.69202583296E+01 -0.96099028782E+01 -0.14506478227E+02  0.18726401662E+02  0.00000000000E+00 0.  1.
         11    1    3    3    0    0 -0.13442217216E+02  0.20269737319E+01 -0.16593768852E+02  0.21451223535E+02  0.51100000000E-03 0.  1.
        -11    1    3    3    0    0  0.22791180055E+02  0.43599411762E+01  0.13585113937E+02  0.26888702020E+02  0.51100000000E-03 0. -1.
         12    1    3    3    0    0 -0.16269221168E+02  0.32229879702E+01  0.17515133141E+02  0.24121672783E+02  0.00000000000E+00 0. -1.
</event>
<event>
 7    1  0.1830715E-013  0.7246157E+02  0.7816164E-02  0.1226708E+00
        -11   -1    0    0    0    0  0.00000000000E+00  0.00000000000E+00  0.45593999997E+02  0.45594000000E+02  0.51100000000E-03 0. -1.
         11   -1    0    0    0    0 -0.00000000000E+00 -0.00000000000E+00 -0.45593999997E+02  0.45594000000E+02  0.51100000000E-03 0.  1.
    9900012    2    1    2    0    0 -0.16020577339E+02 -0.36605245223E+01  0.89789028253E+01  0.72461573913E+02  0.70000004714E+02 0.  0.
        -12    1    1    2    0    0  0.16020577339E+02  0.36605245223E+01 -0.89789028253E+01  0.18726426087E+02  0.00000000000E+00 0.  1.
         11    1    3    3    0    0 -0.29298014965E+02 -0.10237334551E+02  0.22150122034E+02  0.38128789726E+02  0.51100000000E-03 0. -1.
        -11    1    3    3    0    0 -0.34297846840E+01  0.13143577668E+02 -0.74451733313E+01  0.15490244126E+02  0.51100000000E-03 0.  1.
         12    1    3    3    0    0  0.16707222310E+02 -0.65667676398E+01 -0.57260458779E+01  0.18842540061E+02  0.00000000000E+00 0. -1.
</event>
<event>
 7    1  0.1830715E-013  0.7246154E+02  0.7816164E-02  0.1226708E+00
        -11   -1    0    0    0    0  0.00000000000E+00  0.00000000000E+00  0.45593999997E+02  0.45594000000E+02  0.51100000000E-03 0. -1.
         11   -1    0    0    0    0 -0.00000000000E+00 -0.00000000000E+00 -0.45593999997E+02  0.45594000000E+02  0.51100000000E-03 0.  1.
    9900012    2    1    2    0    0  0.10069025581E+02 -0.80378737617E+01  0.13589988348E+02  0.72461535463E+02  0.69999954625E+02 0.  0.
        -12    1    1    2    0    0 -0.10069025581E+02  0.80378737617E+01 -0.13589988348E+02  0.18726464537E+02  0.00000000000E+00 0.  1.
         11    1    3    3    0    0  0.14306241536E+02  0.56975949412E+01 -0.20123479963E+02  0.25339407670E+02  0.51100000000E-03 0. -1.
        -11    1    3    3    0    0 -0.13088435535E+02 -0.45097175468E+01  0.34472327328E+01  0.14266327870E+02  0.51100000000E-03 0.  1.
         12    1    3    3    0    0  0.88512195801E+01 -0.92257511562E+01  0.30266235579E+02  0.32855799923E+02  0.00000000000E+00 0. -1.
</event>
<event>
 7    1  0.1830715E-013  0.7246156E+02  0.7816164E-02  0.1226708E+00
        -11   -1    0    0    0    0  0.00000000000E+00  0.00000000000E+00  0.45593999997E+02  0.45594000000E+02  0.51100000000E-03 0.  1.
         11   -1    0    0    0    0 -0.00000000000E+00 -0.00000000000E+00 -0.45593999997E+02  0.45594000000E+02  0.51100000000E-03 0. -1.
    9900012    2    1    2    0    0 -0.15634701018E+02 -0.91905073856E+00 -0.10266017795E+02  0.72461557424E+02  0.69999983234E+02 0.  0.
        -12    1    1    2    0    0  0.15634701018E+02  0.91905073856E+00  0.10266017795E+02  0.18726442576E+02  0.00000000000E+00 0.  1.
         11    1    3    3    0    0 -0.77469147447E+01  0.19617999988E+02  0.59941953552E+01  0.21927402714E+02  0.51100000000E-03 0. -1.
        -11    1    3    3    0    0 -0.97844851035E+01 -0.28972614434E+02  0.16725046288E+01  0.30625900932E+02  0.51100000000E-03 0.  1.
        -12    1    3    3    0    0  0.18966988306E+01  0.84355637082E+01 -0.17932717779E+02  0.19908253778E+02  0.00000000000E+00 0.  1.
</event>
<event>
 7    1  0.1830715E-013  0.7246157E+02  0.7816164E-02  0.1226708E+00
        -11   -1    0    0    0    0  0.00000000000E+00  0.00000000000E+00  0.45593999997E+02  0.45594000000E+02  0.51100000000E-03 0. -1.
         11   -1    0    0    0    0 -0.00000000000E+00 -0.00000000000E+00 -0.45593999997E+02  0.45594000000E+02  0.51100000000E-03 0.  1.
    9900012    2    1    2    0    0  0.50282208289E+01  0.10207985229E+02  0.14872566703E+02  0.72461569281E+02  0.69999998680E+02 0.  0.
        -12    1    1    2    0    0 -0.50282208289E+01 -0.10207985229E+02 -0.14872566703E+02  0.18726430719E+02  0.00000000000E+00 0.  1.
         11    1    3    3    0    0  0.27209409225E+02  0.74952015379E+01  0.88170200776E+00  0.28236632150E+02  0.51100000000E-03 0. -1.
        -11    1    3    3    0    0 -0.21796413420E+02  0.16998180590E+02  0.85410289037E+01  0.28930450331E+02  0.51100000000E-03 0.  1.
         12    1    3    3    0    0 -0.38477497591E+00 -0.14285396899E+02  0.54498357911E+01  0.15294486800E+02  0.00000000000E+00 0. -1.
</event>
<event>
 7    1  0.1830715E-013  0.7246158E+02  0.7816164E-02  0.1226708E+00
        -11   -1    0    0    0    0  0.00000000000E+00  0.00000000000E+00  0.45593999997E+02  0.45594000000E+02  0.51100000000E-03 0.  1.
         11   -1    0    0    0    0 -0.00000000000E+00 -0.00000000000E+00 -0.45593999997E+02  0.45594000000E+02  0.51100000000E-03 0. -1.
    9900012    2    1    2    0    0  0.15725738365E+01  0.12014100972E+02  0.14278211695E+02  0.72461576427E+02  0.70000007989E+02 0.  0.
        -12    1    1    2    0    0 -0.15725738365E+01 -0.12014100972E+02 -0.14278211695E+02  0.18726423573E+02  0.00000000000E+00 0.  1.
         11    1    3    3    0    0 -0.21315663732E+02  0.17200614435E+02 -0.16618933522E+02  0.32037596803E+02  0.51100000000E-03 0. -1.
        -11    1    3    3    0    0  0.12368178032E+02  0.14976918768E+01  0.95232353530E+01  0.15681419599E+02  0.51100000000E-03 0.  1.
         12    1    3    3    0    0  0.10520059536E+02 -0.66842053403E+01  0.21373909864E+02  0.24742560024E+02  0.00000000000E+00 0. -1.
</event>
<event>
 7    1  0.1830715E-013  0.7246158E+02  0.7816164E-02  0.1226708E+00
        -11   -1    0    0    0    0  0.00000000000E+00  0.00000000000E+00  0.45593999997E+02  0.45594000000E+02  0.51100000000E-03 0.  1.
         11   -1    0    0    0    0 -0.00000000000E+00 -0.00000000000E+00 -0.45593999997E+02  0.45594000000E+02  0.51100000000E-03 0. -1.
    9900012    2    1    2    0    0  0.13843381734E+02 -0.11011246838E+02 -0.61475330712E+01  0.72461576486E+02  0.70000008066E+02 0.  0.
        -12    1    1    2    0    0 -0.13843381734E+02  0.11011246838E+02  0.61475330712E+01  0.18726423514E+02  0.00000000000E+00 0.  1.
         11    1    3    3    0    0 -0.12833270759E+02 -0.20843296569E+01 -0.31631009650E+02  0.34198801737E+02  0.51100000000E-03 0. -1.
        -11    1    3    3    0    0  0.87287928566E+01 -0.36802417596E+01  0.57713184599E+01  0.11092525464E+02  0.51100000000E-03 0.  1.
         12    1    3    3    0    0  0.17947859637E+02 -0.52466754213E+01  0.19712158119E+02  0.27170249285E+02  0.00000000000E+00 0. -1.
</event>
<event>
 7    1  0.1830715E-013  0.7246160E+02  0.7816164E-02  0.1226708E+00
        -11   -1    0    0    0    0  0.00000000000E+00  0.00000000000E+00  0.45593999997E+02  0.45594000000E+02  0.51100000000E-03 0. -1.
         11   -1    0    0    0    0 -0.00000000000E+00 -0.00000000000E+00 -0.45593999997E+02  0.45594000000E+02  0.51100000000E-03 0.  1.
    9900012    2    1    2    0    0 -0.27870235583E+01  0.58752652811E+01  0.17561093080E+02  0.72461595310E+02  0.70000032587E+02 0.  0.
        -12    1    1    2    0    0  0.27870235583E+01 -0.58752652811E+01 -0.17561093080E+02  0.18726404690E+02  0.00000000000E+00 0.  1.
         11    1    3    3    0    0 -0.12251948639E+01 -0.48382939012E+00  0.29231655294E+02  0.29261320285E+02  0.51100000000E-03 0. -1.
        -11    1    3    3    0    0  0.13227947395E+02  0.16786399670E+02 -0.13067555916E+02  0.25050405667E+02  0.51100000000E-03 0.  1.
         12    1    3    3    0    0 -0.14789776090E+02 -0.10427304999E+02  0.13969937029E+01  0.18149869358E+02  0.00000000000E+00 0. -1.
</event>
<event>
 7    1  0.1830715E-013  0.7246157E+02  0.7816164E-02  0.1226708E+00
        -11   -1    0    0    0    0  0.00000000000E+00  0.00000000000E+00  0.45593999997E+02  0.45594000000E+02  0.51100000000E-03 0.  1.
         11   -1    0    0    0    0 -0.00000000000E+00 -0.00000000000E+00 -0.45593999997E+02  0.45594000000E+02  0.51100000000E-03 0. -1.
    9900012    2    1    2    0    0 -0.14404812322E+02  0.11961218800E+02  0.33138364614E+00  0.72461569792E+02  0.69999999345E+02 0.  0.
        -12    1    1    2    0    0  0.14404812322E+02 -0.11961218800E+02 -0.33138364614E+00  0.18726430208E+02  0.00000000000E+00 0.  1.
         11    1    3    3    0    0 -0.18160710698E+02  0.24278032277E+02 -0.26824156514E+02  0.40481719791E+02  0.51100000000E-03 0. -1.
        -11    1    3    3    0    0  0.31480688368E+01  0.36634900912E+00  0.10908134386E+02  0.11359222907E+02  0.51100000000E-03 0.  1.
         12    1    3    3    0    0  0.60782953883E+00 -0.12683162485E+02  0.16247405774E+02  0.20620627094E+02  0.00000000000E+00 0. -1.
</event>
<event>
 7    1  0.1830715E-013  0.7246157E+02  0.7816164E-02  0.1226708E+00
        -11   -1    0    0    0    0  0.00000000000E+00  0.00000000000E+00  0.45593999997E+02  0.45594000000E+02  0.51100000000E-03 0. -1.
         11   -1    0    0    0    0 -0.00000000000E+00 -0.00000000000E+00 -0.45593999997E+02  0.45594000000E+02  0.51100000000E-03 0.  1.
    9900012    2    1    2    0    0  0.22452559102E+01 -0.12431277332E+02  0.13823934541E+02  0.72461574916E+02  0.70000006021E+02 0.  0.
        -12    1    1    2    0    0 -0.22452559102E+01  0.12431277332E+02 -0.13823934541E+02  0.18726425084E+02  0.00000000000E+00 0.  1.
         11    1    3    3    0    0  0.16723762981E+02  0.79526271427E+01  0.23371718183E+02  0.29818882235E+02  0.51100000000E-03 0. -1.
        -11    1    3    3    0    0  0.27490851636E+01 -0.22945992270E+02 -0.73213039790E+00  0.23121679127E+02  0.51100000000E-03 0.  1.
         12    1    3    3    0    0 -0.17227592234E+02  0.25620877947E+01 -0.88156532435E+01  0.19521013554E+02  0.00000000000E+00 0. -1.
</event>
<event>
 7    1  0.1830715E-013  0.7246159E+02  0.7816164E-02  0.1226708E+00
        -11   -1    0    0    0    0  0.00000000000E+00  0.00000000000E+00  0.45593999997E+02  0.45594000000E+02  0.51100000000E-03 0. -1.
         11   -1    0    0    0    0 -0.00000000000E+00 -0.00000000000E+00 -0.45593999997E+02  0.45594000000E+02  0.51100000000E-03 0.  1.
    9900012    2    1    2    0    0 -0.15269020784E+02 -0.90820597311E+01  0.59204344088E+01  0.72461592223E+02  0.70000028566E+02 0.  0.
        -12    1    1    2    0    0  0.15269020784E+02  0.90820597311E+01 -0.59204344088E+01  0.18726407777E+02  0.00000000000E+00 0.  1.
         11    1    3    3    0    0 -0.36767875283E+02  0.11836241769E+02  0.58502060186E+01  0.39066586526E+02  0.51100000000E-03 0. -1.
        -11    1    3    3    0    0  0.21876023499E+02 -0.14832499502E+02  0.30547471798E+01  0.26606294860E+02  0.51100000000E-03 0.  1.
         12    1    3    3    0    0 -0.37716899904E+00 -0.60858019986E+01 -0.29845187897E+01  0.67887108368E+01  0.00000000000E+00 0. -1.
</event>
<event>
 7    1  0.1830715E-013  0.7246158E+02  0.7816164E-02  0.1226708E+00
        -11   -1    0    0    0    0  0.00000000000E+00  0.00000000000E+00  0.45593999997E+02  0.45594000000E+02  0.51100000000E-03 0.  1.
         11   -1    0    0    0    0 -0.00000000000E+00 -0.00000000000E+00 -0.45593999997E+02  0.45594000000E+02  0.51100000000E-03 0. -1.
    9900012    2    1    2    0    0 -0.11647904590E+02  0.52154129420E+00 -0.14653779365E+02  0.72461576520E+02  0.70000008110E+02 0.  0.
        -12    1    1    2    0    0  0.11647904590E+02 -0.52154129420E+00  0.14653779365E+02  0.18726423480E+02  0.00000000000E+00 0.  1.
         11    1    3    3    0    0 -0.20895854554E+00  0.16199777210E+02  0.13861831201E+01  0.16260318239E+02  0.51100000000E-03 0. -1.
        -11    1    3    3    0    0 -0.29334246754E+02 -0.72583568127E+01 -0.19720763169E+02  0.36084488031E+02  0.51100000000E-03 0.  1.
        -12    1    3    3    0    0  0.17895300709E+02 -0.84198791035E+01  0.36808006843E+01  0.20116770249E+02  0.00000000000E+00 0.  1.
</event>
<event>
 7    1  0.1830715E-013  0.7246158E+02  0.7816164E-02  0.1226708E+00
        -11   -1    0    0    0    0  0.00000000000E+00  0.00000000000E+00  0.45593999997E+02  0.45594000000E+02  0.51100000000E-03 0. -1.
         11   -1    0    0    0    0 -0.00000000000E+00 -0.00000000000E+00 -0.45593999997E+02  0.45594000000E+02  0.51100000000E-03 0.  1.
    9900012    2    1    2    0    0  0.53845772611E+00 -0.39340077508E+01  0.18300609969E+02  0.72461583392E+02  0.70000017063E+02 0.  0.
        -12    1    1    2    0    0 -0.53845772611E+00  0.39340077508E+01 -0.18300609969E+02  0.18726416608E+02  0.00000000000E+00 0.  1.
         11    1    3    3    0    0 -0.12758110153E+02 -0.20831822111E+02  0.29320859131E+02  0.38163424474E+02  0.51100000000E-03 0. -1.
        -11    1    3    3    0    0 -0.45182798959E+01 -0.12542269983E+01 -0.71810975389E+01  0.85764853352E+01  0.51100000000E-03 0.  1.
         12    1    3    3    0    0  0.17814847775E+02  0.18152041358E+02 -0.38391516227E+01  0.25721673583E+02  0.00000000000E+00 0. -1.
</event>
<event>
 7    1  0.1830715E-013  0.7246147E+02  0.7816164E-02  0.1226708E+00
        -11   -1    0    0    0    0  0.00000000000E+00  0.00000000000E+00  0.45593999997E+02  0.45594000000E+02  0.51100000000E-03 0.  1.
         11   -1    0    0    0    0 -0.00000000000E+00 -0.00000000000E+00 -0.45593999997E+02  0.45594000000E+02  0.51100000000E-03 0. -1.
    9900012    2    1    2    0    0 -0.79193071701E+01  0.15869117871E+02  0.60115239346E+01  0.72461474747E+02  0.69999875531E+02 0.  0.
        -12    1    1    2    0    0  0.79193071701E+01 -0.15869117871E+02 -0.60115239346E+01  0.18726525253E+02  0.00000000000E+00 0.  1.
         11    1    3    3    0    0 -0.32250154923E+02  0.29223133727E+01  0.91083739799E+00  0.32395092731E+02  0.51100000000E-03 0. -1.
        -11    1    3    3    0    0  0.83353202900E+01 -0.45688551788E+01  0.12051154364E+02  0.15348691271E+02  0.51100000000E-03 0.  1.
         12    1    3    3    0    0  0.15995527463E+02  0.17515659677E+02 -0.69504678271E+01  0.24717690745E+02  0.00000000000E+00 0. -1.
</event>
<event>
 7    1  0.1830715E-013  0.7246158E+02  0.7816164E-02  0.1226708E+00
        -11   -1    0    0    0    0  0.00000000000E+00  0.00000000000E+00  0.45593999997E+02  0.45594000000E+02  0.51100000000E-03 0.  1.
         11   -1    0    0    0    0 -0.00000000000E+00 -0.00000000000E+00 -0.45593999997E+02  0.45594000000E+02  0.51100000000E-03 0. -1.
    9900012    2    1    2    0    0  0.16336466191E+02 -0.87617066384E+01  0.26516044851E+01  0.72461584508E+02  0.70000018516E+02 0.  0.
        -12    1    1    2    0    0 -0.16336466191E+02  0.87617066384E+01 -0.26516044851E+01  0.18726415492E+02  0.00000000000E+00 0.  1.
         11    1    3    3    0    0 -0.15218512595E+02 -0.12276941839E+02  0.98211318852E+01  0.21881066206E+02  0.51100000000E-03 0. -1.
        -11    1    3    3    0    0  0.24877607789E+02 -0.12158622096E+02  0.68412344937E+01  0.28522446428E+02  0.51100000000E-03 0.  1.
         12    1    3    3    0    0  0.66773709975E+01  0.15673857296E+02 -0.14010761894E+02  0.22058071875E+02  0.00000000000E+00 0. -1.
</event>
<event>
 7    1  0.1830715E-013  0.7246158E+02  0.7816164E-02  0.1226708E+00
        -11   -1    0    0    0    0  0.00000000000E+00  0.00000000000E+00  0.45593999997E+02  0.45594000000E+02  0.51100000000E-03 0. -1.
         11   -1    0    0    0    0 -0.00000000000E+00 -0.00000000000E+00 -0.45593999997E+02  0.45594000000E+02  0.51100000000E-03 0.  1.
    9900012    2    1    2    0    0  0.34401156893E+01  0.54187999735E+01  0.17592076340E+02  0.72461576447E+02  0.70000008015E+02 0.  0.
        -12    1    1    2    0    0 -0.34401156893E+01 -0.54187999735E+01 -0.17592076340E+02  0.18726423553E+02  0.00000000000E+00 0.  1.
         11    1    3    3    0    0 -0.80237192261E+01 -0.14607844538E+02  0.36785673350E+02  0.40385083340E+02  0.51100000000E-03 0. -1.
        -11    1    3    3    0    0  0.71647985867E+01  0.67385394782E+01 -0.14139211442E+02  0.17223807754E+02  0.51100000000E-03 0.  1.
         12    1    3    3    0    0  0.42990363288E+01  0.13288105034E+02 -0.50543855675E+01  0.14852685353E+02  0.00000000000E+00 0. -1.
</event>
<event>
 7    1  0.1830715E-013  0.7246154E+02  0.7816164E-02  0.1226708E+00
        -11   -1    0    0    0    0  0.00000000000E+00  0.00000000000E+00  0.45593999997E+02  0.45594000000E+02  0.51100000000E-03 0. -1.
         11   -1    0    0    0    0 -0.00000000000E+00 -0.00000000000E+00 -0.45593999997E+02  0.45594000000E+02  0.51100000000E-03 0.  1.
    9900012    2    1    2    0    0  0.10794278294E+02  0.11646786012E+01  0.15258021261E+02  0.72461544571E+02  0.69999966491E+02 0.  0.
        -12    1    1    2    0    0 -0.10794278294E+02 -0.11646786012E+01 -0.15258021261E+02  0.18726455429E+02  0.00000000000E+00 0.  1.
         11    1    3    3    0    0  0.19108784003E+02 -0.22340281049E+02  0.25768240367E+01  0.29510571086E+02  0.51100000000E-03 0. -1.
        -11    1    3    3    0    0 -0.17221619670E+02  0.84778658218E+01 -0.30584866861E+01  0.19437405538E+02  0.51100000000E-03 0.  1.
        -12    1    3    3    0    0  0.89071139617E+01  0.15027093828E+02  0.15739683910E+02  0.23513567948E+02  0.00000000000E+00 0.  1.
</event>
<event>
 7    1  0.1830715E-013  0.7246149E+02  0.7816164E-02  0.1226708E+00
        -11   -1    0    0    0    0  0.00000000000E+00  0.00000000000E+00  0.45593999997E+02  0.45594000000E+02  0.51100000000E-03 0.  1.
         11   -1    0    0    0    0 -0.00000000000E+00 -0.00000000000E+00 -0.45593999997E+02  0.45594000000E+02  0.51100000000E-03 0. -1.
    9900012    2    1    2    0    0  0.27234253981E+01  0.15339642026E+02 -0.10390409235E+02  0.72461487579E+02  0.69999892248E+02 0.  0.
        -12    1    1    2    0    0 -0.27234253981E+01 -0.15339642026E+02  0.10390409235E+02  0.18726512421E+02  0.00000000000E+00 0.  1.
         11    1    3    3    0    0  0.18271318910E+02  0.77812783859E+01 -0.15020515473E+02  0.24899905087E+02  0.51100000000E-03 0. -1.
        -11    1    3    3    0    0 -0.18988919644E+02 -0.14445198573E+02  0.77212370804E+01  0.25077087817E+02  0.51100000000E-03 0.  1.
        -12    1    3    3    0    0  0.34410261321E+01  0.22003562213E+02 -0.30911308423E+01  0.22484494675E+02  0.00000000000E+00 0.  1.
</event>
<event>
 7    1  0.1830715E-013  0.7246160E+02  0.7816164E-02  0.1226708E+00
        -11   -1    0    0    0    0  0.00000000000E+00  0.00000000000E+00  0.45593999997E+02  0.45594000000E+02  0.51100000000E-03 0.  1.
         11   -1    0    0    0    0 -0.00000000000E+00 -0.00000000000E+00 -0.45593999997E+02  0.45594000000E+02  0.51100000000E-03 0. -1.
    9900012    2    1    2    0    0 -0.70538222734E+01 -0.17079715455E+02 -0.30339629073E+01  0.72461600997E+02  0.70000039996E+02 0.  0.
        -12    1    1    2    0    0  0.70538222734E+01  0.17079715455E+02  0.30339629073E+01  0.18726399003E+02  0.00000000000E+00 0.  1.
         11    1    3    3    0    0 -0.24337018074E+02 -0.35931581312E+02 -0.11234856259E+02  0.44828461715E+02  0.51100000000E-03 0. -1.
        -11    1    3    3    0    0  0.12289799120E+02  0.91157229068E+01  0.61993605769E+01  0.16509622599E+02  0.51100000000E-03 0.  1.
         12    1    3    3    0    0  0.49933966806E+01  0.97361429498E+01  0.20015327750E+01  0.11123516683E+02  0.00000000000E+00 0. -1.
</event>
<event>
 7    1  0.1830715E-013  0.7246154E+02  0.7816164E-02  0.1226708E+00
        -11   -1    0    0    0    0  0.00000000000E+00  0.00000000000E+00  0.45593999997E+02  0.45594000000E+02  0.51100000000E-03 0.  1.
         11   -1    0    0    0    0 -0.00000000000E+00 -0.00000000000E+00 -0.45593999997E+02  0.45594000000E+02  0.51100000000E-03 0. -1.
    9900012    2    1    2    0    0  0.14078206543E+02 -0.18075611179E+01 -0.12215439239E+02  0.72461544583E+02  0.69999966507E+02 0.  0.
        -12    1    1    2    0    0 -0.14078206543E+02  0.18075611179E+01  0.12215439239E+02  0.18726455417E+02  0.00000000000E+00 0.  1.
         11    1    3    3    0    0  0.30760578478E+02  0.62676346444E+01 -0.11878207357E+02  0.33564687435E+02  0.51100000000E-03 0. -1.
        -11    1    3    3    0    0 -0.80999464688E+01 -0.21424386349E+02 -0.17059219554E+01  0.22967882646E+02  0.51100000000E-03 0.  1.
         12    1    3    3    0    0 -0.85824254656E+01  0.13349190587E+02  0.13686900730E+01  0.15928974503E+02  0.00000000000E+00 0. -1.
</event>
<event>
 7    1  0.1830715E-013  0.7246156E+02  0.7816164E-02  0.1226708E+00
        -11   -1    0    0    0    0  0.00000000000E+00  0.00000000000E+00  0.45593999997E+02  0.45594000000E+02  0.51100000000E-03 0.  1.
         11   -1    0    0    0    0 -0.00000000000E+00 -0.00000000000E+00 -0.45593999997E+02  0.45594000000E+02  0.51100000000E-03 0. -1.
    9900012    2    1    2    0    0 -0.18468774573E+01 -0.18431338107E+02 -0.27484961616E+01  0.72461563822E+02  0.69999991569E+02 0.  0.
        -12    1    1    2    0    0  0.18468774573E+01  0.18431338107E+02  0.27484961616E+01  0.18726436178E+02  0.00000000000E+00 0.  1.
         11    1    3    3    0    0 -0.14602438424E+02 -0.44046388523E+01 -0.16170500639E+02  0.22228745860E+02  0.51100000000E-03 0. -1.
        -11    1    3    3    0    0  0.25450028678E+02 -0.14660893539E+02  0.20373949221E+02  0.35745539109E+02  0.51100000000E-03 0.  1.
        -12    1    3    3    0    0 -0.12694467711E+02  0.63419428350E+00 -0.69519447434E+01  0.14487278854E+02  0.00000000000E+00 0.  1.
</event>
<event>
 7    1  0.1830715E-013  0.7246156E+02  0.7816164E-02  0.1226708E+00
        -11   -1    0    0    0    0  0.00000000000E+00  0.00000000000E+00  0.45593999997E+02  0.45594000000E+02  0.51100000000E-03 0. -1.
         11   -1    0    0    0    0 -0.00000000000E+00 -0.00000000000E+00 -0.45593999997E+02  0.45594000000E+02  0.51100000000E-03 0.  1.
    9900012    2    1    2    0    0 -0.10072783238E+02  0.74708663028E+01  0.13906999639E+02  0.72461562954E+02  0.69999990438E+02 0.  0.
        -12    1    1    2    0    0  0.10072783238E+02 -0.74708663028E+01 -0.13906999639E+02  0.18726437046E+02  0.00000000000E+00 0.  1.
         11    1    3    3    0    0 -0.69162871539E+01 -0.23664209641E+02 -0.26121811251E+01  0.24792203137E+02  0.51100000000E-03 0. -1.
        -11    1    3    3    0    0 -0.11785369652E+02  0.32151452135E+02  0.18260667699E+02  0.38808024908E+02  0.51100000000E-03 0.  1.
        -12    1    3    3    0    0  0.86288735678E+01 -0.10163761917E+01 -0.17414869343E+01  0.88613349082E+01  0.00000000000E+00 0.  1.
</event>
<event>
 7    1  0.1830715E-013  0.7246152E+02  0.7816164E-02  0.1226708E+00
        -11   -1    0    0    0    0  0.00000000000E+00  0.00000000000E+00  0.45593999997E+02  0.45594000000E+02  0.51100000000E-03 0. -1.
         11   -1    0    0    0    0 -0.00000000000E+00 -0.00000000000E+00 -0.45593999997E+02  0.45594000000E+02  0.51100000000E-03 0.  1.
    9900012    2    1    2    0    0 -0.13101833451E+01 -0.60633405753E+01  0.17669194730E+02  0.72461518170E+02  0.69999932098E+02 0.  0.
        -12    1    1    2    0    0  0.13101833451E+01  0.60633405753E+01 -0.17669194730E+02  0.18726481830E+02  0.00000000000E+00 0.  1.
         11    1    3    3    0    0  0.86748910246E+00 -0.22405317905E+02  0.33641766068E+02  0.40429187875E+02  0.51100000000E-03 0. -1.
        -11    1    3    3    0    0 -0.11740753321E+02  0.11447613082E+02 -0.62674872498E+01  0.17554900470E+02  0.51100000000E-03 0.  1.
         12    1    3    3    0    0  0.95630808737E+01  0.48943642471E+01 -0.97050840883E+01  0.14477429825E+02  0.00000000000E+00 0. -1.
</event>
<event>
 7    1  0.1830715E-013  0.7246158E+02  0.7816164E-02  0.1226708E+00
        -11   -1    0    0    0    0  0.00000000000E+00  0.00000000000E+00  0.45593999997E+02  0.45594000000E+02  0.51100000000E-03 0.  1.
         11   -1    0    0    0    0 -0.00000000000E+00 -0.00000000000E+00 -0.45593999997E+02  0.45594000000E+02  0.51100000000E-03 0. -1.
    9900012    2    1    2    0    0  0.78486031160E+01  0.16787968533E+02 -0.26911579494E+01  0.72461580443E+02  0.70000013220E+02 0.  0.
        -12    1    1    2    0    0 -0.78486031160E+01 -0.16787968533E+02  0.26911579494E+01  0.18726419557E+02  0.00000000000E+00 0.  1.
         11    1    3    3    0    0  0.66948792750E+01  0.92213070521E+01 -0.40461372536E+01  0.12092358711E+02  0.51100000000E-03 0. -1.
        -11    1    3    3    0    0 -0.14033721618E+02 -0.13792842369E+02 -0.18871078208E+02  0.27263628447E+02  0.51100000000E-03 0.  1.
        -12    1    3    3    0    0  0.15187445459E+02  0.21359503849E+02  0.20226057513E+02  0.33105593285E+02  0.00000000000E+00 0.  1.
</event>
<event>
 7    1  0.1830715E-013  0.7246154E+02  0.7816164E-02  0.1226708E+00
        -11   -1    0    0    0    0  0.00000000000E+00  0.00000000000E+00  0.45593999997E+02  0.45594000000E+02  0.51100000000E-03 0.  1.
         11   -1    0    0    0    0 -0.00000000000E+00 -0.00000000000E+00 -0.45593999997E+02  0.45594000000E+02  0.51100000000E-03 0. -1.
    9900012    2    1    2    0    0 -0.68836356083E+01 -0.18785092666E+01  0.17313783171E+02  0.72461539471E+02  0.69999959847E+02 0.  0.
        -12    1    1    2    0    0  0.68836356083E+01  0.18785092666E+01 -0.17313783171E+02  0.18726460529E+02  0.00000000000E+00 0.  1.
         11    1    3    3    0    0 -0.17750661350E+01  0.90585272116E+00 -0.92706103553E+01  0.94823860688E+01  0.51100000000E-03 0. -1.
        -11    1    3    3    0    0  0.14603989854E+02 -0.20531954648E+02  0.26344010239E+02  0.36453320247E+02  0.51100000000E-03 0.  1.
        -12    1    3    3    0    0 -0.19712559327E+02  0.17747592660E+02  0.24038328752E+00  0.26525833155E+02  0.00000000000E+00 0.  1.
</event>
<event>
 7    1  0.1830715E-013  0.7246161E+02  0.7816164E-02  0.1226708E+00
        -11   -1    0    0    0    0  0.00000000000E+00  0.00000000000E+00  0.45593999997E+02  0.45594000000E+02  0.51100000000E-03 0.  1.
         11   -1    0    0    0    0 -0.00000000000E+00 -0.00000000000E+00 -0.45593999997E+02  0.45594000000E+02  0.51100000000E-03 0. -1.
    9900012    2    1    2    0    0  0.17909686477E+02 -0.46241928534E+00 -0.54504260782E+01  0.72461605640E+02  0.70000046044E+02 0.  0.
        -12    1    1    2    0    0 -0.17909686477E+02  0.46241928534E+00  0.54504260782E+01  0.18726394360E+02  0.00000000000E+00 0.  1.
         11    1    3    3    0    0  0.42554834426E+01 -0.22219021497E+02 -0.14301208060E+01  0.22668023764E+02  0.51100000000E-03 0. -1.
        -11    1    3    3    0    0  0.38269421035E+01  0.25157231591E+02  0.13958747246E+02  0.29023755996E+02  0.51100000000E-03 0.  1.
         12    1    3    3    0    0  0.98272609312E+01 -0.34006293794E+01 -0.17979052519E+02  0.20769825879E+02  0.00000000000E+00 0. -1.
</event>
<event>
 7    1  0.1830715E-013  0.7246152E+02  0.7816164E-02  0.1226708E+00
        -11   -1    0    0    0    0  0.00000000000E+00  0.00000000000E+00  0.45593999997E+02  0.45594000000E+02  0.51100000000E-03 0. -1.
         11   -1    0    0    0    0 -0.00000000000E+00 -0.00000000000E+00 -0.45593999997E+02  0.45594000000E+02  0.51100000000E-03 0.  1.
    9900012    2    1    2    0    0 -0.15305930380E+02 -0.10402656162E+02  0.28625832426E+01  0.72461517606E+02  0.69999931364E+02 0.  0.
        -12    1    1    2    0    0  0.15305930380E+02  0.10402656162E+02 -0.28625832426E+01  0.18726482394E+02  0.00000000000E+00 0.  1.
         11    1    3    3    0    0  0.88769581612E+00 -0.32807790236E+02  0.13508570085E+02  0.35491133682E+02  0.51100000000E-03 0. -1.
        -11    1    3    3    0    0 -0.20472063147E+02  0.20744911280E+02 -0.12881990288E+02  0.31865379137E+02  0.51100000000E-03 0.  1.
        -12    1    3    3    0    0  0.42784369507E+01  0.16602227940E+01  0.22360034456E+01  0.51050047870E+01  0.00000000000E+00 0.  1.
</event>
<event>
 7    1  0.1830715E-013  0.7246161E+02  0.7816164E-02  0.1226708E+00
        -11   -1    0    0    0    0  0.00000000000E+00  0.00000000000E+00  0.45593999997E+02  0.45594000000E+02  0.51100000000E-03 0.  1.
         11   -1    0    0    0    0 -0.00000000000E+00 -0.00000000000E+00 -0.45593999997E+02  0.45594000000E+02  0.51100000000E-03 0. -1.
    9900012    2    1    2    0    0  0.49882139320E+01 -0.44791035931E+01 -0.17485226824E+02  0.72461606746E+02  0.70000047485E+02 0.  0.
        -12    1    1    2    0    0 -0.49882139320E+01  0.44791035931E+01  0.17485226824E+02  0.18726393254E+02  0.00000000000E+00 0.  1.
         11    1    3    3    0    0 -0.34457631368E+01 -0.23077421539E+02 -0.61753901451E+00  0.23341422904E+02  0.51100000000E-03 0. -1.
        -11    1    3    3    0    0 -0.10786388135E+02  0.18208100064E+02  0.31152685847E+01  0.21391259326E+02  0.51100000000E-03 0.  1.
         12    1    3    3    0    0  0.19220365204E+02  0.39021788233E+00 -0.19982956394E+02  0.27728924516E+02  0.00000000000E+00 0. -1.
</event>
<event>
 7    1  0.1830715E-013  0.7246133E+02  0.7816164E-02  0.1226709E+00
        -11   -1    0    0    0    0  0.00000000000E+00  0.00000000000E+00  0.45593999997E+02  0.45594000000E+02  0.51100000000E-03 0.  1.
         11   -1    0    0    0    0 -0.00000000000E+00 -0.00000000000E+00 -0.45593999997E+02  0.45594000000E+02  0.51100000000E-03 0. -1.
    9900012    2    1    2    0    0 -0.44708922174E+01 -0.89775777005E+01 -0.15814621400E+02  0.72461333756E+02  0.69999691864E+02 0.  0.
        -12    1    1    2    0    0  0.44708922174E+01  0.89775777005E+01  0.15814621400E+02  0.18726666244E+02  0.00000000000E+00 0.  1.
         11    1    3    3    0    0  0.90199334648E+01  0.10243554262E+02 -0.10502253910E+02  0.17221699715E+02  0.51100000000E-03 0. -1.
        -11    1    3    3    0    0 -0.18712043501E+02 -0.28709975630E+02  0.10706460003E+02  0.35903085643E+02  0.51100000000E-03 0.  1.
        -12    1    3    3    0    0  0.52212178191E+01  0.94888436672E+01 -0.16018827493E+02  0.19336548397E+02  0.00000000000E+00 0.  1.
</event>
<event>
 7    1  0.1830715E-013  0.7246156E+02  0.7816164E-02  0.1226708E+00
        -11   -1    0    0    0    0  0.00000000000E+00  0.00000000000E+00  0.45593999997E+02  0.45594000000E+02  0.51100000000E-03 0.  1.
         11   -1    0    0    0    0 -0.00000000000E+00 -0.00000000000E+00 -0.45593999997E+02  0.45594000000E+02  0.51100000000E-03 0. -1.
    9900012    2    1    2    0    0 -0.18027444452E+02  0.40716530187E+01  0.30186771363E+01  0.72461560845E+02  0.69999987691E+02 0.  0.
        -12    1    1    2    0    0  0.18027444452E+02 -0.40716530187E+01 -0.30186771363E+01  0.18726439155E+02  0.00000000000E+00 0.  1.
         11    1    3    3    0    0  0.11161096909E+02  0.10882539651E+02  0.17316201833E+02  0.23299154484E+02  0.51100000000E-03 0.  1.
        -11    1    3    3    0    0 -0.12855741137E+02 -0.16821774690E+02 -0.20051764229E+02  0.29160168601E+02  0.51100000000E-03 0. -1.
         12    1    3    3    0    0 -0.16332800224E+02  0.10010888058E+02  0.57542395315E+01  0.20002237761E+02  0.00000000000E+00 0. -1.
</event>
<event>
 7    1  0.1830715E-013  0.7246157E+02  0.7816164E-02  0.1226708E+00
        -11   -1    0    0    0    0  0.00000000000E+00  0.00000000000E+00  0.45593999997E+02  0.45594000000E+02  0.51100000000E-03 0.  1.
         11   -1    0    0    0    0 -0.00000000000E+00 -0.00000000000E+00 -0.45593999997E+02  0.45594000000E+02  0.51100000000E-03 0. -1.
    9900012    2    1    2    0    0  0.27616214796E+00 -0.18320232124E+02  0.38693708856E+01  0.72461569436E+02  0.69999998882E+02 0.  0.
        -12    1    1    2    0    0 -0.27616214796E+00  0.18320232124E+02 -0.38693708856E+01  0.18726430564E+02  0.00000000000E+00 0.  1.
         11    1    3    3    0    0  0.93562250561E+01 -0.24216263474E+02 -0.25120880470E+02  0.36125129755E+02  0.51100000000E-03 0. -1.
        -11    1    3    3    0    0 -0.73133180497E+01 -0.62527203348E+01  0.13233141078E+02  0.16361453344E+02  0.51100000000E-03 0.  1.
         12    1    3    3    0    0 -0.17667448584E+01  0.12148751685E+02  0.15757110277E+02  0.19974986338E+02  0.00000000000E+00 0. -1.
</event>
<event>
 7    1  0.1830715E-013  0.7246157E+02  0.7816164E-02  0.1226708E+00
        -11   -1    0    0    0    0  0.00000000000E+00  0.00000000000E+00  0.45593999997E+02  0.45594000000E+02  0.51100000000E-03 0.  1.
         11   -1    0    0    0    0 -0.00000000000E+00 -0.00000000000E+00 -0.45593999997E+02  0.45594000000E+02  0.51100000000E-03 0. -1.
    9900012    2    1    2    0    0 -0.13676929707E+02  0.12791341992E+02  0.47059155602E-01  0.72461573466E+02  0.70000004131E+02 0.  0.
        -12    1    1    2    0    0  0.13676929707E+02 -0.12791341992E+02 -0.47059155602E-01  0.18726426534E+02  0.00000000000E+00 0.  1.
         11    1    3    3    0    0 -0.17575367026E+02  0.12595797257E+02 -0.30436048208E+02  0.37334979113E+02  0.51100000000E-03 0. -1.
        -11    1    3    3    0    0 -0.55969787137E+01 -0.41934630140E+01  0.12267547355E+02  0.14121048869E+02  0.51100000000E-03 0.  1.
         12    1    3    3    0    0  0.94954160323E+01  0.43890077496E+01  0.18215560008E+02  0.21005545484E+02  0.00000000000E+00 0. -1.
</event>
<event>
 7    1  0.1830715E-013  0.7246138E+02  0.7816164E-02  0.1226709E+00
        -11   -1    0    0    0    0  0.00000000000E+00  0.00000000000E+00  0.45593999997E+02  0.45594000000E+02  0.51100000000E-03 0. -1.
         11   -1    0    0    0    0 -0.00000000000E+00 -0.00000000000E+00 -0.45593999997E+02  0.45594000000E+02  0.51100000000E-03 0.  1.
    9900012    2    1    2    0    0 -0.15476745771E+02  0.57979401488E+01  0.88057195216E+01  0.72461375480E+02  0.69999746217E+02 0.  0.
        -12    1    1    2    0    0  0.15476745771E+02 -0.57979401488E+01 -0.88057195216E+01  0.18726624520E+02  0.00000000000E+00 0.  1.
         11    1    3    3    0    0 -0.23268194823E+02  0.29714288316E+02  0.15336993467E+02  0.40737834863E+02  0.51100000000E-03 0. -1.
        -11    1    3    3    0    0  0.11253276711E+02 -0.24881190259E+02 -0.47691678335E+01  0.27721017794E+02  0.51100000000E-03 0.  1.
        -12    1    3    3    0    0 -0.34618276590E+01  0.96484209184E+00 -0.17621061116E+01  0.40025228233E+01  0.00000000000E+00 0.  1.
</event>
<event>
 7    1  0.1830715E-013  0.7246142E+02  0.7816164E-02  0.1226708E+00
        -11   -1    0    0    0    0  0.00000000000E+00  0.00000000000E+00  0.45593999997E+02  0.45594000000E+02  0.51100000000E-03 0.  1.
         11   -1    0    0    0    0 -0.00000000000E+00 -0.00000000000E+00 -0.45593999997E+02  0.45594000000E+02  0.51100000000E-03 0. -1.
    9900012    2    1    2    0    0 -0.16929043633E+02 -0.20209084126E+01  0.77465070390E+01  0.72461415676E+02  0.69999798580E+02 0.  0.
        -12    1    1    2    0    0  0.16929043633E+02  0.20209084126E+01 -0.77465070390E+01  0.18726584324E+02  0.00000000000E+00 0.  1.
         11    1    3    3    0    0 -0.13329139319E+02 -0.12147806782E+02 -0.27085384374E+01  0.18236538744E+02  0.51100000000E-03 0. -1.
        -11    1    3    3    0    0  0.21069022639E+02 -0.78664608911E+01  0.66662072694E+01  0.23456837842E+02  0.51100000000E-03 0.  1.
        -12    1    3    3    0    0 -0.24668926953E+02  0.17993359261E+02  0.37888382070E+01  0.30768039090E+02  0.00000000000E+00 0.  1.
</event>
<event>
 7    1  0.1830715E-013  0.7246157E+02  0.7816164E-02  0.1226708E+00
        -11   -1    0    0    0    0  0.00000000000E+00  0.00000000000E+00  0.45593999997E+02  0.45594000000E+02  0.51100000000E-03 0. -1.
         11   -1    0    0    0    0 -0.00000000000E+00 -0.00000000000E+00 -0.45593999997E+02  0.45594000000E+02  0.51100000000E-03 0.  1.
    9900012    2    1    2    0    0  0.10715650956E+02  0.15349013759E+02  0.51150364175E+00  0.72461573893E+02  0.70000004688E+02 0.  0.
        -12    1    1    2    0    0 -0.10715650956E+02 -0.15349013759E+02 -0.51150364175E+00  0.18726426107E+02  0.00000000000E+00 0.  1.
         11    1    3    3    0    0 -0.37383394289E+01  0.56309457982E+01  0.11123366447E+01  0.68498193655E+01  0.51100000000E-03 0. -1.
        -11    1    3    3    0    0  0.21538435358E+02 -0.23351441924E+02 -0.11273678242E+01  0.31787812068E+02  0.51100000000E-03 0.  1.
        -12    1    3    3    0    0 -0.70844449732E+01  0.33069509885E+02  0.52653482120E+00  0.33823942460E+02  0.00000000000E+00 0.  1.
</event>
<event>
 7    1  0.1830715E-013  0.7246156E+02  0.7816164E-02  0.1226708E+00
        -11   -1    0    0    0    0  0.00000000000E+00  0.00000000000E+00  0.45593999997E+02  0.45594000000E+02  0.51100000000E-03 0.  1.
         11   -1    0    0    0    0 -0.00000000000E+00 -0.00000000000E+00 -0.45593999997E+02  0.45594000000E+02  0.51100000000E-03 0. -1.
    9900012    2    1    2    0    0  0.12356064032E+02  0.42874096867E+00 -0.14064976535E+02  0.72461556074E+02  0.69999981476E+02 0.  0.
        -12    1    1    2    0    0 -0.12356064032E+02 -0.42874096867E+00  0.14064976535E+02  0.18726443926E+02  0.00000000000E+00 0.  1.
         11    1    3    3    0    0  0.60825932904E+01 -0.27381642585E+02 -0.11576328512E+02  0.30344087956E+02  0.51100000000E-03 0. -1.
        -11    1    3    3    0    0  0.61077076613E+01  0.10492052155E+02  0.13773481740E+02  0.18360175674E+02  0.51100000000E-03 0.  1.
         12    1    3    3    0    0  0.16576308075E+00  0.17318331399E+02 -0.16262129762E+02  0.23757292444E+02  0.00000000000E+00 0. -1.
</event>
<event>
 7    1  0.1830715E-013  0.7246159E+02  0.7816164E-02  0.1226708E+00
        -11   -1    0    0    0    0  0.00000000000E+00  0.00000000000E+00  0.45593999997E+02  0.45594000000E+02  0.51100000000E-03 0.  1.
         11   -1    0    0    0    0 -0.00000000000E+00 -0.00000000000E+00 -0.45593999997E+02  0.45594000000E+02  0.51100000000E-03 0. -1.
    9900012    2    1    2    0    0  0.95855560137E+01 -0.14669944528E+02  0.66021482695E+01  0.72461587682E+02  0.70000022650E+02 0.  0.
        -12    1    1    2    0    0 -0.95855560137E+01  0.14669944528E+02 -0.66021482695E+01  0.18726412318E+02  0.00000000000E+00 0.  1.
         11    1    3    3    0    0  0.64281365249E+01 -0.59493271948E+01 -0.21803124718E+02  0.23496631269E+02  0.51100000000E-03 0. -1.
        -11    1    3    3    0    0  0.10590325177E+02 -0.21824547923E+02  0.21408953826E+02  0.32354430664E+02  0.51100000000E-03 0.  1.
        -12    1    3    3    0    0 -0.74329056881E+01  0.13103930590E+02  0.69963191614E+01  0.16610525750E+02  0.00000000000E+00 0.  1.
</event>
<event>
 7    1  0.1830715E-013  0.7246196E+02  0.7816164E-02  0.1226707E+00
        -11   -1    0    0    0    0  0.00000000000E+00  0.00000000000E+00  0.45593999997E+02  0.45594000000E+02  0.51100000000E-03 0. -1.
         11   -1    0    0    0    0 -0.00000000000E+00 -0.00000000000E+00 -0.45593999997E+02  0.45594000000E+02  0.51100000000E-03 0.  1.
    9900012    2    1    2    0    0 -0.18541381844E+01 -0.18214346778E+02  0.39324483713E+01  0.72461964457E+02  0.70000513469E+02 0.  0.
        -12    1    1    2    0    0  0.18541381844E+01  0.18214346778E+02 -0.39324483713E+01  0.18726035543E+02  0.00000000000E+00 0.  1.
         11    1    3    3    0    0 -0.25725573446E+02 -0.15738121901E+02 -0.43045104218E+01  0.30463460413E+02  0.51100000000E-03 0.  1.
        -11    1    3    3    0    0  0.17450111702E+02  0.27684085157E+01  0.20583450931E+02  0.27126535654E+02  0.51100000000E-03 0. -1.
        -12    1    3    3    0    0  0.64213235601E+01 -0.52446333926E+01 -0.12346492138E+02  0.14871968390E+02  0.00000000000E+00 0.  1.
</event>
<event>
 7    1  0.1830715E-013  0.7246136E+02  0.7816164E-02  0.1226709E+00
        -11   -1    0    0    0    0  0.00000000000E+00  0.00000000000E+00  0.45593999997E+02  0.45594000000E+02  0.51100000000E-03 0.  1.
         11   -1    0    0    0    0 -0.00000000000E+00 -0.00000000000E+00 -0.45593999997E+02  0.45594000000E+02  0.51100000000E-03 0. -1.
    9900012    2    1    2    0    0 -0.32964863349E+00 -0.74077398343E+01  0.17196041596E+02  0.72461357903E+02  0.69999723320E+02 0.  0.
        -12    1    1    2    0    0  0.32964863349E+00  0.74077398343E+01 -0.17196041596E+02  0.18726642097E+02  0.00000000000E+00 0.  1.
         11    1    3    3    0    0 -0.98857656083E+01 -0.13677886033E+02  0.94316121935E+01  0.19333086583E+02  0.51100000000E-03 0. -1.
        -11    1    3    3    0    0 -0.29745256304E+01  0.24131972911E+02  0.16756315353E+02  0.29529206284E+02  0.51100000000E-03 0.  1.
        -12    1    3    3    0    0  0.12530642605E+02 -0.17861826712E+02 -0.89918859513E+01  0.23599065036E+02  0.00000000000E+00 0.  1.
</event>
<event>
 7    1  0.1830715E-013  0.7246159E+02  0.7816164E-02  0.1226708E+00
        -11   -1    0    0    0    0  0.00000000000E+00  0.00000000000E+00  0.45593999997E+02  0.45594000000E+02  0.51100000000E-03 0. -1.
         11   -1    0    0    0    0 -0.00000000000E+00 -0.00000000000E+00 -0.45593999997E+02  0.45594000000E+02  0.51100000000E-03 0.  1.
    9900012    2    1    2    0    0 -0.15293269445E+02  0.81157799977E+01 -0.71364201083E+01  0.72461589045E+02  0.70000024427E+02 0.  0.
        -12    1    1    2    0    0  0.15293269445E+02 -0.81157799977E+01  0.71364201083E+01  0.18726410955E+02  0.00000000000E+00 0.  1.
         11    1    3    3    0    0  0.23211213727E+02  0.86626397628E+01 -0.87523368155E+01  0.26275562227E+02  0.51100000000E-03 0. -1.
        -11    1    3    3    0    0 -0.94077645264E+01  0.48948929675E+01 -0.98192860851E+01  0.14452833287E+02  0.51100000000E-03 0.  1.
         12    1    3    3    0    0 -0.29096718646E+02 -0.54417527326E+01  0.11435202792E+02  0.31733193531E+02  0.00000000000E+00 0. -1.
</event>
<event>
 7    1  0.1830715E-013  0.7246146E+02  0.7816164E-02  0.1226708E+00
        -11   -1    0    0    0    0  0.00000000000E+00  0.00000000000E+00  0.45593999997E+02  0.45594000000E+02  0.51100000000E-03 0. -1.
         11   -1    0    0    0    0 -0.00000000000E+00 -0.00000000000E+00 -0.45593999997E+02  0.45594000000E+02  0.51100000000E-03 0.  1.
    9900012    2    1    2    0    0  0.10492376824E+02  0.14326184932E+02  0.59458882372E+01  0.72461464467E+02  0.69999862140E+02 0.  0.
        -12    1    1    2    0    0 -0.10492376824E+02 -0.14326184932E+02 -0.59458882372E+01  0.18726535533E+02  0.00000000000E+00 0.  1.
         11    1    3    3    0    0  0.23647442415E+02 -0.36909724398E+01 -0.71602972913E+00  0.23944467193E+02  0.51100000000E-03 0. -1.
        -11    1    3    3    0    0 -0.19418883637E+02 -0.69664522575E+01  0.92910967431E+01  0.22626289526E+02  0.51100000000E-03 0.  1.
        -12    1    3    3    0    0  0.62638180461E+01  0.24983609630E+02 -0.26291787768E+01  0.25890707748E+02  0.00000000000E+00 0.  1.
</event>
<event>
 7    1  0.1830715E-013  0.7246170E+02  0.7816164E-02  0.1226708E+00
        -11   -1    0    0    0    0  0.00000000000E+00  0.00000000000E+00  0.45593999997E+02  0.45594000000E+02  0.51100000000E-03 0.  1.
         11   -1    0    0    0    0 -0.00000000000E+00 -0.00000000000E+00 -0.45593999997E+02  0.45594000000E+02  0.51100000000E-03 0. -1.
    9900012    2    1    2    0    0 -0.18276890204E+02 -0.40283474108E+01 -0.63394815318E+00  0.72461703285E+02  0.70000173245E+02 0.  0.
        -12    1    1    2    0    0  0.18276890204E+02  0.40283474108E+01  0.63394815318E+00  0.18726296715E+02  0.00000000000E+00 0.  1.
         11    1    3    3    0    0 -0.28694189077E+02  0.17778668207E+02 -0.34506346453E+01  0.33931466366E+02  0.51100000000E-03 0. -1.
        -11    1    3    3    0    0  0.14397974789E+02 -0.87171465633E+01 -0.10171010669E+02  0.19665700611E+02  0.51100000000E-03 0.  1.
         12    1    3    3    0    0 -0.39806759153E+01 -0.13089869054E+02  0.12987697161E+02  0.18864536309E+02  0.00000000000E+00 0. -1.
</event>
<event>
 7    1  0.1830715E-013  0.7246159E+02  0.7816164E-02  0.1226708E+00
        -11   -1    0    0    0    0  0.00000000000E+00  0.00000000000E+00  0.45593999997E+02  0.45594000000E+02  0.51100000000E-03 0.  1.
         11   -1    0    0    0    0 -0.00000000000E+00 -0.00000000000E+00 -0.45593999997E+02  0.45594000000E+02  0.51100000000E-03 0. -1.
    9900012    2    1    2    0    0 -0.15012395449E+02  0.74836421005E+01  0.83247470826E+01  0.72461592705E+02  0.70000029194E+02 0.  0.
        -12    1    1    2    0    0  0.15012395449E+02 -0.74836421005E+01 -0.83247470826E+01  0.18726407295E+02  0.00000000000E+00 0.  1.
         11    1    3    3    0    0  0.41008889125E+01  0.13056963817E+02 -0.21730111950E+02  0.25680719608E+02  0.51100000000E-03 0. -1.
        -11    1    3    3    0    0 -0.21840169687E+02 -0.14694394735E+02  0.21699885342E+02  0.34114561007E+02  0.51100000000E-03 0.  1.
        -12    1    3    3    0    0  0.27268853254E+01  0.91210730185E+01  0.83549736906E+01  0.12666312090E+02  0.00000000000E+00 0.  1.
</event>
<event>
 7    1  0.1830715E-013  0.7246156E+02  0.7816164E-02  0.1226708E+00
        -11   -1    0    0    0    0  0.00000000000E+00  0.00000000000E+00  0.45593999997E+02  0.45594000000E+02  0.51100000000E-03 0.  1.
         11   -1    0    0    0    0 -0.00000000000E+00 -0.00000000000E+00 -0.45593999997E+02  0.45594000000E+02  0.51100000000E-03 0. -1.
    9900012    2    1    2    0    0  0.55060721124E+01 -0.13506810714E+02 -0.11744304002E+02  0.72461563012E+02  0.69999990513E+02 0.  0.
        -12    1    1    2    0    0 -0.55060721124E+01  0.13506810714E+02  0.11744304002E+02  0.18726436988E+02  0.00000000000E+00 0.  1.
         11    1    3    3    0    0 -0.66556184824E+01  0.60786995746E+01 -0.60234665418E+01  0.10841125188E+02  0.51100000000E-03 0. -1.
        -11    1    3    3    0    0  0.26695945781E+02 -0.15349542985E+02  0.16343004914E+02  0.34862240331E+02  0.51100000000E-03 0.  1.
        -12    1    3    3    0    0 -0.14534255186E+02 -0.42359673036E+01 -0.22063842374E+02  0.26758197493E+02  0.00000000000E+00 0.  1.
</event>
<event>
 7    1  0.1830715E-013  0.7246154E+02  0.7816164E-02  0.1226708E+00
        -11   -1    0    0    0    0  0.00000000000E+00  0.00000000000E+00  0.45593999997E+02  0.45594000000E+02  0.51100000000E-03 0.  1.
         11   -1    0    0    0    0 -0.00000000000E+00 -0.00000000000E+00 -0.45593999997E+02  0.45594000000E+02  0.51100000000E-03 0. -1.
    9900012    2    1    2    0    0  0.41565431021E+01  0.78710684032E+01 -0.16475728498E+02  0.72461542836E+02  0.69999964230E+02 0.  0.
        -12    1    1    2    0    0 -0.41565431021E+01 -0.78710684032E+01  0.16475728498E+02  0.18726457164E+02  0.00000000000E+00 0.  1.
         11    1    3    3    0    0  0.36337039437E+01 -0.51972440996E+01 -0.28129437779E+02  0.28835402210E+02  0.51100000000E-03 0. -1.
        -11    1    3    3    0    0 -0.96344464470E+01  0.24604280852E+02  0.96281861314E+01  0.28122858372E+02  0.51100000000E-03 0.  1.
        -12    1    3    3    0    0  0.10157285605E+02 -0.11535968349E+02  0.20255231496E+01  0.15503282254E+02  0.00000000000E+00 0.  1.
</event>
<event>
 7    1  0.1830715E-013  0.7246143E+02  0.7816164E-02  0.1226708E+00
        -11   -1    0    0    0    0  0.00000000000E+00  0.00000000000E+00  0.45593999997E+02  0.45594000000E+02  0.51100000000E-03 0. -1.
         11   -1    0    0    0    0 -0.00000000000E+00 -0.00000000000E+00 -0.45593999997E+02  0.45594000000E+02  0.51100000000E-03 0.  1.
    9900012    2    1    2    0    0  0.52413028746E+01  0.17754013113E+02 -0.28299048794E+01  0.72461425325E+02  0.69999811150E+02 0.  0.
        -12    1    1    2    0    0 -0.52413028746E+01 -0.17754013113E+02  0.28299048794E+01  0.18726574675E+02  0.00000000000E+00 0.  1.
         11    1    3    3    0    0  0.26328323365E+02  0.14350346223E+02 -0.15224932122E+02  0.33629029220E+02  0.51100000000E-03 0. -1.
        -11    1    3    3    0    0 -0.89028841964E+01 -0.12051341652E+02 -0.10152740538E+01  0.15017555204E+02  0.51100000000E-03 0.  1.
        -12    1    3    3    0    0 -0.12184136294E+02  0.15455008542E+02  0.13410301297E+02  0.23814840901E+02  0.00000000000E+00 0.  1.
</event>
<event>
 7    1  0.1830715E-013  0.7246157E+02  0.7816164E-02  0.1226708E+00
        -11   -1    0    0    0    0  0.00000000000E+00  0.00000000000E+00  0.45593999997E+02  0.45594000000E+02  0.51100000000E-03 0.  1.
         11   -1    0    0    0    0 -0.00000000000E+00 -0.00000000000E+00 -0.45593999997E+02  0.45594000000E+02  0.51100000000E-03 0. -1.
    9900012    2    1    2    0    0  0.65606849877E+01 -0.47660655202E+00 -0.17533097416E+02  0.72461568244E+02  0.69999997329E+02 0.  0.
        -12    1    1    2    0    0 -0.65606849877E+01  0.47660655202E+00  0.17533097416E+02  0.18726431756E+02  0.00000000000E+00 0.  1.
         11    1    3    3    0    0  0.19296355406E+02  0.86751814683E+00 -0.83599772032E+01  0.21047354674E+02  0.51100000000E-03 0. -1.
        -11    1    3    3    0    0 -0.12065586827E+01 -0.19617176005E+02  0.10421414281E+02  0.22246241348E+02  0.51100000000E-03 0.  1.
        -12    1    3    3    0    0 -0.11529111735E+02  0.18273051306E+02 -0.19594534494E+02  0.29167972221E+02  0.00000000000E+00 0.  1.
</event>
<event>
 7    1  0.1830715E-013  0.7246156E+02  0.7816164E-02  0.1226708E+00
        -11   -1    0    0    0    0  0.00000000000E+00  0.00000000000E+00  0.45593999997E+02  0.45594000000E+02  0.51100000000E-03 0. -1.
         11   -1    0    0    0    0 -0.00000000000E+00 -0.00000000000E+00 -0.45593999997E+02  0.45594000000E+02  0.51100000000E-03 0.  1.
    9900012    2    1    2    0    0 -0.51585006645E+00  0.15189231659E+02  0.10940775509E+02  0.72461563381E+02  0.69999990995E+02 0.  0.
        -12    1    1    2    0    0  0.51585006645E+00 -0.15189231659E+02 -0.10940775509E+02  0.18726436619E+02  0.00000000000E+00 0.  1.
         11    1    3    3    0    0 -0.82372520805E+00 -0.15229178058E+02  0.29038061047E+02  0.32799624650E+02  0.51100000000E-03 0. -1.
        -11    1    3    3    0    0  0.64192529249E+01  0.16747012562E+02 -0.16893290930E+02  0.24638435757E+02  0.51100000000E-03 0.  1.
         12    1    3    3    0    0 -0.61113777833E+01  0.13671397156E+02 -0.12039946089E+01  0.15023502974E+02  0.00000000000E+00 0. -1.
</event>
<event>
 7    1  0.1830715E-013  0.7246158E+02  0.7816164E-02  0.1226708E+00
        -11   -1    0    0    0    0  0.00000000000E+00  0.00000000000E+00  0.45593999997E+02  0.45594000000E+02  0.51100000000E-03 0.  1.
         11   -1    0    0    0    0 -0.00000000000E+00 -0.00000000000E+00 -0.45593999997E+02  0.45594000000E+02  0.51100000000E-03 0. -1.
    9900012    2    1    2    0    0  0.11197960410E+02 -0.11247751013E+02 -0.99384440533E+01  0.72461577747E+02  0.70000009709E+02 0.  0.
        -12    1    1    2    0    0 -0.11197960410E+02  0.11247751013E+02  0.99384440533E+01  0.18726422253E+02  0.00000000000E+00 0.  1.
         11    1    3    3    0    0  0.12738244422E+02  0.20584144758E+02  0.35067113177E+01  0.24459495311E+02  0.51100000000E-03 0.  1.
        -11    1    3    3    0    0 -0.11614107563E+02 -0.10191886382E+02  0.66284123601E+01  0.16813622250E+02  0.51100000000E-03 0. -1.
         12    1    3    3    0    0  0.10073823551E+02 -0.21640009390E+02 -0.20073567731E+02  0.31188460186E+02  0.00000000000E+00 0. -1.
</event>
<event>
 7    1  0.1830715E-013  0.7246160E+02  0.7816164E-02  0.1226708E+00
        -11   -1    0    0    0    0  0.00000000000E+00  0.00000000000E+00  0.45593999997E+02  0.45594000000E+02  0.51100000000E-03 0.  1.
         11   -1    0    0    0    0 -0.00000000000E+00 -0.00000000000E+00 -0.45593999997E+02  0.45594000000E+02  0.51100000000E-03 0. -1.
    9900012    2    1    2    0    0 -0.15795383565E+02  0.38547138894E+01  0.92911387568E+01  0.72461595633E+02  0.70000033008E+02 0.  0.
        -12    1    1    2    0    0  0.15795383565E+02 -0.38547138894E+01 -0.92911387568E+01  0.18726404367E+02  0.00000000000E+00 0.  1.
         11    1    3    3    0    0  0.15479670220E+02  0.98986685204E+01  0.91196018197E+01  0.20512702557E+02  0.51100000000E-03 0. -1.
        -11    1    3    3    0    0 -0.33041256481E+02 -0.16734929625E+02  0.88334866538E+01  0.38076409838E+02  0.51100000000E-03 0.  1.
        -12    1    3    3    0    0  0.17662026961E+01  0.10690974994E+02 -0.86619497167E+01  0.13872483238E+02  0.00000000000E+00 0.  1.
</event>
<event>
 7    1  0.1830715E-013  0.7246147E+02  0.7816164E-02  0.1226708E+00
        -11   -1    0    0    0    0  0.00000000000E+00  0.00000000000E+00  0.45593999997E+02  0.45594000000E+02  0.51100000000E-03 0.  1.
         11   -1    0    0    0    0 -0.00000000000E+00 -0.00000000000E+00 -0.45593999997E+02  0.45594000000E+02  0.51100000000E-03 0. -1.
    9900012    2    1    2    0    0 -0.20753772518E+01  0.18601568344E+02 -0.59772947550E+00  0.72461472930E+02  0.69999873165E+02 0.  0.
        -12    1    1    2    0    0  0.20753772518E+01 -0.18601568344E+02  0.59772947550E+00  0.18726527070E+02  0.00000000000E+00 0.  1.
         11    1    3    3    0    0  0.21234846983E+02  0.11029601703E+02 -0.75500065690E+01  0.25091302071E+02  0.51100000000E-03 0. -1.
        -11    1    3    3    0    0 -0.31989855736E+02  0.10009704571E+02  0.13595390323E+02  0.36171531540E+02  0.51100000000E-03 0.  1.
         12    1    3    3    0    0  0.86796315013E+01 -0.24377379311E+01 -0.66431132299E+01  0.11198639319E+02  0.00000000000E+00 0. -1.
</event>
<event>
 7    1  0.1830715E-013  0.7246154E+02  0.7816164E-02  0.1226708E+00
        -11   -1    0    0    0    0  0.00000000000E+00  0.00000000000E+00  0.45593999997E+02  0.45594000000E+02  0.51100000000E-03 0.  1.
         11   -1    0    0    0    0 -0.00000000000E+00 -0.00000000000E+00 -0.45593999997E+02  0.45594000000E+02  0.51100000000E-03 0. -1.
    9900012    2    1    2    0    0 -0.16083973739E+01  0.11139751796E+01 -0.18623971593E+02  0.72461542761E+02  0.69999964133E+02 0.  0.
        -12    1    1    2    0    0  0.16083973739E+01 -0.11139751796E+01  0.18623971593E+02  0.18726457239E+02  0.00000000000E+00 0.  1.
         11    1    3    3    0    0  0.62623139517E+01  0.10647520366E+02  0.43477709065E+01  0.13095395301E+02  0.51100000000E-03 0. -1.
        -11    1    3    3    0    0 -0.22468922456E+02 -0.16049310423E+02  0.41116298599E+01  0.27916631992E+02  0.51100000000E-03 0.  1.
        -12    1    3    3    0    0  0.14598211130E+02  0.65157652368E+01 -0.27083372360E+02  0.31449515469E+02  0.00000000000E+00 0.  1.
</event>
<event>
 7    1  0.1830715E-013  0.7246161E+02  0.7816164E-02  0.1226708E+00
        -11   -1    0    0    0    0  0.00000000000E+00  0.00000000000E+00  0.45593999997E+02  0.45594000000E+02  0.51100000000E-03 0. -1.
         11   -1    0    0    0    0 -0.00000000000E+00 -0.00000000000E+00 -0.45593999997E+02  0.45594000000E+02  0.51100000000E-03 0.  1.
    9900012    2    1    2    0    0  0.13097994160E+02  0.96874230244E+01  0.92344021517E+01  0.72461606889E+02  0.70000047671E+02 0.  0.
        -12    1    1    2    0    0 -0.13097994160E+02 -0.96874230244E+01 -0.92344021517E+01  0.18726393111E+02  0.00000000000E+00 0.  1.
         11    1    3    3    0    0  0.16623944920E+02  0.23542182224E+02  0.29934327338E+02  0.41553024463E+02  0.51100000000E-03 0. -1.
        -11    1    3    3    0    0 -0.10384161174E+02 -0.11256312855E+02 -0.11547248220E+02  0.19180050158E+02  0.51100000000E-03 0.  1.
        -12    1    3    3    0    0  0.68582104137E+01 -0.25984463447E+01 -0.91526769668E+01  0.11728532267E+02  0.00000000000E+00 0.  1.
</event>
<event>
 7    1  0.1830715E-013  0.7246158E+02  0.7816164E-02  0.1226708E+00
        -11   -1    0    0    0    0  0.00000000000E+00  0.00000000000E+00  0.45593999997E+02  0.45594000000E+02  0.51100000000E-03 0. -1.
         11   -1    0    0    0    0 -0.00000000000E+00 -0.00000000000E+00 -0.45593999997E+02  0.45594000000E+02  0.51100000000E-03 0.  1.
    9900012    2    1    2    0    0  0.98452068426E+01 -0.15440927257E+02 -0.39151741627E+01  0.72461576929E+02  0.70000008642E+02 0.  0.
        -12    1    1    2    0    0 -0.98452068426E+01  0.15440927257E+02  0.39151741627E+01  0.18726423071E+02  0.00000000000E+00 0.  1.
         11    1    3    3    0    0  0.19732428531E+02  0.37767386040E+01 -0.18508915517E+02  0.27316889356E+02  0.51100000000E-03 0. -1.
        -11    1    3    3    0    0 -0.57680660005E+01 -0.18829163780E+02 -0.86692741284E+01  0.21516605407E+02  0.51100000000E-03 0.  1.
         12    1    3    3    0    0 -0.41191556878E+01 -0.38850208051E+00  0.23263015483E+02  0.23628082165E+02  0.00000000000E+00 0. -1.
</event>
<event>
 7    1  0.1830715E-013  0.7246088E+02  0.7816164E-02  0.1226710E+00
        -11   -1    0    0    0    0  0.00000000000E+00  0.00000000000E+00  0.45593999997E+02  0.45594000000E+02  0.51100000000E-03 0. -1.
         11   -1    0    0    0    0 -0.00000000000E+00 -0.00000000000E+00 -0.45593999997E+02  0.45594000000E+02  0.51100000000E-03 0.  1.
    9900012    2    1    2    0    0 -0.58556679094E+01  0.12927272045E+02  0.12218908408E+02  0.72460882446E+02  0.69999103944E+02 0.  0.
        -12    1    1    2    0    0  0.58556679094E+01 -0.12927272045E+02 -0.12218908408E+02  0.18727117554E+02  0.00000000000E+00 0.  1.
         11    1    3    3    0    0 -0.30284769776E+01  0.16516606839E+02  0.40172663047E+02  0.43540932820E+02  0.51100000000E-03 0. -1.
        -11    1    3    3    0    0  0.44793478707E+00 -0.40704453643E+01 -0.16106251205E+02  0.16618679224E+02  0.51100000000E-03 0.  1.
        -12    1    3    3    0    0 -0.32751257189E+01  0.48111057042E+00 -0.11847503435E+02  0.12301270402E+02  0.00000000000E+00 0.  1.
</event>
<event>
 7    1  0.1830715E-013  0.7246161E+02  0.7816164E-02  0.1226708E+00
        -11   -1    0    0    0    0  0.00000000000E+00  0.00000000000E+00  0.45593999997E+02  0.45594000000E+02  0.51100000000E-03 0. -1.
         11   -1    0    0    0    0 -0.00000000000E+00 -0.00000000000E+00 -0.45593999997E+02  0.45594000000E+02  0.51100000000E-03 0.  1.
    9900012    2    1    2    0    0  0.17764514353E+02  0.23155115466E+01  0.54532751755E+01  0.72461607553E+02  0.70000048536E+02 0.  0.
        -12    1    1    2    0    0 -0.17764514353E+02 -0.23155115466E+01 -0.54532751755E+01  0.18726392447E+02  0.00000000000E+00 0.  1.
         11    1    3    3    0    0  0.18843805779E+02  0.61795632493E+01  0.35136194078E+02  0.40346352410E+02  0.51100000000E-03 0. -1.
        -11    1    3    3    0    0 -0.59154647960E+01  0.16607567942E+00 -0.12979463266E+02  0.14264878963E+02  0.51100000000E-03 0.  1.
         12    1    3    3    0    0  0.48361733704E+01 -0.40301273821E+01 -0.16703455637E+02  0.17850376181E+02  0.00000000000E+00 0. -1.
</event>
<event>
 7    1  0.1830715E-013  0.7246158E+02  0.7816164E-02  0.1226708E+00
        -11   -1    0    0    0    0  0.00000000000E+00  0.00000000000E+00  0.45593999997E+02  0.45594000000E+02  0.51100000000E-03 0.  1.
         11   -1    0    0    0    0 -0.00000000000E+00 -0.00000000000E+00 -0.45593999997E+02  0.45594000000E+02  0.51100000000E-03 0. -1.
    9900012    2    1    2    0    0 -0.86236575224E+01  0.13626076124E+02 -0.95205804069E+01  0.72461578268E+02  0.70000010387E+02 0.  0.
        -12    1    1    2    0    0  0.86236575224E+01 -0.13626076124E+02  0.95205804069E+01  0.18726421732E+02  0.00000000000E+00 0.  1.
         11    1    3    3    0    0  0.10780756944E+02 -0.16631901931E+01 -0.11933712844E+02  0.16168006198E+02  0.51100000000E-03 0. -1.
        -11    1    3    3    0    0 -0.65429886177E+01  0.32890866826E+02  0.63770315496E+01  0.34136290840E+02  0.51100000000E-03 0.  1.
        -12    1    3    3    0    0 -0.12861425849E+02 -0.17601600509E+02 -0.39638991124E+01  0.22157281230E+02  0.00000000000E+00 0.  1.
</event>
<event>
 7    1  0.1830715E-013  0.7246154E+02  0.7816164E-02  0.1226708E+00
        -11   -1    0    0    0    0  0.00000000000E+00  0.00000000000E+00  0.45593999997E+02  0.45594000000E+02  0.51100000000E-03 0.  1.
         11   -1    0    0    0    0 -0.00000000000E+00 -0.00000000000E+00 -0.45593999997E+02  0.45594000000E+02  0.51100000000E-03 0. -1.
    9900012    2    1    2    0    0  0.48093194821E+00  0.22773974905E+00 -0.18718901141E+02  0.72461536884E+02  0.69999956477E+02 0.  0.
        -12    1    1    2    0    0 -0.48093194821E+00 -0.22773974905E+00  0.18718901141E+02  0.18726463116E+02  0.00000000000E+00 0.  1.
         11    1    3    3    0    0 -0.14271312251E+02 -0.16211847528E+02 -0.16690746596E+02  0.27296068871E+02  0.51100000000E-03 0. -1.
        -11    1    3    3    0    0  0.25318307867E+02  0.13568885094E+02  0.85199692176E+01  0.29961996457E+02  0.51100000000E-03 0.  1.
        -12    1    3    3    0    0 -0.10566063668E+02  0.28707021828E+01 -0.10548123762E+02  0.15203471556E+02  0.00000000000E+00 0.  1.
</event>
<event>
 7    1  0.1830715E-013  0.7246235E+02  0.7816164E-02  0.1226706E+00
        -11   -1    0    0    0    0  0.00000000000E+00  0.00000000000E+00  0.45593999997E+02  0.45594000000E+02  0.51100000000E-03 0. -1.
         11   -1    0    0    0    0 -0.00000000000E+00 -0.00000000000E+00 -0.45593999997E+02  0.45594000000E+02  0.51100000000E-03 0.  1.
    9900012    2    1    2    0    0 -0.40067407029E+01  0.65318915610E+01  0.17085973523E+02  0.72462347284E+02  0.70001012166E+02 0.  0.
        -12    1    1    2    0    0  0.40067407029E+01 -0.65318915610E+01 -0.17085973523E+02  0.18725652716E+02  0.00000000000E+00 0.  1.
         11    1    3    3    0    0 -0.14519376090E+02 -0.72168786657E+01 -0.10141277000E+02  0.19124359314E+02  0.51100000000E-03 0. -1.
        -11    1    3    3    0    0  0.88125849794E+01  0.19313941373E+02 -0.39744615061E+01  0.21598294606E+02  0.51100000000E-03 0.  1.
         12    1    3    3    0    0  0.17000504079E+01 -0.55651711462E+01  0.31201712029E+02  0.31739693363E+02  0.00000000000E+00 0. -1.
</event>
<event>
 7    1  0.1830715E-013  0.7246158E+02  0.7816164E-02  0.1226708E+00
        -11   -1    0    0    0    0  0.00000000000E+00  0.00000000000E+00  0.45593999997E+02  0.45594000000E+02  0.51100000000E-03 0.  1.
         11   -1    0    0    0    0 -0.00000000000E+00 -0.00000000000E+00 -0.45593999997E+02  0.45594000000E+02  0.51100000000E-03 0. -1.
    9900012    2    1    2    0    0 -0.14579666640E+02 -0.11748619094E+02 -0.28636301875E+00  0.72461581931E+02  0.70000015158E+02 0.  0.
        -12    1    1    2    0    0  0.14579666640E+02  0.11748619094E+02  0.28636301875E+00  0.18726418069E+02  0.00000000000E+00 0.  1.
         11    1    3    3    0    0  0.14065511398E+02  0.17595427789E+02 -0.53558224718E+01  0.23154319782E+02  0.51100000000E-03 0. -1.
        -11    1    3    3    0    0 -0.52387246109E+01 -0.73252768647E+01  0.13367123317E+02  0.16117813211E+02  0.51100000000E-03 0.  1.
         12    1    3    3    0    0 -0.23406453427E+02 -0.22018770018E+02 -0.82976638634E+01  0.33189448937E+02  0.00000000000E+00 0. -1.
</event>
<event>
 7    1  0.1830715E-013  0.7246153E+02  0.7816164E-02  0.1226708E+00
        -11   -1    0    0    0    0  0.00000000000E+00  0.00000000000E+00  0.45593999997E+02  0.45594000000E+02  0.51100000000E-03 0.  1.
         11   -1    0    0    0    0 -0.00000000000E+00 -0.00000000000E+00 -0.45593999997E+02  0.45594000000E+02  0.51100000000E-03 0. -1.
    9900012    2    1    2    0    0 -0.20504092916E+00  0.18720804199E+02 -0.41252668748E+00  0.72461528632E+02  0.69999945727E+02 0.  0.
        -12    1    1    2    0    0  0.20504092916E+00 -0.18720804199E+02  0.41252668748E+00  0.18726471368E+02  0.00000000000E+00 0.  1.
         11    1    3    3    0    0  0.23315309980E+01  0.93519503954E+01  0.25624307946E+02  0.27377000767E+02  0.51100000000E-03 0.  1.
        -11    1    3    3    0    0 -0.70614443176E+01 -0.52438332402E+01 -0.28286812705E+02  0.29622720270E+02  0.51100000000E-03 0. -1.
         12    1    3    3    0    0  0.45248723905E+01  0.14612687044E+02  0.22499780715E+01  0.15461807595E+02  0.00000000000E+00 0. -1.
</event>
<event>
 7    1  0.1830715E-013  0.7246159E+02  0.7816164E-02  0.1226708E+00
        -11   -1    0    0    0    0  0.00000000000E+00  0.00000000000E+00  0.45593999997E+02  0.45594000000E+02  0.51100000000E-03 0. -1.
         11   -1    0    0    0    0 -0.00000000000E+00 -0.00000000000E+00 -0.45593999997E+02  0.45594000000E+02  0.51100000000E-03 0.  1.
    9900012    2    1    2    0    0 -0.31445577268E+01  0.65126681471E+01 -0.17273543957E+02  0.72461590560E+02  0.70000026400E+02 0.  0.
        -12    1    1    2    0    0  0.31445577268E+01 -0.65126681471E+01  0.17273543957E+02  0.18726409440E+02  0.00000000000E+00 0.  1.
         11    1    3    3    0    0  0.23998971679E+02  0.25796534788E+00 -0.99551384417E+01  0.25983109311E+02  0.51100000000E-03 0. -1.
        -11    1    3    3    0    0 -0.22937605094E+02 -0.82060197831E+01 -0.15951913107E+02  0.29119340998E+02  0.51100000000E-03 0.  1.
         12    1    3    3    0    0 -0.42059243127E+01  0.14460722582E+02  0.86335075919E+01  0.17359140251E+02  0.00000000000E+00 0. -1.
</event>
<event>
 7    1  0.1830715E-013  0.7246157E+02  0.7816164E-02  0.1226708E+00
        -11   -1    0    0    0    0  0.00000000000E+00  0.00000000000E+00  0.45593999997E+02  0.45594000000E+02  0.51100000000E-03 0.  1.
         11   -1    0    0    0    0 -0.00000000000E+00 -0.00000000000E+00 -0.45593999997E+02  0.45594000000E+02  0.51100000000E-03 0. -1.
    9900012    2    1    2    0    0 -0.79485552823E+00 -0.18699012479E+02 -0.62785243836E+00  0.72461573173E+02  0.70000003751E+02 0.  0.
        -12    1    1    2    0    0  0.79485552823E+00  0.18699012479E+02  0.62785243836E+00  0.18726426827E+02  0.00000000000E+00 0.  1.
         11    1    3    3    0    0 -0.81044718413E+01 -0.30890284716E+02  0.98343402295E+01  0.33415661024E+02  0.51100000000E-03 0. -1.
        -11    1    3    3    0    0  0.18694648182E+02  0.10789915511E+02  0.25088264951E+01  0.21730309663E+02  0.51100000000E-03 0.  1.
        -12    1    3    3    0    0 -0.11385031869E+02  0.14013567253E+01 -0.12971019163E+02  0.17315602486E+02  0.00000000000E+00 0.  1.
</event>
<event>
 7    1  0.1830715E-013  0.7246158E+02  0.7816164E-02  0.1226708E+00
        -11   -1    0    0    0    0  0.00000000000E+00  0.00000000000E+00  0.45593999997E+02  0.45594000000E+02  0.51100000000E-03 0. -1.
         11   -1    0    0    0    0 -0.00000000000E+00 -0.00000000000E+00 -0.45593999997E+02  0.45594000000E+02  0.51100000000E-03 0.  1.
    9900012    2    1    2    0    0  0.12033809052E+02  0.55499938487E+01  0.13231161789E+02  0.72461584585E+02  0.70000018616E+02 0.  0.
        -12    1    1    2    0    0 -0.12033809052E+02 -0.55499938487E+01 -0.13231161789E+02  0.18726415415E+02  0.00000000000E+00 0.  1.
         11    1    3    3    0    0  0.69001151179E+01 -0.69491813228E+01 -0.14524229835E+01  0.99001132560E+01  0.51100000000E-03 0. -1.
        -11    1    3    3    0    0  0.50227101529E+01  0.18848835339E+02 -0.19624853219E+02  0.27670220003E+02  0.51100000000E-03 0.  1.
        -12    1    3    3    0    0  0.11098378126E+00 -0.63496601672E+01  0.34308437991E+02  0.34891251325E+02  0.00000000000E+00 0.  1.
</event>
<event>
 7    1  0.1830715E-013  0.7246158E+02  0.7816164E-02  0.1226708E+00
        -11   -1    0    0    0    0  0.00000000000E+00  0.00000000000E+00  0.45593999997E+02  0.45594000000E+02  0.51100000000E-03 0. -1.
         11   -1    0    0    0    0 -0.00000000000E+00 -0.00000000000E+00 -0.45593999997E+02  0.45594000000E+02  0.51100000000E-03 0.  1.
    9900012    2    1    2    0    0  0.18446856016E+02  0.51224305851E+00  0.31827243462E+01  0.72461584857E+02  0.70000018971E+02 0.  0.
        -12    1    1    2    0    0 -0.18446856016E+02 -0.51224305851E+00 -0.31827243462E+01  0.18726415143E+02  0.00000000000E+00 0.  1.
         11    1    3    3    0    0  0.79020430052E+01  0.13178118582E+02  0.16079053363E+02  0.22240527205E+02  0.51100000000E-03 0. -1.
        -11    1    3    3    0    0  0.21787600014E+02 -0.24103821281E+02 -0.90420900198E+01  0.33726148711E+02  0.51100000000E-03 0.  1.
        -12    1    3    3    0    0 -0.11242787003E+02  0.11437945757E+02 -0.38542389974E+01  0.16494908941E+02  0.00000000000E+00 0.  1.
</event>
<event>
 7    1  0.1830715E-013  0.7246157E+02  0.7816164E-02  0.1226708E+00
        -11   -1    0    0    0    0  0.00000000000E+00  0.00000000000E+00  0.45593999997E+02  0.45594000000E+02  0.51100000000E-03 0. -1.
         11   -1    0    0    0    0 -0.00000000000E+00 -0.00000000000E+00 -0.45593999997E+02  0.45594000000E+02  0.51100000000E-03 0.  1.
    9900012    2    1    2    0    0 -0.17115894279E+02 -0.11507273635E+01 -0.75100617879E+01  0.72461573793E+02  0.70000004558E+02 0.  0.
        -12    1    1    2    0    0  0.17115894279E+02  0.11507273635E+01  0.75100617879E+01  0.18726426207E+02  0.00000000000E+00 0.  1.
         11    1    3    3    0    0 -0.67414813742E+01  0.96181821585E+00  0.24120243378E+02  0.25063096503E+02  0.51100000000E-03 0. -1.
        -11    1    3    3    0    0  0.83828688318E+01 -0.35995012575E+01 -0.26306778848E+02  0.27843769730E+02  0.51100000000E-03 0.  1.
        -12    1    3    3    0    0 -0.18757281736E+02  0.14869556782E+01 -0.53235263180E+01  0.19554707561E+02  0.00000000000E+00 0.  1.
</event>
<event>
 7    1  0.1830715E-013  0.7246157E+02  0.7816164E-02  0.1226708E+00
        -11   -1    0    0    0    0  0.00000000000E+00  0.00000000000E+00  0.45593999997E+02  0.45594000000E+02  0.51100000000E-03 0.  1.
         11   -1    0    0    0    0 -0.00000000000E+00 -0.00000000000E+00 -0.45593999997E+02  0.45594000000E+02  0.51100000000E-03 0. -1.
    9900012    2    1    2    0    0  0.92273490873E+01  0.66806745571E+01 -0.14862831948E+02  0.72461570622E+02  0.70000000427E+02 0.  0.
        -12    1    1    2    0    0 -0.92273490873E+01 -0.66806745571E+01  0.14862831948E+02  0.18726429378E+02  0.00000000000E+00 0.  1.
         11    1    3    3    0    0 -0.48519499517E+01  0.67555450600E+01 -0.83354181600E+01  0.11775313310E+02  0.51100000000E-03 0. -1.
        -11    1    3    3    0    0  0.90124698094E+01 -0.29262555753E+02 -0.16517040290E+01  0.30663494708E+02  0.51100000000E-03 0.  1.
        -12    1    3    3    0    0  0.50668292295E+01  0.29187685250E+02 -0.48757097590E+01  0.30022762604E+02  0.00000000000E+00 0.  1.
</event>
<event>
 7    1  0.1830715E-013  0.7246156E+02  0.7816164E-02  0.1226708E+00
        -11   -1    0    0    0    0  0.00000000000E+00  0.00000000000E+00  0.45593999997E+02  0.45594000000E+02  0.51100000000E-03 0.  1.
         11   -1    0    0    0    0 -0.00000000000E+00 -0.00000000000E+00 -0.45593999997E+02  0.45594000000E+02  0.51100000000E-03 0. -1.
    9900012    2    1    2    0    0 -0.66447168754E+01 -0.16769744150E+02 -0.50302082334E+01  0.72461559439E+02  0.69999985859E+02 0.  0.
        -12    1    1    2    0    0  0.66447168754E+01  0.16769744150E+02  0.50302082334E+01  0.18726440561E+02  0.00000000000E+00 0.  1.
         11    1    3    3    0    0 -0.11138797482E+02 -0.66841693751E-01 -0.18733535715E+02  0.21795014058E+02  0.51100000000E-03 0. -1.
        -11    1    3    3    0    0  0.14241538819E+02  0.47161330280E+01  0.21197683156E+02  0.25969310928E+02  0.51100000000E-03 0.  1.
        -12    1    3    3    0    0 -0.97474582123E+01 -0.21419035484E+02 -0.74943556744E+01  0.24697234453E+02  0.00000000000E+00 0.  1.
</event>
<event>
 7    1  0.1830715E-013  0.7246157E+02  0.7816164E-02  0.1226708E+00
        -11   -1    0    0    0    0  0.00000000000E+00  0.00000000000E+00  0.45593999997E+02  0.45594000000E+02  0.51100000000E-03 0. -1.
         11   -1    0    0    0    0 -0.00000000000E+00 -0.00000000000E+00 -0.45593999997E+02  0.45594000000E+02  0.51100000000E-03 0.  1.
    9900012    2    1    2    0    0 -0.16365431684E+02 -0.88712041393E+01 -0.20380561225E+01  0.72461567082E+02  0.69999995815E+02 0.  0.
        -12    1    1    2    0    0  0.16365431684E+02  0.88712041393E+01  0.20380561225E+01  0.18726432918E+02  0.00000000000E+00 0.  1.
         11    1    3    3    0    0  0.15580972534E+02  0.20174616738E+02 -0.13319890724E+01  0.25525596188E+02  0.51100000000E-03 0. -1.
        -11    1    3    3    0    0 -0.11924077312E+02 -0.15844389912E+02 -0.87021305852E+01  0.21655377817E+02  0.51100000000E-03 0.  1.
         12    1    3    3    0    0 -0.20022326905E+02 -0.13201430966E+02  0.79960635350E+01  0.25280593076E+02  0.00000000000E+00 0. -1.
</event>
<event>
 7    1  0.1830715E-013  0.7246103E+02  0.7816164E-02  0.1226709E+00
        -11   -1    0    0    0    0  0.00000000000E+00  0.00000000000E+00  0.45593999997E+02  0.45594000000E+02  0.51100000000E-03 0. -1.
         11   -1    0    0    0    0 -0.00000000000E+00 -0.00000000000E+00 -0.45593999997E+02  0.45594000000E+02  0.51100000000E-03 0.  1.
    9900012    2    1    2    0    0 -0.70096213916E+00 -0.60769690952E+00  0.18703976329E+02  0.72461030839E+02  0.69999297256E+02 0.  0.
        -12    1    1    2    0    0  0.70096213916E+00  0.60769690952E+00 -0.18703976329E+02  0.18726969161E+02  0.00000000000E+00 0.  1.
         11    1    3    3    0    0 -0.19639481332E+02  0.10981212863E+02  0.75933607989E+01  0.23747744975E+02  0.51100000000E-03 0. -1.
        -11    1    3    3    0    0  0.26162136636E+02 -0.19760052276E+02  0.16323964781E+02  0.36624976255E+02  0.51100000000E-03 0.  1.
        -12    1    3    3    0    0 -0.72236174429E+01  0.81711425035E+01 -0.52133492509E+01  0.12088309608E+02  0.00000000000E+00 0.  1.
</event>
<event>
 7    1  0.1830715E-013  0.7246159E+02  0.7816164E-02  0.1226708E+00
        -11   -1    0    0    0    0  0.00000000000E+00  0.00000000000E+00  0.45593999997E+02  0.45594000000E+02  0.51100000000E-03 0.  1.
         11   -1    0    0    0    0 -0.00000000000E+00 -0.00000000000E+00 -0.45593999997E+02  0.45594000000E+02  0.51100000000E-03 0. -1.
    9900012    2    1    2    0    0  0.50133586037E+01 -0.51251294869E+01 -0.17299649408E+02  0.72461585864E+02  0.70000020282E+02 0.  0.
        -12    1    1    2    0    0 -0.50133586037E+01  0.51251294869E+01  0.17299649408E+02  0.18726414136E+02  0.00000000000E+00 0.  1.
         11    1    3    3    0    0 -0.41206942084E-01 -0.28179619686E+02 -0.23366348926E+02  0.36607088467E+02  0.51100000000E-03 0. -1.
        -11    1    3    3    0    0 -0.16916870201E+00 -0.21962868589E+01  0.95807374214E+01  0.98307082051E+01  0.51100000000E-03 0.  1.
         12    1    3    3    0    0  0.52237342478E+01  0.25250777058E+02 -0.35140379043E+01  0.26023789192E+02  0.00000000000E+00 0. -1.
</event>
<event>
 7    1  0.1830715E-013  0.7246160E+02  0.7816164E-02  0.1226708E+00
        -11   -1    0    0    0    0  0.00000000000E+00  0.00000000000E+00  0.45593999997E+02  0.45594000000E+02  0.51100000000E-03 0. -1.
         11   -1    0    0    0    0 -0.00000000000E+00 -0.00000000000E+00 -0.45593999997E+02  0.45594000000E+02  0.51100000000E-03 0.  1.
    9900012    2    1    2    0    0  0.40860478321E+01  0.44093557562E+01  0.17735266735E+02  0.72461604425E+02  0.70000044461E+02 0.  0.
        -12    1    1    2    0    0 -0.40860478321E+01 -0.44093557562E+01 -0.17735266735E+02  0.18726395575E+02  0.00000000000E+00 0.  1.
         11    1    3    3    0    0  0.70836470661E+01 -0.48354217531E+01  0.25131896572E+02  0.26555067028E+02  0.51100000000E-03 0. -1.
        -11    1    3    3    0    0  0.18750794738E+02  0.65638533405E+01 -0.12414426077E+02  0.23426362267E+02  0.51100000000E-03 0.  1.
         12    1    3    3    0    0 -0.21748393972E+02  0.26809241688E+01  0.50177962401E+01  0.22480175130E+02  0.00000000000E+00 0. -1.
</event>
<event>
 7    1  0.1830715E-013  0.7246156E+02  0.7816164E-02  0.1226708E+00
        -11   -1    0    0    0    0  0.00000000000E+00  0.00000000000E+00  0.45593999997E+02  0.45594000000E+02  0.51100000000E-03 0.  1.
         11   -1    0    0    0    0 -0.00000000000E+00 -0.00000000000E+00 -0.45593999997E+02  0.45594000000E+02  0.51100000000E-03 0. -1.
    9900012    2    1    2    0    0  0.13033620593E+02  0.91271898355E+01 -0.98741494504E+01  0.72461556466E+02  0.69999981986E+02 0.  0.
        -12    1    1    2    0    0 -0.13033620593E+02 -0.91271898355E+01  0.98741494504E+01  0.18726443534E+02  0.00000000000E+00 0.  1.
         11    1    3    3    0    0 -0.13429418117E+02 -0.35784920071E+01 -0.30798339269E+02  0.33788941653E+02  0.51100000000E-03 0. -1.
        -11    1    3    3    0    0  0.21427045131E+02  0.13502372363E+02  0.11199243709E+02  0.27692153805E+02  0.51100000000E-03 0.  1.
        -12    1    3    3    0    0  0.50359935790E+01 -0.79669052036E+00  0.97249461100E+01  0.10980461008E+02  0.00000000000E+00 0.  1.
</event>
<event>
 7    1  0.1830715E-013  0.7246162E+02  0.7816164E-02  0.1226708E+00
        -11   -1    0    0    0    0  0.00000000000E+00  0.00000000000E+00  0.45593999997E+02  0.45594000000E+02  0.51100000000E-03 0. -1.
         11   -1    0    0    0    0 -0.00000000000E+00 -0.00000000000E+00 -0.45593999997E+02  0.45594000000E+02  0.51100000000E-03 0.  1.
    9900012    2    1    2    0    0 -0.57088116753E+01 -0.78355736887E+01  0.16021561757E+02  0.72461623231E+02  0.70000068960E+02 0.  0.
        -12    1    1    2    0    0  0.57088116753E+01  0.78355736887E+01 -0.16021561757E+02  0.18726376769E+02  0.00000000000E+00 0.  1.
         11    1    3    3    0    0 -0.53486712088E+00 -0.30212554686E+02  0.20851106217E+02  0.36713119920E+02  0.51100000000E-03 0. -1.
        -11    1    3    3    0    0 -0.14233782974E+02  0.38275732548E+01 -0.12001370467E+01  0.14788212331E+02  0.51100000000E-03 0.  1.
         12    1    3    3    0    0  0.90598384195E+01  0.18549407743E+02 -0.36294074139E+01  0.20960290980E+02  0.00000000000E+00 0. -1.
</event>
<event>
 7    1  0.1830715E-013  0.7246160E+02  0.7816164E-02  0.1226708E+00
        -11   -1    0    0    0    0  0.00000000000E+00  0.00000000000E+00  0.45593999997E+02  0.45594000000E+02  0.51100000000E-03 0.  1.
         11   -1    0    0    0    0 -0.00000000000E+00 -0.00000000000E+00 -0.45593999997E+02  0.45594000000E+02  0.51100000000E-03 0. -1.
    9900012    2    1    2    0    0 -0.38118950761E+00  0.37377476814E+01 -0.18345621109E+02  0.72461604804E+02  0.70000044955E+02 0.  0.
        -12    1    1    2    0    0  0.38118950761E+00 -0.37377476814E+01  0.18345621109E+02  0.18726395196E+02  0.00000000000E+00 0.  1.
         11    1    3    3    0    0 -0.16026745463E+02 -0.11708008127E+02 -0.22897709374E+02  0.30302460614E+02  0.51100000000E-03 0. -1.
        -11    1    3    3    0    0  0.16902150350E+02  0.12534798674E+02 -0.12726526212E+02  0.24592038020E+02  0.51100000000E-03 0.  1.
         12    1    3    3    0    0 -0.12565943949E+01  0.29109571343E+01  0.17278614478E+02  0.17567106170E+02  0.00000000000E+00 0. -1.
</event>
<event>
 7    1  0.1830715E-013  0.7246151E+02  0.7816164E-02  0.1226708E+00
        -11   -1    0    0    0    0  0.00000000000E+00  0.00000000000E+00  0.45593999997E+02  0.45594000000E+02  0.51100000000E-03 0. -1.
         11   -1    0    0    0    0 -0.00000000000E+00 -0.00000000000E+00 -0.45593999997E+02  0.45594000000E+02  0.51100000000E-03 0.  1.
    9900012    2    1    2    0    0 -0.16991604784E+02  0.72689392865E+01  0.30214969127E+01  0.72461506600E+02  0.69999917026E+02 0.  0.
        -12    1    1    2    0    0  0.16991604784E+02 -0.72689392865E+01 -0.30214969127E+01  0.18726493400E+02  0.00000000000E+00 0.  1.
         11    1    3    3    0    0  0.36351791095E+01 -0.17158844576E+02  0.10231313546E+02  0.20305670427E+02  0.51100000000E-03 0. -1.
        -11    1    3    3    0    0 -0.16146994818E+02  0.32332685909E+02 -0.15990859155E+02  0.39520065746E+02  0.51100000000E-03 0.  1.
        -12    1    3    3    0    0 -0.44797890752E+01 -0.79049020468E+01  0.87810425211E+01  0.12635770427E+02  0.00000000000E+00 0.  1.
</event>
<event>
 7    1  0.1830715E-013  0.7246154E+02  0.7816164E-02  0.1226708E+00
        -11   -1    0    0    0    0  0.00000000000E+00  0.00000000000E+00  0.45593999997E+02  0.45594000000E+02  0.51100000000E-03 0.  1.
         11   -1    0    0    0    0 -0.00000000000E+00 -0.00000000000E+00 -0.45593999997E+02  0.45594000000E+02  0.51100000000E-03 0. -1.
    9900012    2    1    2    0    0  0.84160906882E+01 -0.11486537197E+02 -0.12161785061E+02  0.72461544513E+02  0.69999966415E+02 0.  0.
        -12    1    1    2    0    0 -0.84160906882E+01  0.11486537197E+02  0.12161785061E+02  0.18726455487E+02  0.00000000000E+00 0.  1.
         11    1    3    3    0    0  0.15574772904E+02  0.13822507653E+02 -0.70849130130E+01  0.21996164699E+02  0.51100000000E-03 0.  1.
        -11    1    3    3    0    0 -0.22959777408E+02 -0.19405619284E+02 -0.11816295668E+02  0.32300995062E+02  0.51100000000E-03 0. -1.
        -12    1    3    3    0    0  0.15801095192E+02 -0.59034255658E+01  0.67394236205E+01  0.18164384752E+02  0.00000000000E+00 0.  1.
</event>
<event>
 7    1  0.1830715E-013  0.7246158E+02  0.7816164E-02  0.1226708E+00
        -11   -1    0    0    0    0  0.00000000000E+00  0.00000000000E+00  0.45593999997E+02  0.45594000000E+02  0.51100000000E-03 0. -1.
         11   -1    0    0    0    0 -0.00000000000E+00 -0.00000000000E+00 -0.45593999997E+02  0.45594000000E+02  0.51100000000E-03 0.  1.
    9900012    2    1    2    0    0 -0.98883223985E+01 -0.15902498597E+02 -0.10252967172E+00  0.72461577656E+02  0.70000009589E+02 0.  0.
        -12    1    1    2    0    0  0.98883223985E+01  0.15902498597E+02  0.10252967172E+00  0.18726422344E+02  0.00000000000E+00 0.  1.
         11    1    3    3    0    0 -0.26742781691E+02 -0.15731965701E+00 -0.35703673339E+01  0.26980523442E+02  0.51100000000E-03 0. -1.
        -11    1    3    3    0    0  0.19463635176E+02  0.79228390501E+01  0.50649315016E+01  0.21616151467E+02  0.51100000000E-03 0.  1.
         12    1    3    3    0    0 -0.26091758837E+01 -0.23668017990E+02 -0.15970938395E+01  0.23864902747E+02  0.00000000000E+00 0. -1.
</event>
<event>
 7    1  0.1830715E-013  0.7246150E+02  0.7816164E-02  0.1226708E+00
        -11   -1    0    0    0    0  0.00000000000E+00  0.00000000000E+00  0.45593999997E+02  0.45594000000E+02  0.51100000000E-03 0.  1.
         11   -1    0    0    0    0 -0.00000000000E+00 -0.00000000000E+00 -0.45593999997E+02  0.45594000000E+02  0.51100000000E-03 0. -1.
    9900012    2    1    2    0    0  0.50164734064E+00  0.73017435790E+01 -0.17237013942E+02  0.72461501155E+02  0.69999909933E+02 0.  0.
        -12    1    1    2    0    0 -0.50164734064E+00 -0.73017435790E+01  0.17237013942E+02  0.18726498845E+02  0.00000000000E+00 0.  1.
         11    1    3    3    0    0 -0.14188071652E+01 -0.17686846259E+02 -0.83375155435E+01  0.19604889953E+02  0.51100000000E-03 0.  1.
        -11    1    3    3    0    0 -0.16028913094E+02  0.20777366012E+02  0.84213747204E+01  0.27559835736E+02  0.51100000000E-03 0. -1.
         12    1    3    3    0    0  0.17949367600E+02  0.42112238263E+01 -0.17320873119E+02  0.25296775466E+02  0.00000000000E+00 0. -1.
</event>
<event>
 7    1  0.1830715E-013  0.7246155E+02  0.7816164E-02  0.1226708E+00
        -11   -1    0    0    0    0  0.00000000000E+00  0.00000000000E+00  0.45593999997E+02  0.45594000000E+02  0.51100000000E-03 0.  1.
         11   -1    0    0    0    0 -0.00000000000E+00 -0.00000000000E+00 -0.45593999997E+02  0.45594000000E+02  0.51100000000E-03 0. -1.
    9900012    2    1    2    0    0  0.63002613353E+01  0.17425281117E+02 -0.27103775036E+01  0.72461551829E+02  0.69999975945E+02 0.  0.
        -12    1    1    2    0    0 -0.63002613353E+01 -0.17425281117E+02  0.27103775036E+01  0.18726448171E+02  0.00000000000E+00 0.  1.
         11    1    3    3    0    0  0.19198563102E+02 -0.66615718878E+01 -0.17730247609E+02  0.26968927412E+02  0.51100000000E-03 0. -1.
        -11    1    3    3    0    0 -0.16746965962E+02  0.17035036786E+02  0.23710439021E+02  0.33657662813E+02  0.51100000000E-03 0.  1.
        -12    1    3    3    0    0  0.38486641950E+01  0.70518162190E+01 -0.86905689161E+01  0.11834961604E+02  0.00000000000E+00 0.  1.
</event>
<event>
 7    1  0.1830715E-013  0.7246160E+02  0.7816164E-02  0.1226708E+00
        -11   -1    0    0    0    0  0.00000000000E+00  0.00000000000E+00  0.45593999997E+02  0.45594000000E+02  0.51100000000E-03 0.  1.
         11   -1    0    0    0    0 -0.00000000000E+00 -0.00000000000E+00 -0.45593999997E+02  0.45594000000E+02  0.51100000000E-03 0. -1.
    9900012    2    1    2    0    0  0.24082631359E+01  0.20951327010E+01 -0.18452335777E+02  0.72461601308E+02  0.70000040401E+02 0.  0.
        -12    1    1    2    0    0 -0.24082631359E+01 -0.20951327010E+01  0.18452335777E+02  0.18726398692E+02  0.00000000000E+00 0.  1.
         11    1    3    3    0    0  0.16500242933E+02 -0.25281112235E+02 -0.11739100672E+02  0.32391343559E+02  0.51100000000E-03 0. -1.
        -11    1    3    3    0    0 -0.30776277674E+01  0.27744749488E+02 -0.17101509698E+01  0.27967258240E+02  0.51100000000E-03 0.  1.
         12    1    3    3    0    0 -0.11014352030E+02 -0.36850455178E+00 -0.50030841349E+01  0.12102999509E+02  0.00000000000E+00 0. -1.
</event>
<event>
 7    1  0.1830715E-013  0.7246157E+02  0.7816164E-02  0.1226708E+00
        -11   -1    0    0    0    0  0.00000000000E+00  0.00000000000E+00  0.45593999997E+02  0.45594000000E+02  0.51100000000E-03 0.  1.
         11   -1    0    0    0    0 -0.00000000000E+00 -0.00000000000E+00 -0.45593999997E+02  0.45594000000E+02  0.51100000000E-03 0. -1.
    9900012    2    1    2    0    0  0.18714553268E+02 -0.94983791775E-01 -0.65991148348E+00  0.72461574577E+02  0.70000005579E+02 0.  0.
        -12    1    1    2    0    0 -0.18714553268E+02  0.94983791775E-01  0.65991148348E+00  0.18726425423E+02  0.00000000000E+00 0.  1.
         11    1    3    3    0    0  0.77735154733E+01 -0.14662863069E+02  0.10260240017E+02  0.19511525355E+02  0.51100000000E-03 0. -1.
        -11    1    3    3    0    0  0.25013287780E+02 -0.15973879025E+00 -0.18609738452E+02  0.31177114163E+02  0.51100000000E-03 0.  1.
        -12    1    3    3    0    0 -0.14072249985E+02  0.14727618068E+02  0.76895869509E+01  0.21772935059E+02  0.00000000000E+00 0.  1.
</event>
<event>
 7    1  0.1830715E-013  0.7246151E+02  0.7816164E-02  0.1226708E+00
        -11   -1    0    0    0    0  0.00000000000E+00  0.00000000000E+00  0.45593999997E+02  0.45594000000E+02  0.51100000000E-03 0.  1.
         11   -1    0    0    0    0 -0.00000000000E+00 -0.00000000000E+00 -0.45593999997E+02  0.45594000000E+02  0.51100000000E-03 0. -1.
    9900012    2    1    2    0    0 -0.11853269485E+02  0.49979748470E+01 -0.13608876557E+02  0.72461514179E+02  0.69999926899E+02 0.  0.
        -12    1    1    2    0    0  0.11853269485E+02 -0.49979748470E+01  0.13608876557E+02  0.18726485821E+02  0.00000000000E+00 0.  1.
         11    1    3    3    0    0 -0.17987249992E+02  0.59510111539E+01 -0.12955584048E+02  0.22952186265E+02  0.51100000000E-03 0. -1.
        -11    1    3    3    0    0  0.26145411646E+02  0.36046246381E+01 -0.82073602659E+01  0.27639403607E+02  0.51100000000E-03 0.  1.
        -12    1    3    3    0    0 -0.20011431139E+02 -0.45576609450E+01  0.75540677570E+01  0.21869924307E+02  0.00000000000E+00 0.  1.
</event>
<event>
 7    1  0.1830715E-013  0.7246160E+02  0.7816164E-02  0.1226708E+00
        -11   -1    0    0    0    0  0.00000000000E+00  0.00000000000E+00  0.45593999997E+02  0.45594000000E+02  0.51100000000E-03 0.  1.
         11   -1    0    0    0    0 -0.00000000000E+00 -0.00000000000E+00 -0.45593999997E+02  0.45594000000E+02  0.51100000000E-03 0. -1.
    9900012    2    1    2    0    0  0.54354511315E+01  0.12339583353E+02 -0.12994945239E+02  0.72461600236E+02  0.70000039005E+02 0.  0.
        -12    1    1    2    0    0 -0.54354511315E+01 -0.12339583353E+02  0.12994945239E+02  0.18726399764E+02  0.00000000000E+00 0.  1.
         11    1    3    3    0    0  0.19153434847E+02  0.66062013340E+01 -0.31529462024E+02  0.37478032743E+02  0.51100000000E-03 0. -1.
        -11    1    3    3    0    0 -0.91252863537E+01  0.93657052574E+01 -0.23570322150E+01  0.13286944236E+02  0.51100000000E-03 0.  1.
         12    1    3    3    0    0 -0.45926973622E+01 -0.36323232383E+01  0.20891548999E+02  0.21696623257E+02  0.00000000000E+00 0. -1.
</event>
<event>
 7    1  0.1830715E-013  0.7246163E+02  0.7816164E-02  0.1226708E+00
        -11   -1    0    0    0    0  0.00000000000E+00  0.00000000000E+00  0.45593999997E+02  0.45594000000E+02  0.51100000000E-03 0.  1.
         11   -1    0    0    0    0 -0.00000000000E+00 -0.00000000000E+00 -0.45593999997E+02  0.45594000000E+02  0.51100000000E-03 0. -1.
    9900012    2    1    2    0    0  0.18343203071E+02 -0.37390244844E+01  0.47294157593E+00  0.72461626173E+02  0.70000072792E+02 0.  0.
        -12    1    1    2    0    0 -0.18343203071E+02  0.37390244844E+01 -0.47294157593E+00  0.18726373827E+02  0.00000000000E+00 0.  1.
         11    1    3    3    0    0  0.17583288154E+02 -0.74943104835E+01  0.14877215083E+02  0.24221235328E+02  0.51100000000E-03 0. -1.
        -11    1    3    3    0    0 -0.32493592742E+01 -0.20642169239E+02 -0.98428209795E+01  0.23098454746E+02  0.51100000000E-03 0.  1.
        -12    1    3    3    0    0  0.40092741905E+01  0.24397455238E+02 -0.45614525273E+01  0.25141936098E+02  0.00000000000E+00 0.  1.
</event>
<event>
 7    1  0.1830715E-013  0.7246163E+02  0.7816164E-02  0.1226708E+00
        -11   -1    0    0    0    0  0.00000000000E+00  0.00000000000E+00  0.45593999997E+02  0.45594000000E+02  0.51100000000E-03 0. -1.
         11   -1    0    0    0    0 -0.00000000000E+00 -0.00000000000E+00 -0.45593999997E+02  0.45594000000E+02  0.51100000000E-03 0.  1.
    9900012    2    1    2    0    0  0.16016221331E+02 -0.91694414588E+01  0.31747539407E+01  0.72461626487E+02  0.70000073201E+02 0.  0.
        -12    1    1    2    0    0 -0.16016221331E+02  0.91694414588E+01 -0.31747539407E+01  0.18726373513E+02  0.00000000000E+00 0.  1.
         11    1    3    3    0    0  0.96750458044E+00  0.15158720485E+02  0.15208649243E+02  0.21494787366E+02  0.51100000000E-03 0. -1.
        -11    1    3    3    0    0  0.64868166409E+01 -0.28719684686E+02 -0.22270893747E+02  0.36917364304E+02  0.51100000000E-03 0.  1.
         12    1    3    3    0    0  0.85619001092E+01  0.43915227419E+01  0.10236998445E+02  0.14049474817E+02  0.00000000000E+00 0. -1.
</event>
<event>
 7    1  0.1830715E-013  0.7246159E+02  0.7816164E-02  0.1226708E+00
        -11   -1    0    0    0    0  0.00000000000E+00  0.00000000000E+00  0.45593999997E+02  0.45594000000E+02  0.51100000000E-03 0.  1.
         11   -1    0    0    0    0 -0.00000000000E+00 -0.00000000000E+00 -0.45593999997E+02  0.45594000000E+02  0.51100000000E-03 0. -1.
    9900012    2    1    2    0    0  0.13672400855E+02  0.79774055214E+01  0.10005242513E+02  0.72461590260E+02  0.70000026009E+02 0.  0.
        -12    1    1    2    0    0 -0.13672400855E+02 -0.79774055214E+01 -0.10005242513E+02  0.18726409740E+02  0.00000000000E+00 0.  1.
         11    1    3    3    0    0 -0.21256853244E+01 -0.24847664565E+01 -0.38387038004E+01  0.50426431135E+01  0.51100000000E-03 0.  1.
        -11    1    3    3    0    0  0.61589151658E+01  0.32228142867E+02  0.24882593097E+02  0.41179228601E+02  0.51100000000E-03 0. -1.
        -12    1    3    3    0    0  0.96391710138E+01 -0.21765970889E+02 -0.11038646784E+02  0.26239718546E+02  0.00000000000E+00 0.  1.
</event>
<event>
 7    1  0.1830715E-013  0.7246137E+02  0.7816164E-02  0.1226709E+00
        -11   -1    0    0    0    0  0.00000000000E+00  0.00000000000E+00  0.45593999997E+02  0.45594000000E+02  0.51100000000E-03 0. -1.
         11   -1    0    0    0    0 -0.00000000000E+00 -0.00000000000E+00 -0.45593999997E+02  0.45594000000E+02  0.51100000000E-03 0.  1.
    9900012    2    1    2    0    0 -0.45788952640E+00 -0.15865050332E+02 -0.99386643834E+01  0.72461373646E+02  0.69999743829E+02 0.  0.
        -12    1    1    2    0    0  0.45788952640E+00  0.15865050332E+02  0.99386643834E+01  0.18726626354E+02  0.00000000000E+00 0.  1.
         11    1    3    3    0    0  0.81993851683E+01 -0.39595015036E+02 -0.11564005270E+02  0.42056169000E+02  0.51100000000E-03 0. -1.
        -11    1    3    3    0    0  0.47599064412E+01  0.38781514340E+01 -0.12714321266E+01  0.62700325188E+01  0.51100000000E-03 0.  1.
         12    1    3    3    0    0 -0.13417181136E+02  0.19851813270E+02  0.28967730130E+01  0.24135172127E+02  0.00000000000E+00 0. -1.
</event>
<event>
 7    1  0.1830715E-013  0.7246162E+02  0.7816164E-02  0.1226708E+00
        -11   -1    0    0    0    0  0.00000000000E+00  0.00000000000E+00  0.45593999997E+02  0.45594000000E+02  0.51100000000E-03 0.  1.
         11   -1    0    0    0    0 -0.00000000000E+00 -0.00000000000E+00 -0.45593999997E+02  0.45594000000E+02  0.51100000000E-03 0. -1.
    9900012    2    1    2    0    0 -0.65769330217E+01  0.20739484506E+01 -0.17410343640E+02  0.72461618187E+02  0.70000062389E+02 0.  0.
        -12    1    1    2    0    0  0.65769330217E+01 -0.20739484506E+01  0.17410343640E+02  0.18726381813E+02  0.00000000000E+00 0.  1.
         11    1    3    3    0    0  0.98382984225E+01  0.24028096200E+01 -0.25216593524E+02  0.27174292983E+02  0.51100000000E-03 0. -1.
        -11    1    3    3    0    0 -0.21047233499E+02 -0.16328010866E+02  0.10070095257E+02  0.28478005470E+02  0.51100000000E-03 0.  1.
        -12    1    3    3    0    0  0.46320020547E+01  0.15999149697E+02 -0.22638453733E+01  0.16809319734E+02  0.00000000000E+00 0.  1.
</event>
<event>
 7    1  0.1830715E-013  0.7246157E+02  0.7816164E-02  0.1226708E+00
        -11   -1    0    0    0    0  0.00000000000E+00  0.00000000000E+00  0.45593999997E+02  0.45594000000E+02  0.51100000000E-03 0.  1.
         11   -1    0    0    0    0 -0.00000000000E+00 -0.00000000000E+00 -0.45593999997E+02  0.45594000000E+02  0.51100000000E-03 0. -1.
    9900012    2    1    2    0    0  0.15744733655E+02  0.79216607014E+01 -0.63269203678E+01  0.72461567679E+02  0.69999996592E+02 0.  0.
        -12    1    1    2    0    0 -0.15744733655E+02 -0.79216607014E+01  0.63269203678E+01  0.18726432321E+02  0.00000000000E+00 0.  1.
         11    1    3    3    0    0  0.12256262419E+02 -0.37790237701E+01 -0.10645600850E+02  0.16668107477E+02  0.51100000000E-03 0. -1.
        -11    1    3    3    0    0  0.13867970756E+02  0.12551683216E+02  0.25831452723E+02  0.31892464854E+02  0.51100000000E-03 0.  1.
        -12    1    3    3    0    0 -0.10379499520E+02 -0.85099874495E+00 -0.21512772240E+02  0.23900995348E+02  0.00000000000E+00 0.  1.
</event>
<event>
 7    1  0.1830715E-013  0.7246158E+02  0.7816164E-02  0.1226708E+00
        -11   -1    0    0    0    0  0.00000000000E+00  0.00000000000E+00  0.45593999997E+02  0.45594000000E+02  0.51100000000E-03 0. -1.
         11   -1    0    0    0    0 -0.00000000000E+00 -0.00000000000E+00 -0.45593999997E+02  0.45594000000E+02  0.51100000000E-03 0.  1.
    9900012    2    1    2    0    0  0.10777818627E+02 -0.17316774764E+01 -0.15215734637E+02  0.72461583851E+02  0.70000017660E+02 0.  0.
        -12    1    1    2    0    0 -0.10777818627E+02  0.17316774764E+01  0.15215734637E+02  0.18726416149E+02  0.00000000000E+00 0.  1.
         11    1    3    3    0    0  0.55346258673E+01  0.15891126362E+02  0.57260092011E+01  0.17774902592E+02  0.51100000000E-03 0. -1.
        -11    1    3    3    0    0 -0.15100146056E+02 -0.41473130459E+01 -0.25440666075E+02  0.29873769548E+02  0.51100000000E-03 0.  1.
        -12    1    3    3    0    0  0.20343338816E+02 -0.13475490792E+02  0.44989222364E+01  0.24812911711E+02  0.00000000000E+00 0.  1.
</event>
<event>
 7    1  0.1830715E-013  0.7246160E+02  0.7816164E-02  0.1226708E+00
        -11   -1    0    0    0    0  0.00000000000E+00  0.00000000000E+00  0.45593999997E+02  0.45594000000E+02  0.51100000000E-03 0.  1.
         11   -1    0    0    0    0 -0.00000000000E+00 -0.00000000000E+00 -0.45593999997E+02  0.45594000000E+02  0.51100000000E-03 0. -1.
    9900012    2    1    2    0    0  0.11141657319E+02 -0.10938620241E+01 -0.15011498754E+02  0.72461597334E+02  0.70000035225E+02 0.  0.
        -12    1    1    2    0    0 -0.11141657319E+02  0.10938620241E+01  0.15011498754E+02  0.18726402666E+02  0.00000000000E+00 0.  1.
         11    1    3    3    0    0 -0.40263908244E+01 -0.13982389794E+02 -0.93712903679E+01  0.17307227705E+02  0.51100000000E-03 0. -1.
        -11    1    3    3    0    0  0.79948152298E+01  0.10216200268E+02  0.22510768379E+02  0.25981195349E+02  0.51100000000E-03 0.  1.
        -12    1    3    3    0    0  0.71732329140E+01  0.26723275017E+01 -0.28150976766E+02  0.29173174280E+02  0.00000000000E+00 0.  1.
</event>
<event>
 7    1  0.1830715E-013  0.7246156E+02  0.7816164E-02  0.1226708E+00
        -11   -1    0    0    0    0  0.00000000000E+00  0.00000000000E+00  0.45593999997E+02  0.45594000000E+02  0.51100000000E-03 0. -1.
         11   -1    0    0    0    0 -0.00000000000E+00 -0.00000000000E+00 -0.45593999997E+02  0.45594000000E+02  0.51100000000E-03 0.  1.
    9900012    2    1    2    0    0 -0.92895143056E+00 -0.61360336398E+01  0.17668206994E+02  0.72461564195E+02  0.69999992054E+02 0.  0.
        -12    1    1    2    0    0  0.92895143056E+00  0.61360336398E+01 -0.17668206994E+02  0.18726435805E+02  0.00000000000E+00 0.  1.
         11    1    3    3    0    0 -0.10804588769E+01 -0.16176530835E+02 -0.16474556662E+02  0.23114033805E+02  0.51100000000E-03 0. -1.
        -11    1    3    3    0    0  0.90943891864E+01  0.19548072052E+02  0.15348179546E+02  0.26465102518E+02  0.51100000000E-03 0.  1.
        -12    1    3    3    0    0 -0.89428817401E+01 -0.95075748568E+01  0.18794584110E+02  0.22882427873E+02  0.00000000000E+00 0.  1.
</event>
<event>
 7    1  0.1830715E-013  0.7246159E+02  0.7816164E-02  0.1226708E+00
        -11   -1    0    0    0    0  0.00000000000E+00  0.00000000000E+00  0.45593999997E+02  0.45594000000E+02  0.51100000000E-03 0. -1.
         11   -1    0    0    0    0 -0.00000000000E+00 -0.00000000000E+00 -0.45593999997E+02  0.45594000000E+02  0.51100000000E-03 0.  1.
    9900012    2    1    2    0    0 -0.13120806635E+02 -0.79928882488E+01  0.10706853052E+02  0.72461587327E+02  0.70000022189E+02 0.  0.
        -12    1    1    2    0    0  0.13120806635E+02  0.79928882488E+01 -0.10706853052E+02  0.18726412673E+02  0.00000000000E+00 0.  1.
         11    1    3    3    0    0 -0.52305582050E+01 -0.12433423774E+01  0.71209749870E+01  0.89226074905E+01  0.51100000000E-03 0. -1.
        -11    1    3    3    0    0 -0.24438110019E+02 -0.75670712563E+01 -0.21539336754E+02  0.33442858980E+02  0.51100000000E-03 0.  1.
        -12    1    3    3    0    0  0.16547861589E+02  0.81752538492E+00  0.25125214819E+02  0.30096120857E+02  0.00000000000E+00 0.  1.
</event>
<event>
 7    1  0.1830715E-013  0.7246151E+02  0.7816164E-02  0.1226708E+00
        -11   -1    0    0    0    0  0.00000000000E+00  0.00000000000E+00  0.45593999997E+02  0.45594000000E+02  0.51100000000E-03 0.  1.
         11   -1    0    0    0    0 -0.00000000000E+00 -0.00000000000E+00 -0.45593999997E+02  0.45594000000E+02  0.51100000000E-03 0. -1.
    9900012    2    1    2    0    0  0.21258041878E+01 -0.44685308952E+01 -0.18060859927E+02  0.72461508788E+02  0.69999919877E+02 0.  0.
        -12    1    1    2    0    0 -0.21258041878E+01  0.44685308952E+01  0.18060859927E+02  0.18726491212E+02  0.00000000000E+00 0.  1.
         11    1    3    3    0    0  0.14257121196E+01  0.21411032563E+01 -0.19431194555E+02  0.19600721933E+02  0.51100000000E-03 0. -1.
        -11    1    3    3    0    0  0.23675647492E+02 -0.14084357971E+02 -0.47065884752E+01  0.27947404154E+02  0.51100000000E-03 0.  1.
        -12    1    3    3    0    0 -0.22975555424E+02  0.74747238197E+01  0.60769231031E+01  0.24913382701E+02  0.00000000000E+00 0.  1.
</event>
<event>
 7    1  0.1830715E-013  0.7246158E+02  0.7816164E-02  0.1226708E+00
        -11   -1    0    0    0    0  0.00000000000E+00  0.00000000000E+00  0.45593999997E+02  0.45594000000E+02  0.51100000000E-03 0. -1.
         11   -1    0    0    0    0 -0.00000000000E+00 -0.00000000000E+00 -0.45593999997E+02  0.45594000000E+02  0.51100000000E-03 0.  1.
    9900012    2    1    2    0    0 -0.16500627438E+02 -0.58246141951E+00  0.88356610019E+01  0.72461578225E+02  0.70000010331E+02 0.  0.
        -12    1    1    2    0    0  0.16500627438E+02  0.58246141951E+00 -0.88356610019E+01  0.18726421775E+02  0.00000000000E+00 0.  1.
         11    1    3    3    0    0 -0.22796287643E+02  0.18672351365E+01  0.27049738574E+02  0.35423800679E+02  0.51100000000E-03 0. -1.
        -11    1    3    3    0    0  0.92516569908E+01 -0.79112382387E+01 -0.25020155230E+02  0.27824252290E+02  0.51100000000E-03 0.  1.
         12    1    3    3    0    0 -0.29559967857E+01  0.54615416827E+01  0.68060776576E+01  0.92135252553E+01  0.00000000000E+00 0. -1.
</event>
<event>
 7    1  0.1830715E-013  0.7246158E+02  0.7816164E-02  0.1226708E+00
        -11   -1    0    0    0    0  0.00000000000E+00  0.00000000000E+00  0.45593999997E+02  0.45594000000E+02  0.51100000000E-03 0. -1.
         11   -1    0    0    0    0 -0.00000000000E+00 -0.00000000000E+00 -0.45593999997E+02  0.45594000000E+02  0.51100000000E-03 0.  1.
    9900012    2    1    2    0    0  0.17462368721E+02 -0.67203954523E+01  0.76218018618E+00  0.72461576022E+02  0.70000007461E+02 0.  0.
        -12    1    1    2    0    0 -0.17462368721E+02  0.67203954523E+01 -0.76218018618E+00  0.18726423978E+02  0.00000000000E+00 0.  1.
         11    1    3    3    0    0  0.21850858800E+02  0.12763029546E+02 -0.95065579498E+01  0.27032010614E+02  0.51100000000E-03 0. -1.
        -11    1    3    3    0    0 -0.15356035210E+02  0.13973247023E+01  0.14844749011E+02  0.21403899344E+02  0.51100000000E-03 0.  1.
         12    1    3    3    0    0  0.10967545130E+02 -0.20880749701E+02 -0.45760108752E+01  0.24025666063E+02  0.00000000000E+00 0. -1.
</event>
<event>
 7    1  0.1830715E-013  0.7246157E+02  0.7816164E-02  0.1226708E+00
        -11   -1    0    0    0    0  0.00000000000E+00  0.00000000000E+00  0.45593999997E+02  0.45594000000E+02  0.51100000000E-03 0.  1.
         11   -1    0    0    0    0 -0.00000000000E+00 -0.00000000000E+00 -0.45593999997E+02  0.45594000000E+02  0.51100000000E-03 0. -1.
    9900012    2    1    2    0    0  0.10633451941E+02  0.23146070251E+01 -0.15239801303E+02  0.72461568156E+02  0.69999997215E+02 0.  0.
        -12    1    1    2    0    0 -0.10633451941E+02 -0.23146070251E+01  0.15239801303E+02  0.18726431844E+02  0.00000000000E+00 0.  1.
         11    1    3    3    0    0  0.17280417937E+02  0.64929596156E-01  0.15600105160E+02  0.23280471241E+02  0.51100000000E-03 0.  1.
        -11    1    3    3    0    0 -0.39279279931E+01  0.11711451004E+02 -0.36004054866E+02  0.38064138897E+02  0.51100000000E-03 0. -1.
        -12    1    3    3    0    0 -0.27190380026E+01 -0.94617735751E+01  0.51641484033E+01  0.11116958018E+02  0.00000000000E+00 0.  1.
</event>
<event>
 7    1  0.1830715E-013  0.7246159E+02  0.7816164E-02  0.1226708E+00
        -11   -1    0    0    0    0  0.00000000000E+00  0.00000000000E+00  0.45593999997E+02  0.45594000000E+02  0.51100000000E-03 0.  1.
         11   -1    0    0    0    0 -0.00000000000E+00 -0.00000000000E+00 -0.45593999997E+02  0.45594000000E+02  0.51100000000E-03 0. -1.
    9900012    2    1    2    0    0 -0.68491925590E+01  0.17142756245E+02 -0.31452895360E+01  0.72461591464E+02  0.70000027578E+02 0.  0.
        -12    1    1    2    0    0  0.68491925590E+01 -0.17142756245E+02  0.31452895360E+01  0.18726408536E+02  0.00000000000E+00 0.  1.
         11    1    3    3    0    0  0.12551820803E+02  0.97877359472E+01  0.18138324318E+02  0.24131862543E+02  0.51100000000E-03 0.  1.
        -11    1    3    3    0    0 -0.29824152559E+02 -0.12696736763E+01 -0.15147668043E+02  0.33474527548E+02  0.51100000000E-03 0. -1.
         12    1    3    3    0    0  0.10423139197E+02  0.86246939739E+01 -0.61359458109E+01  0.14855201374E+02  0.00000000000E+00 0. -1.
</event>
<event>
 7    1  0.1830715E-013  0.7246157E+02  0.7816164E-02  0.1226708E+00
        -11   -1    0    0    0    0  0.00000000000E+00  0.00000000000E+00  0.45593999997E+02  0.45594000000E+02  0.51100000000E-03 0.  1.
         11   -1    0    0    0    0 -0.00000000000E+00 -0.00000000000E+00 -0.45593999997E+02  0.45594000000E+02  0.51100000000E-03 0. -1.
    9900012    2    1    2    0    0  0.13614244904E+02  0.75192615168E+01 -0.10430357852E+02  0.72461566197E+02  0.69999994662E+02 0.  0.
        -12    1    1    2    0    0 -0.13614244904E+02 -0.75192615168E+01  0.10430357852E+02  0.18726433803E+02  0.00000000000E+00 0.  1.
         11    1    3    3    0    0  0.21124213407E+01  0.31412770035E+02  0.11949653378E+02  0.33675193560E+02  0.51100000000E-03 0. -1.
        -11    1    3    3    0    0 -0.24862122793E+01 -0.11477843922E+02 -0.36043452084E+01  0.12284683848E+02  0.51100000000E-03 0.  1.
         12    1    3    3    0    0  0.13988035843E+02 -0.12415664596E+02 -0.18775666022E+02  0.26501688789E+02  0.00000000000E+00 0. -1.
</event>
<event>
 7    1  0.1830715E-013  0.7246167E+02  0.7816164E-02  0.1226708E+00
        -11   -1    0    0    0    0  0.00000000000E+00  0.00000000000E+00  0.45593999997E+02  0.45594000000E+02  0.51100000000E-03 0. -1.
         11   -1    0    0    0    0 -0.00000000000E+00 -0.00000000000E+00 -0.45593999997E+02  0.45594000000E+02  0.51100000000E-03 0.  1.
    9900012    2    1    2    0    0  0.58056725627E+01 -0.17790224703E+02 -0.69091989582E+00  0.72461673633E+02  0.70000134618E+02 0.  0.
        -12    1    1    2    0    0 -0.58056725627E+01  0.17790224703E+02  0.69091989582E+00  0.18726326367E+02  0.00000000000E+00 0.  1.
         11    1    3    3    0    0  0.28197987528E+02 -0.19401725359E+02 -0.71056758323E+01  0.34957747022E+02  0.51100000000E-03 0. -1.
        -11    1    3    3    0    0 -0.25326258223E+02 -0.82134420700E+01  0.56803308527E+01  0.27223999432E+02  0.51100000000E-03 0.  1.
        -12    1    3    3    0    0  0.29339432578E+01  0.98249427257E+01  0.73442508383E+00  0.10279927179E+02  0.00000000000E+00 0.  1.
</event>
<event>
 7    1  0.1830715E-013  0.7246165E+02  0.7816164E-02  0.1226708E+00
        -11   -1    0    0    0    0  0.00000000000E+00  0.00000000000E+00  0.45593999997E+02  0.45594000000E+02  0.51100000000E-03 0.  1.
         11   -1    0    0    0    0 -0.00000000000E+00 -0.00000000000E+00 -0.45593999997E+02  0.45594000000E+02  0.51100000000E-03 0. -1.
    9900012    2    1    2    0    0  0.31151913507E+01 -0.18372159508E+02 -0.18535179719E+01  0.72461649822E+02  0.70000103599E+02 0.  0.
        -12    1    1    2    0    0 -0.31151913507E+01  0.18372159508E+02  0.18535179719E+01  0.18726350178E+02  0.00000000000E+00 0.  1.
         11    1    3    3    0    0  0.89878342363E+01  0.17507868634E+02  0.68313366471E+01  0.20832037563E+02  0.51100000000E-03 0. -1.
        -11    1    3    3    0    0 -0.56800133104E+01 -0.34823203804E+02  0.69470783856E+01  0.35960811625E+02  0.51100000000E-03 0.  1.
        -12    1    3    3    0    0 -0.19262957519E+00 -0.10568243387E+01 -0.15631933005E+02  0.15668800634E+02  0.00000000000E+00 0.  1.
</event>
<event>
 7    1  0.1830715E-013  0.7246159E+02  0.7816164E-02  0.1226708E+00
        -11   -1    0    0    0    0  0.00000000000E+00  0.00000000000E+00  0.45593999997E+02  0.45594000000E+02  0.51100000000E-03 0. -1.
         11   -1    0    0    0    0 -0.00000000000E+00 -0.00000000000E+00 -0.45593999997E+02  0.45594000000E+02  0.51100000000E-03 0.  1.
    9900012    2    1    2    0    0 -0.13954583552E+02 -0.99261718250E+01  0.75775380338E+01  0.72461591592E+02  0.70000027744E+02 0.  0.
        -12    1    1    2    0    0  0.13954583552E+02  0.99261718250E+01 -0.75775380338E+01  0.18726408408E+02  0.00000000000E+00 0.  1.
         11    1    3    3    0    0 -0.50200740480E+01  0.11565352137E+02  0.39305533468E+01  0.13206353145E+02  0.51100000000E-03 0. -1.
        -11    1    3    3    0    0 -0.21639872571E+02 -0.34634638169E+02  0.32894693101E+01  0.40971488313E+02  0.51100000000E-03 0.  1.
        -12    1    3    3    0    0  0.12705363067E+02  0.13143114207E+02  0.35751537698E+00  0.18283750134E+02  0.00000000000E+00 0.  1.
</event>
<event>
 7    1  0.1830715E-013  0.7246154E+02  0.7816164E-02  0.1226708E+00
        -11   -1    0    0    0    0  0.00000000000E+00  0.00000000000E+00  0.45593999997E+02  0.45594000000E+02  0.51100000000E-03 0.  1.
         11   -1    0    0    0    0 -0.00000000000E+00 -0.00000000000E+00 -0.45593999997E+02  0.45594000000E+02  0.51100000000E-03 0. -1.
    9900012    2    1    2    0    0 -0.95215601366E+01  0.16105080483E+02 -0.80415180746E+00  0.72461537843E+02  0.69999957726E+02 0.  0.
        -12    1    1    2    0    0  0.95215601366E+01 -0.16105080483E+02  0.80415180746E+00  0.18726462157E+02  0.00000000000E+00 0.  1.
         11    1    3    3    0    0  0.11788500366E+02  0.10269114947E+02 -0.25185400434E+02  0.29643344244E+02  0.51100000000E-03 0. -1.
        -11    1    3    3    0    0 -0.25489654273E+02  0.61456706624E+01  0.10374567571E+02  0.28197932467E+02  0.51100000000E-03 0.  1.
        -12    1    3    3    0    0  0.41795937707E+01 -0.30970512646E+00  0.14006681056E+02  0.14620261131E+02  0.00000000000E+00 0.  1.
</event>
<event>
 7    1  0.1830715E-013  0.7246157E+02  0.7816164E-02  0.1226708E+00
        -11   -1    0    0    0    0  0.00000000000E+00  0.00000000000E+00  0.45593999997E+02  0.45594000000E+02  0.51100000000E-03 0.  1.
         11   -1    0    0    0    0 -0.00000000000E+00 -0.00000000000E+00 -0.45593999997E+02  0.45594000000E+02  0.51100000000E-03 0. -1.
    9900012    2    1    2    0    0 -0.12549221888E+02  0.37771013720E+01 -0.13376457374E+02  0.72461572774E+02  0.70000003230E+02 0.  0.
        -12    1    1    2    0    0  0.12549221888E+02 -0.37771013720E+01  0.13376457374E+02  0.18726427226E+02  0.00000000000E+00 0.  1.
         11    1    3    3    0    0  0.62961701970E+01  0.13340191312E+02 -0.37870642564E+00  0.14756215036E+02  0.51100000000E-03 0. -1.
        -11    1    3    3    0    0 -0.19828069450E+02  0.96040972151E+00 -0.31010805014E+02  0.36820439335E+02  0.51100000000E-03 0.  1.
        -12    1    3    3    0    0  0.98267736481E+00 -0.10523499661E+02  0.18013054065E+02  0.20884918403E+02  0.00000000000E+00 0.  1.
</event>
<event>
 7    1  0.1830715E-013  0.7246160E+02  0.7816164E-02  0.1226708E+00
        -11   -1    0    0    0    0  0.00000000000E+00  0.00000000000E+00  0.45593999997E+02  0.45594000000E+02  0.51100000000E-03 0. -1.
         11   -1    0    0    0    0 -0.00000000000E+00 -0.00000000000E+00 -0.45593999997E+02  0.45594000000E+02  0.51100000000E-03 0.  1.
    9900012    2    1    2    0    0 -0.33958337637E+01 -0.93134049874E+01  0.15887321552E+02  0.72461596567E+02  0.70000034226E+02 0.  0.
        -12    1    1    2    0    0  0.33958337637E+01  0.93134049874E+01 -0.15887321552E+02  0.18726403433E+02  0.00000000000E+00 0.  1.
         11    1    3    3    0    0 -0.81979352888E+01 -0.32420279938E+02  0.15476016081E+02  0.36848171844E+02  0.51100000000E-03 0.  1.
        -11    1    3    3    0    0  0.75683665215E+01  0.13758929651E+02  0.12509170186E+02  0.20076544920E+02  0.51100000000E-03 0. -1.
         12    1    3    3    0    0 -0.27662649963E+01  0.93479453001E+01 -0.12097864714E+02  0.15536879803E+02  0.00000000000E+00 0. -1.
</event>
<event>
 7    1  0.1830715E-013  0.7246163E+02  0.7816164E-02  0.1226708E+00
        -11   -1    0    0    0    0  0.00000000000E+00  0.00000000000E+00  0.45593999997E+02  0.45594000000E+02  0.51100000000E-03 0. -1.
         11   -1    0    0    0    0 -0.00000000000E+00 -0.00000000000E+00 -0.45593999997E+02  0.45594000000E+02  0.51100000000E-03 0.  1.
    9900012    2    1    2    0    0 -0.17265104008E+02  0.38659513368E+01  0.61357446033E+01  0.72461634684E+02  0.70000083879E+02 0.  0.
        -12    1    1    2    0    0  0.17265104008E+02 -0.38659513368E+01 -0.61357446033E+01  0.18726365316E+02  0.00000000000E+00 0.  1.
         11    1    3    3    0    0  0.75751348648E+01  0.31282642221E+00  0.82247093507E+01  0.11185990021E+02  0.51100000000E-03 0. -1.
        -11    1    3    3    0    0 -0.27873832417E+02  0.26276288196E+02 -0.18062094820E+01  0.38349136209E+02  0.51100000000E-03 0.  1.
        -12    1    3    3    0    0  0.30335935450E+01 -0.22723163282E+02 -0.28275526545E+00  0.22926508454E+02  0.00000000000E+00 0.  1.
</event>
<event>
 7    1  0.1830715E-013  0.7246182E+02  0.7816164E-02  0.1226707E+00
        -11   -1    0    0    0    0  0.00000000000E+00  0.00000000000E+00  0.45593999997E+02  0.45594000000E+02  0.51100000000E-03 0.  1.
         11   -1    0    0    0    0 -0.00000000000E+00 -0.00000000000E+00 -0.45593999997E+02  0.45594000000E+02  0.51100000000E-03 0. -1.
    9900012    2    1    2    0    0 -0.84374554956E+01  0.16445558212E+02 -0.30037779971E+01  0.72461822537E+02  0.70000328592E+02 0.  0.
        -12    1    1    2    0    0  0.84374554956E+01 -0.16445558212E+02  0.30037779971E+01  0.18726177463E+02  0.00000000000E+00 0.  1.
         11    1    3    3    0    0 -0.18994550799E+02 -0.13750581761E+02 -0.19521376099E+02  0.30511564756E+02  0.51100000000E-03 0. -1.
        -11    1    3    3    0    0  0.68589161480E+01  0.31798169326E+02  0.95523385910E+01  0.33903030484E+02  0.51100000000E-03 0.  1.
        -12    1    3    3    0    0  0.36981791552E+01 -0.16020293530E+01  0.69652595106E+01  0.80472272965E+01  0.00000000000E+00 0.  1.
</event>
<event>
 7    1  0.1830715E-013  0.7246152E+02  0.7816164E-02  0.1226708E+00
        -11   -1    0    0    0    0  0.00000000000E+00  0.00000000000E+00  0.45593999997E+02  0.45594000000E+02  0.51100000000E-03 0.  1.
         11   -1    0    0    0    0 -0.00000000000E+00 -0.00000000000E+00 -0.45593999997E+02  0.45594000000E+02  0.51100000000E-03 0. -1.
    9900012    2    1    2    0    0 -0.27704946451E+01  0.16265409492E+02 -0.88567351357E+01  0.72461522921E+02  0.69999938287E+02 0.  0.
        -12    1    1    2    0    0  0.27704946451E+01 -0.16265409492E+02  0.88567351357E+01  0.18726477079E+02  0.00000000000E+00 0.  1.
         11    1    3    3    0    0  0.52553890593E+01  0.31688691726E+02 -0.23215121145E+02  0.39632488536E+02  0.51100000000E-03 0. -1.
        -11    1    3    3    0    0 -0.49661476706E+01 -0.13258505127E+02 -0.34977888043E+01  0.14583727495E+02  0.51100000000E-03 0.  1.
         12    1    3    3    0    0 -0.30597360338E+01 -0.21647771075E+01  0.17856174814E+02  0.18245306890E+02  0.00000000000E+00 0. -1.
</event>
<event>
 7    1  0.1830715E-013  0.7246156E+02  0.7816164E-02  0.1226708E+00
        -11   -1    0    0    0    0  0.00000000000E+00  0.00000000000E+00  0.45593999997E+02  0.45594000000E+02  0.51100000000E-03 0.  1.
         11   -1    0    0    0    0 -0.00000000000E+00 -0.00000000000E+00 -0.45593999997E+02  0.45594000000E+02  0.51100000000E-03 0. -1.
    9900012    2    1    2    0    0 -0.86630560265E+01 -0.16158132898E+02  0.38139046035E+01  0.72461557017E+02  0.69999982703E+02 0.  0.
        -12    1    1    2    0    0  0.86630560265E+01  0.16158132898E+02 -0.38139046035E+01  0.18726442983E+02  0.00000000000E+00 0.  1.
         11    1    3    3    0    0  0.25023236285E+02 -0.11898671518E+02 -0.14520862647E+02  0.31282522123E+02  0.51100000000E-03 0. -1.
        -11    1    3    3    0    0 -0.53791605283E+01  0.26817813526E+01 -0.11506031304E+01  0.61197391315E+01  0.51100000000E-03 0.  1.
         12    1    3    3    0    0 -0.28307131783E+02 -0.69412427330E+01  0.19485370381E+02  0.35059295763E+02  0.00000000000E+00 0. -1.
</event>
<event>
 7    1  0.1830715E-013  0.7246157E+02  0.7816164E-02  0.1226708E+00
        -11   -1    0    0    0    0  0.00000000000E+00  0.00000000000E+00  0.45593999997E+02  0.45594000000E+02  0.51100000000E-03 0. -1.
         11   -1    0    0    0    0 -0.00000000000E+00 -0.00000000000E+00 -0.45593999997E+02  0.45594000000E+02  0.51100000000E-03 0.  1.
    9900012    2    1    2    0    0  0.15571957935E+02  0.88355487478E+01 -0.54887377615E+01  0.72461573811E+02  0.70000004581E+02 0.  0.
        -12    1    1    2    0    0 -0.15571957935E+02 -0.88355487478E+01  0.54887377615E+01  0.18726426189E+02  0.00000000000E+00 0.  1.
         11    1    3    3    0    0  0.22811524447E+02  0.34187908400E+02 -0.63667569542E+01  0.41589834367E+02  0.51100000000E-03 0.  1.
        -11    1    3    3    0    0 -0.85145493695E+01 -0.18985171031E+02 -0.57560322658E+01  0.21588565903E+02  0.51100000000E-03 0. -1.
         12    1    3    3    0    0  0.12749828579E+01 -0.63671886212E+01  0.66340514585E+01  0.92831735403E+01  0.00000000000E+00 0. -1.
</event>
<event>
 8    1  0.1830715E-013  0.7246154E+02  0.7816164E-02  0.1226708E+00
        -11   -1    0    0    0    0  0.00000000000E+00  0.00000000000E+00  0.45593999997E+02  0.45594000000E+02  0.51100000000E-03 0.  1.
         11   -1    0    0    0    0 -0.00000000000E+00 -0.00000000000E+00 -0.45593999997E+02  0.45594000000E+02  0.51100000000E-03 0. -1.
    9900012    2    1    2    0    0 -0.56460762405E+01  0.15416776830E+01 -0.17788348277E+02  0.72461540607E+02  0.69999961326E+02 0.  0.
         24    2    3    3    0    0 -0.13495731999E+02  0.10440380594E+02 -0.26222129111E+02  0.57903633187E+02  0.48724679085E+02 0.  0.
        -12    1    1    2    0    0  0.56460762405E+01 -0.15416776830E+01  0.17788348277E+02  0.18726459393E+02  0.00000000000E+00 0.  1.
         11    1    3    3    0    0  0.78496557587E+01 -0.88987029114E+01  0.84337808340E+01  0.14557907420E+02  0.51100000000E-03 0.  1.
        -11    1    4    4    0    0 -0.28539979117E+02  0.18451639263E+02 -0.21508529751E+02  0.40219525753E+02  0.51100000000E-03 0. -1.
         12    1    4    4    0    0  0.15044247118E+02 -0.80112586689E+01 -0.47135993599E+01  0.17684107434E+02  0.00000000000E+00 0. -1.
</event>
<event>
 7    1  0.1830715E-013  0.7246160E+02  0.7816164E-02  0.1226708E+00
        -11   -1    0    0    0    0  0.00000000000E+00  0.00000000000E+00  0.45593999997E+02  0.45594000000E+02  0.51100000000E-03 0. -1.
         11   -1    0    0    0    0 -0.00000000000E+00 -0.00000000000E+00 -0.45593999997E+02  0.45594000000E+02  0.51100000000E-03 0.  1.
    9900012    2    1    2    0    0 -0.22293918305E+01 -0.18792519511E+01  0.18498004410E+02  0.72461603043E+02  0.70000042662E+02 0.  0.
        -12    1    1    2    0    0  0.22293918305E+01  0.18792519511E+01 -0.18498004410E+02  0.18726396957E+02  0.00000000000E+00 0.  1.
         11    1    3    3    0    0 -0.62183708006E+01 -0.18154551766E+02  0.97499845514E+01  0.21524824837E+02  0.51100000000E-03 0. -1.
        -11    1    3    3    0    0  0.11692813532E+02 -0.32025840199E+01 -0.14989859950E+02  0.19278857183E+02  0.51100000000E-03 0.  1.
        -12    1    3    3    0    0 -0.77038345619E+01  0.19477883835E+02  0.23737879809E+02  0.31657921023E+02  0.00000000000E+00 0.  1.
</event>
<event>
 7    1  0.1830715E-013  0.7246151E+02  0.7816164E-02  0.1226708E+00
        -11   -1    0    0    0    0  0.00000000000E+00  0.00000000000E+00  0.45593999997E+02  0.45594000000E+02  0.51100000000E-03 0. -1.
         11   -1    0    0    0    0 -0.00000000000E+00 -0.00000000000E+00 -0.45593999997E+02  0.45594000000E+02  0.51100000000E-03 0.  1.
    9900012    2    1    2    0    0 -0.16060560141E+02 -0.16480871867E+01  0.94880878471E+01  0.72461505549E+02  0.69999915657E+02 0.  0.
        -12    1    1    2    0    0  0.16060560141E+02  0.16480871867E+01 -0.94880878471E+01  0.18726494451E+02  0.00000000000E+00 0.  1.
         11    1    3    3    0    0  0.24310566186E+02 -0.20893397675E+01  0.11200797067E+02  0.26848218268E+02  0.51100000000E-03 0. -1.
        -11    1    3    3    0    0 -0.17080501924E+02  0.61924369595E+01 -0.93547849464E+01  0.20435308247E+02  0.51100000000E-03 0.  1.
         12    1    3    3    0    0 -0.23290624403E+02 -0.57511843787E+01  0.76420757260E+01  0.25177979034E+02  0.00000000000E+00 0. -1.
</event>
<event>
 7    1  0.1830715E-013  0.7246161E+02  0.7816164E-02  0.1226708E+00
        -11   -1    0    0    0    0  0.00000000000E+00  0.00000000000E+00  0.45593999997E+02  0.45594000000E+02  0.51100000000E-03 0. -1.
         11   -1    0    0    0    0 -0.00000000000E+00 -0.00000000000E+00 -0.45593999997E+02  0.45594000000E+02  0.51100000000E-03 0.  1.
    9900012    2    1    2    0    0 -0.13142263659E+02 -0.12917696767E+02  0.33304069007E+01  0.72461612362E+02  0.70000054801E+02 0.  0.
        -12    1    1    2    0    0  0.13142263659E+02  0.12917696767E+02 -0.33304069007E+01  0.18726387638E+02  0.00000000000E+00 0.  1.
         11    1    3    3    0    0  0.17249278964E+01  0.68627368780E+01  0.10389716343E+02  0.12570550492E+02  0.51100000000E-03 0. -1.
        -11    1    3    3    0    0 -0.19713300698E+02 -0.31103876333E+02  0.10637050592E+02  0.38330303846E+02  0.51100000000E-03 0.  1.
        -12    1    3    3    0    0  0.48461091426E+01  0.11323442688E+02 -0.17696360034E+02  0.21560758025E+02  0.00000000000E+00 0.  1.
</event>
<event>
 7    1  0.1830715E-013  0.7246158E+02  0.7816164E-02  0.1226708E+00
        -11   -1    0    0    0    0  0.00000000000E+00  0.00000000000E+00  0.45593999997E+02  0.45594000000E+02  0.51100000000E-03 0. -1.
         11   -1    0    0    0    0 -0.00000000000E+00 -0.00000000000E+00 -0.45593999997E+02  0.45594000000E+02  0.51100000000E-03 0.  1.
    9900012    2    1    2    0    0 -0.33882784514E-01  0.72515717510E+01  0.17265356270E+02  0.72461575674E+02  0.70000007009E+02 0.  0.
        -12    1    1    2    0    0  0.33882784514E-01 -0.72515717510E+01 -0.17265356270E+02  0.18726424326E+02  0.00000000000E+00 0.  1.
         11    1    3    3    0    0 -0.24032327426E+02 -0.14383551161E+02  0.93248041375E+01  0.29519337357E+02  0.51100000000E-03 0. -1.
        -11    1    3    3    0    0  0.24287894945E+02  0.16174527469E+02 -0.43376535332E+01  0.29501396885E+02  0.51100000000E-03 0.  1.
        -12    1    3    3    0    0 -0.28945030326E+00  0.54605954429E+01  0.12278205665E+02  0.13440841433E+02  0.00000000000E+00 0.  1.
</event>
<event>
 7    1  0.1830715E-013  0.7246160E+02  0.7816164E-02  0.1226708E+00
        -11   -1    0    0    0    0  0.00000000000E+00  0.00000000000E+00  0.45593999997E+02  0.45594000000E+02  0.51100000000E-03 0.  1.
         11   -1    0    0    0    0 -0.00000000000E+00 -0.00000000000E+00 -0.45593999997E+02  0.45594000000E+02  0.51100000000E-03 0. -1.
    9900012    2    1    2    0    0 -0.22960472144E+01  0.14817548190E+02 -0.11218136421E+02  0.72461597464E+02  0.70000035393E+02 0.  0.
        -12    1    1    2    0    0  0.22960472144E+01 -0.14817548190E+02  0.11218136421E+02  0.18726402536E+02  0.00000000000E+00 0.  1.
         11    1    3    3    0    0  0.58391762760E+01 -0.18649856248E+02 -0.33689779815E+01  0.19830863081E+02  0.51100000000E-03 0.  1.
        -11    1    3    3    0    0 -0.23512535083E+02  0.17589664064E+02 -0.60382881623E+00  0.29370056135E+02  0.51100000000E-03 0. -1.
         12    1    3    3    0    0  0.15377311592E+02  0.15877740374E+02 -0.72453296231E+01  0.23260678248E+02  0.00000000000E+00 0. -1.
</event>
<event>
 7    1  0.1830715E-013  0.7246156E+02  0.7816164E-02  0.1226708E+00
        -11   -1    0    0    0    0  0.00000000000E+00  0.00000000000E+00  0.45593999997E+02  0.45594000000E+02  0.51100000000E-03 0. -1.
         11   -1    0    0    0    0 -0.00000000000E+00 -0.00000000000E+00 -0.45593999997E+02  0.45594000000E+02  0.51100000000E-03 0.  1.
    9900012    2    1    2    0    0  0.12732649935E+02 -0.13487965934E+02  0.25756569792E+01  0.72461558580E+02  0.69999984739E+02 0.  0.
        -12    1    1    2    0    0 -0.12732649935E+02  0.13487965934E+02 -0.25756569792E+01  0.18726441420E+02  0.00000000000E+00 0.  1.
         11    1    3    3    0    0 -0.11315909414E+02 -0.23322797065E+02  0.23964860580E+02  0.35303218149E+02  0.51100000000E-03 0. -1.
        -11    1    3    3    0    0  0.14625422686E+02  0.13849355770E+02 -0.14223314596E+02  0.24657865324E+02  0.51100000000E-03 0.  1.
         12    1    3    3    0    0  0.94231366634E+01 -0.40145246386E+01 -0.71658890046E+01  0.12500475106E+02  0.00000000000E+00 0. -1.
</event>
<event>
 7    1  0.1830715E-013  0.7246159E+02  0.7816164E-02  0.1226708E+00
        -11   -1    0    0    0    0  0.00000000000E+00  0.00000000000E+00  0.45593999997E+02  0.45594000000E+02  0.51100000000E-03 0.  1.
         11   -1    0    0    0    0 -0.00000000000E+00 -0.00000000000E+00 -0.45593999997E+02  0.45594000000E+02  0.51100000000E-03 0. -1.
    9900012    2    1    2    0    0 -0.11018498753E+02 -0.74488760242E+01 -0.13182770979E+02  0.72461587651E+02  0.70000022610E+02 0.  0.
        -12    1    1    2    0    0  0.11018498753E+02  0.74488760242E+01  0.13182770979E+02  0.18726412349E+02  0.00000000000E+00 0.  1.
         11    1    3    3    0    0 -0.34722748407E+02  0.15707322945E+01  0.88332632233E+01  0.35863114705E+02  0.51100000000E-03 0. -1.
        -11    1    3    3    0    0  0.14722942069E+02 -0.10448783599E+02 -0.76762653492E+01  0.19618031294E+02  0.51100000000E-03 0.  1.
        -12    1    3    3    0    0  0.89813075854E+01  0.14291752806E+01 -0.14339768853E+02  0.16980441652E+02  0.00000000000E+00 0.  1.
</event>
<event>
 7    1  0.1830715E-013  0.7246159E+02  0.7816164E-02  0.1226708E+00
        -11   -1    0    0    0    0  0.00000000000E+00  0.00000000000E+00  0.45593999997E+02  0.45594000000E+02  0.51100000000E-03 0. -1.
         11   -1    0    0    0    0 -0.00000000000E+00 -0.00000000000E+00 -0.45593999997E+02  0.45594000000E+02  0.51100000000E-03 0.  1.
    9900012    2    1    2    0    0 -0.13128559089E+02  0.94174867705E+00  0.13320382173E+02  0.72461587222E+02  0.70000022051E+02 0.  0.
        -12    1    1    2    0    0  0.13128559089E+02 -0.94174867705E+00 -0.13320382173E+02  0.18726412778E+02  0.00000000000E+00 0.  1.
         11    1    3    3    0    0  0.13438824135E+02  0.92448069707E+01  0.12121787036E+02  0.20322553266E+02  0.51100000000E-03 0. -1.
        -11    1    3    3    0    0 -0.21474354718E+02 -0.19994764628E+02  0.15329111570E+02  0.33104685240E+02  0.51100000000E-03 0.  1.
        -12    1    3    3    0    0 -0.50930285053E+01  0.11691706334E+02 -0.14130516432E+02  0.19034348715E+02  0.00000000000E+00 0.  1.
</event>
<event>
 7    1  0.1830715E-013  0.7246155E+02  0.7816164E-02  0.1226708E+00
        -11   -1    0    0    0    0  0.00000000000E+00  0.00000000000E+00  0.45593999997E+02  0.45594000000E+02  0.51100000000E-03 0.  1.
         11   -1    0    0    0    0 -0.00000000000E+00 -0.00000000000E+00 -0.45593999997E+02  0.45594000000E+02  0.51100000000E-03 0. -1.
    9900012    2    1    2    0    0 -0.21188204230E+00 -0.16081091804E+02 -0.95934112866E+01  0.72461549516E+02  0.69999972933E+02 0.  0.
        -12    1    1    2    0    0  0.21188204230E+00  0.16081091804E+02  0.95934112866E+01  0.18726450484E+02  0.00000000000E+00 0.  1.
         11    1    3    3    0    0  0.62854260758E+01 -0.15750607024E+02 -0.73027752423E+01  0.18463984648E+02  0.51100000000E-03 0. -1.
        -11    1    3    3    0    0 -0.42911893399E+01  0.20998312011E+02 -0.17532389399E+02  0.27689855391E+02  0.51100000000E-03 0.  1.
        -12    1    3    3    0    0 -0.22061187782E+01 -0.21328796790E+02  0.15241753355E+02  0.26307709477E+02  0.00000000000E+00 0.  1.
</event>
<event>
 7    1  0.1830715E-013  0.7246157E+02  0.7816164E-02  0.1226708E+00
        -11   -1    0    0    0    0  0.00000000000E+00  0.00000000000E+00  0.45593999997E+02  0.45594000000E+02  0.51100000000E-03 0. -1.
         11   -1    0    0    0    0 -0.00000000000E+00 -0.00000000000E+00 -0.45593999997E+02  0.45594000000E+02  0.51100000000E-03 0.  1.
    9900012    2    1    2    0    0 -0.37842848479E+01 -0.17975343323E+02  0.36394175432E+01  0.72461571097E+02  0.70000001046E+02 0.  0.
        -12    1    1    2    0    0  0.37842848479E+01  0.17975343323E+02 -0.36394175432E+01  0.18726428903E+02  0.00000000000E+00 0.  1.
         11    1    3    3    0    0 -0.20611147307E+02 -0.50191762159E+01  0.11754862250E+01  0.21246018246E+02  0.51100000000E-03 0. -1.
        -11    1    3    3    0    0  0.14170007570E+02 -0.47385490309E+01  0.23854400346E+02  0.28147386692E+02  0.51100000000E-03 0.  1.
        -12    1    3    3    0    0  0.26568548884E+01 -0.82176180766E+01 -0.21390469027E+02  0.23068166159E+02  0.00000000000E+00 0.  1.
</event>
<event>
 7    1  0.1830715E-013  0.7246156E+02  0.7816164E-02  0.1226708E+00
        -11   -1    0    0    0    0  0.00000000000E+00  0.00000000000E+00  0.45593999997E+02  0.45594000000E+02  0.51100000000E-03 0.  1.
         11   -1    0    0    0    0 -0.00000000000E+00 -0.00000000000E+00 -0.45593999997E+02  0.45594000000E+02  0.51100000000E-03 0. -1.
    9900012    2    1    2    0    0 -0.11807946804E+02  0.64054466634E+01 -0.13046926007E+02  0.72461557922E+02  0.69999983882E+02 0.  0.
        -12    1    1    2    0    0  0.11807946804E+02 -0.64054466634E+01  0.13046926007E+02  0.18726442078E+02  0.00000000000E+00 0.  1.
         11    1    3    3    0    0 -0.13886714527E+02 -0.87024829456E+00  0.23400503698E+02  0.27224653277E+02  0.51100000000E-03 0. -1.
        -11    1    3    3    0    0  0.23426617748E+01  0.16952909576E+02 -0.23288190386E+02  0.28900329047E+02  0.51100000000E-03 0.  1.
         12    1    3    3    0    0 -0.26389405149E+00 -0.96772146179E+01 -0.13159239319E+02  0.16336575598E+02  0.00000000000E+00 0. -1.
</event>
<event>
 7    1  0.1830715E-013  0.7246151E+02  0.7816164E-02  0.1226708E+00
        -11   -1    0    0    0    0  0.00000000000E+00  0.00000000000E+00  0.45593999997E+02  0.45594000000E+02  0.51100000000E-03 0. -1.
         11   -1    0    0    0    0 -0.00000000000E+00 -0.00000000000E+00 -0.45593999997E+02  0.45594000000E+02  0.51100000000E-03 0.  1.
    9900012    2    1    2    0    0  0.18183009791E+02 -0.31046779054E+00  0.44680173580E+01  0.72461510355E+02  0.69999921918E+02 0.  0.
        -12    1    1    2    0    0 -0.18183009791E+02  0.31046779054E+00 -0.44680173580E+01  0.18726489645E+02  0.00000000000E+00 0.  1.
         11    1    3    3    0    0  0.27630954441E+02 -0.10098756354E+02  0.17713067351E+01  0.29471885774E+02  0.51100000000E-03 0. -1.
        -11    1    3    3    0    0 -0.10114118908E+02 -0.78569414856E+01  0.16278465274E+02  0.20712686034E+02  0.51100000000E-03 0.  1.
        -12    1    3    3    0    0  0.66617425798E+00  0.17645230049E+02 -0.13581754652E+02  0.22276938547E+02  0.00000000000E+00 0.  1.
</event>
